<LesHouchesEvents version="3.0">
<header>
<!--
#*********************************************************************
#                                                                    *
#                        MadGraph5_aMC@NLO                           *
#                                                                    *
#                           Going Beyond                             *
#                                                                    *
#                   http://madgraph.hep.uiuc.edu                     *
#                   http://madgraph.phys.ucl.ac.be                   *
#                   http://amcatnlo.cern.ch                          *
#                                                                    *
#                     The MadGraph5_aMC@NLO team                     *
#                                                                    *
#....................................................................*
#                                                                    *
# This file contains all the information necessary to reproduce      *
# the events generated:                                              *
#                                                                    *
# 1. software version                                                *
# 2. proc_card          : code generation info including model       *
# 3. param_card         : model primary parameters in the LH format  *
# 4. run_card           : running parameters (collider and cuts)     *
# 5. pythia_card        : present only if pythia has been run        *
# 6. pgs_card           : present only if pgs has been run           *
# 7. delphes_cards      : present only if delphes has been run       *
#                                                                    *
#                                                                    *
#*********************************************************************
-->
<MGVersion>
#5.2.2.3
</MGVersion>
<MG5ProcCard>
#************************************************************
#*                     MadGraph5_aMC@NLO                    *
#*                                                          *
#*                *                       *                 *
#*                  *        * *        *                   *
#*                    * * * * 5 * * * *                     *
#*                  *        * *        *                   *
#*                *                       *                 *
#*                                                          *
#*                                                          *
#*         VERSION 2.2.3                 2015-02-10         *
#*                                                          *
#*    The MadGraph5_aMC@NLO Development Team - Find us at   *
#*    https://server06.fynu.ucl.ac.be/projects/madgraph     *
#*                                                          *
#************************************************************
#*                                                          *
#*               Command File for MadGraph5_aMC@NLO         *
#*                                                          *
#*     run as ./bin/mg5_aMC  filename                       *
#*                                                          *
#************************************************************
set group_subprocesses Auto
set ignore_six_quark_processes False
set loop_optimized_output True
set gauge unitary
set complex_mass_scheme False
import model sm
define p = g u c d s u~ c~ d~ s~
define j = g u c d s u~ c~ d~ s~
define l+ = e+ mu+
define l- = e- mu-
define vl = ve vm vt
define vl~ = ve~ vm~ vt~
import model Zprime_UFO
generate p p > zph, zph > j j
add process p p > zph, zph > b b~
output Dijet_signal
</MG5ProcCard>
<MGProcCard>
#*********************************************************************
#                        MadGraph/MadEvent                           *
#                   http://madgraph.hep.uiuc.edu                     *
#                                                                    *
#                          proc_card.dat                             *
#*********************************************************************
#                                                                    *
#            This Files is generated by MADGRAPH 5                   *
#                                                                    *
# WARNING: This Files is generated for MADEVENT (compatibility issue)*
#          This files is NOT a valid MG4 proc_card.dat               *
#          Running this in MG4 will NEVER reproduce the result of MG5*
#                                                                    *
#*********************************************************************
#*********************************************************************
# Process(es) requested : mg2 input                                  *
#*********************************************************************
# Begin PROCESS # This is TAG. Do not modify this line
p p > zph , zph > j j           #Process
# Be carefull the coupling are here in MG5 convention
          
end_coup           # End the couplings input

done               # this tells MG there are no more procs
# End PROCESS  # This is TAG. Do not modify this line
#*********************************************************************
# Model information                                                  *
#*********************************************************************
# Begin MODEL  # This is TAG. Do not modify this line
Zprime_UFO
# End   MODEL  # This is TAG. Do not modify this line
#*********************************************************************
# Start multiparticle definitions                                    *
#*********************************************************************
# Begin MULTIPARTICLES # This is TAG. Do not modify this line

# End  MULTIPARTICLES # This is TAG. Do not modify this line
</MGProcCard>
<MGRunCard>
#*********************************************************************
#                       MadGraph5_aMC@NLO                            *
#                                                                    *
#                     run_card.dat MadEvent                          *
#                                                                    *
#  This file is used to set the parameters of the run.               *
#                                                                    *
#  Some notation/conventions:                                        *
#                                                                    *
#   Lines starting with a '# ' are info or comments                  *
#                                                                    *
#   mind the format:   value    = variable     ! comment             *
#*********************************************************************
#
#*******************                                                 
# Running parameters
#*******************                                                 
#                                                                    
#*********************************************************************
# Tag name for the run (one word)                                    *
#*********************************************************************
  tag_1     = run_tag ! name of the run 
#*********************************************************************
# Run to generate the grid pack                                      *
#*********************************************************************
  .false.     = gridpack  !True = setting up the grid pack
#*********************************************************************
# Number of events and rnd seed                                      *
# Warning: Do not generate more than 1M events in a single run       *
# If you want to run Pythia, avoid more than 50k events in a run.    *
#*********************************************************************
  2000 = nevents ! Number of unweighted events requested 
 2145 = iseed   ! rnd seed (0=assigned automatically=default))
#*********************************************************************
# Collider type and energy                                           *
# lpp: 0=No PDF, 1=proton, -1=antiproton, 2=photon from proton,      *
#                                         3=photon from electron     *
#*********************************************************************
        1     = lpp1    ! beam 1 type 
        1     = lpp2    ! beam 2 type
     4000     = ebeam1  ! beam 1 total energy in GeV
     4000     = ebeam2  ! beam 2 total energy in GeV
#*********************************************************************
# Beam polarization from -100 (left-handed) to 100 (right-handed)    *
#*********************************************************************
        0     = polbeam1 ! beam polarization for beam 1
        0     = polbeam2 ! beam polarization for beam 2
#*********************************************************************
# PDF CHOICE: this automatically fixes also alpha_s and its evol.    *
#*********************************************************************
 'nn23lo1'    = pdlabel     ! PDF set                                     
 230000    = lhaid     ! if pdlabel=lhapdf, this is the lhapdf number
#*********************************************************************
# Renormalization and factorization scales                           *
#*********************************************************************
 F        = fixed_ren_scale  ! if .true. use fixed ren scale
 F        = fixed_fac_scale  ! if .true. use fixed fac scale
 91.1880  = scale            ! fixed ren scale
 91.1880  = dsqrt_q2fact1    ! fixed fact scale for pdf1
 91.1880  = dsqrt_q2fact2    ! fixed fact scale for pdf2
 1        = scalefact        ! scale factor for event-by-event scales
#*********************************************************************
# Matching - Warning! ickkw > 1 is still beta
#*********************************************************************
 0        = ickkw            ! 0 no matching, 1 MLM, 2 CKKW matching
 1        = highestmult      ! for ickkw=2, highest mult group
 1        = ktscheme         ! for ickkw=1, 1 Durham kT, 2 Pythia pTE
 1        = alpsfact         ! scale factor for QCD emission vx
 F        = chcluster        ! cluster only according to channel diag
 T        = pdfwgt           ! for ickkw=1, perform pdf reweighting
 5        = asrwgtflavor     ! highest quark flavor for a_s reweight
 T        = clusinfo         ! include clustering tag in output
 3.0      = lhe_version       ! Change the way clustering information pass to shower.        
#*********************************************************************
#**********************************************************
#
#**********************************************************
# Automatic ptj and mjj cuts if xqcut > 0
# (turn off for VBF and single top processes)
#**********************************************************
   T  = auto_ptj_mjj  ! Automatic setting of ptj and mjj
#**********************************************************
#                                                                    
#**********************************
# BW cutoff (M+/-bwcutoff*Gamma)
#**********************************
  15  = bwcutoff      ! (M+/-bwcutoff*Gamma)
#**********************************************************
# Apply pt/E/eta/dr/mij cuts on decay products or not
# (note that etmiss/ptll/ptheavy/ht/sorted cuts always apply)
#**********************************************************
   T  = cut_decays    ! Cut decay products 
#*************************************************************
# Number of helicities to sum per event (0 = all helicities)
# 0 gives more stable result, but longer run time (needed for
# long decay chains e.g.).
# Use >=2 if most helicities contribute, e.g. pure QCD.
#*************************************************************
   0  = nhel          ! Number of helicities used per event
#*******************                                                 
# Standard Cuts
#*******************                                                 
#                                                                    
#*********************************************************************
# Minimum and maximum pt's (for max, -1 means no cut)                *
#*********************************************************************
 20  = ptj       ! minimum pt for the jets 
  0  = ptb       ! minimum pt for the b 
 10  = pta       ! minimum pt for the photons 
 10  = ptl       ! minimum pt for the charged leptons 
  0  = misset    ! minimum missing Et (sum of neutrino's momenta)
  0  = ptheavy   ! minimum pt for one heavy final state
 1.0 = ptonium   ! minimum pt for the quarkonium states
 -1  = ptjmax    ! maximum pt for the jets
 -1  = ptbmax    ! maximum pt for the b
 -1  = ptamax    ! maximum pt for the photons
 -1  = ptlmax    ! maximum pt for the charged leptons
 -1  = missetmax ! maximum missing Et (sum of neutrino's momenta)
#*********************************************************************
# Minimum and maximum E's (in the center of mass frame)              *
#*********************************************************************
  0  = ej     ! minimum E for the jets 
  0  = eb     ! minimum E for the b 
  0  = ea     ! minimum E for the photons 
  0  = el     ! minimum E for the charged leptons 
 -1   = ejmax ! maximum E for the jets
 -1   = ebmax ! maximum E for the b
 -1   = eamax ! maximum E for the photons
 -1   = elmax ! maximum E for the charged leptons
#*********************************************************************
# Maximum and minimum absolute rapidity (for max, -1 means no cut)   *
#*********************************************************************
   5  = etaj    ! max rap for the jets 
  -1  = etab    ! max rap for the b
 2.5  = etaa    ! max rap for the photons 
 2.5  = etal    ! max rap for the charged leptons 
 0.6  = etaonium ! max rap for the quarkonium states
   0  = etajmin ! min rap for the jets
   0  = etabmin ! min rap for the b
   0  = etaamin ! min rap for the photons
   0  = etalmin ! main rap for the charged leptons
#*********************************************************************
# Minimum and maximum DeltaR distance                                *
#*********************************************************************
 0.4 = drjj    ! min distance between jets 
 0   = drbb    ! min distance between b's 
 0.4 = drll    ! min distance between leptons 
 0.4 = draa    ! min distance between gammas 
 0   = drbj    ! min distance between b and jet 
 0.4 = draj    ! min distance between gamma and jet 
 0.4 = drjl    ! min distance between jet and lepton 
 0   = drab    ! min distance between gamma and b 
 0   = drbl    ! min distance between b and lepton 
 0.4 = dral    ! min distance between gamma and lepton 
 -1  = drjjmax ! max distance between jets
 -1  = drbbmax ! max distance between b's
 -1  = drllmax ! max distance between leptons
 -1  = draamax ! max distance between gammas
 -1  = drbjmax ! max distance between b and jet
 -1  = drajmax ! max distance between gamma and jet
 -1  = drjlmax ! max distance between jet and lepton
 -1  = drabmax ! max distance between gamma and b
 -1  = drblmax ! max distance between b and lepton
 -1  = dralmax ! maxdistance between gamma and lepton
#*********************************************************************
# Minimum and maximum invariant mass for pairs                       *
# WARNING: for four lepton final state mmll cut require to have      *
#          different lepton masses for each flavor!                  *           
#*********************************************************************
 0   = mmjj    ! min invariant mass of a jet pair 
 0   = mmbb    ! min invariant mass of a b pair 
 0   = mmaa    ! min invariant mass of gamma gamma pair
 0   = mmll    ! min invariant mass of l+l- (same flavour) lepton pair
 -1  = mmjjmax ! max invariant mass of a jet pair
 -1  = mmbbmax ! max invariant mass of a b pair
 -1  = mmaamax ! max invariant mass of gamma gamma pair
 -1  = mmllmax ! max invariant mass of l+l- (same flavour) lepton pair
#*********************************************************************
# Minimum and maximum invariant mass for all letpons                 *
#*********************************************************************
 0   = mmnl    ! min invariant mass for all letpons (l+- and vl) 
 -1  = mmnlmax ! max invariant mass for all letpons (l+- and vl) 
#*********************************************************************
# Minimum and maximum pt for 4-momenta sum of leptons                *
#*********************************************************************
 0   = ptllmin  ! Minimum pt for 4-momenta sum of leptons(l and vl)
 -1  = ptllmax  ! Maximum pt for 4-momenta sum of leptons(l and vl)
#*********************************************************************
# Inclusive cuts                                                     *
#*********************************************************************
 0  = xptj ! minimum pt for at least one jet  
 0  = xptb ! minimum pt for at least one b 
 0  = xpta ! minimum pt for at least one photon 
 0  = xptl ! minimum pt for at least one charged lepton 
#*********************************************************************
# Control the pt's of the jets sorted by pt                          *
#*********************************************************************
 0   = ptj1min ! minimum pt for the leading jet in pt
 0   = ptj2min ! minimum pt for the second jet in pt
 0   = ptj3min ! minimum pt for the third jet in pt
 0   = ptj4min ! minimum pt for the fourth jet in pt
 -1  = ptj1max ! maximum pt for the leading jet in pt 
 -1  = ptj2max ! maximum pt for the second jet in pt
 -1  = ptj3max ! maximum pt for the third jet in pt
 -1  = ptj4max ! maximum pt for the fourth jet in pt
 0   = cutuse  ! reject event if fails any (0) / all (1) jet pt cuts
#*********************************************************************
# Control the pt's of leptons sorted by pt                           *
#*********************************************************************
 0   = ptl1min ! minimum pt for the leading lepton in pt
 0   = ptl2min ! minimum pt for the second lepton in pt
 0   = ptl3min ! minimum pt for the third lepton in pt
 0   = ptl4min ! minimum pt for the fourth lepton in pt
 -1  = ptl1max ! maximum pt for the leading lepton in pt 
 -1  = ptl2max ! maximum pt for the second lepton in pt
 -1  = ptl3max ! maximum pt for the third lepton in pt
 -1  = ptl4max ! maximum pt for the fourth lepton in pt
#*********************************************************************
# Control the Ht(k)=Sum of k leading jets                            *
#*********************************************************************
 0   = htjmin ! minimum jet HT=Sum(jet pt)
 -1  = htjmax ! maximum jet HT=Sum(jet pt)
 0   = ihtmin  !inclusive Ht for all partons (including b)
 -1  = ihtmax  !inclusive Ht for all partons (including b)
 0   = ht2min ! minimum Ht for the two leading jets
 0   = ht3min ! minimum Ht for the three leading jets
 0   = ht4min ! minimum Ht for the four leading jets
 -1  = ht2max ! maximum Ht for the two leading jets
 -1  = ht3max ! maximum Ht for the three leading jets
 -1  = ht4max ! maximum Ht for the four leading jets
#***********************************************************************
# Photon-isolation cuts, according to hep-ph/9801442                   *
# When ptgmin=0, all the other parameters are ignored                  *
# When ptgmin>0, pta and draj are not going to be used                 *
#***********************************************************************
   0 = ptgmin ! Min photon transverse momentum
 0.4 = R0gamma ! Radius of isolation code
 1.0 = xn ! n parameter of eq.(3.4) in hep-ph/9801442
 1.0 = epsgamma ! epsilon_gamma parameter of eq.(3.4) in hep-ph/9801442
 .true. = isoEM ! isolate photons from EM energy (photons and leptons)
#*********************************************************************
# WBF cuts                                                           *
#*********************************************************************
 0   = xetamin ! minimum rapidity for two jets in the WBF case  
 0   = deltaeta ! minimum rapidity for two jets in the WBF case 
#*********************************************************************
# KT DURHAM CUT                                                      *
#*********************************************************************
 -1    =  ktdurham        
 0.4  =  dparameter 
#*********************************************************************
# maximal pdg code for quark to be considered as a light jet         *
# (otherwise b cuts are applied)                                     *
#*********************************************************************
 4 = maxjetflavor    ! Maximum jet pdg code
#*********************************************************************
# Jet measure cuts                                                   *
#*********************************************************************
 0   = xqcut   ! minimum kt jet measure between partons
#*********************************************************************
#
#*********************************************************************
# Store info for systematics studies                                 *
# WARNING: If use_syst is T, matched Pythia output is                *
#          meaningful ONLY if plotted taking matchscale              *
#          reweighting into account!                                 *
#*********************************************************************
   F  = use_syst      ! Enable systematics studies
#
#**************************************
# Parameter of the systematics study
#  will be used by SysCalc (if installed)
#**************************************                                  
#
0.5 1 2 = sys_scalefact  # factorization/renormalization scale factor
0.5 1 2 = sys_alpsfact  # \alpha_s emission scale factors
30 50 = sys_matchscale # variation of merging scale
# PDF sets and number of members (0 or none for all members).
CT10nlo.LHgrid = sys_pdf # matching scales
# MSTW2008nlo68cl.LHgrid 1  = sys_pdf
</MGRunCard>
<slha>
######################################################################
## PARAM_CARD AUTOMATICALY GENERATED BY MG5 FOLLOWING UFO MODEL   ####
######################################################################
##                                                                  ##
##  Width set on Auto will be computed following the information    ##
##        present in the decay.py files of the model.               ##
##        See  arXiv:1402.1178 for more details.                    ##
##                                                                  ##
######################################################################

###################################
## INFORMATION FOR CKMBLOCK
###################################
Block ckmblock 
    1 2.277360e-01 # cabi 

###################################
## INFORMATION FOR FRBLOCK
###################################
Block frblock 
    1 1.200000e+00 # gz 

###################################
## INFORMATION FOR MASS
###################################
Block mass 
    1 5.040000e-03 # MD 
    2 2.550000e-03 # MU 
    3 1.010000e-01 # MS 
    4 1.270000e+00 # MC 
    5 4.700000e+00 # MB 
    6 1.720000e+02 # MT 
   11 5.110000e-04 # Me 
   13 1.056600e-01 # MM 
   15 1.777000e+00 # MTA 
   23 9.118760e+01 # MZ 
   25 1.200000e+02 # MH 
  10030 8.000000e+02 # MZph 
  10031 3.000000e+02 # MZpl 
## Dependent parameters, given by model restrictions.
## Those values should be edited following the 
## analytical expression. MG5 ignores those values 
## but they are important for interfacing the output of MG5
## to external program such as Pythia.
  12 0.000000 # ve : 0.0 
  14 0.000000 # vm : 0.0 
  16 0.000000 # vt : 0.0 
  21 0.000000 # g : 0.0 
  22 0.000000 # a : 0.0 
  24 79.824360 # w+ : cmath.sqrt(MZ__exp__2/2. + cmath.sqrt(MZ__exp__4/4. - (aEW*cmath.pi*MZ__exp__2)/(Gf*sqrt__2))) 

###################################
## INFORMATION FOR SMINPUTS
###################################
Block sminputs 
    1 1.279000e+02 # aEWM1 
    2 1.166370e-05 # Gf 
    3 1.184000e-01 # aS 

###################################
## INFORMATION FOR YUKAWA
###################################
Block yukawa 
    1 5.040000e-03 # ymdo 
    2 2.550000e-03 # ymup 
    3 1.010000e-01 # yms 
    4 1.270000e+00 # ymc 
    5 4.700000e+00 # ymb 
    6 1.720000e+02 # ymt 
   11 5.110000e-04 # yme 
   13 1.056600e-01 # ymm 
   15 1.777000e+00 # ymtau 

###################################
## INFORMATION FOR DECAY
###################################
DECAY   6 1.508336e+00 # WT 
DECAY  23 2.495200e+00 # WZ 
DECAY  24 2.085000e+00 # WW 
DECAY  25 5.753088e-03 # WH 
## Dependent parameters, given by model restrictions.
## Those values should be edited following the 
## analytical expression. MG5 ignores those values 
## but they are important for interfacing the output of MG5
## to external program such as Pythia.
DECAY  1 0.000000 # d : 0.0 
DECAY  2 0.000000 # u : 0.0 
DECAY  3 0.000000 # s : 0.0 
DECAY  4 0.000000 # c : 0.0 
DECAY  5 0.000000 # b : 0.0 
DECAY  11 0.000000 # e- : 0.0 
DECAY  12 0.000000 # ve : 0.0 
DECAY  13 0.000000 # mu- : 0.0 
DECAY  14 0.000000 # vm : 0.0 
DECAY  15 0.000000 # ta- : 0.0 
DECAY  16 0.000000 # vt : 0.0 
DECAY  21 0.000000 # g : 0.0 
DECAY  22 0.000000 # a : 0.0 
DECAY  10030 0.308725 # zph : (gz__exp__2*MZph*(5 + cmath.sqrt(1 - (4*MT__exp__2)/MZph__exp__2)))/(144.*cmath.pi) 
DECAY  10031 0.132629 # zpl : (5*gz__exp__2*MZpl)/(144.*cmath.pi) 
#===========================================================
# QUANTUM NUMBERS OF NEW STATE(S) (NON SM PDG CODE)
#===========================================================

Block QNUMBERS 10030  # zph 
        1 0  # 3 times electric charge
        2 3  # number of spin states (2S+1)
        3 1  # colour rep (1: singlet, 3: triplet, 8: octet)
        4 0  # Particle/Antiparticle distinction (0=own anti)
Block QNUMBERS 10031  # zpl 
        1 0  # 3 times electric charge
        2 3  # number of spin states (2S+1)
        3 1  # colour rep (1: singlet, 3: triplet, 8: octet)
        4 0  # Particle/Antiparticle distinction (0=own anti)
</slha>
## END BANNER##
<MGGenerationInfo>
#  Number of Events        :         4090
#  Integrated weight (pb)  :  0.79353E+01
#  Max wgt                 :  0.25718E-02
#  Average wgt             :  0.19402E-02
</MGGenerationInfo>
</header>
<init>
     2212     2212  0.40000000000E+04  0.40000000000E+04 0 0  247000  247000 2   1
  0.79195975245E+01  0.14497255761E-01  0.25717780000E-02   0
</init>
<event>
 5   0  0.2571778E-02  0.7819936E+03  0.7818609E-02  0.9586453E-01
        2   -1    0    0  501    0  0.00000000000E+00  0.00000000000E+00  0.25738107512E+03  0.25738107513E+03  0.25500000920E-02 0.  1.
       -2   -1    0    0    0  501  0.00000000000E+00  0.00000000000E+00 -0.59397723313E+03  0.59397723314E+03  0.25500000920E-02 0. -1.
    10030    2    1    2    0    0  0.00000000000E+00  0.00000000000E+00 -0.33659615802E+03  0.85135830827E+03  0.78199360321E+03 0.  0.
        1    1    3    3  502    0 -0.30227877438E+03  0.21497830459E+03 -0.33675416734E+02  0.37245424229E+03  0.50400001928E-02 0. -1.
       -1    1    3    3    0  502  0.30227877438E+03 -0.21497830459E+03 -0.30292074128E+03  0.47890406598E+03  0.50400001928E-02 0.  1.
</event>
<event>
 5   0  0.9919125E-03  0.7965784E+03  0.7818609E-02  0.9564983E-01
       -3   -1    0    0    0  501  0.00000000000E+00  0.00000000000E+00  0.71989107988E+03  0.71989108697E+03  0.10100000352E+00 0. -1.
        3   -1    0    0  501    0  0.00000000000E+00  0.00000000000E+00 -0.22035870125E+03  0.22035872440E+03  0.10100000352E+00 0.  1.
    10030    2    1    2    0    0  0.00000000000E+00  0.00000000000E+00  0.49953237863E+03  0.94024981137E+03  0.79657837686E+03 0.  0.
        5    1    3    3  502    0 -0.17503228424E+03 -0.28387307320E+03 -0.71947443357E+01  0.33360766862E+03  0.46999998093E+01 0.  1.
       -5    1    3    3    0  502  0.17503228424E+03  0.28387307320E+03  0.50672712296E+03  0.60664214275E+03  0.46999998093E+01 0. -1.
</event>
<event>
 5   0  0.2571778E-02  0.7530676E+03  0.7818609E-02  0.9630550E-01
        2   -1    0    0  501    0  0.00000000000E+00  0.00000000000E+00  0.30299162311E+03  0.30299162312E+03  0.25500000920E-02 0.  1.
       -2   -1    0    0    0  501  0.00000000000E+00  0.00000000000E+00 -0.46792619842E+03  0.46792619843E+03  0.25500000920E-02 0. -1.
    10030    2    1    2    0    0  0.00000000000E+00  0.00000000000E+00 -0.16493457531E+03  0.77091782155E+03  0.75306764202E+03 0.  0.
        1    1    3    3  502    0  0.25020553947E+03 -0.13805976061E+02 -0.37017035288E+03  0.44701175279E+03  0.50400001928E-02 0. -1.
       -1    1    3    3    0  502 -0.25020553947E+03  0.13805976061E+02  0.20523577757E+03  0.32390606876E+03  0.50400001928E-02 0.  1.
</event>
<event>
 5   0  0.2464780E-02  0.8473787E+03  0.7818609E-02  0.9493862E-01
        2   -1    0    0  501    0  0.00000000000E+00  0.00000000000E+00  0.26441269901E+03  0.26441269902E+03  0.25500000920E-02 0. -1.
       -2   -1    0    0    0  501  0.00000000000E+00  0.00000000000E+00 -0.67891084366E+03  0.67891084367E+03  0.25500000920E-02 0.  1.
    10030    2    1    2    0    0  0.00000000000E+00  0.00000000000E+00 -0.41449814465E+03  0.94332354269E+03  0.84737866050E+03 0.  0.
        3    1    3    3  502    0  0.15007684203E+03  0.16476722578E+03  0.19388508702E+03  0.29540266481E+03  0.10100000352E+00 0. -1.
       -3    1    3    3    0  502 -0.15007684203E+03 -0.16476722578E+03 -0.60838323168E+03  0.64792087788E+03  0.10100000352E+00 0.  1.
</event>
<event>
 5   0  0.2571778E-02  0.8590710E+03  0.7818609E-02  0.9478242E-01
       -2   -1    0    0    0  501  0.00000000000E+00  0.00000000000E+00  0.15620131949E+03  0.15620131951E+03  0.25500000920E-02 0.  1.
        2   -1    0    0  501    0  0.00000000000E+00  0.00000000000E+00 -0.11811727916E+04  0.11811727916E+04  0.25500000920E-02 0. -1.
    10030    2    1    2    0    0  0.00000000000E+00  0.00000000000E+00 -0.10249714721E+04  0.13373741111E+04  0.85907100662E+03 0.  0.
        1    1    3    3  502    0  0.12202248598E+03  0.30208534388E+03 -0.76713893016E+02  0.33470892351E+03  0.50400001928E-02 0.  1.
       -1    1    3    3    0  502 -0.12202248598E+03 -0.30208534388E+03 -0.94825757909E+03  0.10026651876E+04  0.50400001928E-02 0. -1.
</event>
<event>
 5   0  0.2464780E-02  0.7935988E+03  0.7818609E-02  0.9569329E-01
       -2   -1    0    0    0  501  0.00000000000E+00  0.00000000000E+00  0.51296280834E+03  0.51296280835E+03  0.25500000920E-02 0. -1.
        2   -1    0    0  501    0  0.00000000000E+00  0.00000000000E+00 -0.30694189626E+03  0.30694189627E+03  0.25500000920E-02 0.  1.
    10030    2    1    2    0    0  0.00000000000E+00  0.00000000000E+00  0.20602091208E+03  0.81990470462E+03  0.79359883344E+03 0.  0.
        3    1    3    3  502    0 -0.14724269219E+03 -0.94954570332E+00 -0.27767106456E+03  0.31429690157E+03  0.10100000352E+00 0.  1.
       -3    1    3    3    0  502  0.14724269219E+03  0.94954570332E+00  0.48369197664E+03  0.50560780305E+03  0.10100000352E+00 0. -1.
</event>
<event>
 5   0  0.1523811E-02  0.7829684E+03  0.7818609E-02  0.9585002E-01
       -1   -1    0    0    0  501  0.00000000000E+00  0.00000000000E+00  0.20977944782E+03  0.20977944788E+03  0.50400001928E-02 0.  1.
        1   -1    0    0  501    0  0.00000000000E+00  0.00000000000E+00 -0.73057616046E+03  0.73057616048E+03  0.50400001928E-02 0. -1.
    10030    2    1    2    0    0  0.00000000000E+00  0.00000000000E+00 -0.52079671264E+03  0.94035560836E+03  0.78296836097E+03 0.  0.
        1    1    3    3  502    0  0.28700351257E+03 -0.12105262018E+03  0.24409314685E+02  0.31244290318E+03  0.50400001928E-02 0.  1.
       -1    1    3    3    0  502 -0.28700351257E+03  0.12105262018E+03 -0.54520602732E+03  0.62791270518E+03  0.50400001928E-02 0. -1.
</event>
<event>
 5   0  0.1624094E-02  0.7968965E+03  0.7818609E-02  0.9564520E-01
       -1   -1    0    0    0  501  0.00000000000E+00  0.00000000000E+00  0.19074138106E+03  0.19074138113E+03  0.50400001928E-02 0.  1.
        1   -1    0    0  501    0  0.00000000000E+00  0.00000000000E+00 -0.83233648580E+03  0.83233648582E+03  0.50400001928E-02 0. -1.
    10030    2    1    2    0    0  0.00000000000E+00  0.00000000000E+00 -0.64159510474E+03  0.10230778669E+04  0.79689650734E+03 0.  0.
        3    1    3    3  502    0  0.95481826524E+02 -0.95650211980E+01  0.17568494318E+03  0.20018361144E+03  0.10100000352E+00 0.  1.
       -3    1    3    3    0  502 -0.95481826524E+02  0.95650211980E+01 -0.81728004792E+03  0.82289425551E+03  0.10100000352E+00 0. -1.
</event>
<event>
 5   0  0.2571778E-02  0.8022434E+03  0.7818609E-02  0.9556776E-01
        2   -1    0    0  501    0  0.00000000000E+00  0.00000000000E+00  0.14013597105E+04  0.14013597105E+04  0.25500000920E-02 0.  1.
       -2   -1    0    0    0  501  0.00000000000E+00  0.00000000000E+00 -0.11481607992E+03  0.11481607994E+03  0.25500000920E-02 0. -1.
    10030    2    1    2    0    0  0.00000000000E+00  0.00000000000E+00  0.12865436306E+04  0.15161757904E+04  0.80224342574E+03 0.  0.
        1    1    3    3  502    0  0.73980791486E+02 -0.24001523741E+02  0.13869724487E+04  0.13891514692E+04  0.50400001928E-02 0.  1.
       -1    1    3    3    0  502 -0.73980791486E+02  0.24001523741E+02 -0.10042881818E+03  0.12702432128E+03  0.50400001928E-02 0. -1.
</event>
<event>
 5   0  0.9919125E-03  0.8002606E+03  0.7818609E-02  0.9559640E-01
       -4   -1    0    0    0  501  0.00000000000E+00  0.00000000000E+00  0.28512818082E+03  0.28513100919E+03  0.12699999809E+01 0.  1.
        4   -1    0    0  501    0  0.00000000000E+00  0.00000000000E+00 -0.56151049337E+03  0.56151192959E+03  0.12699999809E+01 0. -1.
    10030    2    1    2    0    0  0.00000000000E+00  0.00000000000E+00 -0.27638231255E+03  0.84664293877E+03  0.80026063447E+03 0.  0.
        1    1    3    3  502    0 -0.22527509502E+03 -0.68041829412E+01  0.21159048118E+03  0.30913701993E+03  0.50400001928E-02 0.  1.
       -1    1    3    3    0  502  0.22527509502E+03  0.68041829412E+01 -0.48797279373E+03  0.53750591884E+03  0.50400001928E-02 0. -1.
</event>
<event>
 5   0  0.2571778E-02  0.7876261E+03  0.7818609E-02  0.9578103E-01
       -2   -1    0    0    0  501  0.00000000000E+00  0.00000000000E+00  0.50410071640E+03  0.50410071641E+03  0.25500000920E-02 0.  1.
        2   -1    0    0  501    0  0.00000000000E+00  0.00000000000E+00 -0.30765421234E+03  0.30765421235E+03  0.25500000920E-02 0. -1.
    10030    2    1    2    0    0  0.00000000000E+00  0.00000000000E+00  0.19644650406E+03  0.81175492876E+03  0.78762607588E+03 0.  0.
        1    1    3    3  502    0 -0.16929608054E+03  0.34310369338E+03  0.19439535978E+03  0.42915132905E+03  0.50400001928E-02 0.  1.
       -1    1    3    3    0  502  0.16929608054E+03 -0.34310369338E+03  0.20511442816E+01  0.38260359971E+03  0.50400001928E-02 0. -1.
</event>
<event>
 5   0  0.2454354E-02  0.7967454E+03  0.7818609E-02  0.9564740E-01
        2   -1    0    0  501    0  0.00000000000E+00  0.00000000000E+00  0.53942878354E+03  0.53942878354E+03  0.25500000920E-02 0. -1.
       -2   -1    0    0    0  501  0.00000000000E+00  0.00000000000E+00 -0.29420157491E+03  0.29420157492E+03  0.25500000920E-02 0.  1.
    10030    2    1    2    0    0  0.00000000000E+00  0.00000000000E+00  0.24522720862E+03  0.83363035847E+03  0.79674537382E+03 0.  0.
        5    1    3    3  502    0  0.91458752038E+02 -0.61589267002E+01 -0.28298727594E+03  0.29750046058E+03  0.46999998093E+01 0.  1.
       -5    1    3    3    0  502 -0.91458752038E+02  0.61589267002E+01  0.52821448456E+03  0.53612989788E+03  0.46999998093E+01 0. -1.
</event>
<event>
 5   0  0.2454354E-02  0.8159379E+03  0.7818609E-02  0.9537230E-01
        2   -1    0    0  501    0  0.00000000000E+00  0.00000000000E+00  0.50404608709E+03  0.50404608710E+03  0.25500000920E-02 0.  1.
       -2   -1    0    0    0  501  0.00000000000E+00  0.00000000000E+00 -0.33020524543E+03  0.33020524544E+03  0.25500000920E-02 0. -1.
    10030    2    1    2    0    0  0.00000000000E+00  0.00000000000E+00  0.17384084166E+03  0.83425133254E+03  0.81593789445E+03 0.  0.
        5    1    3    3  502    0 -0.19385521917E+03  0.33096972701E+03  0.22894738831E+03  0.44672116897E+03  0.46999998093E+01 0.  1.
       -5    1    3    3    0  502  0.19385521917E+03 -0.33096972701E+03 -0.55106546641E+02  0.38753016357E+03  0.46999998093E+01 0. -1.
</event>
<event>
 5   0  0.1509629E-02  0.7968018E+03  0.7818609E-02  0.9564658E-01
       -1   -1    0    0    0  501  0.00000000000E+00  0.00000000000E+00  0.35895404301E+03  0.35895404304E+03  0.50400001928E-02 0. -1.
        1   -1    0    0  501    0  0.00000000000E+00  0.00000000000E+00 -0.44218274524E+03  0.44218274526E+03  0.50400001928E-02 0.  1.
    10030    2    1    2    0    0  0.00000000000E+00  0.00000000000E+00 -0.83228702229E+02  0.80113678831E+03  0.79680181771E+03 0.  0.
        5    1    3    3  502    0  0.63063401026E+02 -0.12407474888E+03  0.33368528640E+03  0.36157917005E+03  0.46999998093E+01 0. -1.
       -5    1    3    3    0  502 -0.63063401026E+02  0.12407474888E+03 -0.41691398863E+03  0.43955761826E+03  0.46999998093E+01 0.  1.
</event>
<event>
 5   0  0.9919125E-03  0.7857151E+03  0.7818609E-02  0.9580927E-01
       -3   -1    0    0    0  501  0.00000000000E+00  0.00000000000E+00  0.21160779947E+03  0.21160782357E+03  0.10100000352E+00 0.  1.
        3   -1    0    0  501    0  0.00000000000E+00  0.00000000000E+00 -0.72935423537E+03  0.72935424236E+03  0.10100000352E+00 0. -1.
    10030    2    1    2    0    0  0.00000000000E+00  0.00000000000E+00 -0.51774643590E+03  0.94096206593E+03  0.78571511227E+03 0.  0.
        4    1    3    3  502    0  0.29362206186E+03 -0.33604737576E+02 -0.56884295921E+03  0.64103597305E+03  0.12699999809E+01 0. -1.
       -4    1    3    3    0  502 -0.29362206186E+03  0.33604737576E+02  0.51096523310E+02  0.29992609289E+03  0.12699999809E+01 0.  1.
</event>
<event>
 5   0  0.1523811E-02  0.7970077E+03  0.7818609E-02  0.9564358E-01
       -1   -1    0    0    0  501  0.00000000000E+00  0.00000000000E+00  0.61350310909E+03  0.61350310911E+03  0.50400001928E-02 0.  1.
        1   -1    0    0  501    0  0.00000000000E+00  0.00000000000E+00 -0.25885005060E+03  0.25885005065E+03  0.50400001928E-02 0. -1.
    10030    2    1    2    0    0  0.00000000000E+00  0.00000000000E+00  0.35465305849E+03  0.87235315977E+03  0.79700768093E+03 0.  0.
        1    1    3    3  502    0 -0.25009572140E+03 -0.64177772754E+02  0.50956564677E+03  0.57124758623E+03  0.50400001928E-02 0.  1.
       -1    1    3    3    0  502  0.25009572140E+03  0.64177772754E+02 -0.15491258829E+03  0.30110557353E+03  0.50400001928E-02 0. -1.
</event>
<event>
 5   0  0.1624094E-02  0.8013159E+03  0.7818609E-02  0.9558114E-01
       -1   -1    0    0    0  501  0.00000000000E+00  0.00000000000E+00  0.51732229494E+03  0.51732229496E+03  0.50400001928E-02 0.  1.
        1   -1    0    0  501    0  0.00000000000E+00  0.00000000000E+00 -0.31030327209E+03  0.31030327213E+03  0.50400001928E-02 0. -1.
    10030    2    1    2    0    0  0.00000000000E+00  0.00000000000E+00  0.20701902285E+03  0.82762556709E+03  0.80131591990E+03 0.  0.
        3    1    3    3  502    0  0.72706464822E+02 -0.17960618646E+03  0.46571182348E+03  0.50441265346E+03  0.10100000352E+00 0.  1.
       -3    1    3    3    0  502 -0.72706464822E+02  0.17960618646E+03 -0.25869280063E+03  0.32321291363E+03  0.10100000352E+00 0. -1.
</event>
<event>
 5   0  0.1624094E-02  0.8041235E+03  0.7818609E-02  0.9554068E-01
        1   -1    0    0  501    0  0.00000000000E+00  0.00000000000E+00  0.36314530878E+03  0.36314530881E+03  0.50400001928E-02 0.  1.
       -1   -1    0    0    0  501  0.00000000000E+00  0.00000000000E+00 -0.44514864532E+03  0.44514864535E+03  0.50400001928E-02 0. -1.
    10030    2    1    2    0    0  0.00000000000E+00  0.00000000000E+00 -0.82003336548E+02  0.80829395416E+03  0.80412347878E+03 0.  0.
        3    1    3    3  502    0 -0.28278792068E+03  0.24252230814E+03 -0.19300616811E+03  0.41956819370E+03  0.10100000352E+00 0. -1.
       -3    1    3    3    0  502  0.28278792068E+03 -0.24252230814E+03  0.11100283157E+03  0.38872576046E+03  0.10100000352E+00 0.  1.
</event>
<event>
 5   0  0.2571778E-02  0.7880673E+03  0.7818609E-02  0.9577452E-01
        2   -1    0    0  501    0  0.00000000000E+00  0.00000000000E+00  0.14159416090E+04  0.14159416090E+04  0.25500000920E-02 0. -1.
       -2   -1    0    0    0  501  0.00000000000E+00  0.00000000000E+00 -0.10965320441E+03  0.10965320444E+03  0.25500000920E-02 0.  1.
    10030    2    1    2    0    0  0.00000000000E+00  0.00000000000E+00  0.13062884046E+04  0.15255948135E+04  0.78806734410E+03 0.  0.
        1    1    3    3  502    0 -0.20165729921E+03  0.22076066958E+03  0.15633229709E+03  0.33740291448E+03  0.50400001928E-02 0.  1.
       -1    1    3    3    0  502  0.20165729921E+03 -0.22076066958E+03  0.11499561075E+04  0.11881918990E+04  0.50400001928E-02 0. -1.
</event>
<event>
 5   0  0.1498375E-02  0.8043674E+03  0.7818609E-02  0.9553717E-01
        1   -1    0    0  501    0  0.00000000000E+00  0.00000000000E+00  0.18935406422E+04  0.18935406422E+04  0.50400001928E-02 0.  1.
       -1   -1    0    0    0  501  0.00000000000E+00  0.00000000000E+00 -0.85422906350E+02  0.85422906498E+02  0.50400001928E-02 0. -1.
    10030    2    1    2    0    0  0.00000000000E+00  0.00000000000E+00  0.18081177359E+04  0.19789635487E+04  0.80436744117E+03 0.  0.
        4    1    3    3  502    0  0.15208256599E+03  0.86768398511E+02  0.17948417325E+04  0.18033625037E+04  0.12699999809E+01 0.  1.
       -4    1    3    3    0  502 -0.15208256599E+03 -0.86768398511E+02  0.13276003323E+02  0.17560104505E+03  0.12699999809E+01 0. -1.
</event>
<event>
 5   0  0.1523811E-02  0.8113345E+03  0.7818609E-02  0.9543754E-01
       -1   -1    0    0    0  501  0.00000000000E+00  0.00000000000E+00  0.39490837609E+03  0.39490837612E+03  0.50400001928E-02 0.  1.
        1   -1    0    0  501    0  0.00000000000E+00  0.00000000000E+00 -0.41671927559E+03  0.41671927562E+03  0.50400001928E-02 0. -1.
    10030    2    1    2    0    0  0.00000000000E+00  0.00000000000E+00 -0.21810899501E+02  0.81162765174E+03  0.81133453627E+03 0.  0.
        1    1    3    3  502    0  0.17472866959E+03 -0.10260220397E+03 -0.36247033653E+03  0.41526144190E+03  0.50400001928E-02 0. -1.
       -1    1    3    3    0  502 -0.17472866959E+03  0.10260220397E+03  0.34065943703E+03  0.39636620984E+03  0.50400001928E-02 0.  1.
</event>
<event>
 5   0  0.2460312E-02  0.8125037E+03  0.7818609E-02  0.9542093E-01
       -2   -1    0    0    0  501  0.00000000000E+00  0.00000000000E+00  0.17142240987E+03  0.17142240989E+03  0.25500000920E-02 0.  1.
        2   -1    0    0  501    0  0.00000000000E+00  0.00000000000E+00 -0.96277112611E+03  0.96277112611E+03  0.25500000920E-02 0. -1.
    10030    2    1    2    0    0  0.00000000000E+00  0.00000000000E+00 -0.79134871624E+03  0.11341935360E+04  0.81250365317E+03 0.  0.
        2    1    3    3  502    0 -0.15533407698E+03 -0.22480108829E+03  0.23977571774E+02  0.27429751862E+03  0.25500000920E-02 0.  1.
       -2    1    3    3    0  502  0.15533407698E+03  0.22480108829E+03 -0.81532628801E+03  0.85989601737E+03  0.25500000920E-02 0. -1.
</event>
<event>
 5   0  0.1624094E-02  0.8001272E+03  0.7818609E-02  0.9559833E-01
       -1   -1    0    0    0  501  0.00000000000E+00  0.00000000000E+00  0.13699315443E+03  0.13699315452E+03  0.50400001928E-02 0. -1.
        1   -1    0    0  501    0  0.00000000000E+00  0.00000000000E+00 -0.11683131223E+04  0.11683131223E+04  0.50400001928E-02 0.  1.
    10030    2    1    2    0    0  0.00000000000E+00  0.00000000000E+00 -0.10313199679E+04  0.13053062768E+04  0.80012724001E+03 0.  0.
        3    1    3    3  502    0 -0.13666978514E+03 -0.27161230467E+03 -0.91505994377E+02  0.31752989060E+03  0.10100000352E+00 0. -1.
       -3    1    3    3    0  502  0.13666978514E+03  0.27161230467E+03 -0.93981397350E+03  0.98777638624E+03  0.10100000352E+00 0.  1.
</event>
<event>
 5   0  0.9919125E-03  0.7937969E+03  0.7818609E-02  0.9569040E-01
        3   -1    0    0  501    0  0.00000000000E+00  0.00000000000E+00  0.53695446451E+03  0.53695447401E+03  0.10100000352E+00 0.  1.
       -3   -1    0    0    0  501  0.00000000000E+00  0.00000000000E+00 -0.29337378107E+03  0.29337379845E+03  0.10100000352E+00 0. -1.
    10030    2    1    2    0    0  0.00000000000E+00  0.00000000000E+00  0.24358068344E+03  0.83032827246E+03  0.79379688252E+03 0.  0.
        4    1    3    3  502    0 -0.13978833547E+03 -0.10925075314E+03  0.49316502921E+03  0.52410863829E+03  0.12699999809E+01 0.  1.
       -4    1    3    3    0  502  0.13978833547E+03  0.10925075314E+03 -0.24958434577E+03  0.30621963417E+03  0.12699999809E+01 0. -1.
</event>
<event>
 5   0  0.2464780E-02  0.7952876E+03  0.7818609E-02  0.9566863E-01
       -2   -1    0    0    0  501  0.00000000000E+00  0.00000000000E+00  0.21425143188E+03  0.21425143189E+03  0.25500000920E-02 0.  1.
        2   -1    0    0  501    0  0.00000000000E+00  0.00000000000E+00 -0.73801416763E+03  0.73801416763E+03  0.25500000920E-02 0. -1.
    10030    2    1    2    0    0  0.00000000000E+00  0.00000000000E+00 -0.52376273575E+03  0.95226559952E+03  0.79528760123E+03 0.  0.
        3    1    3    3  502    0 -0.24594288693E+02 -0.37245516682E+03 -0.97735397116E+02  0.38584964478E+03  0.10100000352E+00 0.  1.
       -3    1    3    3    0  502  0.24594288693E+02  0.37245516682E+03 -0.42602733864E+03  0.56641595475E+03  0.10100000352E+00 0. -1.
</event>
<event>
 5   0  0.1498375E-02  0.7920330E+03  0.7818609E-02  0.9571621E-01
        1   -1    0    0  501    0  0.00000000000E+00  0.00000000000E+00  0.68156949846E+03  0.68156949847E+03  0.50400001928E-02 0. -1.
       -1   -1    0    0    0  501  0.00000000000E+00  0.00000000000E+00 -0.23009990718E+03  0.23009990723E+03  0.50400001928E-02 0.  1.
    10030    2    1    2    0    0  0.00000000000E+00  0.00000000000E+00  0.45146959128E+03  0.91166940571E+03  0.79203302548E+03 0.  0.
        4    1    3    3  502    0 -0.11504406519E+03 -0.30602382109E+03 -0.31497779670E+02  0.32845005562E+03  0.12699999809E+01 0.  1.
       -4    1    3    3    0  502  0.11504406519E+03  0.30602382109E+03  0.48296737095E+03  0.58321935009E+03  0.12699999809E+01 0. -1.
</event>
<event>
 5   0  0.2460312E-02  0.7964457E+03  0.7818609E-02  0.9565176E-01
       -2   -1    0    0    0  501  0.00000000000E+00  0.00000000000E+00  0.13650659399E+03  0.13650659402E+03  0.25500000920E-02 0.  1.
        2   -1    0    0  501    0  0.00000000000E+00  0.00000000000E+00 -0.11617126940E+04  0.11617126940E+04  0.25500000920E-02 0. -1.
    10030    2    1    2    0    0  0.00000000000E+00  0.00000000000E+00 -0.10252061000E+04  0.12982192880E+04  0.79644571208E+03 0.  0.
        2    1    3    3  502    0  0.14975567945E+02 -0.56012635935E+02 -0.11547957769E+04  0.11562503922E+04  0.25500000920E-02 0. -1.
       -2    1    3    3    0  502 -0.14975567945E+02  0.56012635935E+02  0.12958967691E+03  0.14196889585E+03  0.25500000920E-02 0.  1.
</event>
<event>
 5   0  0.1471290E-02  0.8062932E+03  0.7818609E-02  0.9550952E-01
       -1   -1    0    0    0  501  0.00000000000E+00  0.00000000000E+00  0.34930256126E+03  0.34930256130E+03  0.50400001928E-02 0.  1.
        1   -1    0    0  501    0  0.00000000000E+00  0.00000000000E+00 -0.46529060368E+03  0.46529060370E+03  0.50400001928E-02 0. -1.
    10030    2    1    2    0    0  0.00000000000E+00  0.00000000000E+00 -0.11598804241E+03  0.81459316500E+03  0.80629324596E+03 0.  0.
        2    1    3    3  502    0  0.38862958248E+02  0.38182674181E+03  0.66666625650E+02  0.38954644045E+03  0.25500000920E-02 0.  1.
       -2    1    3    3    0  502 -0.38862958248E+02 -0.38182674181E+03 -0.18265466806E+03  0.42504672456E+03  0.25500000920E-02 0. -1.
</event>
<event>
 5   0  0.2464780E-02  0.7885766E+03  0.7818609E-02  0.9576701E-01
        2   -1    0    0  501    0  0.00000000000E+00  0.00000000000E+00  0.91606113812E+03  0.91606113812E+03  0.25500000920E-02 0. -1.
       -2   -1    0    0    0  501  0.00000000000E+00  0.00000000000E+00 -0.16970837335E+03  0.16970837337E+03  0.25500000920E-02 0.  1.
    10030    2    1    2    0    0  0.00000000000E+00  0.00000000000E+00  0.74635276477E+03  0.10857695115E+04  0.78857655468E+03 0.  0.
        3    1    3    3  502    0 -0.74953276305E+02  0.38547957458E+03  0.42187057816E+03  0.57635691283E+03  0.10100000352E+00 0.  1.
       -3    1    3    3    0  502  0.74953276305E+02 -0.38547957458E+03  0.32448218661E+03  0.50941259866E+03  0.10100000352E+00 0. -1.
</event>
<event>
 5   0  0.2454354E-02  0.8051002E+03  0.7818609E-02  0.9552664E-01
        2   -1    0    0  501    0  0.00000000000E+00  0.00000000000E+00  0.89117499240E+03  0.89117499241E+03  0.25500000920E-02 0. -1.
       -2   -1    0    0    0  501  0.00000000000E+00  0.00000000000E+00 -0.18183476800E+03  0.18183476802E+03  0.25500000920E-02 0.  1.
    10030    2    1    2    0    0  0.00000000000E+00  0.00000000000E+00  0.70934022440E+03  0.10730097604E+04  0.80510023725E+03 0.  0.
        5    1    3    3  502    0 -0.16443522096E+03 -0.17211760735E+03  0.78727742485E+03  0.82249087918E+03  0.46999998093E+01 0. -1.
       -5    1    3    3    0  502  0.16443522096E+03  0.17211760735E+03 -0.77937200448E+02  0.25051888125E+03  0.46999998093E+01 0.  1.
</event>
<event>
 5   0  0.1471290E-02  0.7619093E+03  0.7818609E-02  0.9616850E-01
       -1   -1    0    0    0  501  0.00000000000E+00  0.00000000000E+00  0.84433287728E+02  0.84433287879E+02  0.50400001928E-02 0. -1.
        1   -1    0    0  501    0  0.00000000000E+00  0.00000000000E+00 -0.17188299553E+04  0.17188299553E+04  0.50400001928E-02 0.  1.
    10030    2    1    2    0    0  0.00000000000E+00  0.00000000000E+00 -0.16343966675E+04  0.18032632432E+04  0.76190934976E+03 0.  0.
        2    1    3    3  502    0  0.29904714665E+03 -0.22916493427E+03 -0.68371800437E+03  0.78065105682E+03  0.25500000920E-02 0. -1.
       -2    1    3    3    0  502 -0.29904714665E+03  0.22916493427E+03 -0.95067866317E+03  0.10226121863E+04  0.25500000920E-02 0.  1.
</event>
<event>
 5   0  0.2464780E-02  0.8129486E+03  0.7818609E-02  0.9541461E-01
        2   -1    0    0  501    0  0.00000000000E+00  0.00000000000E+00  0.97345364831E+03  0.97345364831E+03  0.25500000920E-02 0.  1.
       -2   -1    0    0    0  501  0.00000000000E+00  0.00000000000E+00 -0.16972699899E+03  0.16972699901E+03  0.25500000920E-02 0. -1.
    10030    2    1    2    0    0  0.00000000000E+00  0.00000000000E+00  0.80372664932E+03  0.11431806473E+04  0.81294862419E+03 0.  0.
        3    1    3    3  502    0  0.45569389076E+02  0.17320975795E+03 -0.11124753277E+03  0.21084167808E+03  0.10100000352E+00 0. -1.
       -3    1    3    3    0  502 -0.45569389076E+02 -0.17320975795E+03  0.91497418209E+03  0.93233896924E+03  0.10100000352E+00 0.  1.
</event>
<event>
 5   0  0.2571778E-02  0.8050533E+03  0.7818609E-02  0.9552731E-01
       -2   -1    0    0    0  501  0.00000000000E+00  0.00000000000E+00  0.27582260783E+03  0.27582260784E+03  0.25500000920E-02 0. -1.
        2   -1    0    0  501    0  0.00000000000E+00  0.00000000000E+00 -0.58743439931E+03  0.58743439931E+03  0.25500000920E-02 0.  1.
    10030    2    1    2    0    0  0.00000000000E+00  0.00000000000E+00 -0.31161179148E+03  0.86325700716E+03  0.80505326023E+03 0.  0.
        1    1    3    3  502    0  0.85930201306E+01 -0.30809266397E+03 -0.43343119803E+03  0.53184352308E+03  0.50400001928E-02 0.  1.
       -1    1    3    3    0  502 -0.85930201306E+01  0.30809266397E+03  0.12181940655E+03  0.33141348408E+03  0.50400001928E-02 0. -1.
</event>
<event>
 5   0  0.1624094E-02  0.7840323E+03  0.7818609E-02  0.9583422E-01
       -1   -1    0    0    0  501  0.00000000000E+00  0.00000000000E+00  0.32330637327E+03  0.32330637331E+03  0.50400001928E-02 0.  1.
        1   -1    0    0  501    0  0.00000000000E+00  0.00000000000E+00 -0.47532827537E+03  0.47532827540E+03  0.50400001928E-02 0. -1.
    10030    2    1    2    0    0  0.00000000000E+00  0.00000000000E+00 -0.15202190210E+03  0.79863464871E+03  0.78403229742E+03 0.  0.
        3    1    3    3  502    0  0.12726386612E+03 -0.10917706397E+03 -0.43695630224E+03  0.46802408398E+03  0.10100000352E+00 0. -1.
       -3    1    3    3    0  502 -0.12726386612E+03  0.10917706397E+03  0.28493440015E+03  0.33061056472E+03  0.10100000352E+00 0.  1.
</event>
<event>
 5   0  0.2464780E-02  0.8025753E+03  0.7818609E-02  0.9556297E-01
        2   -1    0    0  501    0  0.00000000000E+00  0.00000000000E+00  0.61732644115E+03  0.61732644115E+03  0.25500000920E-02 0.  1.
       -2   -1    0    0    0  501  0.00000000000E+00  0.00000000000E+00 -0.26085351480E+03  0.26085351481E+03  0.25500000920E-02 0. -1.
    10030    2    1    2    0    0  0.00000000000E+00  0.00000000000E+00  0.35647292635E+03  0.87817995596E+03  0.80257528484E+03 0.  0.
        3    1    3    3  502    0 -0.30235357912E+03 -0.76908709369E+02 -0.97925889181E+02  0.32698948967E+03  0.10100000352E+00 0. -1.
       -3    1    3    3    0  502  0.30235357912E+03  0.76908709369E+02  0.45439881553E+03  0.55119046630E+03  0.10100000352E+00 0.  1.
</event>
<event>
 5   0  0.1498375E-02  0.7940967E+03  0.7818609E-02  0.9568601E-01
        1   -1    0    0  501    0  0.00000000000E+00  0.00000000000E+00  0.81896387183E+03  0.81896387185E+03  0.50400001928E-02 0.  1.
       -1   -1    0    0    0  501  0.00000000000E+00  0.00000000000E+00 -0.19249615080E+03  0.19249615086E+03  0.50400001928E-02 0. -1.
    10030    2    1    2    0    0  0.00000000000E+00  0.00000000000E+00  0.62646772103E+03  0.10114600227E+04  0.79409670195E+03 0.  0.
        4    1    3    3  502    0  0.36496297425E+03  0.96577170653E+02  0.15660900977E+03  0.40872131986E+03  0.12699999809E+01 0. -1.
       -4    1    3    3    0  502 -0.36496297425E+03 -0.96577170653E+02  0.46985871127E+03  0.60273870285E+03  0.12699999809E+01 0.  1.
</event>
<event>
 5   0  0.1498375E-02  0.7900592E+03  0.7818609E-02  0.9574519E-01
       -1   -1    0    0    0  501  0.00000000000E+00  0.00000000000E+00  0.47568119019E+03  0.47568119021E+03  0.50400001928E-02 0. -1.
        1   -1    0    0  501    0  0.00000000000E+00  0.00000000000E+00 -0.32805242467E+03  0.32805242471E+03  0.50400001928E-02 0.  1.
    10030    2    1    2    0    0  0.00000000000E+00  0.00000000000E+00  0.14762876552E+03  0.80373361493E+03  0.79005915687E+03 0.  0.
        4    1    3    3  502    0 -0.80915786798E+02 -0.38496613003E+02  0.46520364699E+03  0.47375668844E+03  0.12699999809E+01 0. -1.
       -4    1    3    3    0  502  0.80915786798E+02  0.38496613003E+02 -0.31757488148E+03  0.32997692648E+03  0.12699999809E+01 0.  1.
</event>
<event>
 5   0  0.1624094E-02  0.8052471E+03  0.7818609E-02  0.9552453E-01
        1   -1    0    0  501    0  0.00000000000E+00  0.00000000000E+00  0.73944919238E+03  0.73944919240E+03  0.50400001928E-02 0.  1.
       -1   -1    0    0    0  501  0.00000000000E+00  0.00000000000E+00 -0.21922497893E+03  0.21922497899E+03  0.50400001928E-02 0. -1.
    10030    2    1    2    0    0  0.00000000000E+00  0.00000000000E+00  0.52022421346E+03  0.95867417139E+03  0.80524712643E+03 0.  0.
        3    1    3    3  502    0 -0.45360769686E+02 -0.27973934537E+03 -0.80376533345E+02  0.29457104082E+03  0.10100000352E+00 0. -1.
       -3    1    3    3    0  502  0.45360769686E+02  0.27973934537E+03  0.60060074680E+03  0.66410313057E+03  0.10100000352E+00 0.  1.
</event>
<event>
 5   0  0.2422031E-02  0.8257610E+03  0.7818609E-02  0.9523460E-01
       -2   -1    0    0    0  501  0.00000000000E+00  0.00000000000E+00  0.11405436141E+03  0.11405436144E+03  0.25500000920E-02 0.  1.
        2   -1    0    0  501    0  0.00000000000E+00  0.00000000000E+00 -0.14946409920E+04  0.14946409920E+04  0.25500000920E-02 0. -1.
    10030    2    1    2    0    0  0.00000000000E+00  0.00000000000E+00 -0.13805866306E+04  0.16086953535E+04  0.82576104026E+03 0.  0.
        4    1    3    3  502    0 -0.21097322809E+03 -0.89953024517E+02 -0.21462331779E+02  0.23035514793E+03  0.12699999809E+01 0.  1.
       -4    1    3    3    0  502  0.21097322809E+03  0.89953024517E+02 -0.13591242988E+04  0.13783402055E+04  0.12699999809E+01 0. -1.
</event>
<event>
 5   0  0.2422031E-02  0.8053319E+03  0.7818609E-02  0.9552331E-01
        2   -1    0    0  501    0  0.00000000000E+00  0.00000000000E+00  0.16511524760E+04  0.16511524760E+04  0.25500000920E-02 0. -1.
       -2   -1    0    0    0  501  0.00000000000E+00  0.00000000000E+00 -0.98198006424E+02  0.98198006458E+02  0.25500000920E-02 0.  1.
    10030    2    1    2    0    0  0.00000000000E+00  0.00000000000E+00  0.15529544695E+04  0.17493504824E+04  0.80533193522E+03 0.  0.
        4    1    3    3  502    0 -0.11026414371E+03 -0.38352993258E+03  0.65980550585E+03  0.77110200948E+03  0.12699999809E+01 0. -1.
       -4    1    3    3    0  502  0.11026414371E+03  0.38352993258E+03  0.89314896368E+03  0.97824847294E+03  0.12699999809E+01 0.  1.
</event>
<event>
 5   0  0.9919125E-03  0.7983902E+03  0.7818609E-02  0.9562350E-01
       -4   -1    0    0    0  501  0.00000000000E+00  0.00000000000E+00  0.14141868158E+03  0.14142438404E+03  0.12699999809E+01 0. -1.
        4   -1    0    0  501    0  0.00000000000E+00  0.00000000000E+00 -0.11268146546E+04  0.11268153703E+04  0.12699999809E+01 0.  1.
    10030    2    1    2    0    0  0.00000000000E+00  0.00000000000E+00 -0.98539597301E+03  0.12682397543E+04  0.79839016202E+03 0.  0.
        2    1    3    3  502    0  0.17290894773E+03  0.86698247888E+02  0.62009402155E+02  0.20312374640E+03  0.25500000920E-02 0. -1.
       -2    1    3    3    0  502 -0.17290894773E+03 -0.86698247888E+02 -0.10474053752E+04  0.10651160079E+04  0.25500000920E-02 0.  1.
</event>
<event>
 5   0  0.1624094E-02  0.8056869E+03  0.7818609E-02  0.9551822E-01
       -1   -1    0    0    0  501  0.00000000000E+00  0.00000000000E+00  0.74054079741E+03  0.74054079743E+03  0.50400001928E-02 0. -1.
        1   -1    0    0  501    0  0.00000000000E+00  0.00000000000E+00 -0.21914098895E+03  0.21914098901E+03  0.50400001928E-02 0.  1.
    10030    2    1    2    0    0  0.00000000000E+00  0.00000000000E+00  0.52139980846E+03  0.95968178644E+03  0.80568689388E+03 0.  0.
        3    1    3    3  502    0 -0.13077181872E+03 -0.26019782663E+03 -0.70852353723E+02  0.29970692982E+03  0.10100000352E+00 0.  1.
       -3    1    3    3    0  502  0.13077181872E+03  0.26019782663E+03  0.59225216218E+03  0.65997485662E+03  0.10100000352E+00 0. -1.
</event>
<event>
 5   0  0.1509629E-02  0.8106720E+03  0.7818609E-02  0.9544697E-01
        1   -1    0    0  501    0  0.00000000000E+00  0.00000000000E+00  0.57447594626E+03  0.57447594628E+03  0.50400001928E-02 0.  1.
       -1   -1    0    0    0  501  0.00000000000E+00  0.00000000000E+00 -0.28599507407E+03  0.28599507412E+03  0.50400001928E-02 0. -1.
    10030    2    1    2    0    0  0.00000000000E+00  0.00000000000E+00  0.28848087219E+03  0.86047102040E+03  0.81067204425E+03 0.  0.
        5    1    3    3  502    0 -0.36813187361E+03  0.12668301686E+03  0.24597358379E+02  0.39012406125E+03  0.46999998093E+01 0. -1.
       -5    1    3    3    0  502  0.36813187361E+03 -0.12668301686E+03  0.26388351381E+03  0.47034695915E+03  0.46999998093E+01 0.  1.
</event>
<event>
 5   0  0.2460312E-02  0.7913855E+03  0.7818609E-02  0.9572571E-01
       -2   -1    0    0    0  501  0.00000000000E+00  0.00000000000E+00  0.34149035590E+03  0.34149035590E+03  0.25500000920E-02 0.  1.
        2   -1    0    0  501    0  0.00000000000E+00  0.00000000000E+00 -0.45849833448E+03  0.45849833449E+03  0.25500000920E-02 0. -1.
    10030    2    1    2    0    0  0.00000000000E+00  0.00000000000E+00 -0.11700797859E+03  0.79998869039E+03  0.79138551775E+03 0.  0.
        2    1    3    3  502    0  0.73940568134E+02 -0.32087695128E+03 -0.28030561854E+03  0.43243550418E+03  0.25500000920E-02 0. -1.
       -2    1    3    3    0  502 -0.73940568134E+02  0.32087695128E+03  0.16329763996E+03  0.36755318622E+03  0.25500000920E-02 0.  1.
</event>
<event>
 5   0  0.2464780E-02  0.8034147E+03  0.7818609E-02  0.9555088E-01
       -2   -1    0    0    0  501  0.00000000000E+00  0.00000000000E+00  0.88973424916E+03  0.88973424916E+03  0.25500000920E-02 0. -1.
        2   -1    0    0  501    0  0.00000000000E+00  0.00000000000E+00 -0.18136743105E+03  0.18136743106E+03  0.25500000920E-02 0.  1.
    10030    2    1    2    0    0  0.00000000000E+00  0.00000000000E+00  0.70836681811E+03  0.10711016802E+04  0.80341474991E+03 0.  0.
        3    1    3    3  502    0 -0.17395198203E+03 -0.27936821839E+03  0.66128809081E+03  0.73865272134E+03  0.10100000352E+00 0. -1.
       -3    1    3    3    0  502  0.17395198203E+03  0.27936821839E+03  0.47078727304E+02  0.33244895888E+03  0.10100000352E+00 0.  1.
</event>
<event>
 5   0  0.2571778E-02  0.7882022E+03  0.7818609E-02  0.9577253E-01
       -2   -1    0    0    0  501  0.00000000000E+00  0.00000000000E+00  0.14288156076E+03  0.14288156078E+03  0.25500000920E-02 0.  1.
        2   -1    0    0  501    0  0.00000000000E+00  0.00000000000E+00 -0.10870240170E+04  0.10870240170E+04  0.25500000920E-02 0. -1.
    10030    2    1    2    0    0  0.00000000000E+00  0.00000000000E+00 -0.94414245622E+03  0.12299055778E+04  0.78820222823E+03 0.  0.
        1    1    3    3  502    0  0.15120304664E+03  0.18497749793E+03 -0.96114107697E+03  0.99038942135E+03  0.50400001928E-02 0. -1.
       -1    1    3    3    0  502 -0.15120304664E+03 -0.18497749793E+03  0.16998620753E+02  0.23951615642E+03  0.50400001928E-02 0.  1.
</event>
<event>
 5   0  0.2460312E-02  0.7915776E+03  0.7818609E-02  0.9572289E-01
        2   -1    0    0  501    0  0.00000000000E+00  0.00000000000E+00  0.61392934996E+03  0.61392934997E+03  0.25500000920E-02 0. -1.
       -2   -1    0    0    0  501  0.00000000000E+00  0.00000000000E+00 -0.25515764546E+03  0.25515764548E+03  0.25500000920E-02 0.  1.
    10030    2    1    2    0    0  0.00000000000E+00  0.00000000000E+00  0.35877170450E+03  0.86908699545E+03  0.79157758287E+03 0.  0.
        2    1    3    3  502    0 -0.30116984301E+02 -0.63709056425E+02  0.60698621328E+03  0.61106312254E+03  0.25500000920E-02 0. -1.
       -2    1    3    3    0  502  0.30116984301E+02  0.63709056425E+02 -0.24821450878E+03  0.25802387290E+03  0.25500000920E-02 0.  1.
</event>
<event>
 5   0  0.2464780E-02  0.7719648E+03  0.7818609E-02  0.9601508E-01
        2   -1    0    0  501    0  0.00000000000E+00  0.00000000000E+00  0.67917485412E+03  0.67917485412E+03  0.25500000920E-02 0. -1.
       -2   -1    0    0    0  501  0.00000000000E+00  0.00000000000E+00 -0.21935797116E+03  0.21935797118E+03  0.25500000920E-02 0.  1.
    10030    2    1    2    0    0  0.00000000000E+00  0.00000000000E+00  0.45981688296E+03  0.89853282530E+03  0.77196481286E+03 0.  0.
        3    1    3    3  502    0  0.34072579487E+03  0.16402459211E+03  0.31994982693E+03  0.49534436109E+03  0.10100000352E+00 0. -1.
       -3    1    3    3    0  502 -0.34072579487E+03 -0.16402459211E+03  0.13986705603E+03  0.40318846421E+03  0.10100000352E+00 0.  1.
</event>
<event>
 5   0  0.1624094E-02  0.7497721E+03  0.7818609E-02  0.9635708E-01
       -1   -1    0    0    0  501  0.00000000000E+00  0.00000000000E+00  0.19784765050E+03  0.19784765056E+03  0.50400001928E-02 0.  1.
        1   -1    0    0  501    0  0.00000000000E+00  0.00000000000E+00 -0.71034228336E+03  0.71034228338E+03  0.50400001928E-02 0. -1.
    10030    2    1    2    0    0  0.00000000000E+00  0.00000000000E+00 -0.51249463286E+03  0.90818993394E+03  0.74977210364E+03 0.  0.
        3    1    3    3  502    0 -0.36429156158E+03 -0.52483597887E+02 -0.34255251350E+03  0.50279727982E+03  0.10100000352E+00 0.  1.
       -3    1    3    3    0  502  0.36429156158E+03  0.52483597887E+02 -0.16994211936E+03  0.40539265413E+03  0.10100000352E+00 0. -1.
</event>
<event>
 5   0  0.2454354E-02  0.8397394E+03  0.7818609E-02  0.9504213E-01
       -2   -1    0    0    0  501  0.00000000000E+00  0.00000000000E+00  0.30566234413E+03  0.30566234414E+03  0.25500000920E-02 0. -1.
        2   -1    0    0  501    0  0.00000000000E+00  0.00000000000E+00 -0.57674939104E+03  0.57674939104E+03  0.25500000920E-02 0.  1.
    10030    2    1    2    0    0  0.00000000000E+00  0.00000000000E+00 -0.27108704691E+03  0.88241173518E+03  0.83973941398E+03 0.  0.
        5    1    3    3  502    0 -0.17172879510E+03  0.35924809753E+03  0.43315378759E+01  0.39823463795E+03  0.46999998093E+01 0. -1.
       -5    1    3    3    0  502  0.17172879510E+03 -0.35924809753E+03 -0.27541858478E+03  0.48417709723E+03  0.46999998093E+01 0.  1.
</event>
<event>
 5   0  0.1509629E-02  0.7833589E+03  0.7818609E-02  0.9584422E-01
        1   -1    0    0  501    0  0.00000000000E+00  0.00000000000E+00  0.68505318805E+03  0.68505318807E+03  0.50400001928E-02 0. -1.
       -1   -1    0    0    0  501  0.00000000000E+00  0.00000000000E+00 -0.22394286840E+03  0.22394286846E+03  0.50400001928E-02 0.  1.
    10030    2    1    2    0    0  0.00000000000E+00  0.00000000000E+00  0.46111031965E+03  0.90899605653E+03  0.78335886022E+03 0.  0.
        5    1    3    3  502    0  0.77946055801E+02 -0.36020330585E+03  0.38436027037E+03  0.53251940490E+03  0.46999998093E+01 0.  1.
       -5    1    3    3    0  502 -0.77946055801E+02  0.36020330585E+03  0.76750049285E+02  0.37647665163E+03  0.46999998093E+01 0. -1.
</event>
<event>
 5   0  0.1624094E-02  0.7961735E+03  0.7818609E-02  0.9565572E-01
        1   -1    0    0  501    0  0.00000000000E+00  0.00000000000E+00  0.21743845780E+03  0.21743845786E+03  0.50400001928E-02 0.  1.
       -1   -1    0    0    0  501  0.00000000000E+00  0.00000000000E+00 -0.72881803338E+03  0.72881803340E+03  0.50400001928E-02 0. -1.
    10030    2    1    2    0    0  0.00000000000E+00  0.00000000000E+00 -0.51137957558E+03  0.94625649126E+03  0.79617352187E+03 0.  0.
        3    1    3    3  502    0  0.14914985957E+03  0.29713027963E+03 -0.51591811749E+03  0.61376184130E+03  0.10100000352E+00 0. -1.
       -3    1    3    3    0  502 -0.14914985957E+03 -0.29713027963E+03  0.45385419128E+01  0.33249464995E+03  0.10100000352E+00 0.  1.
</event>
<event>
 5   0  0.2464780E-02  0.7976776E+03  0.7818609E-02  0.9563385E-01
       -2   -1    0    0    0  501  0.00000000000E+00  0.00000000000E+00  0.72721439832E+02  0.72721439877E+02  0.25500000920E-02 0. -1.
        2   -1    0    0  501    0  0.00000000000E+00  0.00000000000E+00 -0.21874207958E+04  0.21874207958E+04  0.25500000920E-02 0.  1.
    10030    2    1    2    0    0  0.00000000000E+00  0.00000000000E+00 -0.21146993560E+04  0.22601422357E+04  0.79767760366E+03 0.  0.
        3    1    3    3  502    0 -0.21255867159E+03  0.33650717050E+03 -0.98488348960E+03  0.10622682161E+04  0.10100000352E+00 0. -1.
       -3    1    3    3    0  502  0.21255867159E+03 -0.33650717050E+03 -0.11298158664E+04  0.11978740196E+04  0.10100000352E+00 0.  1.
</event>
<event>
 5   0  0.1523811E-02  0.7830510E+03  0.7818609E-02  0.9584879E-01
       -1   -1    0    0    0  501  0.00000000000E+00  0.00000000000E+00  0.31691235467E+03  0.31691235471E+03  0.50400001928E-02 0.  1.
        1   -1    0    0  501    0  0.00000000000E+00  0.00000000000E+00 -0.48370545578E+03  0.48370545580E+03  0.50400001928E-02 0. -1.
    10030    2    1    2    0    0  0.00000000000E+00  0.00000000000E+00 -0.16679310111E+03  0.80061781051E+03  0.78305104555E+03 0.  0.
        1    1    3    3  502    0 -0.14944804451E+03  0.34951612432E+03  0.12494412376E+02  0.38033189392E+03  0.50400001928E-02 0.  1.
       -1    1    3    3    0  502  0.14944804451E+03 -0.34951612432E+03 -0.17928751348E+03  0.42028591659E+03  0.50400001928E-02 0. -1.
</event>
<event>
 5   0  0.1624094E-02  0.7749347E+03  0.7818609E-02  0.9597024E-01
        1   -1    0    0  501    0  0.00000000000E+00  0.00000000000E+00  0.42509720200E+03  0.42509720203E+03  0.50400001928E-02 0. -1.
       -1   -1    0    0    0  501  0.00000000000E+00  0.00000000000E+00 -0.35316853210E+03  0.35316853214E+03  0.50400001928E-02 0.  1.
    10030    2    1    2    0    0  0.00000000000E+00  0.00000000000E+00  0.71928669901E+02  0.77826573417E+03  0.77493471946E+03 0.  0.
        3    1    3    3  502    0  0.26587581026E+03 -0.17750811970E+03  0.25583888160E+03  0.40945405430E+03  0.10100000352E+00 0. -1.
       -3    1    3    3    0  502 -0.26587581026E+03  0.17750811970E+03 -0.18391021170E+03  0.36881167987E+03  0.10100000352E+00 0.  1.
</event>
<event>
 5   0  0.1471290E-02  0.7979781E+03  0.7818609E-02  0.9562948E-01
        1   -1    0    0  501    0  0.00000000000E+00  0.00000000000E+00  0.81852101880E+03  0.81852101881E+03  0.50400001928E-02 0. -1.
       -1   -1    0    0    0  501  0.00000000000E+00  0.00000000000E+00 -0.19448766925E+03  0.19448766932E+03  0.50400001928E-02 0.  1.
    10030    2    1    2    0    0  0.00000000000E+00  0.00000000000E+00  0.62403334955E+03  0.10130086881E+04  0.79797805789E+03 0.  0.
        2    1    3    3  502    0 -0.91851968405E+02 -0.38574222858E+03  0.25583789806E+03  0.47189710859E+03  0.25500000920E-02 0.  1.
       -2    1    3    3    0  502  0.91851968405E+02  0.38574222858E+03  0.36819545149E+03  0.54111157954E+03  0.25500000920E-02 0. -1.
</event>
<event>
 5   0  0.1509629E-02  0.7862835E+03  0.7818609E-02  0.9580086E-01
       -1   -1    0    0    0  501  0.00000000000E+00  0.00000000000E+00  0.11488421492E+03  0.11488421503E+03  0.50400001928E-02 0. -1.
        1   -1    0    0  501    0  0.00000000000E+00  0.00000000000E+00 -0.13453582241E+04  0.13453582241E+04  0.50400001928E-02 0.  1.
    10030    2    1    2    0    0  0.00000000000E+00  0.00000000000E+00 -0.12304740091E+04  0.14602424391E+04  0.78628346909E+03 0.  0.
        5    1    3    3  502    0  0.14626384731E+03  0.36402244739E+03 -0.56851667550E+03  0.69075231129E+03  0.46999998093E+01 0.  1.
       -5    1    3    3    0  502 -0.14626384731E+03 -0.36402244739E+03 -0.66195733365E+03  0.76949012781E+03  0.46999998093E+01 0. -1.
</event>
<event>
 5   0  0.2422031E-02  0.8234400E+03  0.7818609E-02  0.9526695E-01
       -2   -1    0    0    0  501  0.00000000000E+00  0.00000000000E+00  0.81826139307E+03  0.81826139308E+03  0.25500000920E-02 0. -1.
        2   -1    0    0  501    0  0.00000000000E+00  0.00000000000E+00 -0.20716283262E+03  0.20716283263E+03  0.25500000920E-02 0.  1.
    10030    2    1    2    0    0  0.00000000000E+00  0.00000000000E+00  0.61109856045E+03  0.10254242257E+04  0.82343997479E+03 0.  0.
        4    1    3    3  502    0 -0.30083250215E+03  0.20105921701E+03  0.55016852810E+03  0.65849223632E+03  0.12699999809E+01 0. -1.
       -4    1    3    3    0  502  0.30083250215E+03 -0.20105921701E+03  0.60930032359E+02  0.36693198939E+03  0.12699999809E+01 0.  1.
</event>
<event>
 5   0  0.2571778E-02  0.8146997E+03  0.7818609E-02  0.9538980E-01
       -2   -1    0    0    0  501  0.00000000000E+00  0.00000000000E+00  0.36504733628E+03  0.36504733629E+03  0.25500000920E-02 0.  1.
        2   -1    0    0  501    0  0.00000000000E+00  0.00000000000E+00 -0.45455447748E+03  0.45455447748E+03  0.25500000920E-02 0. -1.
    10030    2    1    2    0    0  0.00000000000E+00  0.00000000000E+00 -0.89507141198E+02  0.81960181377E+03  0.81469970223E+03 0.  0.
        1    1    3    3  502    0  0.67473689154E+02  0.14582072328E+03 -0.42132864697E+03  0.45092594830E+03  0.50400001928E-02 0. -1.
       -1    1    3    3    0  502 -0.67473689154E+02 -0.14582072328E+03  0.33182150577E+03  0.36867586547E+03  0.50400001928E-02 0.  1.
</event>
<event>
 5   0  0.1498375E-02  0.8166934E+03  0.7818609E-02  0.9536163E-01
       -1   -1    0    0    0  501  0.00000000000E+00  0.00000000000E+00  0.18711588298E+03  0.18711588305E+03  0.50400001928E-02 0.  1.
        1   -1    0    0  501    0  0.00000000000E+00  0.00000000000E+00 -0.89114318109E+03  0.89114318111E+03  0.50400001928E-02 0. -1.
    10030    2    1    2    0    0  0.00000000000E+00  0.00000000000E+00 -0.70402729811E+03  0.10782590642E+04  0.81669343879E+03 0.  0.
        4    1    3    3  502    0  0.55969077695E+02 -0.20995290715E+02  0.18130526955E+03  0.19090980477E+03  0.12699999809E+01 0.  1.
       -4    1    3    3    0  502 -0.55969077695E+02  0.20995290715E+02 -0.88533256766E+03  0.88734925939E+03  0.12699999809E+01 0. -1.
</event>
<event>
 5   0  0.2460312E-02  0.8091344E+03  0.7818609E-02  0.9546889E-01
        2   -1    0    0  501    0  0.00000000000E+00  0.00000000000E+00  0.10348509786E+04  0.10348509786E+04  0.25500000920E-02 0.  1.
       -2   -1    0    0    0  501  0.00000000000E+00  0.00000000000E+00 -0.15816250552E+03  0.15816250554E+03  0.25500000920E-02 0. -1.
    10030    2    1    2    0    0  0.00000000000E+00  0.00000000000E+00  0.87668847312E+03  0.11930134842E+04  0.80913441067E+03 0.  0.
        2    1    3    3  502    0 -0.24415779638E+03  0.30547297731E+03  0.28548715449E+03  0.48417939319E+03  0.25500000920E-02 0. -1.
       -2    1    3    3    0  502  0.24415779638E+03 -0.30547297731E+03  0.59120131863E+03  0.70883409099E+03  0.25500000920E-02 0.  1.
</event>
<event>
 5   0  0.1509629E-02  0.8030846E+03  0.7818609E-02  0.9555563E-01
        1   -1    0    0  501    0  0.00000000000E+00  0.00000000000E+00  0.69187487287E+03  0.69187487289E+03  0.50400001928E-02 0.  1.
       -1   -1    0    0    0  501  0.00000000000E+00  0.00000000000E+00 -0.23304247217E+03  0.23304247222E+03  0.50400001928E-02 0. -1.
    10030    2    1    2    0    0  0.00000000000E+00  0.00000000000E+00  0.45883240071E+03  0.92491734511E+03  0.80308463026E+03 0.  0.
        5    1    3    3  502    0  0.40056604865E+03  0.80773069094E+01  0.19903781650E+03  0.44738858346E+03  0.46999998093E+01 0. -1.
       -5    1    3    3    0  502 -0.40056604865E+03 -0.80773069094E+01  0.25979458421E+03  0.47752876165E+03  0.46999998093E+01 0.  1.
</event>
<event>
 5   0  0.2460312E-02  0.7845289E+03  0.7818609E-02  0.9582685E-01
       -2   -1    0    0    0  501  0.00000000000E+00  0.00000000000E+00  0.48557760180E+03  0.48557760180E+03  0.25500000920E-02 0.  1.
        2   -1    0    0  501    0  0.00000000000E+00  0.00000000000E+00 -0.31688324420E+03  0.31688324421E+03  0.25500000920E-02 0. -1.
    10030    2    1    2    0    0  0.00000000000E+00  0.00000000000E+00  0.16869435760E+03  0.80246084601E+03  0.78452891795E+03 0.  0.
        2    1    3    3  502    0  0.20897508221E+03 -0.22503031794E+03 -0.16528477483E+03  0.34875247064E+03  0.25500000920E-02 0. -1.
       -2    1    3    3    0  502 -0.20897508221E+03  0.22503031794E+03  0.33397913243E+03  0.45370837537E+03  0.25500000920E-02 0.  1.
</event>
<event>
 5   0  0.1471290E-02  0.5997689E+03  0.7818609E-02  0.9905886E-01
       -1   -1    0    0    0  501  0.00000000000E+00  0.00000000000E+00  0.11442176168E+03  0.11442176179E+03  0.50400001928E-02 0.  1.
        1   -1    0    0  501    0  0.00000000000E+00  0.00000000000E+00 -0.78595787121E+03  0.78595787123E+03  0.50400001928E-02 0. -1.
    10030    2    1    2    0    0  0.00000000000E+00  0.00000000000E+00 -0.67153610953E+03  0.90037963302E+03  0.59976890312E+03 0.  0.
        2    1    3    3  502    0 -0.29005766009E+03  0.75540936030E+02 -0.35007334962E+03  0.46085922938E+03  0.25500000920E-02 0. -1.
       -2    1    3    3    0  502  0.29005766009E+03 -0.75540936030E+02 -0.32146275992E+03  0.43952040364E+03  0.25500000920E-02 0.  1.
</event>
<event>
 5   0  0.1471290E-02  0.8033058E+03  0.7818609E-02  0.9555244E-01
       -1   -1    0    0    0  501  0.00000000000E+00  0.00000000000E+00  0.20767110274E+03  0.20767110280E+03  0.50400001928E-02 0.  1.
        1   -1    0    0  501    0  0.00000000000E+00  0.00000000000E+00 -0.77682949726E+03  0.77682949728E+03  0.50400001928E-02 0. -1.
    10030    2    1    2    0    0  0.00000000000E+00  0.00000000000E+00 -0.56915839452E+03  0.98450060007E+03  0.80330576588E+03 0.  0.
        2    1    3    3  502    0  0.34592842740E+02  0.39816292896E+03 -0.33351971415E+03  0.52054373736E+03  0.25500000920E-02 0. -1.
       -2    1    3    3    0  502 -0.34592842740E+02 -0.39816292896E+03 -0.23563868037E+03  0.46395686272E+03  0.25500000920E-02 0.  1.
</event>
<event>
 5   0  0.1471290E-02  0.6810099E+03  0.7818609E-02  0.9750270E-01
       -1   -1    0    0    0  501  0.00000000000E+00  0.00000000000E+00  0.78715674854E+03  0.78715674855E+03  0.50400001928E-02 0.  1.
        1   -1    0    0  501    0  0.00000000000E+00  0.00000000000E+00 -0.14729418985E+03  0.14729418993E+03  0.50400001928E-02 0. -1.
    10030    2    1    2    0    0  0.00000000000E+00  0.00000000000E+00  0.63986255869E+03  0.93445093849E+03  0.68100988424E+03 0.  0.
        2    1    3    3  502    0 -0.30846738219E+03  0.61751947101E+02  0.14113900770E+03  0.34479798194E+03  0.25500000920E-02 0.  1.
       -2    1    3    3    0  502  0.30846738219E+03 -0.61751947101E+02  0.49872355099E+03  0.58965295655E+03  0.25500000920E-02 0. -1.
</event>
<event>
 5   0  0.2460312E-02  0.8083739E+03  0.7818609E-02  0.9547975E-01
        2   -1    0    0  501    0  0.00000000000E+00  0.00000000000E+00  0.12419643539E+04  0.12419643539E+04  0.25500000920E-02 0.  1.
       -2   -1    0    0    0  501  0.00000000000E+00  0.00000000000E+00 -0.13153926986E+03  0.13153926989E+03  0.25500000920E-02 0. -1.
    10030    2    1    2    0    0  0.00000000000E+00  0.00000000000E+00  0.11104250841E+04  0.13735036238E+04  0.80837388461E+03 0.  0.
        2    1    3    3  502    0 -0.35371875428E+02 -0.18600607766E+03 -0.51527548013E+02  0.19622568310E+03  0.25500000920E-02 0. -1.
       -2    1    3    3    0  502  0.35371875428E+02  0.18600607766E+03  0.11619526321E+04  0.11772779407E+04  0.25500000920E-02 0.  1.
</event>
<event>
 5   0  0.1509629E-02  0.8035310E+03  0.7818609E-02  0.9554920E-01
        1   -1    0    0  501    0  0.00000000000E+00  0.00000000000E+00  0.87895919657E+03  0.87895919658E+03  0.50400001928E-02 0.  1.
       -1   -1    0    0    0  501  0.00000000000E+00  0.00000000000E+00 -0.18364391260E+03  0.18364391266E+03  0.50400001928E-02 0. -1.
    10030    2    1    2    0    0  0.00000000000E+00  0.00000000000E+00  0.69531528397E+03  0.10626031092E+04  0.80353097243E+03 0.  0.
        5    1    3    3  502    0  0.29966009037E+03 -0.57885884179E+02  0.69312622528E+03  0.75735922753E+03  0.46999998093E+01 0.  1.
       -5    1    3    3    0  502 -0.29966009037E+03  0.57885884179E+02  0.21890586869E+01  0.30524388172E+03  0.46999998093E+01 0. -1.
</event>
<event>
 5   0  0.2454354E-02  0.7959066E+03  0.7818609E-02  0.9565961E-01
        2   -1    0    0  501    0  0.00000000000E+00  0.00000000000E+00  0.13294725744E+04  0.13294725744E+04  0.25500000920E-02 0.  1.
       -2   -1    0    0    0  501  0.00000000000E+00  0.00000000000E+00 -0.11912003584E+03  0.11912003587E+03  0.25500000920E-02 0. -1.
    10030    2    1    2    0    0  0.00000000000E+00  0.00000000000E+00  0.12103525385E+04  0.14485926102E+04  0.79590657928E+03 0.  0.
        5    1    3    3  502    0  0.27300213828E+03  0.19605301425E+03  0.21746735393E+03  0.40035121072E+03  0.46999998093E+01 0. -1.
       -5    1    3    3    0  502 -0.27300213828E+03 -0.19605301425E+03  0.99288518459E+03  0.10482413995E+04  0.46999998093E+01 0.  1.
</event>
<event>
 5   0  0.2454354E-02  0.7996822E+03  0.7818609E-02  0.9560477E-01
        2   -1    0    0  501    0  0.00000000000E+00  0.00000000000E+00  0.23210765313E+04  0.23210765313E+04  0.25500000920E-02 0. -1.
       -2   -1    0    0    0  501  0.00000000000E+00  0.00000000000E+00 -0.68878780767E+02  0.68878780814E+02  0.25500000920E-02 0.  1.
    10030    2    1    2    0    0  0.00000000000E+00  0.00000000000E+00  0.22521977505E+04  0.23899553121E+04  0.79968224090E+03 0.  0.
        5    1    3    3  502    0  0.70707154460E+02  0.14161051838E+00  0.23021596651E+04  0.23032500375E+04  0.46999998093E+01 0. -1.
       -5    1    3    3    0  502 -0.70707154460E+02 -0.14161051838E+00 -0.49961914534E+02  0.86705274624E+02  0.46999998093E+01 0.  1.
</event>
<event>
 5   0  0.2422031E-02  0.8070344E+03  0.7818609E-02  0.9549891E-01
       -2   -1    0    0    0  501  0.00000000000E+00  0.00000000000E+00  0.52387590096E+03  0.52387590097E+03  0.25500000920E-02 0.  1.
        2   -1    0    0  501    0  0.00000000000E+00  0.00000000000E+00 -0.31081048951E+03  0.31081048952E+03  0.25500000920E-02 0. -1.
    10030    2    1    2    0    0  0.00000000000E+00  0.00000000000E+00  0.21306541145E+03  0.83468639049E+03  0.80703438645E+03 0.  0.
        4    1    3    3  502    0  0.50049019097E+02 -0.16101643991E+03  0.48569061908E+03  0.51412857204E+03  0.12699999809E+01 0.  1.
       -4    1    3    3    0  502 -0.50049019097E+02  0.16101643991E+03 -0.27262520762E+03  0.32055781844E+03  0.12699999809E+01 0. -1.
</event>
<event>
 5   0  0.1498375E-02  0.7946178E+03  0.7818609E-02  0.9567840E-01
        1   -1    0    0  501    0  0.00000000000E+00  0.00000000000E+00  0.15583879072E+03  0.15583879080E+03  0.50400001928E-02 0. -1.
       -1   -1    0    0    0  501  0.00000000000E+00  0.00000000000E+00 -0.10129337496E+04  0.10129337496E+04  0.50400001928E-02 0.  1.
    10030    2    1    2    0    0  0.00000000000E+00  0.00000000000E+00 -0.85709495890E+03  0.11687725404E+04  0.79461782177E+03 0.  0.
        4    1    3    3  502    0  0.24354096981E+03 -0.23442835363E+03 -0.12147934741E+03  0.35920426181E+03  0.12699999809E+01 0. -1.
       -4    1    3    3    0  502 -0.24354096981E+03  0.23442835363E+03 -0.73561561150E+03  0.80956827861E+03  0.12699999809E+01 0.  1.
</event>
<event>
 5   0  0.9919125E-03  0.7961857E+03  0.7818609E-02  0.9565555E-01
        4   -1    0    0  501    0  0.00000000000E+00  0.00000000000E+00  0.37500291605E+03  0.37500506656E+03  0.12699999809E+01 0. -1.
       -4   -1    0    0    0  501  0.00000000000E+00  0.00000000000E+00 -0.42260017351E+03  0.42260208181E+03  0.12699999809E+01 0.  1.
    10030    2    1    2    0    0  0.00000000000E+00  0.00000000000E+00 -0.47597257458E+02  0.79760714837E+03  0.79618569706E+03 0.  0.
        5    1    3    3  502    0  0.16232838296E+03  0.28705364570E+03  0.19954676798E+03  0.38547542339E+03  0.46999998093E+01 0. -1.
       -5    1    3    3    0  502 -0.16232838296E+03 -0.28705364570E+03 -0.24714402544E+03  0.41213172498E+03  0.46999998093E+01 0.  1.
</event>
<event>
 5   0  0.9919125E-03  0.7916698E+03  0.7818609E-02  0.9572154E-01
       -3   -1    0    0    0  501  0.00000000000E+00  0.00000000000E+00  0.47664678529E+03  0.47664679599E+03  0.10100000352E+00 0.  1.
        3   -1    0    0  501    0  0.00000000000E+00  0.00000000000E+00 -0.32872400585E+03  0.32872402137E+03  0.10100000352E+00 0. -1.
    10030    2    1    2    0    0  0.00000000000E+00  0.00000000000E+00  0.14792277944E+03  0.80537081736E+03  0.79166975740E+03 0.  0.
        1    1    3    3  502    0 -0.15007085957E+03 -0.17342360164E+03  0.40217204205E+03  0.46296799018E+03  0.50400001928E-02 0.  1.
       -1    1    3    3    0  502  0.15007085957E+03  0.17342360164E+03 -0.25424926261E+03  0.34240282718E+03  0.50400001928E-02 0. -1.
</event>
<event>
 5   0  0.2460312E-02  0.8112007E+03  0.7818609E-02  0.9543945E-01
       -2   -1    0    0    0  501  0.00000000000E+00  0.00000000000E+00  0.20387627950E+03  0.20387627951E+03  0.25500000920E-02 0.  1.
        2   -1    0    0  501    0  0.00000000000E+00  0.00000000000E+00 -0.80691891521E+03  0.80691891522E+03  0.25500000920E-02 0. -1.
    10030    2    1    2    0    0  0.00000000000E+00  0.00000000000E+00 -0.60304263572E+03  0.10107951947E+04  0.81120065655E+03 0.  0.
        2    1    3    3  502    0 -0.26926686595E+03  0.10431235871E+03 -0.65642840667E+03  0.71713594692E+03  0.25500000920E-02 0. -1.
       -2    1    3    3    0  502  0.26926686595E+03 -0.10431235871E+03  0.53385770954E+02  0.29365924781E+03  0.25500000920E-02 0.  1.
</event>
<event>
 5   0  0.1471290E-02  0.7795426E+03  0.7818609E-02  0.9590110E-01
        1   -1    0    0  501    0  0.00000000000E+00  0.00000000000E+00  0.45751721824E+03  0.45751721827E+03  0.50400001928E-02 0. -1.
       -1   -1    0    0    0  501  0.00000000000E+00  0.00000000000E+00 -0.33205671308E+03  0.33205671311E+03  0.50400001928E-02 0.  1.
    10030    2    1    2    0    0  0.00000000000E+00  0.00000000000E+00  0.12546050517E+03  0.78957393138E+03  0.77954259330E+03 0.  0.
        2    1    3    3  502    0 -0.72390009072E+02  0.15462285929E+03  0.41762910981E+03  0.45117913891E+03  0.25500000920E-02 0. -1.
       -2    1    3    3    0  502  0.72390009072E+02 -0.15462285929E+03 -0.29216860464E+03  0.33839479247E+03  0.25500000920E-02 0.  1.
</event>
<event>
 5   0  0.2464780E-02  0.8377945E+03  0.7818609E-02  0.9506867E-01
       -2   -1    0    0    0  501  0.00000000000E+00  0.00000000000E+00  0.35235084976E+03  0.35235084977E+03  0.25500000920E-02 0.  1.
        2   -1    0    0  501    0  0.00000000000E+00  0.00000000000E+00 -0.49801189150E+03  0.49801189151E+03  0.25500000920E-02 0. -1.
    10030    2    1    2    0    0  0.00000000000E+00  0.00000000000E+00 -0.14566104174E+03  0.85036274128E+03  0.83779451698E+03 0.  0.
        3    1    3    3  502    0 -0.79299742517E+02 -0.36496884384E+03 -0.26537125187E+03  0.45816221763E+03  0.10100000352E+00 0. -1.
       -3    1    3    3    0  502  0.79299742517E+02  0.36496884384E+03  0.11971021014E+03  0.39220052365E+03  0.10100000352E+00 0.  1.
</event>
<event>
 5   0  0.2454354E-02  0.8059818E+03  0.7818609E-02  0.9551399E-01
       -2   -1    0    0    0  501  0.00000000000E+00  0.00000000000E+00  0.23880796730E+03  0.23880796732E+03  0.25500000920E-02 0.  1.
        2   -1    0    0  501    0  0.00000000000E+00  0.00000000000E+00 -0.68005135983E+03  0.68005135983E+03  0.25500000920E-02 0. -1.
    10030    2    1    2    0    0  0.00000000000E+00  0.00000000000E+00 -0.44124339252E+03  0.91885932715E+03  0.80598184324E+03 0.  0.
        5    1    3    3  502    0 -0.28839066145E+01 -0.13678351249E+03 -0.65273141939E+03  0.66693211204E+03  0.46999998093E+01 0. -1.
       -5    1    3    3    0  502  0.28839066145E+01  0.13678351249E+03  0.21148802687E+03  0.25192721511E+03  0.46999998093E+01 0.  1.
</event>
<event>
 5   0  0.1509629E-02  0.7966419E+03  0.7818609E-02  0.9564891E-01
        1   -1    0    0  501    0  0.00000000000E+00  0.00000000000E+00  0.79817652279E+03  0.79817652280E+03  0.50400001928E-02 0. -1.
       -1   -1    0    0    0  501  0.00000000000E+00  0.00000000000E+00 -0.19877755826E+03  0.19877755832E+03  0.50400001928E-02 0.  1.
    10030    2    1    2    0    0  0.00000000000E+00  0.00000000000E+00  0.59939896453E+03  0.99695408112E+03  0.79664190273E+03 0.  0.
        5    1    3    3  502    0 -0.19319825413E+03 -0.23251090835E+02 -0.13520501723E+03  0.23699929389E+03  0.46999998093E+01 0.  1.
       -5    1    3    3    0  502  0.19319825413E+03  0.23251090835E+02  0.73460398176E+03  0.75995478723E+03  0.46999998093E+01 0. -1.
</event>
<event>
 5   0  0.1624094E-02  0.7989194E+03  0.7818609E-02  0.9561583E-01
       -1   -1    0    0    0  501  0.00000000000E+00  0.00000000000E+00  0.13849205605E+03  0.13849205614E+03  0.50400001928E-02 0. -1.
        1   -1    0    0  501    0  0.00000000000E+00  0.00000000000E+00 -0.11521820418E+04  0.11521820418E+04  0.50400001928E-02 0.  1.
    10030    2    1    2    0    0  0.00000000000E+00  0.00000000000E+00 -0.10136899857E+04  0.12906740979E+04  0.79891942015E+03 0.  0.
        3    1    3    3  502    0  0.16483189638E+03  0.36246569133E+03 -0.45532220502E+03  0.60487126898E+03  0.10100000352E+00 0.  1.
       -3    1    3    3    0  502 -0.16483189638E+03 -0.36246569133E+03 -0.55836778069E+03  0.68580282893E+03  0.10100000352E+00 0. -1.
</event>
<event>
 5   0  0.2464780E-02  0.7835160E+03  0.7818609E-02  0.9584188E-01
        2   -1    0    0  501    0  0.00000000000E+00  0.00000000000E+00  0.51049005558E+03  0.51049005559E+03  0.25500000920E-02 0. -1.
       -2   -1    0    0    0  501  0.00000000000E+00  0.00000000000E+00 -0.30064116252E+03  0.30064116253E+03  0.25500000920E-02 0.  1.
    10030    2    1    2    0    0  0.00000000000E+00  0.00000000000E+00  0.20984889306E+03  0.81113121811E+03  0.78351598266E+03 0.  0.
        3    1    3    3  502    0 -0.23453714380E+03  0.31627985903E+02  0.42812383007E+03  0.48918097407E+03  0.10100000352E+00 0. -1.
       -3    1    3    3    0  502  0.23453714380E+03 -0.31627985903E+02 -0.21827493701E+03  0.32195024405E+03  0.10100000352E+00 0.  1.
</event>
<event>
 5   0  0.2571778E-02  0.6599478E+03  0.7818609E-02  0.9788290E-01
       -2   -1    0    0    0  501  0.00000000000E+00  0.00000000000E+00  0.78064138989E+02  0.78064139031E+02  0.25500000920E-02 0.  1.
        2   -1    0    0  501    0  0.00000000000E+00  0.00000000000E+00 -0.13947859898E+04  0.13947859898E+04  0.25500000920E-02 0. -1.
    10030    2    1    2    0    0  0.00000000000E+00  0.00000000000E+00 -0.13167218508E+04  0.14728501289E+04  0.65994777794E+03 0.  0.
        1    1    3    3  502    0 -0.27398507385E+03  0.99257586187E+02 -0.31288445265E+03  0.42757054370E+03  0.50400001928E-02 0.  1.
       -1    1    3    3    0  502  0.27398507385E+03 -0.99257586187E+02 -0.10038373982E+04  0.10452795851E+04  0.50400001928E-02 0. -1.
</event>
<event>
 5   0  0.2571778E-02  0.7980942E+03  0.7818609E-02  0.9562780E-01
       -2   -1    0    0    0  501  0.00000000000E+00  0.00000000000E+00  0.42369810687E+03  0.42369810688E+03  0.25500000920E-02 0.  1.
        2   -1    0    0  501    0  0.00000000000E+00  0.00000000000E+00 -0.37583029065E+03  0.37583029066E+03  0.25500000920E-02 0. -1.
    10030    2    1    2    0    0  0.00000000000E+00  0.00000000000E+00  0.47867816225E+02  0.79952839754E+03  0.79809418657E+03 0.  0.
        1    1    3    3  502    0 -0.84370090255E+02  0.31800145572E+02  0.41335990696E+03  0.42307915819E+03  0.50400001928E-02 0.  1.
       -1    1    3    3    0  502  0.84370090255E+02 -0.31800145572E+02 -0.36549209074E+03  0.37644923935E+03  0.50400001928E-02 0. -1.
</event>
<event>
 5   0  0.2460312E-02  0.7070641E+03  0.7818609E-02  0.9705227E-01
        2   -1    0    0  501    0  0.00000000000E+00  0.00000000000E+00  0.18309397296E+03  0.18309397298E+03  0.25500000920E-02 0.  1.
       -2   -1    0    0    0  501  0.00000000000E+00  0.00000000000E+00 -0.68262704491E+03  0.68262704491E+03  0.25500000920E-02 0. -1.
    10030    2    1    2    0    0  0.00000000000E+00  0.00000000000E+00 -0.49953307194E+03  0.86572101789E+03  0.70706406418E+03 0.  0.
        2    1    3    3  502    0  0.11952295046E+03 -0.29966483211E+03 -0.42677494640E+03  0.53499682445E+03  0.25500000920E-02 0. -1.
       -2    1    3    3    0  502 -0.11952295046E+03  0.29966483211E+03 -0.72758125545E+02  0.33072419344E+03  0.25500000920E-02 0.  1.
</event>
<event>
 5   0  0.1523811E-02  0.7786304E+03  0.7818609E-02  0.9591474E-01
        1   -1    0    0  501    0  0.00000000000E+00  0.00000000000E+00  0.32092982648E+03  0.32092982652E+03  0.50400001928E-02 0.  1.
       -1   -1    0    0    0  501  0.00000000000E+00  0.00000000000E+00 -0.47227242390E+03  0.47227242393E+03  0.50400001928E-02 0. -1.
    10030    2    1    2    0    0  0.00000000000E+00  0.00000000000E+00 -0.15134259742E+03  0.79320225045E+03  0.77863035410E+03 0.  0.
        1    1    3    3  502    0  0.14477143642E+03  0.75280185151E+02 -0.43575553479E+03  0.46530501953E+03  0.50400001928E-02 0. -1.
       -1    1    3    3    0  502 -0.14477143642E+03 -0.75280185151E+02  0.28441293736E+03  0.32789723092E+03  0.50400001928E-02 0.  1.
</event>
<event>
 5   0  0.2571778E-02  0.7844377E+03  0.7818609E-02  0.9582820E-01
       -2   -1    0    0    0  501  0.00000000000E+00  0.00000000000E+00  0.48834030641E+03  0.48834030642E+03  0.25500000920E-02 0.  1.
        2   -1    0    0  501    0  0.00000000000E+00  0.00000000000E+00 -0.31501729031E+03  0.31501729032E+03  0.25500000920E-02 0. -1.
    10030    2    1    2    0    0  0.00000000000E+00  0.00000000000E+00  0.17332301610E+03  0.80335759674E+03  0.78443773515E+03 0.  0.
        1    1    3    3  502    0 -0.21124273802E+03 -0.14651567307E+03  0.39002433819E+03  0.46712880582E+03  0.50400001928E-02 0.  1.
       -1    1    3    3    0  502  0.21124273802E+03  0.14651567307E+03 -0.21670132209E+03  0.33622879092E+03  0.50400001928E-02 0. -1.
</event>
<event>
 5   0  0.2422031E-02  0.8022622E+03  0.7818609E-02  0.9556748E-01
       -2   -1    0    0    0  501  0.00000000000E+00  0.00000000000E+00  0.90174859834E+02  0.90174859870E+02  0.25500000920E-02 0.  1.
        2   -1    0    0  501    0  0.00000000000E+00  0.00000000000E+00 -0.17843795148E+04  0.17843795148E+04  0.25500000920E-02 0. -1.
    10030    2    1    2    0    0  0.00000000000E+00  0.00000000000E+00 -0.16942046549E+04  0.18745543746E+04  0.80226223311E+03 0.  0.
        4    1    3    3  502    0 -0.34326559815E+03  0.20319089368E+03 -0.74833494500E+03  0.84801215377E+03  0.12699999809E+01 0. -1.
       -4    1    3    3    0  502  0.34326559815E+03 -0.20319089368E+03 -0.94586970994E+03  0.10265422209E+04  0.12699999809E+01 0.  1.
</event>
<event>
 5   0  0.2464780E-02  0.8112139E+03  0.7818609E-02  0.9543926E-01
        2   -1    0    0  501    0  0.00000000000E+00  0.00000000000E+00  0.12393762333E+04  0.12393762333E+04  0.25500000920E-02 0.  1.
       -2   -1    0    0    0  501  0.00000000000E+00  0.00000000000E+00 -0.13274178419E+03  0.13274178421E+03  0.25500000920E-02 0. -1.
    10030    2    1    2    0    0  0.00000000000E+00  0.00000000000E+00  0.11066344491E+04  0.13721180175E+04  0.81121393604E+03 0.  0.
        3    1    3    3  502    0  0.17737378481E+03 -0.10872899692E+03 -0.35617920561E+02  0.21107368566E+03  0.10100000352E+00 0. -1.
       -3    1    3    3    0  502 -0.17737378481E+03  0.10872899692E+03  0.11422523697E+04  0.11610443319E+04  0.10100000352E+00 0.  1.
</event>
<event>
 5   0  0.1624094E-02  0.8022632E+03  0.7818609E-02  0.9556747E-01
        1   -1    0    0  501    0  0.00000000000E+00  0.00000000000E+00  0.56480424218E+03  0.56480424220E+03  0.50400001928E-02 0. -1.
       -1   -1    0    0    0  501  0.00000000000E+00  0.00000000000E+00 -0.28488905469E+03  0.28488905473E+03  0.50400001928E-02 0.  1.
    10030    2    1    2    0    0  0.00000000000E+00  0.00000000000E+00  0.27991518749E+03  0.84969329693E+03  0.80226316547E+03 0.  0.
        3    1    3    3  502    0 -0.23433782097E+03 -0.21639004138E+03 -0.11766715476E+03  0.33997710784E+03  0.10100000352E+00 0. -1.
       -3    1    3    3    0  502  0.23433782097E+03  0.21639004138E+03  0.39758234225E+03  0.50971618909E+03  0.10100000352E+00 0.  1.
</event>
<event>
 5   0  0.9919125E-03  0.7958364E+03  0.7818609E-02  0.9566063E-01
       -4   -1    0    0    0  501  0.00000000000E+00  0.00000000000E+00  0.89556189591E+03  0.89556279641E+03  0.12699999809E+01 0. -1.
        4   -1    0    0  501    0  0.00000000000E+00  0.00000000000E+00 -0.17680071310E+03  0.17680527440E+03  0.12699999809E+01 0.  1.
    10030    2    1    2    0    0  0.00000000000E+00  0.00000000000E+00  0.71876118281E+03  0.10723680708E+04  0.79583644134E+03 0.  0.
        4    1    3    3  502    0 -0.14701768004E+03 -0.11191343799E+03  0.83425437727E+03  0.85447106139E+03  0.12699999809E+01 0.  1.
       -4    1    3    3    0  502  0.14701768004E+03  0.11191343799E+03 -0.11549319447E+03  0.21789700942E+03  0.12699999809E+01 0. -1.
</event>
<event>
 5   0  0.2571778E-02  0.7903047E+03  0.7818609E-02  0.9574158E-01
        2   -1    0    0  501    0  0.00000000000E+00  0.00000000000E+00  0.43545375888E+03  0.43545375888E+03  0.25500000920E-02 0. -1.
       -2   -1    0    0    0  501  0.00000000000E+00  0.00000000000E+00 -0.35858087049E+03  0.35858087050E+03  0.25500000920E-02 0.  1.
    10030    2    1    2    0    0  0.00000000000E+00  0.00000000000E+00  0.76872888391E+02  0.79403462938E+03  0.79030472078E+03 0.  0.
        1    1    3    3  502    0 -0.80869569991E+02  0.37640760356E+03 -0.50993851458E+02  0.38835929792E+03  0.50400001928E-02 0.  1.
       -1    1    3    3    0  502  0.80869569991E+02 -0.37640760356E+03  0.12786673985E+03  0.40567533146E+03  0.50400001928E-02 0. -1.
</event>
<event>
 5   0  0.2422031E-02  0.8041665E+03  0.7818609E-02  0.9554006E-01
       -2   -1    0    0    0  501  0.00000000000E+00  0.00000000000E+00  0.72277052774E+02  0.72277052819E+02  0.25500000920E-02 0.  1.
        2   -1    0    0  501    0  0.00000000000E+00  0.00000000000E+00 -0.22368223412E+04  0.22368223412E+04  0.25500000920E-02 0. -1.
    10030    2    1    2    0    0  0.00000000000E+00  0.00000000000E+00 -0.21645452884E+04  0.23090993940E+04  0.80416646649E+03 0.  0.
        4    1    3    3  502    0  0.38444297091E+03  0.45296563013E+02 -0.13944678966E+04  0.14472009204E+04  0.12699999809E+01 0. -1.
       -4    1    3    3    0  502 -0.38444297091E+03 -0.45296563013E+02 -0.77007739182E+03  0.86189847360E+03  0.12699999809E+01 0.  1.
</event>
<event>
 5   0  0.2464780E-02  0.7932095E+03  0.7818609E-02  0.9569898E-01
       -2   -1    0    0    0  501  0.00000000000E+00  0.00000000000E+00  0.53293232690E+03  0.53293232691E+03  0.25500000920E-02 0. -1.
        2   -1    0    0  501    0  0.00000000000E+00  0.00000000000E+00 -0.29515066854E+03  0.29515066855E+03  0.25500000920E-02 0.  1.
    10030    2    1    2    0    0  0.00000000000E+00  0.00000000000E+00  0.23778165836E+03  0.82808299545E+03  0.79320951224E+03 0.  0.
        3    1    3    3  502    0 -0.93655446843E+01 -0.35481088616E+03  0.30363678807E+03  0.46709077023E+03  0.10100000352E+00 0. -1.
       -3    1    3    3    0  502  0.93655446843E+01  0.35481088616E+03 -0.65855129709E+02  0.36099222522E+03  0.10100000352E+00 0.  1.
</event>
<event>
 5   0  0.1523811E-02  0.7893351E+03  0.7818609E-02  0.9575584E-01
        1   -1    0    0  501    0  0.00000000000E+00  0.00000000000E+00  0.12664561081E+04  0.12664561081E+04  0.50400001928E-02 0. -1.
       -1   -1    0    0    0  501  0.00000000000E+00  0.00000000000E+00 -0.12299082967E+03  0.12299082977E+03  0.50400001928E-02 0.  1.
    10030    2    1    2    0    0  0.00000000000E+00  0.00000000000E+00  0.11434652785E+04  0.13894469379E+04  0.78933513175E+03 0.  0.
        1    1    3    3  502    0  0.30890940074E+03  0.81772869923E+02  0.16400692928E+03  0.35917975026E+03  0.50400001928E-02 0.  1.
       -1    1    3    3    0  502 -0.30890940074E+03 -0.81772869923E+02  0.97945834920E+03  0.10302671877E+04  0.50400001928E-02 0. -1.
</event>
<event>
 5   0  0.2460312E-02  0.8031950E+03  0.7818609E-02  0.9555404E-01
       -2   -1    0    0    0  501  0.00000000000E+00  0.00000000000E+00  0.10246215476E+03  0.10246215479E+03  0.25500000920E-02 0.  1.
        2   -1    0    0  501    0  0.00000000000E+00  0.00000000000E+00 -0.15740499948E+04  0.15740499948E+04  0.25500000920E-02 0. -1.
    10030    2    1    2    0    0  0.00000000000E+00  0.00000000000E+00 -0.14715878401E+04  0.16765121496E+04  0.80319500546E+03 0.  0.
        2    1    3    3  502    0  0.13507721809E+02  0.23513582080E+03 -0.56828734167E+02  0.24228251651E+03  0.25500000920E-02 0.  1.
       -2    1    3    3    0  502 -0.13507721809E+02 -0.23513582080E+03 -0.14147591059E+04  0.14342296331E+04  0.25500000920E-02 0. -1.
</event>
<event>
 5   0  0.1498375E-02  0.8060472E+03  0.7818609E-02  0.9551305E-01
       -1   -1    0    0    0  501  0.00000000000E+00  0.00000000000E+00  0.57526083249E+03  0.57526083251E+03  0.50400001928E-02 0. -1.
        1   -1    0    0  501    0  0.00000000000E+00  0.00000000000E+00 -0.28235543829E+03  0.28235543834E+03  0.50400001928E-02 0.  1.
    10030    2    1    2    0    0  0.00000000000E+00  0.00000000000E+00  0.29290539419E+03  0.85761627085E+03  0.80604720586E+03 0.  0.
        4    1    3    3  502    0  0.21708459933E+03  0.17679240335E+03  0.45490557262E+03  0.53415538007E+03  0.12699999809E+01 0. -1.
       -4    1    3    3    0  502 -0.21708459933E+03 -0.17679240335E+03 -0.16200017843E+03  0.32346089078E+03  0.12699999809E+01 0.  1.
</event>
<event>
 5   0  0.1471290E-02  0.8141285E+03  0.7818609E-02  0.9539789E-01
        1   -1    0    0  501    0  0.00000000000E+00  0.00000000000E+00  0.70113816735E+03  0.70113816737E+03  0.50400001928E-02 0. -1.
       -1   -1    0    0    0  501  0.00000000000E+00  0.00000000000E+00 -0.23633188716E+03  0.23633188722E+03  0.50400001928E-02 0.  1.
    10030    2    1    2    0    0  0.00000000000E+00  0.00000000000E+00  0.46480628019E+03  0.93747005458E+03  0.81412850653E+03 0.  0.
        2    1    3    3  502    0  0.13419096353E+03  0.38868441174E+02 -0.20786106402E+03  0.25044798333E+03  0.25500000920E-02 0.  1.
       -2    1    3    3    0  502 -0.13419096353E+03 -0.38868441174E+02  0.67266734421E+03  0.68702207125E+03  0.25500000920E-02 0. -1.
</event>
<event>
 5   0  0.2454354E-02  0.8036889E+03  0.7818609E-02  0.9554693E-01
        2   -1    0    0  501    0  0.00000000000E+00  0.00000000000E+00  0.12132080915E+04  0.12132080915E+04  0.25500000920E-02 0. -1.
       -2   -1    0    0    0  501  0.00000000000E+00  0.00000000000E+00 -0.13310078915E+03  0.13310078918E+03  0.25500000920E-02 0.  1.
    10030    2    1    2    0    0  0.00000000000E+00  0.00000000000E+00  0.10801073024E+04  0.13463088807E+04  0.80368888110E+03 0.  0.
        5    1    3    3  502    0  0.10391906671E+03 -0.38571171730E+03  0.46733999211E+03  0.61481823291E+03  0.46999998093E+01 0. -1.
       -5    1    3    3    0  502 -0.10391906671E+03  0.38571171730E+03  0.61276731025E+03  0.73149064779E+03  0.46999998093E+01 0.  1.
</event>
<event>
 5   0  0.1523811E-02  0.7784922E+03  0.7818609E-02  0.9591681E-01
        1   -1    0    0  501    0  0.00000000000E+00  0.00000000000E+00  0.36311479048E+03  0.36311479051E+03  0.50400001928E-02 0. -1.
       -1   -1    0    0    0  501  0.00000000000E+00  0.00000000000E+00 -0.41725789711E+03  0.41725789714E+03  0.50400001928E-02 0.  1.
    10030    2    1    2    0    0  0.00000000000E+00  0.00000000000E+00 -0.54143106627E+02  0.78037268765E+03  0.77849216800E+03 0.  0.
        1    1    3    3  502    0  0.60215622536E+02  0.19805471583E+03  0.30336227854E+03  0.36726048484E+03  0.50400001928E-02 0. -1.
       -1    1    3    3    0  502 -0.60215622536E+02 -0.19805471583E+03 -0.35750538517E+03  0.41311220281E+03  0.50400001928E-02 0.  1.
</event>
<event>
 5   0  0.2422031E-02  0.8000234E+03  0.7818609E-02  0.9559983E-01
        2   -1    0    0  501    0  0.00000000000E+00  0.00000000000E+00  0.73757393348E+03  0.73757393349E+03  0.25500000920E-02 0. -1.
       -2   -1    0    0    0  501  0.00000000000E+00  0.00000000000E+00 -0.21694008455E+03  0.21694008456E+03  0.25500000920E-02 0.  1.
    10030    2    1    2    0    0  0.00000000000E+00  0.00000000000E+00  0.52063384894E+03  0.95451401805E+03  0.80002337841E+03 0.  0.
        4    1    3    3  502    0  0.29486222208E+03 -0.16398357838E+02  0.58222414145E+03  0.65283933700E+03  0.12699999809E+01 0. -1.
       -4    1    3    3    0  502 -0.29486222208E+03  0.16398357838E+02 -0.61590292513E+02  0.30167468105E+03  0.12699999809E+01 0.  1.
</event>
<event>
 5   0  0.1509629E-02  0.7708997E+03  0.7818609E-02  0.9603121E-01
       -1   -1    0    0    0  501  0.00000000000E+00  0.00000000000E+00  0.39083895644E+03  0.39083895647E+03  0.50400001928E-02 0.  1.
        1   -1    0    0  501    0  0.00000000000E+00  0.00000000000E+00 -0.38013504677E+03  0.38013504680E+03  0.50400001928E-02 0. -1.
    10030    2    1    2    0    0  0.00000000000E+00  0.00000000000E+00  0.10703909670E+02  0.77097400327E+03  0.77089969519E+03 0.  0.
        5    1    3    3  502    0 -0.10183731437E+03 -0.33289075291E+03 -0.16007983864E+03  0.38319020957E+03  0.46999998093E+01 0. -1.
       -5    1    3    3    0  502  0.10183731437E+03  0.33289075291E+03  0.17078374831E+03  0.38778379370E+03  0.46999998093E+01 0.  1.
</event>
<event>
 5   0  0.2464780E-02  0.8064815E+03  0.7818609E-02  0.9550683E-01
        2   -1    0    0  501    0  0.00000000000E+00  0.00000000000E+00  0.13929776268E+04  0.13929776268E+04  0.25500000920E-02 0. -1.
       -2   -1    0    0    0  501  0.00000000000E+00  0.00000000000E+00 -0.11673057737E+03  0.11673057740E+03  0.25500000920E-02 0.  1.
    10030    2    1    2    0    0  0.00000000000E+00  0.00000000000E+00  0.12762470494E+04  0.15097082042E+04  0.80648145092E+03 0.  0.
        3    1    3    3  502    0 -0.12586484330E+03  0.34064549887E+03  0.96623518357E+03  0.10322266005E+04  0.10100000352E+00 0. -1.
       -3    1    3    3    0  502  0.12586484330E+03 -0.34064549887E+03  0.31001186587E+03  0.47748160369E+03  0.10100000352E+00 0.  1.
</event>
<event>
 5   0  0.2464780E-02  0.8154436E+03  0.7818609E-02  0.9537928E-01
        2   -1    0    0  501    0  0.00000000000E+00  0.00000000000E+00  0.90889422926E+03  0.90889422927E+03  0.25500000920E-02 0. -1.
       -2   -1    0    0    0  501  0.00000000000E+00  0.00000000000E+00 -0.18290036279E+03  0.18290036281E+03  0.25500000920E-02 0.  1.
    10030    2    1    2    0    0  0.00000000000E+00  0.00000000000E+00  0.72599386647E+03  0.10917945921E+04  0.81544364437E+03 0.  0.
        3    1    3    3  502    0  0.39276916827E+03 -0.31516407873E+02  0.50326939225E+03  0.63917211680E+03  0.10100000352E+00 0. -1.
       -3    1    3    3    0  502 -0.39276916827E+03  0.31516407873E+02  0.22272447422E+03  0.45262247528E+03  0.10100000352E+00 0.  1.
</event>
<event>
 5   0  0.1624094E-02  0.6927608E+03  0.7818609E-02  0.9729693E-01
        1   -1    0    0  501    0  0.00000000000E+00  0.00000000000E+00  0.13448973371E+04  0.13448973371E+04  0.50400001928E-02 0. -1.
       -1   -1    0    0    0  501  0.00000000000E+00  0.00000000000E+00 -0.89210809616E+02  0.89210809759E+02  0.50400001928E-02 0.  1.
    10030    2    1    2    0    0  0.00000000000E+00  0.00000000000E+00  0.12556865275E+04  0.14341081469E+04  0.69276079683E+03 0.  0.
        3    1    3    3  502    0  0.18691627441E+03 -0.18299699062E+03  0.10978768033E+04  0.11286093556E+04  0.10100000352E+00 0. -1.
       -3    1    3    3    0  502 -0.18691627441E+03  0.18299699062E+03  0.15780972426E+03  0.30549879130E+03  0.10100000352E+00 0.  1.
</event>
<event>
 5   0  0.2460312E-02  0.8178284E+03  0.7818609E-02  0.9534564E-01
       -2   -1    0    0    0  501  0.00000000000E+00  0.00000000000E+00  0.38474650599E+03  0.38474650600E+03  0.25500000920E-02 0.  1.
        2   -1    0    0  501    0  0.00000000000E+00  0.00000000000E+00 -0.43459993743E+03  0.43459993743E+03  0.25500000920E-02 0. -1.
    10030    2    1    2    0    0  0.00000000000E+00  0.00000000000E+00 -0.49853431435E+02  0.81934644344E+03  0.81782836203E+03 0.  0.
        2    1    3    3  502    0 -0.38363521961E+03  0.37040029128E+02  0.11193895403E+03  0.40134558042E+03  0.25500000920E-02 0.  1.
       -2    1    3    3    0  502  0.38363521961E+03 -0.37040029128E+02 -0.16179238547E+03  0.41800086302E+03  0.25500000920E-02 0. -1.
</event>
<event>
 5   0  0.2422031E-02  0.8032494E+03  0.7818609E-02  0.9555326E-01
        2   -1    0    0  501    0  0.00000000000E+00  0.00000000000E+00  0.34980087805E+03  0.34980087806E+03  0.25500000920E-02 0.  1.
       -2   -1    0    0    0  501  0.00000000000E+00  0.00000000000E+00 -0.46112639286E+03  0.46112639287E+03  0.25500000920E-02 0. -1.
    10030    2    1    2    0    0  0.00000000000E+00  0.00000000000E+00 -0.11132551481E+03  0.81092727093E+03  0.80324944351E+03 0.  0.
        4    1    3    3  502    0 -0.39018233430E+03  0.90100214145E+02 -0.86623491458E+02  0.40971397922E+03  0.12699999809E+01 0. -1.
       -4    1    3    3    0  502  0.39018233430E+03 -0.90100214145E+02 -0.24702023356E+02  0.40121329172E+03  0.12699999809E+01 0.  1.
</event>
<event>
 5   0  0.2422031E-02  0.7957555E+03  0.7818609E-02  0.9566181E-01
       -2   -1    0    0    0  501  0.00000000000E+00  0.00000000000E+00  0.11459651908E+03  0.11459651911E+03  0.25500000920E-02 0.  1.
        2   -1    0    0  501    0  0.00000000000E+00  0.00000000000E+00 -0.13814269298E+04  0.13814269298E+04  0.25500000920E-02 0. -1.
    10030    2    1    2    0    0  0.00000000000E+00  0.00000000000E+00 -0.12668304108E+04  0.14960234489E+04  0.79575553419E+03 0.  0.
        4    1    3    3  502    0 -0.38139210263E+03 -0.93841498203E+02 -0.75289446892E+03  0.84918658548E+03  0.12699999809E+01 0.  1.
       -4    1    3    3    0  502  0.38139210263E+03  0.93841498203E+02 -0.51393594183E+03  0.64683686347E+03  0.12699999809E+01 0. -1.
</event>
<event>
 5   0  0.1471290E-02  0.8039439E+03  0.7818609E-02  0.9554326E-01
       -1   -1    0    0    0  501  0.00000000000E+00  0.00000000000E+00  0.13312924675E+04  0.13312924675E+04  0.50400001928E-02 0.  1.
        1   -1    0    0  501    0  0.00000000000E+00  0.00000000000E+00 -0.12137185896E+03  0.12137185907E+03  0.50400001928E-02 0. -1.
    10030    2    1    2    0    0  0.00000000000E+00  0.00000000000E+00  0.12099206086E+04  0.14526643266E+04  0.80394388283E+03 0.  0.
        2    1    3    3  502    0  0.75015543598E+02  0.20589997987E+03  0.12138672186E+04  0.12334892613E+04  0.25500000920E-02 0.  1.
       -2    1    3    3    0  502 -0.75015543598E+02 -0.20589997987E+03 -0.39466100216E+01  0.21917506525E+03  0.25500000920E-02 0. -1.
</event>
<event>
 5   0  0.1624094E-02  0.6997193E+03  0.7818609E-02  0.9717712E-01
        1   -1    0    0  501    0  0.00000000000E+00  0.00000000000E+00  0.41551546494E+03  0.41551546497E+03  0.50400001928E-02 0.  1.
       -1   -1    0    0    0  501  0.00000000000E+00  0.00000000000E+00 -0.29457815567E+03  0.29457815571E+03  0.50400001928E-02 0. -1.
    10030    2    1    2    0    0  0.00000000000E+00  0.00000000000E+00  0.12093730927E+03  0.71009362068E+03  0.69971931327E+03 0.  0.
        3    1    3    3  502    0 -0.42788620695E+01 -0.24530293088E+03 -0.19264852061E+03  0.31193797341E+03  0.10100000352E+00 0. -1.
       -3    1    3    3    0  502  0.42788620695E+01  0.24530293088E+03  0.31358582988E+03  0.39815564728E+03  0.10100000352E+00 0.  1.
</event>
<event>
 5   0  0.1523811E-02  0.7973296E+03  0.7818609E-02  0.9563891E-01
        1   -1    0    0  501    0  0.00000000000E+00  0.00000000000E+00  0.92999843243E+03  0.92999843244E+03  0.50400001928E-02 0.  1.
       -1   -1    0    0    0  501  0.00000000000E+00  0.00000000000E+00 -0.17089664480E+03  0.17089664487E+03  0.50400001928E-02 0. -1.
    10030    2    1    2    0    0  0.00000000000E+00  0.00000000000E+00  0.75910178763E+03  0.11008950773E+04  0.79732957256E+03 0.  0.
        1    1    3    3  502    0 -0.72718213714E+02 -0.10867117830E+03 -0.14044710835E+03  0.19189255813E+03  0.50400001928E-02 0. -1.
       -1    1    3    3    0  502  0.72718213714E+02  0.10867117830E+03  0.89954889598E+03  0.90900251918E+03  0.50400001928E-02 0.  1.
</event>
<event>
 5   0  0.1471290E-02  0.8063193E+03  0.7818609E-02  0.9550915E-01
       -1   -1    0    0    0  501  0.00000000000E+00  0.00000000000E+00  0.48038747148E+03  0.48038747151E+03  0.50400001928E-02 0. -1.
        1   -1    0    0  501    0  0.00000000000E+00  0.00000000000E+00 -0.33834707716E+03  0.33834707720E+03  0.50400001928E-02 0.  1.
    10030    2    1    2    0    0  0.00000000000E+00  0.00000000000E+00  0.14204039432E+03  0.81873454870E+03  0.80631928392E+03 0.  0.
        2    1    3    3  502    0 -0.27604678548E+03  0.18721791801E+03 -0.15892937539E+03  0.36947384612E+03  0.25500000920E-02 0.  1.
       -2    1    3    3    0  502  0.27604678548E+03 -0.18721791801E+03  0.30096976971E+03  0.44926070258E+03  0.25500000920E-02 0. -1.
</event>
<event>
 5   0  0.1523811E-02  0.7887689E+03  0.7818609E-02  0.9576417E-01
       -1   -1    0    0    0  501  0.00000000000E+00  0.00000000000E+00  0.11856731512E+03  0.11856731523E+03  0.50400001928E-02 0.  1.
        1   -1    0    0  501    0  0.00000000000E+00  0.00000000000E+00 -0.13118209725E+04  0.13118209725E+04  0.50400001928E-02 0. -1.
    10030    2    1    2    0    0  0.00000000000E+00  0.00000000000E+00 -0.11932536574E+04  0.14303882878E+04  0.78876889065E+03 0.  0.
        1    1    3    3  502    0 -0.26744054830E+03  0.19280832971E+03 -0.20415298132E+03  0.38778594442E+03  0.50400001928E-02 0.  1.
       -1    1    3    3    0  502  0.26744054830E+03 -0.19280832971E+03 -0.98910067607E+03  0.10426023433E+04  0.50400001928E-02 0. -1.
</event>
<event>
 5   0  0.2460312E-02  0.8068764E+03  0.7818609E-02  0.9550117E-01
       -2   -1    0    0    0  501  0.00000000000E+00  0.00000000000E+00  0.19559388205E+03  0.19559388207E+03  0.25500000920E-02 0.  1.
        2   -1    0    0  501    0  0.00000000000E+00  0.00000000000E+00 -0.83214458069E+03  0.83214458070E+03  0.25500000920E-02 0. -1.
    10030    2    1    2    0    0  0.00000000000E+00  0.00000000000E+00 -0.63655069864E+03  0.10277384628E+04  0.80687641923E+03 0.  0.
        2    1    3    3  502    0 -0.10018928074E+03 -0.20185821631E+03 -0.74450285214E+03  0.77786189540E+03  0.25500000920E-02 0. -1.
       -2    1    3    3    0  502  0.10018928074E+03  0.20185821631E+03  0.10795215349E+03  0.24987656736E+03  0.25500000920E-02 0.  1.
</event>
<event>
 5   0  0.1498375E-02  0.8038649E+03  0.7818609E-02  0.9554440E-01
        1   -1    0    0  501    0  0.00000000000E+00  0.00000000000E+00  0.75062561889E+03  0.75062561891E+03  0.50400001928E-02 0.  1.
       -1   -1    0    0    0  501  0.00000000000E+00  0.00000000000E+00 -0.21522007297E+03  0.21522007303E+03  0.50400001928E-02 0. -1.
    10030    2    1    2    0    0  0.00000000000E+00  0.00000000000E+00  0.53540554592E+03  0.96584569194E+03  0.80386491529E+03 0.  0.
        4    1    3    3  502    0 -0.17888700378E+03 -0.35464497533E+03  0.34151912891E+03  0.52384210117E+03  0.12699999809E+01 0.  1.
       -4    1    3    3    0  502  0.17888700378E+03  0.35464497533E+03  0.19388641701E+03  0.44200359076E+03  0.12699999809E+01 0. -1.
</event>
<event>
 5   0  0.2460312E-02  0.8013617E+03  0.7818609E-02  0.9558048E-01
       -2   -1    0    0    0  501  0.00000000000E+00  0.00000000000E+00  0.56095222956E+03  0.56095222956E+03  0.25500000920E-02 0. -1.
        2   -1    0    0  501    0  0.00000000000E+00  0.00000000000E+00 -0.28620110414E+03  0.28620110416E+03  0.25500000920E-02 0.  1.
    10030    2    1    2    0    0  0.00000000000E+00  0.00000000000E+00  0.27475112541E+03  0.84715333372E+03  0.80136170979E+03 0.  0.
        2    1    3    3  502    0 -0.23690943195E+03 -0.19152706192E+03  0.41250981646E+03  0.51280897328E+03  0.25500000920E-02 0. -1.
       -2    1    3    3    0  502  0.23690943195E+03  0.19152706192E+03 -0.13775869104E+03  0.33434436044E+03  0.25500000920E-02 0.  1.
</event>
<event>
 5   0  0.1498375E-02  0.6012916E+03  0.7818609E-02  0.9902730E-01
        1   -1    0    0  501    0  0.00000000000E+00  0.00000000000E+00  0.55833331811E+03  0.55833331813E+03  0.50400001928E-02 0. -1.
       -1   -1    0    0    0  501  0.00000000000E+00  0.00000000000E+00 -0.16188877197E+03  0.16188877205E+03  0.50400001928E-02 0.  1.
    10030    2    1    2    0    0  0.00000000000E+00  0.00000000000E+00  0.39644454614E+03  0.72022209018E+03  0.60129159400E+03 0.  0.
        4    1    3    3  502    0 -0.41174715454E+02 -0.13892037821E+03  0.51374901681E+03  0.53379199493E+03  0.12699999809E+01 0. -1.
       -4    1    3    3    0  502  0.41174715454E+02  0.13892037821E+03 -0.11730447068E+03  0.18643009525E+03  0.12699999809E+01 0.  1.
</event>
<event>
 5   0  0.1624094E-02  0.8211962E+03  0.7818609E-02  0.9529833E-01
       -1   -1    0    0    0  501  0.00000000000E+00  0.00000000000E+00  0.96958545475E+02  0.96958545606E+02  0.50400001928E-02 0. -1.
        1   -1    0    0  501    0  0.00000000000E+00  0.00000000000E+00 -0.17387926243E+04  0.17387926243E+04  0.50400001928E-02 0.  1.
    10030    2    1    2    0    0  0.00000000000E+00  0.00000000000E+00 -0.16418340788E+04  0.18357511699E+04  0.82119621007E+03 0.  0.
        3    1    3    3  502    0 -0.58958320110E+01  0.32845188262E+03 -0.13715639139E+04  0.14103556219E+04  0.10100000352E+00 0. -1.
       -3    1    3    3    0  502  0.58958320110E+01 -0.32845188262E+03 -0.27027016489E+03  0.42539554800E+03  0.10100000352E+00 0.  1.
</event>
<event>
 5   0  0.2460312E-02  0.8807810E+03  0.7818609E-02  0.9449930E-01
       -2   -1    0    0    0  501  0.00000000000E+00  0.00000000000E+00  0.38190931076E+03  0.38190931077E+03  0.25500000920E-02 0.  1.
        2   -1    0    0  501    0  0.00000000000E+00  0.00000000000E+00 -0.50782677285E+03  0.50782677286E+03  0.25500000920E-02 0. -1.
    10030    2    1    2    0    0  0.00000000000E+00  0.00000000000E+00 -0.12591746209E+03  0.88973608362E+03  0.88078095531E+03 0.  0.
        2    1    3    3  502    0  0.37113668906E+03  0.39951361194E+02 -0.29901218926E+03  0.47827486089E+03  0.25500000920E-02 0. -1.
       -2    1    3    3    0  502 -0.37113668906E+03 -0.39951361194E+02  0.17309472717E+03  0.41146122273E+03  0.25500000920E-02 0.  1.
</event>
<event>
 5   0  0.2571778E-02  0.8036926E+03  0.7818609E-02  0.9554688E-01
        2   -1    0    0  501    0  0.00000000000E+00  0.00000000000E+00  0.10153374793E+04  0.10153374793E+04  0.25500000920E-02 0.  1.
       -2   -1    0    0    0  501  0.00000000000E+00  0.00000000000E+00 -0.15904116140E+03  0.15904116143E+03  0.25500000920E-02 0. -1.
    10030    2    1    2    0    0  0.00000000000E+00  0.00000000000E+00  0.85629631792E+03  0.11743786408E+04  0.80369260776E+03 0.  0.
        1    1    3    3  502    0  0.23053586521E+03 -0.11007258025E+03  0.88140632978E+03  0.91768179467E+03  0.50400001928E-02 0.  1.
       -1    1    3    3    0  502 -0.23053586521E+03  0.11007258025E+03 -0.25110011856E+02  0.25669684609E+03  0.50400001928E-02 0. -1.
</event>
<event>
 5   0  0.2454354E-02  0.7990140E+03  0.7818609E-02  0.9561445E-01
        2   -1    0    0  501    0  0.00000000000E+00  0.00000000000E+00  0.37132109728E+03  0.37132109728E+03  0.25500000920E-02 0. -1.
       -2   -1    0    0    0  501  0.00000000000E+00  0.00000000000E+00 -0.42983238488E+03  0.42983238489E+03  0.25500000920E-02 0.  1.
    10030    2    1    2    0    0  0.00000000000E+00  0.00000000000E+00 -0.58511287604E+02  0.80115348217E+03  0.79901397436E+03 0.  0.
        5    1    3    3  502    0 -0.52467444962E+02  0.32709032400E+03 -0.25310852886E+03  0.41692556916E+03  0.46999998093E+01 0.  1.
       -5    1    3    3    0  502  0.52467444962E+02 -0.32709032400E+03  0.19459724126E+03  0.38422791301E+03  0.46999998093E+01 0. -1.
</event>
<event>
 5   0  0.1498375E-02  0.8008191E+03  0.7818609E-02  0.9558832E-01
        1   -1    0    0  501    0  0.00000000000E+00  0.00000000000E+00  0.13409381081E+04  0.13409381081E+04  0.50400001928E-02 0.  1.
       -1   -1    0    0    0  501  0.00000000000E+00  0.00000000000E+00 -0.11956392211E+03  0.11956392222E+03  0.50400001928E-02 0. -1.
    10030    2    1    2    0    0  0.00000000000E+00  0.00000000000E+00  0.12213741860E+04  0.14605020303E+04  0.80081912965E+03 0.  0.
        4    1    3    3  502    0 -0.76415794833E+02 -0.18446168978E+03 -0.22293580234E+02  0.20090820122E+03  0.12699999809E+01 0. -1.
       -4    1    3    3    0  502  0.76415794833E+02  0.18446168978E+03  0.12436677662E+04  0.12595938291E+04  0.12699999809E+01 0.  1.
</event>
<event>
 5   0  0.1523811E-02  0.7940256E+03  0.7818609E-02  0.9568705E-01
       -1   -1    0    0    0  501  0.00000000000E+00  0.00000000000E+00  0.94131114383E+02  0.94131114518E+02  0.50400001928E-02 0.  1.
        1   -1    0    0  501    0  0.00000000000E+00  0.00000000000E+00 -0.16744639411E+04  0.16744639411E+04  0.50400001928E-02 0. -1.
    10030    2    1    2    0    0  0.00000000000E+00  0.00000000000E+00 -0.15803328267E+04  0.17685950556E+04  0.79402558371E+03 0.  0.
        1    1    3    3  502    0  0.87215619137E+02  0.38571779244E+03 -0.71191037398E+03  0.81437163521E+03  0.50400001928E-02 0.  1.
       -1    1    3    3    0  502 -0.87215619137E+02 -0.38571779244E+03 -0.86842245275E+03  0.95422342043E+03  0.50400001928E-02 0. -1.
</event>
<event>
 5   0  0.1624094E-02  0.8208394E+03  0.7818609E-02  0.9530333E-01
        1   -1    0    0  501    0  0.00000000000E+00  0.00000000000E+00  0.47427273905E+03  0.47427273908E+03  0.50400001928E-02 0.  1.
       -1   -1    0    0    0  501  0.00000000000E+00  0.00000000000E+00 -0.35516345972E+03  0.35516345975E+03  0.50400001928E-02 0. -1.
    10030    2    1    2    0    0  0.00000000000E+00  0.00000000000E+00  0.11910927934E+03  0.82943619883E+03  0.82083944076E+03 0.  0.
        3    1    3    3  502    0  0.88457616602E+01 -0.25969482762E+03 -0.26145899000E+03  0.36861967480E+03  0.10100000352E+00 0. -1.
       -3    1    3    3    0  502 -0.88457616602E+01  0.25969482762E+03  0.38056826934E+03  0.46081652403E+03  0.10100000352E+00 0.  1.
</event>
<event>
 5   0  0.2464780E-02  0.7831031E+03  0.7818609E-02  0.9584802E-01
       -2   -1    0    0    0  501  0.00000000000E+00  0.00000000000E+00  0.90340184653E+02  0.90340184689E+02  0.25500000920E-02 0. -1.
        2   -1    0    0  501    0  0.00000000000E+00  0.00000000000E+00 -0.16970591098E+04  0.16970591098E+04  0.25500000920E-02 0.  1.
    10030    2    1    2    0    0  0.00000000000E+00  0.00000000000E+00 -0.16067189251E+04  0.17873992945E+04  0.78310314360E+03 0.  0.
        3    1    3    3  502    0 -0.18528692587E+02 -0.22948024344E+03 -0.80472022896E+02  0.24388573400E+03  0.10100000352E+00 0. -1.
       -3    1    3    3    0  502  0.18528692587E+02  0.22948024344E+03 -0.15262469022E+04  0.15435135605E+04  0.10100000352E+00 0.  1.
</event>
<event>
 5   0  0.2460312E-02  0.8155514E+03  0.7818609E-02  0.9537776E-01
       -2   -1    0    0    0  501  0.00000000000E+00  0.00000000000E+00  0.15348876708E+03  0.15348876710E+03  0.25500000920E-02 0.  1.
        2   -1    0    0  501    0  0.00000000000E+00  0.00000000000E+00 -0.10833433233E+04  0.10833433233E+04  0.25500000920E-02 0. -1.
    10030    2    1    2    0    0  0.00000000000E+00  0.00000000000E+00 -0.92985455625E+03  0.12368320904E+04  0.81555142337E+03 0.  0.
        2    1    3    3  502    0  0.23026107992E+03  0.75895564428E+02 -0.96216618183E+03  0.99224193778E+03  0.25500000920E-02 0. -1.
       -2    1    3    3    0  502 -0.23026107992E+03 -0.75895564428E+02  0.32311625580E+02  0.24459015266E+03  0.25500000920E-02 0.  1.
</event>
<event>
 5   0  0.9919125E-03  0.7965060E+03  0.7818609E-02  0.9565088E-01
        4   -1    0    0  501    0  0.00000000000E+00  0.00000000000E+00  0.17495105350E+03  0.17495566301E+03  0.12699999809E+01 0.  1.
       -4   -1    0    0    0  501  0.00000000000E+00  0.00000000000E+00 -0.90655349402E+03  0.90655438360E+03  0.12699999809E+01 0. -1.
    10030    2    1    2    0    0  0.00000000000E+00  0.00000000000E+00 -0.73160244052E+03  0.10815100466E+04  0.79650602630E+03 0.  0.
        4    1    3    3  502    0 -0.45580452549E+02  0.15248220702E+03 -0.86149853748E+03  0.87607633463E+03  0.12699999809E+01 0. -1.
       -4    1    3    3    0  502  0.45580452549E+02 -0.15248220702E+03  0.12989609696E+03  0.20543371198E+03  0.12699999809E+01 0.  1.
</event>
<event>
 5   0  0.9919125E-03  0.7636269E+03  0.7818609E-02  0.9614211E-01
       -4   -1    0    0    0  501  0.00000000000E+00  0.00000000000E+00  0.38673752090E+03  0.38673960616E+03  0.12699999809E+01 0. -1.
        4   -1    0    0  501    0  0.00000000000E+00  0.00000000000E+00 -0.37694787541E+03  0.37695001483E+03  0.12699999809E+01 0.  1.
    10030    2    1    2    0    0  0.00000000000E+00  0.00000000000E+00  0.97896454849E+01  0.76368962099E+03  0.76362687226E+03 0.  0.
        5    1    3    3  502    0  0.65024664119E+02 -0.12683730068E+03  0.35910396852E+03  0.38638537497E+03  0.46999998093E+01 0. -1.
       -5    1    3    3    0  502 -0.65024664119E+02  0.12683730068E+03 -0.34931432303E+03  0.37730424602E+03  0.46999998093E+01 0.  1.
</event>
<event>
 5   0  0.2422031E-02  0.7957710E+03  0.7818609E-02  0.9566159E-01
       -2   -1    0    0    0  501  0.00000000000E+00  0.00000000000E+00  0.43253211569E+03  0.43253211570E+03  0.25500000920E-02 0.  1.
        2   -1    0    0  501    0  0.00000000000E+00  0.00000000000E+00 -0.36601418021E+03  0.36601418021E+03  0.25500000920E-02 0. -1.
    10030    2    1    2    0    0  0.00000000000E+00  0.00000000000E+00  0.66517935485E+02  0.79854629591E+03  0.79577104180E+03 0.  0.
        4    1    3    3  502    0 -0.16619419470E+03 -0.12562835828E+03  0.37342240447E+03  0.42760834862E+03  0.12699999809E+01 0.  1.
       -4    1    3    3    0  502  0.16619419470E+03  0.12562835828E+03 -0.30690446898E+03  0.37093794729E+03  0.12699999809E+01 0. -1.
</event>
<event>
 5   0  0.1624094E-02  0.8448628E+03  0.7818609E-02  0.9497258E-01
       -1   -1    0    0    0  501  0.00000000000E+00  0.00000000000E+00  0.34300974749E+03  0.34300974752E+03  0.50400001928E-02 0.  1.
        1   -1    0    0  501    0  0.00000000000E+00  0.00000000000E+00 -0.52024256114E+03  0.52024256116E+03  0.50400001928E-02 0. -1.
    10030    2    1    2    0    0  0.00000000000E+00  0.00000000000E+00 -0.17723281365E+03  0.86325230869E+03  0.84486275703E+03 0.  0.
        3    1    3    3  502    0 -0.95065491104E+02  0.79688681230E+02  0.32398053215E+03  0.34691660227E+03  0.10100000352E+00 0.  1.
       -3    1    3    3    0  502  0.95065491104E+02 -0.79688681230E+02 -0.50121334580E+03  0.51633570642E+03  0.10100000352E+00 0. -1.
</event>
<event>
 5   0  0.2571778E-02  0.7965665E+03  0.7818609E-02  0.9565000E-01
        2   -1    0    0  501    0  0.00000000000E+00  0.00000000000E+00  0.16940322611E+04  0.16940322611E+04  0.25500000920E-02 0.  1.
       -2   -1    0    0    0  501  0.00000000000E+00  0.00000000000E+00 -0.93640210770E+02  0.93640210805E+02  0.25500000920E-02 0. -1.
    10030    2    1    2    0    0  0.00000000000E+00  0.00000000000E+00  0.16003920503E+04  0.17876724719E+04  0.79656647685E+03 0.  0.
        1    1    3    3  502    0 -0.15457710263E+03  0.19243652622E+03  0.98706321840E+02  0.26583610605E+03  0.50400001928E-02 0. -1.
       -1    1    3    3    0  502  0.15457710263E+03 -0.19243652622E+03  0.15016857284E+04  0.15218363658E+04  0.50400001928E-02 0.  1.
</event>
<event>
 5   0  0.9919125E-03  0.7960374E+03  0.7818609E-02  0.9565771E-01
        4   -1    0    0  501    0  0.00000000000E+00  0.00000000000E+00  0.41803647299E+03  0.41803840212E+03  0.12699999809E+01 0. -1.
       -4   -1    0    0    0  501  0.00000000000E+00  0.00000000000E+00 -0.37895565129E+03  0.37895777937E+03  0.12699999809E+01 0.  1.
    10030    2    1    2    0    0  0.00000000000E+00  0.00000000000E+00  0.39080821703E+02  0.79699618149E+03  0.79603743799E+03 0.  0.
        4    1    3    3  502    0 -0.33313764626E+03  0.17938259877E+03 -0.10413358110E+03  0.39243371887E+03  0.12699999809E+01 0.  1.
       -4    1    3    3    0  502  0.33313764626E+03 -0.17938259877E+03  0.14321440280E+03  0.40456246262E+03  0.12699999809E+01 0. -1.
</event>
<event>
 5   0  0.1471290E-02  0.7925795E+03  0.7818609E-02  0.9570820E-01
        1   -1    0    0  501    0  0.00000000000E+00  0.00000000000E+00  0.71218433504E+03  0.71218433506E+03  0.50400001928E-02 0. -1.
       -1   -1    0    0    0  501  0.00000000000E+00  0.00000000000E+00 -0.22051254693E+03  0.22051254698E+03  0.50400001928E-02 0.  1.
    10030    2    1    2    0    0  0.00000000000E+00  0.00000000000E+00  0.49167178811E+03  0.93269688204E+03  0.79257953957E+03 0.  0.
        2    1    3    3  502    0 -0.27206737135E+03  0.28748216372E+03  0.26874344512E+03  0.47842417196E+03  0.25500000920E-02 0. -1.
       -2    1    3    3    0  502  0.27206737135E+03 -0.28748216372E+03  0.22292834299E+03  0.45427271008E+03  0.25500000920E-02 0.  1.
</event>
<event>
 5   0  0.2422031E-02  0.7901756E+03  0.7818609E-02  0.9574347E-01
        2   -1    0    0  501    0  0.00000000000E+00  0.00000000000E+00  0.21893708670E+03  0.21893708672E+03  0.25500000920E-02 0. -1.
       -2   -1    0    0    0  501  0.00000000000E+00  0.00000000000E+00 -0.71296453590E+03  0.71296453590E+03  0.25500000920E-02 0.  1.
    10030    2    1    2    0    0  0.00000000000E+00  0.00000000000E+00 -0.49402744919E+03  0.93190162262E+03  0.79017562205E+03 0.  0.
        4    1    3    3  502    0  0.10370381495E+03 -0.12802329651E+03 -0.67051457311E+03  0.69046060810E+03  0.12699999809E+01 0.  1.
       -4    1    3    3    0  502 -0.10370381495E+03  0.12802329651E+03  0.17648712392E+03  0.24144101452E+03  0.12699999809E+01 0. -1.
</event>
<event>
 5   0  0.2460312E-02  0.8048120E+03  0.7818609E-02  0.9553078E-01
       -2   -1    0    0    0  501  0.00000000000E+00  0.00000000000E+00  0.30646358739E+03  0.30646358740E+03  0.25500000920E-02 0. -1.
        2   -1    0    0  501    0  0.00000000000E+00  0.00000000000E+00 -0.52838437459E+03  0.52838437460E+03  0.25500000920E-02 0.  1.
    10030    2    1    2    0    0  0.00000000000E+00  0.00000000000E+00 -0.22192078721E+03  0.83484796200E+03  0.80481195559E+03 0.  0.
        2    1    3    3  502    0  0.70571592033E+02 -0.68175015012E+02  0.29386367882E+03  0.30981291776E+03  0.25500000920E-02 0. -1.
       -2    1    3    3    0  502 -0.70571592033E+02  0.68175015012E+02 -0.51578446603E+03  0.52503504424E+03  0.25500000920E-02 0.  1.
</event>
<event>
 5   0  0.1509629E-02  0.8263625E+03  0.7818609E-02  0.9522623E-01
       -1   -1    0    0    0  501  0.00000000000E+00  0.00000000000E+00  0.20354950300E+03  0.20354950306E+03  0.50400001928E-02 0.  1.
        1   -1    0    0  501    0  0.00000000000E+00  0.00000000000E+00 -0.83870873012E+03  0.83870873014E+03  0.50400001928E-02 0. -1.
    10030    2    1    2    0    0  0.00000000000E+00  0.00000000000E+00 -0.63515922713E+03  0.10422582332E+04  0.82636249967E+03 0.  0.
        5    1    3    3  502    0  0.69331782138E+02  0.24064518265E+03 -0.73203300913E+03  0.77369982319E+03  0.46999998093E+01 0. -1.
       -5    1    3    3    0  502 -0.69331782138E+02 -0.24064518265E+03  0.96873782008E+02  0.26855841000E+03  0.46999998093E+01 0.  1.
</event>
<event>
 5   0  0.2454354E-02  0.7736344E+03  0.7818609E-02  0.9598984E-01
       -2   -1    0    0    0  501  0.00000000000E+00  0.00000000000E+00  0.14909728071E+03  0.14909728073E+03  0.25500000920E-02 0.  1.
        2   -1    0    0  501    0  0.00000000000E+00  0.00000000000E+00 -0.10035565454E+04  0.10035565454E+04  0.25500000920E-02 0. -1.
    10030    2    1    2    0    0  0.00000000000E+00  0.00000000000E+00 -0.85445926474E+03  0.11526538262E+04  0.77363441489E+03 0.  0.
        5    1    3    3  502    0  0.21479667304E+03  0.29700015096E+03 -0.24318516834E+03  0.43989523357E+03  0.46999998093E+01 0. -1.
       -5    1    3    3    0  502 -0.21479667304E+03 -0.29700015096E+03 -0.61127409640E+03  0.71275859261E+03  0.46999998093E+01 0.  1.
</event>
<event>
 5   0  0.2460312E-02  0.7921033E+03  0.7818609E-02  0.9571518E-01
       -2   -1    0    0    0  501  0.00000000000E+00  0.00000000000E+00  0.15545575775E+04  0.15545575775E+04  0.25500000920E-02 0. -1.
        2   -1    0    0  501    0  0.00000000000E+00  0.00000000000E+00 -0.10090130619E+03  0.10090130622E+03  0.25500000920E-02 0.  1.
    10030    2    1    2    0    0  0.00000000000E+00  0.00000000000E+00  0.14536562713E+04  0.16554588837E+04  0.79210325119E+03 0.  0.
        2    1    3    3  502    0 -0.37936413875E+03 -0.10050058863E+03  0.61546338375E+03  0.72994019949E+03  0.25500000920E-02 0.  1.
       -2    1    3    3    0  502  0.37936413875E+03  0.10050058863E+03  0.83819288753E+03  0.92551868420E+03  0.25500000920E-02 0. -1.
</event>
<event>
 5   0  0.2454354E-02  0.8062314E+03  0.7818609E-02  0.9551041E-01
       -2   -1    0    0    0  501  0.00000000000E+00  0.00000000000E+00  0.16521851222E+03  0.16521851224E+03  0.25500000920E-02 0. -1.
        2   -1    0    0  501    0  0.00000000000E+00  0.00000000000E+00 -0.98355965339E+03  0.98355965339E+03  0.25500000920E-02 0.  1.
    10030    2    1    2    0    0  0.00000000000E+00  0.00000000000E+00 -0.81834114117E+03  0.11487781656E+04  0.80623138770E+03 0.  0.
        5    1    3    3  502    0  0.14440383122E+03 -0.33507391766E+03 -0.16505020091E+03  0.40048802178E+03  0.46999998093E+01 0. -1.
       -5    1    3    3    0  502 -0.14440383122E+03  0.33507391766E+03 -0.65329094026E+03  0.74829014386E+03  0.46999998093E+01 0.  1.
</event>
<event>
 5   0  0.1624094E-02  0.8010094E+03  0.7818609E-02  0.9558557E-01
        1   -1    0    0  501    0  0.00000000000E+00  0.00000000000E+00  0.49410902495E+03  0.49410902498E+03  0.50400001928E-02 0.  1.
       -1   -1    0    0    0  501  0.00000000000E+00  0.00000000000E+00 -0.32463281836E+03  0.32463281840E+03  0.50400001928E-02 0. -1.
    10030    2    1    2    0    0  0.00000000000E+00  0.00000000000E+00  0.16947620659E+03  0.81874184338E+03  0.80100937666E+03 0.  0.
        3    1    3    3  502    0  0.35670120240E+03 -0.44879856027E+02 -0.95674392362E+02  0.37202627437E+03  0.10100000352E+00 0. -1.
       -3    1    3    3    0  502 -0.35670120240E+03  0.44879856027E+02  0.26515059895E+03  0.44671556901E+03  0.10100000352E+00 0.  1.
</event>
<event>
 5   0  0.2571778E-02  0.8134136E+03  0.7818609E-02  0.9540802E-01
       -2   -1    0    0    0  501  0.00000000000E+00  0.00000000000E+00  0.48226949555E+03  0.48226949555E+03  0.25500000920E-02 0. -1.
        2   -1    0    0  501    0  0.00000000000E+00  0.00000000000E+00 -0.34298338347E+03  0.34298338348E+03  0.25500000920E-02 0.  1.
    10030    2    1    2    0    0  0.00000000000E+00  0.00000000000E+00  0.13928611207E+03  0.82525287903E+03  0.81341360533E+03 0.  0.
        1    1    3    3  502    0 -0.19903246090E+03 -0.21494382660E+03 -0.21659033402E+03  0.36431599183E+03  0.50400001928E-02 0.  1.
       -1    1    3    3    0  502  0.19903246090E+03  0.21494382660E+03  0.35587644609E+03  0.46093688721E+03  0.50400001928E-02 0. -1.
</event>
<event>
 5   0  0.1624094E-02  0.8016847E+03  0.7818609E-02  0.9557582E-01
        1   -1    0    0  501    0  0.00000000000E+00  0.00000000000E+00  0.34510009538E+03  0.34510009542E+03  0.50400001928E-02 0.  1.
       -1   -1    0    0    0  501  0.00000000000E+00  0.00000000000E+00 -0.46558842181E+03  0.46558842184E+03  0.50400001928E-02 0. -1.
    10030    2    1    2    0    0  0.00000000000E+00  0.00000000000E+00 -0.12048832644E+03  0.81068851726E+03  0.80168474802E+03 0.  0.
        3    1    3    3  502    0  0.25974760260E+03  0.15099291022E+02  0.24810304229E+03  0.35951625199E+03  0.10100000352E+00 0.  1.
       -3    1    3    3    0  502 -0.25974760260E+03 -0.15099291022E+02 -0.36859136873E+03  0.45117226527E+03  0.10100000352E+00 0. -1.
</event>
<event>
 5   0  0.2460312E-02  0.8156579E+03  0.7818609E-02  0.9537625E-01
       -2   -1    0    0    0  501  0.00000000000E+00  0.00000000000E+00  0.79617283882E+02  0.79617283922E+02  0.25500000920E-02 0. -1.
        2   -1    0    0  501    0  0.00000000000E+00  0.00000000000E+00 -0.20890497002E+04  0.20890497002E+04  0.25500000920E-02 0.  1.
    10030    2    1    2    0    0  0.00000000000E+00  0.00000000000E+00 -0.20094324163E+04  0.21686669841E+04  0.81565792601E+03 0.  0.
        2    1    3    3  502    0 -0.30433547615E+03 -0.22893597019E+03 -0.13926880449E+04  0.14438184618E+04  0.25500000920E-02 0. -1.
       -2    1    3    3    0  502  0.30433547615E+03  0.22893597019E+03 -0.61674437143E+03  0.72484852224E+03  0.25500000920E-02 0.  1.
</event>
<event>
 5   0  0.2464780E-02  0.7953896E+03  0.7818609E-02  0.9566715E-01
        2   -1    0    0  501    0  0.00000000000E+00  0.00000000000E+00  0.56189600440E+03  0.56189600440E+03  0.25500000920E-02 0.  1.
       -2   -1    0    0    0  501  0.00000000000E+00  0.00000000000E+00 -0.28147760232E+03  0.28147760233E+03  0.25500000920E-02 0. -1.
    10030    2    1    2    0    0  0.00000000000E+00  0.00000000000E+00  0.28041840208E+03  0.84337360673E+03  0.79538956512E+03 0.  0.
        3    1    3    3  502    0 -0.36057711302E+02 -0.56149347462E-01 -0.27974077637E+03  0.28205509012E+03  0.10100000352E+00 0. -1.
       -3    1    3    3    0  502  0.36057711302E+02  0.56149347462E-01  0.56015917845E+03  0.56131851661E+03  0.10100000352E+00 0.  1.
</event>
<event>
 5   0  0.2571778E-02  0.8010744E+03  0.7818609E-02  0.9558463E-01
       -2   -1    0    0    0  501  0.00000000000E+00  0.00000000000E+00  0.42817473463E+03  0.42817473463E+03  0.25500000920E-02 0.  1.
        2   -1    0    0  501    0  0.00000000000E+00  0.00000000000E+00 -0.37468359500E+03  0.37468359501E+03  0.25500000920E-02 0. -1.
    10030    2    1    2    0    0  0.00000000000E+00  0.00000000000E+00  0.53491139625E+02  0.80285832965E+03  0.80107440070E+03 0.  0.
        1    1    3    3  502    0  0.43391877626E+02  0.22104967176E+03 -0.30517806069E+03  0.37931446213E+03  0.50400001928E-02 0. -1.
       -1    1    3    3    0  502 -0.43391877626E+02 -0.22104967176E+03  0.35866920031E+03  0.42354386752E+03  0.50400001928E-02 0.  1.
</event>
<event>
 5   0  0.2454354E-02  0.7999894E+03  0.7818609E-02  0.9560032E-01
       -2   -1    0    0    0  501  0.00000000000E+00  0.00000000000E+00  0.12723295433E+03  0.12723295435E+03  0.25500000920E-02 0.  1.
        2   -1    0    0  501    0  0.00000000000E+00  0.00000000000E+00 -0.12575026145E+04  0.12575026145E+04  0.25500000920E-02 0. -1.
    10030    2    1    2    0    0  0.00000000000E+00  0.00000000000E+00 -0.11302696602E+04  0.13847355689E+04  0.79998943178E+03 0.  0.
        5    1    3    3  502    0  0.32792515458E+03 -0.18874328496E+03 -0.34068060701E+03  0.50916038791E+03  0.46999998093E+01 0.  1.
       -5    1    3    3    0  502 -0.32792515458E+03  0.18874328496E+03 -0.78958905316E+03  0.87557518095E+03  0.46999998093E+01 0. -1.
</event>
<event>
 5   0  0.1498375E-02  0.8041983E+03  0.7818609E-02  0.9553960E-01
        1   -1    0    0  501    0  0.00000000000E+00  0.00000000000E+00  0.46900223291E+03  0.46900223294E+03  0.50400001928E-02 0.  1.
       -1   -1    0    0    0  501  0.00000000000E+00  0.00000000000E+00 -0.34473976827E+03  0.34473976831E+03  0.50400001928E-02 0. -1.
    10030    2    1    2    0    0  0.00000000000E+00  0.00000000000E+00  0.12426246464E+03  0.81374200124E+03  0.80419828679E+03 0.  0.
        4    1    3    3  502    0  0.25873630147E+03 -0.38890837909E+02  0.37108258768E+03  0.45404941443E+03  0.12699999809E+01 0.  1.
       -4    1    3    3    0  502 -0.25873630147E+03  0.38890837909E+02 -0.24682012303E+03  0.35969258681E+03  0.12699999809E+01 0. -1.
</event>
<event>
 5   0  0.1509629E-02  0.8027964E+03  0.7818609E-02  0.9555978E-01
       -1   -1    0    0    0  501  0.00000000000E+00  0.00000000000E+00  0.18037128340E+03  0.18037128347E+03  0.50400001928E-02 0.  1.
        1   -1    0    0  501    0  0.00000000000E+00  0.00000000000E+00 -0.89327140112E+03  0.89327140113E+03  0.50400001928E-02 0. -1.
    10030    2    1    2    0    0  0.00000000000E+00  0.00000000000E+00 -0.71290011772E+03  0.10736426846E+04  0.80279638536E+03 0.  0.
        5    1    3    3  502    0 -0.73226321224E+02  0.35363570234E+03 -0.12220593971E+03  0.38128294715E+03  0.46999998093E+01 0.  1.
       -5    1    3    3    0  502  0.73226321224E+02 -0.35363570234E+03 -0.59069417802E+03  0.69235973745E+03  0.46999998093E+01 0. -1.
</event>
<event>
 5   0  0.9919125E-03  0.7968810E+03  0.7818609E-02  0.9564543E-01
        3   -1    0    0  501    0  0.00000000000E+00  0.00000000000E+00  0.35671509467E+03  0.35671510897E+03  0.10100000352E+00 0. -1.
       -3   -1    0    0    0  501  0.00000000000E+00  0.00000000000E+00 -0.44504654848E+03  0.44504655994E+03  0.10100000352E+00 0.  1.
    10030    2    1    2    0    0  0.00000000000E+00  0.00000000000E+00 -0.88331453808E+02  0.80176166890E+03  0.79688099989E+03 0.  0.
        1    1    3    3  502    0 -0.46712251344E+02 -0.36016726029E+03  0.12070475359E+03  0.38271677174E+03  0.50400001928E-02 0. -1.
       -1    1    3    3    0  502  0.46712251344E+02  0.36016726029E+03 -0.20903620740E+03  0.41904489716E+03  0.50400001928E-02 0.  1.
</event>
<event>
 5   0  0.2422031E-02  0.8113315E+03  0.7818609E-02  0.9543759E-01
       -2   -1    0    0    0  501  0.00000000000E+00  0.00000000000E+00  0.14239936436E+03  0.14239936438E+03  0.25500000920E-02 0. -1.
        2   -1    0    0  501    0  0.00000000000E+00  0.00000000000E+00 -0.11556561052E+04  0.11556561052E+04  0.25500000920E-02 0.  1.
    10030    2    1    2    0    0  0.00000000000E+00  0.00000000000E+00 -0.10132567408E+04  0.12980554696E+04  0.81133148543E+03 0.  0.
        4    1    3    3  502    0  0.30757852580E+03  0.10322924856E+03 -0.11701798573E+03  0.34489947691E+03  0.12699999809E+01 0. -1.
       -4    1    3    3    0  502 -0.30757852580E+03 -0.10322924856E+03 -0.89623875510E+03  0.95315599266E+03  0.12699999809E+01 0.  1.
</event>
<event>
 5   0  0.1498375E-02  0.8052655E+03  0.7818609E-02  0.9552427E-01
       -1   -1    0    0    0  501  0.00000000000E+00  0.00000000000E+00  0.14191300195E+03  0.14191300204E+03  0.50400001928E-02 0.  1.
        1   -1    0    0  501    0  0.00000000000E+00  0.00000000000E+00 -0.11423416755E+04  0.11423416755E+04  0.50400001928E-02 0. -1.
    10030    2    1    2    0    0  0.00000000000E+00  0.00000000000E+00 -0.10004286735E+04  0.12842546776E+04  0.80526551271E+03 0.  0.
        4    1    3    3  502    0  0.37222731418E+02 -0.39782876863E+03 -0.57928697019E+03  0.70372456800E+03  0.12699999809E+01 0.  1.
       -4    1    3    3    0  502 -0.37222731418E+02  0.39782876863E+03 -0.42114170336E+03  0.58053010955E+03  0.12699999809E+01 0. -1.
</event>
<event>
 5   0  0.9919125E-03  0.7309277E+03  0.7818609E-02  0.9665756E-01
       -3   -1    0    0    0  501  0.00000000000E+00  0.00000000000E+00  0.30505024365E+03  0.30505026037E+03  0.10100000352E+00 0. -1.
        3   -1    0    0  501    0  0.00000000000E+00  0.00000000000E+00 -0.43784204911E+03  0.43784206076E+03  0.10100000352E+00 0.  1.
    10030    2    1    2    0    0  0.00000000000E+00  0.00000000000E+00 -0.13279180546E+03  0.74289232113E+03  0.73092772365E+03 0.  0.
        1    1    3    3  502    0  0.29696946041E+03 -0.19011709089E+03  0.31241492244E+02  0.35399350210E+03  0.50400001928E-02 0.  1.
       -1    1    3    3    0  502 -0.29696946041E+03  0.19011709089E+03 -0.16403329770E+03  0.38889881903E+03  0.50400001928E-02 0. -1.
</event>
<event>
 5   0  0.1523811E-02  0.7937432E+03  0.7818609E-02  0.9569118E-01
        1   -1    0    0  501    0  0.00000000000E+00  0.00000000000E+00  0.29006443104E+03  0.29006443109E+03  0.50400001928E-02 0. -1.
       -1   -1    0    0    0  501  0.00000000000E+00  0.00000000000E+00 -0.54300721514E+03  0.54300721517E+03  0.50400001928E-02 0.  1.
    10030    2    1    2    0    0  0.00000000000E+00  0.00000000000E+00 -0.25294278410E+03  0.83307164625E+03  0.79374323037E+03 0.  0.
        1    1    3    3  502    0 -0.15320486085E+03 -0.97918650163E+01 -0.51058226902E+03  0.53316213620E+03  0.50400001928E-02 0.  1.
       -1    1    3    3    0  502  0.15320486085E+03  0.97918650163E+01  0.25763948492E+03  0.29990951006E+03  0.50400001928E-02 0. -1.
</event>
<event>
 5   0  0.2571778E-02  0.7990346E+03  0.7818609E-02  0.9561415E-01
        2   -1    0    0  501    0  0.00000000000E+00  0.00000000000E+00  0.77594534657E+03  0.77594534657E+03  0.25500000920E-02 0. -1.
       -2   -1    0    0    0  501  0.00000000000E+00  0.00000000000E+00 -0.20570273919E+03  0.20570273921E+03  0.25500000920E-02 0.  1.
    10030    2    1    2    0    0  0.00000000000E+00  0.00000000000E+00  0.57024260737E+03  0.98164808578E+03  0.79903462569E+03 0.  0.
        1    1    3    3  502    0  0.36031061807E+03 -0.12623663601E+03  0.14051472258E+03  0.40682160347E+03  0.50400001928E-02 0.  1.
       -1    1    3    3    0  502 -0.36031061807E+03  0.12623663601E+03  0.42972788479E+03  0.57482648230E+03  0.50400001928E-02 0. -1.
</event>
<event>
 5   0  0.1509629E-02  0.7976288E+03  0.7818609E-02  0.9563456E-01
       -1   -1    0    0    0  501  0.00000000000E+00  0.00000000000E+00  0.14067962471E+03  0.14067962480E+03  0.50400001928E-02 0. -1.
        1   -1    0    0  501    0  0.00000000000E+00  0.00000000000E+00 -0.11306039772E+04  0.11306039772E+04  0.50400001928E-02 0.  1.
    10030    2    1    2    0    0  0.00000000000E+00  0.00000000000E+00 -0.98992435250E+03  0.12712836020E+04  0.79762884419E+03 0.  0.
        5    1    3    3  502    0  0.30901442716E+03  0.24768108390E+03 -0.56963466285E+03  0.69378784555E+03  0.46999998093E+01 0.  1.
       -5    1    3    3    0  502 -0.30901442716E+03 -0.24768108390E+03 -0.42028968965E+03  0.57749575646E+03  0.46999998093E+01 0. -1.
</event>
<event>
 5   0  0.2422031E-02  0.7929745E+03  0.7818609E-02  0.9570242E-01
       -2   -1    0    0    0  501  0.00000000000E+00  0.00000000000E+00  0.18331633870E+03  0.18331633871E+03  0.25500000920E-02 0.  1.
        2   -1    0    0  501    0  0.00000000000E+00  0.00000000000E+00 -0.85754579172E+03  0.85754579172E+03  0.25500000920E-02 0. -1.
    10030    2    1    2    0    0  0.00000000000E+00  0.00000000000E+00 -0.67422945302E+03  0.10408621304E+04  0.79297453885E+03 0.  0.
        4    1    3    3  502    0 -0.15848851931E+03 -0.11375230632E+03 -0.79018652981E+03  0.81391311744E+03  0.12699999809E+01 0. -1.
       -4    1    3    3    0  502  0.15848851931E+03  0.11375230632E+03  0.11595707678E+03  0.22694901300E+03  0.12699999809E+01 0.  1.
</event>
<event>
 5   0  0.2571778E-02  0.6805573E+03  0.7818609E-02  0.9751072E-01
       -2   -1    0    0    0  501  0.00000000000E+00  0.00000000000E+00  0.32027114036E+03  0.32027114037E+03  0.25500000920E-02 0. -1.
        2   -1    0    0  501    0  0.00000000000E+00  0.00000000000E+00 -0.36153598895E+03  0.36153598896E+03  0.25500000920E-02 0.  1.
    10030    2    1    2    0    0  0.00000000000E+00  0.00000000000E+00 -0.41264848593E+02  0.68180712933E+03  0.68055725246E+03 0.  0.
        1    1    3    3  502    0 -0.10817124603E+03  0.88748014924E+02  0.29011833859E+03  0.32209607112E+03  0.50400001928E-02 0. -1.
       -1    1    3    3    0  502  0.10817124603E+03 -0.88748014924E+02 -0.33138318718E+03  0.35971105820E+03  0.50400001928E-02 0.  1.
</event>
<event>
 5   0  0.2464780E-02  0.8091984E+03  0.7818609E-02  0.9546797E-01
       -2   -1    0    0    0  501  0.00000000000E+00  0.00000000000E+00  0.27753656399E+03  0.27753656400E+03  0.25500000920E-02 0.  1.
        2   -1    0    0  501    0  0.00000000000E+00  0.00000000000E+00 -0.58983400820E+03  0.58983400821E+03  0.25500000920E-02 0. -1.
    10030    2    1    2    0    0  0.00000000000E+00  0.00000000000E+00 -0.31229744421E+03  0.86737057221E+03  0.80919837857E+03 0.  0.
        3    1    3    3  502    0  0.31999313930E+03  0.23114426933E+03 -0.61014684753E+02  0.39943220250E+03  0.10100000352E+00 0.  1.
       -3    1    3    3    0  502 -0.31999313930E+03 -0.23114426933E+03 -0.25128275946E+03  0.46793836970E+03  0.10100000352E+00 0. -1.
</event>
<event>
 5   0  0.2460312E-02  0.8121244E+03  0.7818609E-02  0.9542631E-01
       -2   -1    0    0    0  501  0.00000000000E+00  0.00000000000E+00  0.14129013658E+03  0.14129013660E+03  0.25500000920E-02 0. -1.
        2   -1    0    0  501    0  0.00000000000E+00  0.00000000000E+00 -0.11670064919E+04  0.11670064919E+04  0.25500000920E-02 0.  1.
    10030    2    1    2    0    0  0.00000000000E+00  0.00000000000E+00 -0.10257163553E+04  0.13082966285E+04  0.81212439107E+03 0.  0.
        2    1    3    3  502    0  0.27483851668E+02  0.19985715929E+03 -0.10805647733E+04  0.10992354050E+04  0.25500000920E-02 0.  1.
       -2    1    3    3    0  502 -0.27483851668E+02 -0.19985715929E+03  0.54848417989E+02  0.20906122353E+03  0.25500000920E-02 0. -1.
</event>
<event>
 5   0  0.2571778E-02  0.6919519E+03  0.7818609E-02  0.9731095E-01
       -2   -1    0    0    0  501  0.00000000000E+00  0.00000000000E+00  0.88173394884E+02  0.88173394921E+02  0.25500000920E-02 0.  1.
        2   -1    0    0  501    0  0.00000000000E+00  0.00000000000E+00 -0.13575448992E+04  0.13575448992E+04  0.25500000920E-02 0. -1.
    10030    2    1    2    0    0  0.00000000000E+00  0.00000000000E+00 -0.12693715043E+04  0.14457182941E+04  0.69195185525E+03 0.  0.
        1    1    3    3  502    0 -0.78549318408E+01  0.31482368212E+03 -0.93400561635E+03  0.98566837333E+03  0.50400001928E-02 0. -1.
       -1    1    3    3    0  502  0.78549318408E+01 -0.31482368212E+03 -0.33536588794E+03  0.46004992077E+03  0.50400001928E-02 0.  1.
</event>
<event>
 5   0  0.2464780E-02  0.7653134E+03  0.7818609E-02  0.9611628E-01
       -2   -1    0    0    0  501  0.00000000000E+00  0.00000000000E+00  0.16258246273E+03  0.16258246275E+03  0.25500000920E-02 0. -1.
        2   -1    0    0  501    0  0.00000000000E+00  0.00000000000E+00 -0.90062708167E+03  0.90062708168E+03  0.25500000920E-02 0.  1.
    10030    2    1    2    0    0  0.00000000000E+00  0.00000000000E+00 -0.73804461895E+03  0.10632095444E+04  0.76531344938E+03 0.  0.
        3    1    3    3  502    0  0.89940831691E+02  0.31949651459E+03 -0.10448548805E+03  0.34797213028E+03  0.10100000352E+00 0. -1.
       -3    1    3    3    0  502 -0.89940831691E+02 -0.31949651459E+03 -0.63355913090E+03  0.71523741414E+03  0.10100000352E+00 0.  1.
</event>
<event>
 5   0  0.2460312E-02  0.8206252E+03  0.7818609E-02  0.9530634E-01
       -2   -1    0    0    0  501  0.00000000000E+00  0.00000000000E+00  0.10858580306E+03  0.10858580309E+03  0.25500000920E-02 0.  1.
        2   -1    0    0  501    0  0.00000000000E+00  0.00000000000E+00 -0.15504462139E+04  0.15504462139E+04  0.25500000920E-02 0. -1.
    10030    2    1    2    0    0  0.00000000000E+00  0.00000000000E+00 -0.14418604108E+04  0.16590320169E+04  0.82062524274E+03 0.  0.
        2    1    3    3  502    0 -0.33224419484E+02  0.13196456738E+03 -0.15034958709E+04  0.15096417929E+04  0.25500000920E-02 0. -1.
       -2    1    3    3    0  502  0.33224419484E+02 -0.13196456738E+03  0.61635460085E+02  0.14939022405E+03  0.25500000920E-02 0.  1.
</event>
<event>
 5   0  0.1624094E-02  0.7966258E+03  0.7818609E-02  0.9564914E-01
        1   -1    0    0  501    0  0.00000000000E+00  0.00000000000E+00  0.41427457056E+03  0.41427457059E+03  0.50400001928E-02 0.  1.
       -1   -1    0    0    0  501  0.00000000000E+00  0.00000000000E+00 -0.38296622683E+03  0.38296622687E+03  0.50400001928E-02 0. -1.
    10030    2    1    2    0    0  0.00000000000E+00  0.00000000000E+00  0.31308343730E+02  0.79724079746E+03  0.79662580723E+03 0.  0.
        3    1    3    3  502    0 -0.19877284049E+03 -0.10197844480E+03 -0.31436230681E+03  0.38566036284E+03  0.10100000352E+00 0. -1.
       -3    1    3    3    0  502  0.19877284049E+03  0.10197844480E+03  0.34567065054E+03  0.41158043462E+03  0.10100000352E+00 0.  1.
</event>
<event>
 5   0  0.1523811E-02  0.8007388E+03  0.7818609E-02  0.9558948E-01
       -1   -1    0    0    0  501  0.00000000000E+00  0.00000000000E+00  0.22252314928E+03  0.22252314934E+03  0.50400001928E-02 0.  1.
        1   -1    0    0  501    0  0.00000000000E+00  0.00000000000E+00 -0.72035491058E+03  0.72035491060E+03  0.50400001928E-02 0. -1.
    10030    2    1    2    0    0  0.00000000000E+00  0.00000000000E+00 -0.49783176130E+03  0.94287805994E+03  0.80073876723E+03 0.  0.
        1    1    3    3  502    0 -0.38823069987E+03 -0.79792054160E+02 -0.18224555843E+03  0.43623765521E+03  0.50400001928E-02 0.  1.
       -1    1    3    3    0  502  0.38823069987E+03  0.79792054160E+02 -0.31558620287E+03  0.50664040472E+03  0.50400001928E-02 0. -1.
</event>
<event>
 5   0  0.2460312E-02  0.7972703E+03  0.7818609E-02  0.9563977E-01
        2   -1    0    0  501    0  0.00000000000E+00  0.00000000000E+00  0.31217656024E+03  0.31217656025E+03  0.25500000920E-02 0.  1.
       -2   -1    0    0    0  501  0.00000000000E+00  0.00000000000E+00 -0.50903880784E+03  0.50903880785E+03  0.25500000920E-02 0. -1.
    10030    2    1    2    0    0  0.00000000000E+00  0.00000000000E+00 -0.19686224761E+03  0.82121536810E+03  0.79727030314E+03 0.  0.
        2    1    3    3  502    0 -0.22102184039E+03  0.15747311482E+03 -0.39919667204E+03  0.48270738423E+03  0.25500000920E-02 0. -1.
       -2    1    3    3    0  502  0.22102184039E+03 -0.15747311482E+03  0.20233442444E+03  0.33850798386E+03  0.25500000920E-02 0.  1.
</event>
<event>
 5   0  0.2454354E-02  0.7974560E+03  0.7818609E-02  0.9563707E-01
       -2   -1    0    0    0  501  0.00000000000E+00  0.00000000000E+00  0.63290757310E+03  0.63290757311E+03  0.25500000920E-02 0.  1.
        2   -1    0    0  501    0  0.00000000000E+00  0.00000000000E+00 -0.25119624119E+03  0.25119624121E+03  0.25500000920E-02 0. -1.
    10030    2    1    2    0    0  0.00000000000E+00  0.00000000000E+00  0.38171133191E+03  0.88410381431E+03  0.79745596341E+03 0.  0.
        5    1    3    3  502    0 -0.28082374031E+03  0.28186843405E+03  0.16258764695E+03  0.42984720562E+03  0.46999998093E+01 0. -1.
       -5    1    3    3    0  502  0.28082374031E+03 -0.28186843405E+03  0.21912368496E+03  0.45425660870E+03  0.46999998093E+01 0.  1.
</event>
<event>
 5   0  0.2454354E-02  0.8266512E+03  0.7818609E-02  0.9522222E-01
        2   -1    0    0  501    0  0.00000000000E+00  0.00000000000E+00  0.39319707730E+03  0.39319707731E+03  0.25500000920E-02 0. -1.
       -2   -1    0    0    0  501  0.00000000000E+00  0.00000000000E+00 -0.43448452121E+03  0.43448452121E+03  0.25500000920E-02 0.  1.
    10030    2    1    2    0    0  0.00000000000E+00  0.00000000000E+00 -0.41287443902E+02  0.82768159853E+03  0.82665118128E+03 0.  0.
        5    1    3    3  502    0  0.13115442973E+02 -0.26976960922E+03 -0.33387276576E+03  0.42946568037E+03  0.46999998093E+01 0.  1.
       -5    1    3    3    0  502 -0.13115442973E+02  0.26976960922E+03  0.29258532186E+03  0.39821591815E+03  0.46999998093E+01 0. -1.
</event>
<event>
 5   0  0.1498375E-02  0.7977105E+03  0.7818609E-02  0.9563337E-01
       -1   -1    0    0    0  501  0.00000000000E+00  0.00000000000E+00  0.28252778838E+03  0.28252778842E+03  0.50400001928E-02 0.  1.
        1   -1    0    0  501    0  0.00000000000E+00  0.00000000000E+00 -0.56307916836E+03  0.56307916839E+03  0.50400001928E-02 0. -1.
    10030    2    1    2    0    0  0.00000000000E+00  0.00000000000E+00 -0.28055137999E+03  0.84560695681E+03  0.79771050425E+03 0.  0.
        4    1    3    3  502    0 -0.33799614189E+03  0.10360106758E+03  0.55500470054E+02  0.35784981237E+03  0.12699999809E+01 0.  1.
       -4    1    3    3    0  502  0.33799614189E+03 -0.10360106758E+03 -0.33605185004E+03  0.48775714444E+03  0.12699999809E+01 0. -1.
</event>
<event>
 5   0  0.1509629E-02  0.8196012E+03  0.7818609E-02  0.9532071E-01
       -1   -1    0    0    0  501  0.00000000000E+00  0.00000000000E+00  0.18408478761E+03  0.18408478768E+03  0.50400001928E-02 0.  1.
        1   -1    0    0  501    0  0.00000000000E+00  0.00000000000E+00 -0.91227805974E+03  0.91227805975E+03  0.50400001928E-02 0. -1.
    10030    2    1    2    0    0  0.00000000000E+00  0.00000000000E+00 -0.72819327213E+03  0.10963628474E+04  0.81960115401E+03 0.  0.
        5    1    3    3  502    0 -0.24614493784E+03 -0.19385782628E+03 -0.71737100998E+03  0.78282274060E+03  0.46999998093E+01 0. -1.
       -5    1    3    3    0  502  0.24614493784E+03  0.19385782628E+03 -0.10822262147E+02  0.31354010683E+03  0.46999998093E+01 0.  1.
</event>
<event>
 5   0  0.2571778E-02  0.7995696E+03  0.7818609E-02  0.9560640E-01
        2   -1    0    0  501    0  0.00000000000E+00  0.00000000000E+00  0.40000734221E+03  0.40000734222E+03  0.25500000920E-02 0. -1.
       -2   -1    0    0    0  501  0.00000000000E+00  0.00000000000E+00 -0.39956237626E+03  0.39956237627E+03  0.25500000920E-02 0.  1.
    10030    2    1    2    0    0  0.00000000000E+00  0.00000000000E+00  0.44496595121E+00  0.79956971848E+03  0.79956959467E+03 0.  0.
        1    1    3    3  502    0 -0.27963624731E+03  0.14242889764E+02  0.28557948509E+03  0.39994366234E+03  0.50400001928E-02 0. -1.
       -1    1    3    3    0  502  0.27963624731E+03 -0.14242889764E+02 -0.28513451914E+03  0.39962605614E+03  0.50400001928E-02 0.  1.
</event>
<event>
 5   0  0.2422031E-02  0.8092240E+03  0.7818609E-02  0.9546761E-01
       -2   -1    0    0    0  501  0.00000000000E+00  0.00000000000E+00  0.20228797412E+03  0.20228797413E+03  0.25500000920E-02 0. -1.
        2   -1    0    0  501    0  0.00000000000E+00  0.00000000000E+00 -0.80929607812E+03  0.80929607813E+03  0.25500000920E-02 0.  1.
    10030    2    1    2    0    0  0.00000000000E+00  0.00000000000E+00 -0.60700810400E+03  0.10115840523E+04  0.80922398411E+03 0.  0.
        4    1    3    3  502    0  0.33472530486E+03  0.21446300986E+03 -0.39766519643E+03  0.56229408112E+03  0.12699999809E+01 0.  1.
       -4    1    3    3    0  502 -0.33472530486E+03 -0.21446300986E+03 -0.20934290758E+03  0.44928997114E+03  0.12699999809E+01 0. -1.
</event>
<event>
 5   0  0.2460312E-02  0.8019459E+03  0.7818609E-02  0.9557205E-01
        2   -1    0    0  501    0  0.00000000000E+00  0.00000000000E+00  0.37601573295E+03  0.37601573296E+03  0.25500000920E-02 0. -1.
       -2   -1    0    0    0  501  0.00000000000E+00  0.00000000000E+00 -0.42758666672E+03  0.42758666673E+03  0.25500000920E-02 0.  1.
    10030    2    1    2    0    0  0.00000000000E+00  0.00000000000E+00 -0.51570933777E+02  0.80360239969E+03  0.80194591811E+03 0.  0.
        2    1    3    3  502    0 -0.35735370185E+02  0.23704152028E+03  0.29630281334E+03  0.38113128475E+03  0.25500000920E-02 0. -1.
       -2    1    3    3    0  502  0.35735370185E+02 -0.23704152028E+03 -0.34787374711E+03  0.42247111494E+03  0.25500000920E-02 0.  1.
</event>
<event>
 5   0  0.2460312E-02  0.7729624E+03  0.7818609E-02  0.9599999E-01
        2   -1    0    0  501    0  0.00000000000E+00  0.00000000000E+00  0.32719386629E+03  0.32719386630E+03  0.25500000920E-02 0. -1.
       -2   -1    0    0    0  501  0.00000000000E+00  0.00000000000E+00 -0.45651136225E+03  0.45651136226E+03  0.25500000920E-02 0.  1.
    10030    2    1    2    0    0  0.00000000000E+00  0.00000000000E+00 -0.12931749596E+03  0.78370522856E+03  0.77296239916E+03 0.  0.
        2    1    3    3  502    0  0.19254029900E+03 -0.28494016138E+03 -0.24347618468E+03  0.42135889076E+03  0.25500000920E-02 0.  1.
       -2    1    3    3    0  502 -0.19254029900E+03  0.28494016138E+03  0.11415868872E+03  0.36234633781E+03  0.25500000920E-02 0. -1.
</event>
<event>
 5   0  0.9919125E-03  0.7922285E+03  0.7818609E-02  0.9571335E-01
       -4   -1    0    0    0  501  0.00000000000E+00  0.00000000000E+00  0.45130933938E+03  0.45131112628E+03  0.12699999809E+01 0. -1.
        4   -1    0    0  501    0  0.00000000000E+00  0.00000000000E+00 -0.34766583939E+03  0.34766815899E+03  0.12699999809E+01 0.  1.
    10030    2    1    2    0    0  0.00000000000E+00  0.00000000000E+00  0.10364349999E+03  0.79897928528E+03  0.79222845393E+03 0.  0.
        4    1    3    3  502    0  0.28552340072E+03  0.19945523938E+03 -0.13846263322E+03  0.37480597457E+03  0.12699999809E+01 0.  1.
       -4    1    3    3    0  502 -0.28552340072E+03 -0.19945523938E+03  0.24210613321E+03  0.42417331070E+03  0.12699999809E+01 0. -1.
</event>
<event>
 5   0  0.1523811E-02  0.7861883E+03  0.7818609E-02  0.9580227E-01
       -1   -1    0    0    0  501  0.00000000000E+00  0.00000000000E+00  0.18804689319E+03  0.18804689325E+03  0.50400001928E-02 0. -1.
        1   -1    0    0  501    0  0.00000000000E+00  0.00000000000E+00 -0.82172587277E+03  0.82172587278E+03  0.50400001928E-02 0.  1.
    10030    2    1    2    0    0  0.00000000000E+00  0.00000000000E+00 -0.63367897958E+03  0.10097727660E+04  0.78618826617E+03 0.  0.
        1    1    3    3  502    0 -0.14982400116E+03  0.14401053619E+03  0.11172514456E+03  0.23594231034E+03  0.50400001928E-02 0. -1.
       -1    1    3    3    0  502  0.14982400116E+03 -0.14401053619E+03 -0.74540412414E+03  0.77383045570E+03  0.50400001928E-02 0.  1.
</event>
<event>
 5   0  0.2454354E-02  0.8007966E+03  0.7818609E-02  0.9558865E-01
       -2   -1    0    0    0  501  0.00000000000E+00  0.00000000000E+00  0.30528285882E+03  0.30528285883E+03  0.25500000920E-02 0.  1.
        2   -1    0    0  501    0  0.00000000000E+00  0.00000000000E+00 -0.52514838982E+03  0.52514838983E+03  0.25500000920E-02 0. -1.
    10030    2    1    2    0    0  0.00000000000E+00  0.00000000000E+00 -0.21986553100E+03  0.83043124866E+03  0.80079660778E+03 0.  0.
        5    1    3    3  502    0  0.39724224260E+03  0.23947423013E+02 -0.15539380109E+03  0.42725191842E+03  0.46999998093E+01 0. -1.
       -5    1    3    3    0  502 -0.39724224260E+03 -0.23947423013E+02 -0.64471729902E+02  0.40317933024E+03  0.46999998093E+01 0.  1.
</event>
<event>
 5   0  0.2571778E-02  0.7939010E+03  0.7818609E-02  0.9568887E-01
       -2   -1    0    0    0  501  0.00000000000E+00  0.00000000000E+00  0.12726920928E+04  0.12726920928E+04  0.25500000920E-02 0. -1.
        2   -1    0    0  501    0  0.00000000000E+00  0.00000000000E+00 -0.12380817435E+03  0.12380817438E+03  0.25500000920E-02 0.  1.
    10030    2    1    2    0    0  0.00000000000E+00  0.00000000000E+00  0.11488839184E+04  0.13965002672E+04  0.79390096244E+03 0.  0.
        1    1    3    3  502    0 -0.23437514237E+03  0.31881558144E+03  0.62991722588E+03  0.74388896606E+03  0.50400001928E-02 0. -1.
       -1    1    3    3    0  502  0.23437514237E+03 -0.31881558144E+03  0.51896669256E+03  0.65261130112E+03  0.50400001928E-02 0.  1.
</event>
<event>
 5   0  0.1498375E-02  0.7940250E+03  0.7818609E-02  0.9568706E-01
       -1   -1    0    0    0  501  0.00000000000E+00  0.00000000000E+00  0.25967542320E+03  0.25967542324E+03  0.50400001928E-02 0.  1.
        1   -1    0    0  501    0  0.00000000000E+00  0.00000000000E+00 -0.60698430753E+03  0.60698430755E+03  0.50400001928E-02 0. -1.
    10030    2    1    2    0    0  0.00000000000E+00  0.00000000000E+00 -0.34730888433E+03  0.86665973079E+03  0.79402495417E+03 0.  0.
        4    1    3    3  502    0 -0.35340821938E+03 -0.86103099083E+02 -0.23240858893E-01  0.36374816376E+03  0.12699999809E+01 0.  1.
       -4    1    3    3    0  502  0.35340821938E+03  0.86103099083E+02 -0.34728564347E+03  0.50291156704E+03  0.12699999809E+01 0. -1.
</event>
<event>
 5   0  0.1624094E-02  0.7939826E+03  0.7818609E-02  0.9568768E-01
        1   -1    0    0  501    0  0.00000000000E+00  0.00000000000E+00  0.11838274364E+04  0.11838274364E+04  0.50400001928E-02 0. -1.
       -1   -1    0    0    0  501  0.00000000000E+00  0.00000000000E+00 -0.13312928554E+03  0.13312928563E+03  0.50400001928E-02 0.  1.
    10030    2    1    2    0    0  0.00000000000E+00  0.00000000000E+00  0.10506981509E+04  0.13169567220E+04  0.79398262167E+03 0.  0.
        3    1    3    3  502    0 -0.37639396166E+03  0.12365935178E+03  0.48345189410E+03  0.62505183286E+03  0.10100000352E+00 0.  1.
       -3    1    3    3    0  502  0.37639396166E+03 -0.12365935178E+03  0.56724625676E+03  0.69190488917E+03  0.10100000352E+00 0. -1.
</event>
<event>
 5   0  0.2454354E-02  0.7835036E+03  0.7818609E-02  0.9584207E-01
       -2   -1    0    0    0  501  0.00000000000E+00  0.00000000000E+00  0.12701727025E+03  0.12701727028E+03  0.25500000920E-02 0. -1.
        2   -1    0    0  501    0  0.00000000000E+00  0.00000000000E+00 -0.12082567322E+04  0.12082567322E+04  0.25500000920E-02 0.  1.
    10030    2    1    2    0    0  0.00000000000E+00  0.00000000000E+00 -0.10812394620E+04  0.13352740025E+04  0.78350359772E+03 0.  0.
        5    1    3    3  502    0 -0.14623760291E+03 -0.17950031570E+03 -0.10791190092E+04  0.11036873315E+04  0.46999998093E+01 0.  1.
       -5    1    3    3    0  502  0.14623760291E+03  0.17950031570E+03 -0.21204527710E+01  0.23158667094E+03  0.46999998093E+01 0. -1.
</event>
<event>
 5   0  0.2454354E-02  0.7899222E+03  0.7818609E-02  0.9574720E-01
        2   -1    0    0  501    0  0.00000000000E+00  0.00000000000E+00  0.59402008064E+03  0.59402008065E+03  0.25500000920E-02 0.  1.
       -2   -1    0    0    0  501  0.00000000000E+00  0.00000000000E+00 -0.26260774723E+03  0.26260774724E+03  0.25500000920E-02 0. -1.
    10030    2    1    2    0    0  0.00000000000E+00  0.00000000000E+00  0.33141233341E+03  0.85662782789E+03  0.78992221185E+03 0.  0.
        5    1    3    3  502    0 -0.30366573421E+02  0.38442577719E+03  0.73261514162E+02  0.39254890957E+03  0.46999998093E+01 0. -1.
       -5    1    3    3    0  502  0.30366573421E+02 -0.38442577719E+03  0.25815081925E+03  0.46407891832E+03  0.46999998093E+01 0.  1.
</event>
<event>
 5   0  0.2460312E-02  0.7970474E+03  0.7818609E-02  0.9564301E-01
       -2   -1    0    0    0  501  0.00000000000E+00  0.00000000000E+00  0.15797652430E+04  0.15797652430E+04  0.25500000920E-02 0. -1.
        2   -1    0    0  501    0  0.00000000000E+00  0.00000000000E+00 -0.10053463955E+03  0.10053463958E+03  0.25500000920E-02 0.  1.
    10030    2    1    2    0    0  0.00000000000E+00  0.00000000000E+00  0.14792306034E+04  0.16802998826E+04  0.79704737450E+03 0.  0.
        2    1    3    3  502    0 -0.15462383614E+03  0.11031677499E+03  0.10299530737E+01  0.18994573529E+03  0.25500000920E-02 0.  1.
       -2    1    3    3    0  502  0.15462383614E+03 -0.11031677499E+03  0.14782006504E+04  0.14903541473E+04  0.25500000920E-02 0. -1.
</event>
<event>
 5   0  0.2422031E-02  0.7998753E+03  0.7818609E-02  0.9560198E-01
       -2   -1    0    0    0  501  0.00000000000E+00  0.00000000000E+00  0.76404966595E+02  0.76404966637E+02  0.25500000920E-02 0. -1.
        2   -1    0    0  501    0  0.00000000000E+00  0.00000000000E+00 -0.20934519482E+04  0.20934519482E+04  0.25500000920E-02 0.  1.
    10030    2    1    2    0    0  0.00000000000E+00  0.00000000000E+00 -0.20170469816E+04  0.21698569149E+04  0.79987530584E+03 0.  0.
        4    1    3    3  502    0  0.24334627344E+02  0.37213210954E+02 -0.20867206927E+04  0.20871947345E+04  0.12699999809E+01 0.  1.
       -4    1    3    3    0  502 -0.24334627344E+02 -0.37213210954E+02  0.69673711082E+02  0.82662180430E+02  0.12699999809E+01 0. -1.
</event>
<event>
 5   0  0.1523811E-02  0.7983272E+03  0.7818609E-02  0.9562442E-01
       -1   -1    0    0    0  501  0.00000000000E+00  0.00000000000E+00  0.85393767205E+02  0.85393767354E+02  0.50400001928E-02 0. -1.
        1   -1    0    0  501    0  0.00000000000E+00  0.00000000000E+00 -0.18658455470E+04  0.18658455470E+04  0.50400001928E-02 0.  1.
    10030    2    1    2    0    0  0.00000000000E+00  0.00000000000E+00 -0.17804517798E+04  0.19512393143E+04  0.79832720217E+03 0.  0.
        1    1    3    3  502    0  0.16115207384E+03  0.22429453371E+02  0.66454764681E+00  0.16270683124E+03  0.50400001928E-02 0. -1.
       -1    1    3    3    0  502 -0.16115207384E+03 -0.22429453371E+02 -0.17811163274E+04  0.17885324831E+04  0.50400001928E-02 0.  1.
</event>
<event>
 5   0  0.1523811E-02  0.7852880E+03  0.7818609E-02  0.9581560E-01
       -1   -1    0    0    0  501  0.00000000000E+00  0.00000000000E+00  0.23662713254E+03  0.23662713259E+03  0.50400001928E-02 0. -1.
        1   -1    0    0  501    0  0.00000000000E+00  0.00000000000E+00 -0.65152837917E+03  0.65152837919E+03  0.50400001928E-02 0.  1.
    10030    2    1    2    0    0  0.00000000000E+00  0.00000000000E+00 -0.41490124663E+03  0.88815551179E+03  0.78528795270E+03 0.  0.
        1    1    3    3  502    0 -0.88287037991E+02  0.94688081101E+02 -0.62669519306E+03  0.63992757309E+03  0.50400001928E-02 0.  1.
       -1    1    3    3    0  502  0.88287037991E+02 -0.94688081101E+02  0.21179394643E+03  0.24822793869E+03  0.50400001928E-02 0. -1.
</event>
<event>
 5   0  0.1624094E-02  0.8260188E+03  0.7818609E-02  0.9523101E-01
       -1   -1    0    0    0  501  0.00000000000E+00  0.00000000000E+00  0.15601735111E+03  0.15601735119E+03  0.50400001928E-02 0.  1.
        1   -1    0    0  501    0  0.00000000000E+00  0.00000000000E+00 -0.10933191045E+04  0.10933191045E+04  0.50400001928E-02 0. -1.
    10030    2    1    2    0    0  0.00000000000E+00  0.00000000000E+00 -0.93730175336E+03  0.12493364557E+04  0.82601876649E+03 0.  0.
        3    1    3    3  502    0 -0.32774042190E+03  0.24518929936E+03 -0.38518771616E+03  0.56205085495E+03  0.10100000352E+00 0. -1.
       -3    1    3    3    0  502  0.32774042190E+03 -0.24518929936E+03 -0.55211403720E+03  0.68728560071E+03  0.10100000352E+00 0.  1.
</event>
<event>
 5   0  0.2571778E-02  0.7698272E+03  0.7818609E-02  0.9604748E-01
        2   -1    0    0  501    0  0.00000000000E+00  0.00000000000E+00  0.78114295297E+03  0.78114295298E+03  0.25500000920E-02 0. -1.
       -2   -1    0    0    0  501  0.00000000000E+00  0.00000000000E+00 -0.18966885091E+03  0.18966885092E+03  0.25500000920E-02 0.  1.
    10030    2    1    2    0    0  0.00000000000E+00  0.00000000000E+00  0.59147410207E+03  0.97081180390E+03  0.76982721774E+03 0.  0.
        1    1    3    3  502    0  0.30266017843E+03  0.19065442622E+03  0.47499731377E+03  0.59462151152E+03  0.50400001928E-02 0. -1.
       -1    1    3    3    0  502 -0.30266017843E+03 -0.19065442622E+03  0.11647678830E+03  0.37619029238E+03  0.50400001928E-02 0.  1.
</event>
<event>
 5   0  0.9919125E-03  0.8066058E+03  0.7818609E-02  0.9550504E-01
        3   -1    0    0  501    0  0.00000000000E+00  0.00000000000E+00  0.78831170436E+03  0.78831171083E+03  0.10100000352E+00 0.  1.
       -3   -1    0    0    0  501  0.00000000000E+00  0.00000000000E+00 -0.20633110116E+03  0.20633112588E+03  0.10100000352E+00 0. -1.
    10030    2    1    2    0    0  0.00000000000E+00  0.00000000000E+00  0.58198060319E+03  0.99464283671E+03  0.80660582079E+03 0.  0.
        2    1    3    3  502    0 -0.33022274115E+03 -0.83671259587E+02  0.55719974484E+03  0.65308459951E+03  0.25500000920E-02 0.  1.
       -2    1    3    3    0  502  0.33022274115E+03  0.83671259587E+02  0.24780858351E+02  0.34155823720E+03  0.25500000920E-02 0. -1.
</event>
<event>
 5   0  0.2422031E-02  0.8065542E+03  0.7818609E-02  0.9550578E-01
        2   -1    0    0  501    0  0.00000000000E+00  0.00000000000E+00  0.11204471960E+04  0.11204471960E+04  0.25500000920E-02 0.  1.
       -2   -1    0    0    0  501  0.00000000000E+00  0.00000000000E+00 -0.14514957290E+03  0.14514957293E+03  0.25500000920E-02 0. -1.
    10030    2    1    2    0    0  0.00000000000E+00  0.00000000000E+00  0.97529762313E+03  0.12655967690E+04  0.80655423124E+03 0.  0.
        4    1    3    3  502    0 -0.22293138779E+03  0.39895096319E+02 -0.35938297916E+02  0.22931026259E+03  0.12699999809E+01 0. -1.
       -4    1    3    3    0  502  0.22293138779E+03 -0.39895096319E+02  0.10112359210E+04  0.10362865064E+04  0.12699999809E+01 0.  1.
</event>
<event>
 5   0  0.1498375E-02  0.8075824E+03  0.7818609E-02  0.9549106E-01
        1   -1    0    0  501    0  0.00000000000E+00  0.00000000000E+00  0.36802394559E+03  0.36802394562E+03  0.50400001928E-02 0.  1.
       -1   -1    0    0    0  501  0.00000000000E+00  0.00000000000E+00 -0.44303460564E+03  0.44303460567E+03  0.50400001928E-02 0. -1.
    10030    2    1    2    0    0  0.00000000000E+00  0.00000000000E+00 -0.75010660050E+02  0.81105855129E+03  0.80758242583E+03 0.  0.
        4    1    3    3  502    0  0.16131036428E+03 -0.34523678941E+03  0.96621975673E+02  0.39312452667E+03  0.12699999809E+01 0.  1.
       -4    1    3    3    0  502 -0.16131036428E+03  0.34523678941E+03 -0.17163263572E+03  0.41793402462E+03  0.12699999809E+01 0. -1.
</event>
<event>
 5   0  0.1509629E-02  0.7989490E+03  0.7818609E-02  0.9561540E-01
       -1   -1    0    0    0  501  0.00000000000E+00  0.00000000000E+00  0.27775979688E+03  0.27775979692E+03  0.50400001928E-02 0.  1.
        1   -1    0    0  501    0  0.00000000000E+00  0.00000000000E+00 -0.57452478377E+03  0.57452478379E+03  0.50400001928E-02 0. -1.
    10030    2    1    2    0    0  0.00000000000E+00  0.00000000000E+00 -0.29676498689E+03  0.85228458072E+03  0.79894902784E+03 0.  0.
        5    1    3    3  502    0 -0.29638897787E+03 -0.26777356323E+03 -0.14523783878E+03  0.42504732346E+03  0.46999998093E+01 0.  1.
       -5    1    3    3    0  502  0.29638897787E+03  0.26777356323E+03 -0.15152714811E+03  0.42723725725E+03  0.46999998093E+01 0. -1.
</event>
<event>
 5   0  0.2571778E-02  0.8138231E+03  0.7818609E-02  0.9540221E-01
       -2   -1    0    0    0  501  0.00000000000E+00  0.00000000000E+00  0.77314479495E+02  0.77314479537E+02  0.25500000920E-02 0. -1.
        2   -1    0    0  501    0  0.00000000000E+00  0.00000000000E+00 -0.21416041575E+04  0.21416041575E+04  0.25500000920E-02 0.  1.
    10030    2    1    2    0    0  0.00000000000E+00  0.00000000000E+00 -0.20642896780E+04  0.22189186370E+04  0.81382310306E+03 0.  0.
        1    1    3    3  502    0  0.74620065101E+02 -0.35735236776E+03 -0.15222252617E+04  0.15653876888E+04  0.50400001928E-02 0.  1.
       -1    1    3    3    0  502 -0.74620065101E+02  0.35735236776E+03 -0.54206441632E+03  0.65353094825E+03  0.50400001928E-02 0. -1.
</event>
<event>
 5   0  0.1624094E-02  0.9740111E+03  0.7818609E-02  0.9337517E-01
        1   -1    0    0  501    0  0.00000000000E+00  0.00000000000E+00  0.51286552303E+03  0.51286552306E+03  0.50400001928E-02 0.  1.
       -1   -1    0    0    0  501  0.00000000000E+00  0.00000000000E+00 -0.46244946159E+03  0.46244946161E+03  0.50400001928E-02 0. -1.
    10030    2    1    2    0    0  0.00000000000E+00  0.00000000000E+00  0.50416061444E+02  0.97531498467E+03  0.97401105747E+03 0.  0.
        3    1    3    3  502    0  0.21266225116E+02 -0.36798568914E+02  0.51100489451E+03  0.51276934329E+03  0.10100000352E+00 0.  1.
       -3    1    3    3    0  502 -0.21266225116E+02  0.36798568914E+02 -0.46058883307E+03  0.46254564137E+03  0.10100000352E+00 0. -1.
</event>
<event>
 5   0  0.2460312E-02  0.8048820E+03  0.7818609E-02  0.9552977E-01
        2   -1    0    0  501    0  0.00000000000E+00  0.00000000000E+00  0.37491875089E+03  0.37491875090E+03  0.25500000920E-02 0.  1.
       -2   -1    0    0    0  501  0.00000000000E+00  0.00000000000E+00 -0.43198361403E+03  0.43198361403E+03  0.25500000920E-02 0. -1.
    10030    2    1    2    0    0  0.00000000000E+00  0.00000000000E+00 -0.57064863134E+02  0.80690236493E+03  0.80488199628E+03 0.  0.
        2    1    3    3  502    0  0.34684621614E+03  0.22290637442E+02 -0.23191994106E+03  0.41783493061E+03  0.25500000920E-02 0. -1.
       -2    1    3    3    0  502 -0.34684621614E+03 -0.22290637442E+02  0.17485507793E+03  0.38906743432E+03  0.25500000920E-02 0.  1.
</event>
<event>
 5   0  0.2460312E-02  0.7972271E+03  0.7818609E-02  0.9564039E-01
       -2   -1    0    0    0  501  0.00000000000E+00  0.00000000000E+00  0.79671407462E+02  0.79671407503E+02  0.25500000920E-02 0. -1.
        2   -1    0    0  501    0  0.00000000000E+00  0.00000000000E+00 -0.19943509926E+04  0.19943509926E+04  0.25500000920E-02 0.  1.
    10030    2    1    2    0    0  0.00000000000E+00  0.00000000000E+00 -0.19146795851E+04  0.20740224001E+04  0.79722707078E+03 0.  0.
        2    1    3    3  502    0  0.42017986996E+02  0.72919385695E+02 -0.19709747952E+04  0.19727707397E+04  0.25500000920E-02 0.  1.
       -2    1    3    3    0  502 -0.42017986996E+02 -0.72919385695E+02  0.56295210106E+02  0.10125166037E+03  0.25500000920E-02 0. -1.
</event>
<event>
 5   0  0.2422031E-02  0.8033880E+03  0.7818609E-02  0.9555126E-01
        2   -1    0    0  501    0  0.00000000000E+00  0.00000000000E+00  0.60958019050E+03  0.60958019050E+03  0.25500000920E-02 0.  1.
       -2   -1    0    0    0  501  0.00000000000E+00  0.00000000000E+00 -0.26470362971E+03  0.26470362972E+03  0.25500000920E-02 0. -1.
    10030    2    1    2    0    0  0.00000000000E+00  0.00000000000E+00  0.34487656079E+03  0.87428382023E+03  0.80338804829E+03 0.  0.
        4    1    3    3  502    0 -0.19363386591E+03 -0.44812265117E+02 -0.20744260219E+03  0.28729124462E+03  0.12699999809E+01 0. -1.
       -4    1    3    3    0  502  0.19363386591E+03  0.44812265117E+02  0.55231916298E+03  0.58699257561E+03  0.12699999809E+01 0.  1.
</event>
<event>
 5   0  0.2464780E-02  0.8009851E+03  0.7818609E-02  0.9558592E-01
       -2   -1    0    0    0  501  0.00000000000E+00  0.00000000000E+00  0.21461959126E+03  0.21461959128E+03  0.25500000920E-02 0. -1.
        2   -1    0    0  501    0  0.00000000000E+00  0.00000000000E+00 -0.74734222452E+03  0.74734222453E+03  0.25500000920E-02 0.  1.
    10030    2    1    2    0    0  0.00000000000E+00  0.00000000000E+00 -0.53272263326E+03  0.96196181580E+03  0.80098510041E+03 0.  0.
        3    1    3    3  502    0 -0.33872287876E+03  0.20165147391E+03 -0.18145863642E+03  0.43396284687E+03  0.10100000352E+00 0.  1.
       -3    1    3    3    0  502  0.33872287876E+03 -0.20165147391E+03 -0.35126399684E+03  0.52799896894E+03  0.10100000352E+00 0. -1.
</event>
<event>
 5   0  0.2571778E-02  0.7838976E+03  0.7818609E-02  0.9583622E-01
       -2   -1    0    0    0  501  0.00000000000E+00  0.00000000000E+00  0.17328805441E+03  0.17328805443E+03  0.25500000920E-02 0.  1.
        2   -1    0    0  501    0  0.00000000000E+00  0.00000000000E+00 -0.88652308343E+03  0.88652308343E+03  0.25500000920E-02 0. -1.
    10030    2    1    2    0    0  0.00000000000E+00  0.00000000000E+00 -0.71323502902E+03  0.10598111379E+04  0.78389759620E+03 0.  0.
        1    1    3    3  502    0  0.16656696542E+03 -0.17097988376E+03  0.63682358753E+02  0.24705083983E+03  0.50400001928E-02 0.  1.
       -1    1    3    3    0  502 -0.16656696542E+03  0.17097988376E+03 -0.77691738777E+03  0.81276029804E+03  0.50400001928E-02 0. -1.
</event>
<event>
 5   0  0.2454354E-02  0.8303389E+03  0.7818609E-02  0.9517112E-01
       -2   -1    0    0    0  501  0.00000000000E+00  0.00000000000E+00  0.92689890231E+02  0.92689890266E+02  0.25500000920E-02 0.  1.
        2   -1    0    0  501    0  0.00000000000E+00  0.00000000000E+00 -0.18595950776E+04  0.18595950776E+04  0.25500000920E-02 0. -1.
    10030    2    1    2    0    0  0.00000000000E+00  0.00000000000E+00 -0.17669051873E+04  0.19522849678E+04  0.83033887937E+03 0.  0.
        5    1    3    3  502    0 -0.29420310706E+03 -0.18735465962E+03 -0.14127908591E+04  0.14552172822E+04  0.46999998093E+01 0. -1.
       -5    1    3    3    0  502  0.29420310706E+03  0.18735465962E+03 -0.35411432819E+03  0.49706768565E+03  0.46999998093E+01 0.  1.
</event>
<event>
 5   0  0.1498375E-02  0.7902190E+03  0.7818609E-02  0.9574284E-01
       -1   -1    0    0    0  501  0.00000000000E+00  0.00000000000E+00  0.19035373986E+03  0.19035373993E+03  0.50400001928E-02 0. -1.
        1   -1    0    0  501    0  0.00000000000E+00  0.00000000000E+00 -0.82011262819E+03  0.82011262821E+03  0.50400001928E-02 0.  1.
    10030    2    1    2    0    0  0.00000000000E+00  0.00000000000E+00 -0.62975888834E+03  0.10104663681E+04  0.79021897199E+03 0.  0.
        4    1    3    3  502    0 -0.15893676452E+03  0.27015286292E+03 -0.62248044953E+03  0.69694116495E+03  0.12699999809E+01 0.  1.
       -4    1    3    3    0  502  0.15893676452E+03 -0.27015286292E+03 -0.72784388093E+01  0.31352520318E+03  0.12699999809E+01 0. -1.
</event>
<event>
 5   0  0.1509629E-02  0.8229323E+03  0.7818609E-02  0.9527404E-01
        1   -1    0    0  501    0  0.00000000000E+00  0.00000000000E+00  0.35526333581E+03  0.35526333584E+03  0.50400001928E-02 0.  1.
       -1   -1    0    0    0  501  0.00000000000E+00  0.00000000000E+00 -0.47656029382E+03  0.47656029384E+03  0.50400001928E-02 0. -1.
    10030    2    1    2    0    0  0.00000000000E+00  0.00000000000E+00 -0.12129695801E+03  0.83182362968E+03  0.82293231731E+03 0.  0.
        5    1    3    3  502    0  0.16732054121E+03 -0.23269415064E+03  0.23773506149E+03  0.37240137045E+03  0.46999998093E+01 0.  1.
       -5    1    3    3    0  502 -0.16732054121E+03  0.23269415064E+03 -0.35903201950E+03  0.45942225923E+03  0.46999998093E+01 0. -1.
</event>
<event>
 5   0  0.2422031E-02  0.8035285E+03  0.7818609E-02  0.9554924E-01
        2   -1    0    0  501    0  0.00000000000E+00  0.00000000000E+00  0.15110901502E+03  0.15110901504E+03  0.25500000920E-02 0. -1.
       -2   -1    0    0    0  501  0.00000000000E+00  0.00000000000E+00 -0.10681991924E+04  0.10681991924E+04  0.25500000920E-02 0.  1.
    10030    2    1    2    0    0  0.00000000000E+00  0.00000000000E+00 -0.91709017735E+03  0.12193082074E+04  0.80352853794E+03 0.  0.
        4    1    3    3  502    0 -0.71916056189E+02 -0.17047759164E+03  0.82606386825E+02  0.20263256508E+03  0.12699999809E+01 0. -1.
       -4    1    3    3    0  502  0.71916056189E+02  0.17047759164E+03 -0.99969656418E+03  0.10166756423E+04  0.12699999809E+01 0.  1.
</event>
<event>
 5   0  0.2460312E-02  0.7520669E+03  0.7818609E-02  0.9632113E-01
       -2   -1    0    0    0  501  0.00000000000E+00  0.00000000000E+00  0.81473773030E+03  0.81473773030E+03  0.25500000920E-02 0.  1.
        2   -1    0    0  501    0  0.00000000000E+00  0.00000000000E+00 -0.17355421754E+03  0.17355421756E+03  0.25500000920E-02 0. -1.
    10030    2    1    2    0    0  0.00000000000E+00  0.00000000000E+00  0.64118351276E+03  0.98829194786E+03  0.75206693663E+03 0.  0.
        2    1    3    3  502    0  0.68527017048E+02 -0.21703291132E+03  0.71394926933E+03  0.74934824738E+03  0.25500000920E-02 0.  1.
       -2    1    3    3    0  502 -0.68527017048E+02  0.21703291132E+03 -0.72765756578E+02  0.23894370048E+03  0.25500000920E-02 0. -1.
</event>
<event>
 5   0  0.1509629E-02  0.7923026E+03  0.7818609E-02  0.9571226E-01
        1   -1    0    0  501    0  0.00000000000E+00  0.00000000000E+00  0.83646056076E+03  0.83646056077E+03  0.50400001928E-02 0.  1.
       -1   -1    0    0    0  501  0.00000000000E+00  0.00000000000E+00 -0.18761895021E+03  0.18761895028E+03  0.50400001928E-02 0. -1.
    10030    2    1    2    0    0  0.00000000000E+00  0.00000000000E+00  0.64884161055E+03  0.10240795111E+04  0.79230259963E+03 0.  0.
        5    1    3    3  502    0 -0.63040763602E+02  0.15105662932E+03  0.79066899532E+03  0.80744770313E+03  0.46999998093E+01 0.  1.
       -5    1    3    3    0  502  0.63040763602E+02 -0.15105662932E+03 -0.14182738477E+03  0.21663180793E+03  0.46999998093E+01 0. -1.
</event>
<event>
 5   0  0.1471290E-02  0.7927957E+03  0.7818609E-02  0.9570504E-01
       -1   -1    0    0    0  501  0.00000000000E+00  0.00000000000E+00  0.10216206453E+03  0.10216206466E+03  0.50400001928E-02 0. -1.
        1   -1    0    0  501    0  0.00000000000E+00  0.00000000000E+00 -0.15380587318E+04  0.15380587318E+04  0.50400001928E-02 0.  1.
    10030    2    1    2    0    0  0.00000000000E+00  0.00000000000E+00 -0.14358966673E+04  0.16402207965E+04  0.79279570010E+03 0.  0.
        2    1    3    3  502    0 -0.38069592046E+03  0.88799167458E+02 -0.85387695159E+03  0.93910623705E+03  0.25500000920E-02 0. -1.
       -2    1    3    3    0  502  0.38069592046E+03 -0.88799167458E+02 -0.58201971571E+03  0.70111455945E+03  0.25500000920E-02 0.  1.
</event>
<event>
 5   0  0.2454354E-02  0.7999879E+03  0.7818609E-02  0.9560035E-01
       -2   -1    0    0    0  501  0.00000000000E+00  0.00000000000E+00  0.28212842424E+03  0.28212842425E+03  0.25500000920E-02 0. -1.
        2   -1    0    0  501    0  0.00000000000E+00  0.00000000000E+00 -0.56710042982E+03  0.56710042982E+03  0.25500000920E-02 0.  1.
    10030    2    1    2    0    0  0.00000000000E+00  0.00000000000E+00 -0.28497200557E+03  0.84922885408E+03  0.79998787655E+03 0.  0.
        5    1    3    3  502    0  0.33947631054E+03  0.17348634702E+03 -0.27089161928E+03  0.46770293714E+03  0.46999998093E+01 0.  1.
       -5    1    3    3    0  502 -0.33947631054E+03 -0.17348634702E+03 -0.14080386291E+02  0.38152591693E+03  0.46999998093E+01 0. -1.
</event>
<event>
 5   0  0.1471290E-02  0.8170166E+03  0.7818609E-02  0.9535708E-01
       -1   -1    0    0    0  501  0.00000000000E+00  0.00000000000E+00  0.49096440254E+03  0.49096440256E+03  0.50400001928E-02 0.  1.
        1   -1    0    0  501    0  0.00000000000E+00  0.00000000000E+00 -0.33990043723E+03  0.33990043727E+03  0.50400001928E-02 0. -1.
    10030    2    1    2    0    0  0.00000000000E+00  0.00000000000E+00  0.15106396530E+03  0.83086483983E+03  0.81701656070E+03 0.  0.
        2    1    3    3  502    0 -0.86734148619E+02  0.92890026742E+01 -0.33031880980E+03  0.34164252403E+03  0.25500000920E-02 0. -1.
       -2    1    3    3    0  502  0.86734148619E+02 -0.92890026742E+01  0.48138277511E+03  0.48922231581E+03  0.25500000920E-02 0.  1.
</event>
<event>
 5   0  0.1624094E-02  0.7929973E+03  0.7818609E-02  0.9570209E-01
        1   -1    0    0  501    0  0.00000000000E+00  0.00000000000E+00  0.20969175044E+03  0.20969175050E+03  0.50400001928E-02 0. -1.
       -1   -1    0    0    0  501  0.00000000000E+00  0.00000000000E+00 -0.74972523957E+03  0.74972523959E+03  0.50400001928E-02 0.  1.
    10030    2    1    2    0    0  0.00000000000E+00  0.00000000000E+00 -0.54003348914E+03  0.95941699009E+03  0.79299734645E+03 0.  0.
        3    1    3    3  502    0  0.31952251454E+03  0.29235551840E+02  0.11810452055E+02  0.32107452681E+03  0.10100000352E+00 0. -1.
       -3    1    3    3    0  502 -0.31952251454E+03 -0.29235551840E+02 -0.55184394119E+03  0.63834246328E+03  0.10100000352E+00 0.  1.
</event>
<event>
 5   0  0.1523811E-02  0.8029639E+03  0.7818609E-02  0.9555737E-01
       -1   -1    0    0    0  501  0.00000000000E+00  0.00000000000E+00  0.56398419238E+02  0.56398419464E+02  0.50400001928E-02 0.  1.
        1   -1    0    0  501    0  0.00000000000E+00  0.00000000000E+00 -0.28580190874E+04  0.28580190874E+04  0.50400001928E-02 0. -1.
    10030    2    1    2    0    0  0.00000000000E+00  0.00000000000E+00 -0.28016206682E+04  0.29144175069E+04  0.80296390708E+03 0.  0.
        1    1    3    3  502    0  0.81173353008E+02 -0.40165095439E+02 -0.28204585837E+04  0.28219122896E+04  0.50400001928E-02 0. -1.
       -1    1    3    3    0  502 -0.81173353008E+02  0.40165095439E+02  0.18837915510E+02  0.92505217238E+02  0.50400001928E-02 0.  1.
</event>
<event>
 5   0  0.2571778E-02  0.7908962E+03  0.7818609E-02  0.9573289E-01
        2   -1    0    0  501    0  0.00000000000E+00  0.00000000000E+00  0.15119079398E+03  0.15119079400E+03  0.25500000920E-02 0.  1.
       -2   -1    0    0    0  501  0.00000000000E+00  0.00000000000E+00 -0.10343169303E+04  0.10343169303E+04  0.25500000920E-02 0. -1.
    10030    2    1    2    0    0  0.00000000000E+00  0.00000000000E+00 -0.88312613634E+03  0.11855077243E+04  0.79089619530E+03 0.  0.
        1    1    3    3  502    0 -0.39177343978E+03  0.26161896858E+02 -0.51200258858E+03  0.64522672271E+03  0.50400001928E-02 0. -1.
       -1    1    3    3    0  502  0.39177343978E+03 -0.26161896858E+02 -0.37112354776E+03  0.54028100161E+03  0.50400001928E-02 0.  1.
</event>
<event>
 5   0  0.9919125E-03  0.8084747E+03  0.7818609E-02  0.9547831E-01
       -3   -1    0    0    0  501  0.00000000000E+00  0.00000000000E+00  0.60223942904E+03  0.60223943751E+03  0.10100000352E+00 0.  1.
        3   -1    0    0  501    0  0.00000000000E+00  0.00000000000E+00 -0.27133367871E+03  0.27133369751E+03  0.10100000352E+00 0. -1.
    10030    2    1    2    0    0  0.00000000000E+00  0.00000000000E+00  0.33090575032E+03  0.87357313502E+03  0.80847474087E+03 0.  0.
        4    1    3    3  502    0  0.15577498222E+03 -0.37238609443E+03  0.14205293411E+03  0.42792277037E+03  0.12699999809E+01 0. -1.
       -4    1    3    3    0  502 -0.15577498222E+03  0.37238609443E+03  0.18885281622E+03  0.44565036465E+03  0.12699999809E+01 0.  1.
</event>
<event>
 5   0  0.2464780E-02  0.7180790E+03  0.7818609E-02  0.9686805E-01
       -2   -1    0    0    0  501  0.00000000000E+00  0.00000000000E+00  0.28194602064E+03  0.28194602065E+03  0.25500000920E-02 0.  1.
        2   -1    0    0  501    0  0.00000000000E+00  0.00000000000E+00 -0.45721288213E+03  0.45721288214E+03  0.25500000920E-02 0. -1.
    10030    2    1    2    0    0  0.00000000000E+00  0.00000000000E+00 -0.17526686150E+03  0.73915890279E+03  0.71807897256E+03 0.  0.
        3    1    3    3  502    0  0.35602697279E+03  0.11613507446E+02 -0.41378065938E+02  0.35861153558E+03  0.10100000352E+00 0.  1.
       -3    1    3    3    0  502 -0.35602697279E+03 -0.11613507446E+02 -0.13388879556E+03  0.38054736721E+03  0.10100000352E+00 0. -1.
</event>
<event>
 5   0  0.2454354E-02  0.7770179E+03  0.7818609E-02  0.9593892E-01
       -2   -1    0    0    0  501  0.00000000000E+00  0.00000000000E+00  0.22383970578E+03  0.22383970580E+03  0.25500000920E-02 0. -1.
        2   -1    0    0  501    0  0.00000000000E+00  0.00000000000E+00 -0.67431821235E+03  0.67431821236E+03  0.25500000920E-02 0.  1.
    10030    2    1    2    0    0  0.00000000000E+00  0.00000000000E+00 -0.45047850657E+03  0.89815791816E+03  0.77701786406E+03 0.  0.
        5    1    3    3  502    0 -0.16619843723E+03 -0.11138985935E+03  0.15967407925E+03  0.25602250465E+03  0.46999998093E+01 0. -1.
       -5    1    3    3    0  502  0.16619843723E+03  0.11138985935E+03 -0.61015258582E+03  0.64213541351E+03  0.46999998093E+01 0.  1.
</event>
<event>
 5   0  0.2422031E-02  0.8079255E+03  0.7818609E-02  0.9548616E-01
        2   -1    0    0  501    0  0.00000000000E+00  0.00000000000E+00  0.86568276331E+03  0.86568276331E+03  0.25500000920E-02 0.  1.
       -2   -1    0    0    0  501  0.00000000000E+00  0.00000000000E+00 -0.18850544218E+03  0.18850544219E+03  0.25500000920E-02 0. -1.
    10030    2    1    2    0    0  0.00000000000E+00  0.00000000000E+00  0.67717732113E+03  0.10541882055E+04  0.80792552155E+03 0.  0.
        4    1    3    3  502    0 -0.39136240866E+03 -0.34533752403E+02  0.21599784879E+03  0.44834562399E+03  0.12699999809E+01 0.  1.
       -4    1    3    3    0  502  0.39136240866E+03  0.34533752403E+02  0.46117947235E+03  0.60584258152E+03  0.12699999809E+01 0. -1.
</event>
<event>
 5   0  0.2571778E-02  0.7974434E+03  0.7818609E-02  0.9563725E-01
       -2   -1    0    0    0  501  0.00000000000E+00  0.00000000000E+00  0.87083936071E+02  0.87083936108E+02  0.25500000920E-02 0. -1.
        2   -1    0    0  501    0  0.00000000000E+00  0.00000000000E+00 -0.18255835823E+04  0.18255835823E+04  0.25500000920E-02 0.  1.
    10030    2    1    2    0    0  0.00000000000E+00  0.00000000000E+00 -0.17384996462E+04  0.19126675184E+04  0.79744342497E+03 0.  0.
        1    1    3    3  502    0  0.20859300687E+03  0.32628529502E+03 -0.10968656113E+04  0.11632228099E+04  0.50400001928E-02 0.  1.
       -1    1    3    3    0  502 -0.20859300687E+03 -0.32628529502E+03 -0.64163403489E+03  0.74944470844E+03  0.50400001928E-02 0. -1.
</event>
<event>
 5   0  0.1471290E-02  0.7938318E+03  0.7818609E-02  0.9568988E-01
       -1   -1    0    0    0  501  0.00000000000E+00  0.00000000000E+00  0.33428021709E+03  0.33428021713E+03  0.50400001928E-02 0.  1.
        1   -1    0    0  501    0  0.00000000000E+00  0.00000000000E+00 -0.47128798874E+03  0.47128798876E+03  0.50400001928E-02 0. -1.
    10030    2    1    2    0    0  0.00000000000E+00  0.00000000000E+00 -0.13700777165E+03  0.80556820589E+03  0.79383184923E+03 0.  0.
        2    1    3    3  502    0 -0.32985559556E+02  0.35511249985E+03  0.10828227131E+03  0.37271703070E+03  0.25500000920E-02 0.  1.
       -2    1    3    3    0  502  0.32985559556E+02 -0.35511249985E+03 -0.24529004295E+03  0.43285117519E+03  0.25500000920E-02 0. -1.
</event>
<event>
 5   0  0.1624094E-02  0.7987585E+03  0.7818609E-02  0.9561816E-01
       -1   -1    0    0    0  501  0.00000000000E+00  0.00000000000E+00  0.37904801999E+03  0.37904802002E+03  0.50400001928E-02 0.  1.
        1   -1    0    0  501    0  0.00000000000E+00  0.00000000000E+00 -0.42080097547E+03  0.42080097550E+03  0.50400001928E-02 0. -1.
    10030    2    1    2    0    0  0.00000000000E+00  0.00000000000E+00 -0.41752955485E+02  0.79984899552E+03  0.79875847810E+03 0.  0.
        3    1    3    3  502    0  0.20319923770E+03 -0.17597784928E+03 -0.31665345838E+03  0.41536436600E+03  0.10100000352E+00 0. -1.
       -3    1    3    3    0  502 -0.20319923770E+03  0.17597784928E+03  0.27490050290E+03  0.38448462952E+03  0.10100000352E+00 0.  1.
</event>
<event>
 5   0  0.9919125E-03  0.8034028E+03  0.7818609E-02  0.9555105E-01
       -3   -1    0    0    0  501  0.00000000000E+00  0.00000000000E+00  0.16673460357E+03  0.16673463416E+03  0.10100000352E+00 0.  1.
        3   -1    0    0  501    0  0.00000000000E+00  0.00000000000E+00 -0.96778950212E+03  0.96778950739E+03  0.10100000352E+00 0. -1.
    10030    2    1    2    0    0  0.00000000000E+00  0.00000000000E+00 -0.80105489855E+03  0.11345241415E+04  0.80340281133E+03 0.  0.
        3    1    3    3  502    0 -0.12532619390E+03  0.14742685964E+03 -0.89764120969E+03  0.91825981364E+03  0.10100000352E+00 0. -1.
       -3    1    3    3    0  502  0.12532619390E+03 -0.14742685964E+03  0.96586311136E+02  0.21626432790E+03  0.10100000352E+00 0.  1.
</event>
<event>
 5   0  0.2464780E-02  0.7860347E+03  0.7818609E-02  0.9580454E-01
        2   -1    0    0  501    0  0.00000000000E+00  0.00000000000E+00  0.43847607787E+03  0.43847607788E+03  0.25500000920E-02 0.  1.
       -2   -1    0    0    0  501  0.00000000000E+00  0.00000000000E+00 -0.35227155412E+03  0.35227155413E+03  0.25500000920E-02 0. -1.
    10030    2    1    2    0    0  0.00000000000E+00  0.00000000000E+00  0.86204523751E+02  0.79074763201E+03  0.78603473054E+03 0.  0.
        3    1    3    3  502    0 -0.36487206433E+03 -0.12809156386E+03 -0.27486586561E+02  0.38767846819E+03  0.10100000352E+00 0.  1.
       -3    1    3    3    0  502  0.36487206433E+03  0.12809156386E+03  0.11369111031E+03  0.40306916382E+03  0.10100000352E+00 0. -1.
</event>
<event>
 5   0  0.2464780E-02  0.8062142E+03  0.7818609E-02  0.9551066E-01
       -2   -1    0    0    0  501  0.00000000000E+00  0.00000000000E+00  0.21331454024E+03  0.21331454026E+03  0.25500000920E-02 0. -1.
        2   -1    0    0  501    0  0.00000000000E+00  0.00000000000E+00 -0.76176395906E+03  0.76176395906E+03  0.25500000920E-02 0.  1.
    10030    2    1    2    0    0  0.00000000000E+00  0.00000000000E+00 -0.54844941882E+03  0.97507849932E+03  0.80621418670E+03 0.  0.
        3    1    3    3  502    0  0.36062772206E+03  0.15765407475E+02 -0.57214871049E+02  0.36547839014E+03  0.10100000352E+00 0. -1.
       -3    1    3    3    0  502 -0.36062772206E+03 -0.15765407475E+02 -0.49123454777E+03  0.60960010918E+03  0.10100000352E+00 0.  1.
</event>
<event>
 5   0  0.1471290E-02  0.8194726E+03  0.7818609E-02  0.9532251E-01
       -1   -1    0    0    0  501  0.00000000000E+00  0.00000000000E+00  0.95969682307E+02  0.95969682439E+02  0.50400001928E-02 0. -1.
        1   -1    0    0  501    0  0.00000000000E+00  0.00000000000E+00 -0.17493424721E+04  0.17493424721E+04  0.50400001928E-02 0.  1.
    10030    2    1    2    0    0  0.00000000000E+00  0.00000000000E+00 -0.16533727897E+04  0.18453121545E+04  0.81947261435E+03 0.  0.
        2    1    3    3  502    0 -0.35463113473E+02  0.19498351688E+03 -0.19137592719E+02  0.19910412285E+03  0.25500000920E-02 0. -1.
       -2    1    3    3    0  502  0.35463113473E+02 -0.19498351688E+03 -0.16342351970E+04  0.16462080317E+04  0.25500000920E-02 0.  1.
</event>
<event>
 5   0  0.1523811E-02  0.7878963E+03  0.7818609E-02  0.9577704E-01
       -1   -1    0    0    0  501  0.00000000000E+00  0.00000000000E+00  0.10444055448E+03  0.10444055460E+03  0.50400001928E-02 0. -1.
        1   -1    0    0  501    0  0.00000000000E+00  0.00000000000E+00 -0.14859664191E+04  0.14859664191E+04  0.50400001928E-02 0.  1.
    10030    2    1    2    0    0  0.00000000000E+00  0.00000000000E+00 -0.13815258646E+04  0.15904069737E+04  0.78789633037E+03 0.  0.
        1    1    3    3  502    0  0.33835443279E+03  0.37258387621E+02 -0.29048294230E+03  0.44749553007E+03  0.50400001928E-02 0. -1.
       -1    1    3    3    0  502 -0.33835443279E+03 -0.37258387621E+02 -0.10910429223E+04  0.11429114436E+04  0.50400001928E-02 0.  1.
</event>
<event>
 5   0  0.2454354E-02  0.7959829E+03  0.7818609E-02  0.9565850E-01
        2   -1    0    0  501    0  0.00000000000E+00  0.00000000000E+00  0.14393894477E+04  0.14393894477E+04  0.25500000920E-02 0. -1.
       -2   -1    0    0    0  501  0.00000000000E+00  0.00000000000E+00 -0.11004470292E+03  0.11004470295E+03  0.25500000920E-02 0.  1.
    10030    2    1    2    0    0  0.00000000000E+00  0.00000000000E+00  0.13293447448E+04  0.15494341507E+04  0.79598287467E+03 0.  0.
        5    1    3    3  502    0 -0.23886582718E+03  0.16570484473E+03  0.11936951729E+04  0.12285948213E+04  0.46999998093E+01 0. -1.
       -5    1    3    3    0  502  0.23886582718E+03 -0.16570484473E+03  0.13564957190E+03  0.32083932944E+03  0.46999998093E+01 0.  1.
</event>
<event>
 5   0  0.1498375E-02  0.8034774E+03  0.7818609E-02  0.9554997E-01
       -1   -1    0    0    0  501  0.00000000000E+00  0.00000000000E+00  0.58813524475E+03  0.58813524477E+03  0.50400001928E-02 0.  1.
        1   -1    0    0  501    0  0.00000000000E+00  0.00000000000E+00 -0.27441646698E+03  0.27441646703E+03  0.50400001928E-02 0. -1.
    10030    2    1    2    0    0  0.00000000000E+00  0.00000000000E+00  0.31371877776E+03  0.86255171180E+03  0.80347743217E+03 0.  0.
        4    1    3    3  502    0  0.28862844685E+03  0.10876199713E+03 -0.11946981622E+03  0.33077213038E+03  0.12699999809E+01 0. -1.
       -4    1    3    3    0  502 -0.28862844685E+03 -0.10876199713E+03  0.43318859399E+03  0.53177958142E+03  0.12699999809E+01 0.  1.
</event>
<event>
 5   0  0.1498375E-02  0.8017436E+03  0.7818609E-02  0.9557497E-01
       -1   -1    0    0    0  501  0.00000000000E+00  0.00000000000E+00  0.20864699068E+03  0.20864699074E+03  0.50400001928E-02 0. -1.
        1   -1    0    0  501    0  0.00000000000E+00  0.00000000000E+00 -0.77019179687E+03  0.77019179689E+03  0.50400001928E-02 0.  1.
    10030    2    1    2    0    0  0.00000000000E+00  0.00000000000E+00 -0.56154480619E+03  0.97883878763E+03  0.80174360166E+03 0.  0.
        4    1    3    3  502    0  0.63984816388E+01  0.35965442233E+03 -0.49678444865E+03  0.61334219273E+03  0.12699999809E+01 0.  1.
       -4    1    3    3    0  502 -0.63984816388E+01 -0.35965442233E+03 -0.64760357546E+02  0.36549659490E+03  0.12699999809E+01 0. -1.
</event>
<event>
 5   0  0.2422031E-02  0.7906702E+03  0.7818609E-02  0.9573621E-01
        2   -1    0    0  501    0  0.00000000000E+00  0.00000000000E+00  0.12073811693E+04  0.12073811693E+04  0.25500000920E-02 0.  1.
       -2   -1    0    0    0  501  0.00000000000E+00  0.00000000000E+00 -0.12944533284E+03  0.12944533287E+03  0.25500000920E-02 0. -1.
    10030    2    1    2    0    0  0.00000000000E+00  0.00000000000E+00  0.10779358365E+04  0.13368265022E+04  0.79067024061E+03 0.  0.
        4    1    3    3  502    0 -0.30186708809E+03  0.18082705438E+03  0.84361329666E+03  0.91406081290E+03  0.12699999809E+01 0.  1.
       -4    1    3    3    0  502  0.30186708809E+03 -0.18082705438E+03  0.23432253979E+03  0.42276568927E+03  0.12699999809E+01 0. -1.
</event>
<event>
 5   0  0.1523811E-02  0.8046624E+03  0.7818609E-02  0.9553293E-01
       -1   -1    0    0    0  501  0.00000000000E+00  0.00000000000E+00  0.49298710637E+03  0.49298710640E+03  0.50400001928E-02 0. -1.
        1   -1    0    0  501    0  0.00000000000E+00  0.00000000000E+00 -0.32834612533E+03  0.32834612536E+03  0.50400001928E-02 0.  1.
    10030    2    1    2    0    0  0.00000000000E+00  0.00000000000E+00  0.16464098104E+03  0.82133323176E+03  0.80466242919E+03 0.  0.
        1    1    3    3  502    0 -0.11735619174E+03 -0.33369805902E+03 -0.11333684927E+03  0.37144597421E+03  0.50400001928E-02 0.  1.
       -1    1    3    3    0  502  0.11735619174E+03  0.33369805902E+03  0.27797783031E+03  0.44988725755E+03  0.50400001928E-02 0. -1.
</event>
<event>
 5   0  0.1523811E-02  0.7802354E+03  0.7818609E-02  0.9589075E-01
       -1   -1    0    0    0  501  0.00000000000E+00  0.00000000000E+00  0.33197266638E+03  0.33197266641E+03  0.50400001928E-02 0. -1.
        1   -1    0    0  501    0  0.00000000000E+00  0.00000000000E+00 -0.45844682845E+03  0.45844682848E+03  0.50400001928E-02 0.  1.
    10030    2    1    2    0    0  0.00000000000E+00  0.00000000000E+00 -0.12647416208E+03  0.79041949490E+03  0.78023539028E+03 0.  0.
        1    1    3    3  502    0 -0.19566888877E+03  0.32053771893E+03 -0.17026201467E+03  0.41233469046E+03  0.50400001928E-02 0.  1.
       -1    1    3    3    0  502  0.19566888877E+03 -0.32053771893E+03  0.43787852588E+02  0.37808480444E+03  0.50400001928E-02 0. -1.
</event>
<event>
 5   0  0.1523811E-02  0.7927798E+03  0.7818609E-02  0.9570527E-01
        1   -1    0    0  501    0  0.00000000000E+00  0.00000000000E+00  0.53295973342E+03  0.53295973345E+03  0.50400001928E-02 0. -1.
       -1   -1    0    0    0  501  0.00000000000E+00  0.00000000000E+00 -0.29481582572E+03  0.29481582576E+03  0.50400001928E-02 0.  1.
    10030    2    1    2    0    0  0.00000000000E+00  0.00000000000E+00  0.23814390770E+03  0.82777555921E+03  0.79277982797E+03 0.  0.
        1    1    3    3  502    0 -0.28322064974E+03 -0.19018694465E+03  0.32982325901E+03  0.47451911718E+03  0.50400001928E-02 0. -1.
       -1    1    3    3    0  502  0.28322064974E+03  0.19018694465E+03 -0.91679351310E+02  0.35325644203E+03  0.50400001928E-02 0.  1.
</event>
<event>
 5   0  0.1509629E-02  0.8302755E+03  0.7818609E-02  0.9517200E-01
       -1   -1    0    0    0  501  0.00000000000E+00  0.00000000000E+00  0.51131158405E+03  0.51131158407E+03  0.50400001928E-02 0.  1.
        1   -1    0    0  501    0  0.00000000000E+00  0.00000000000E+00 -0.33705346604E+03  0.33705346608E+03  0.50400001928E-02 0. -1.
    10030    2    1    2    0    0  0.00000000000E+00  0.00000000000E+00  0.17425811801E+03  0.84836505016E+03  0.83027547635E+03 0.  0.
        5    1    3    3  502    0  0.70972729089E+02 -0.22236807368E+03 -0.26361733979E+03  0.35213758718E+03  0.46999998093E+01 0. -1.
       -5    1    3    3    0  502 -0.70972729089E+02  0.22236807368E+03  0.43787545780E+03  0.49622746297E+03  0.46999998093E+01 0.  1.
</event>
<event>
 5   0  0.1509629E-02  0.8275853E+03  0.7818609E-02  0.9520925E-01
       -1   -1    0    0    0  501  0.00000000000E+00  0.00000000000E+00  0.17272016689E+03  0.17272016697E+03  0.50400001928E-02 0.  1.
        1   -1    0    0  501    0  0.00000000000E+00  0.00000000000E+00 -0.99133959889E+03  0.99133959890E+03  0.50400001928E-02 0. -1.
    10030    2    1    2    0    0  0.00000000000E+00  0.00000000000E+00 -0.81861943200E+03  0.11640597659E+04  0.82758526091E+03 0.  0.
        5    1    3    3  502    0 -0.21239312227E+03 -0.26774259927E+02  0.88733728159E+02  0.23178322609E+03  0.46999998093E+01 0.  1.
       -5    1    3    3    0  502  0.21239312227E+03  0.26774259927E+02 -0.90735316016E+03  0.93227653978E+03  0.46999998093E+01 0. -1.
</event>
<event>
 5   0  0.1471290E-02  0.8038581E+03  0.7818609E-02  0.9554449E-01
       -1   -1    0    0    0  501  0.00000000000E+00  0.00000000000E+00  0.19852901455E+03  0.19852901461E+03  0.50400001928E-02 0.  1.
        1   -1    0    0  501    0  0.00000000000E+00  0.00000000000E+00 -0.81371970133E+03  0.81371970135E+03  0.50400001928E-02 0. -1.
    10030    2    1    2    0    0  0.00000000000E+00  0.00000000000E+00 -0.61519068678E+03  0.10122487160E+04  0.80385812297E+03 0.  0.
        2    1    3    3  502    0  0.33801641967E+00 -0.24992232806E+03 -0.70397676455E+03  0.74702380776E+03  0.25500000920E-02 0. -1.
       -2    1    3    3    0  502 -0.33801641967E+00  0.24992232806E+03  0.88786077768E+02  0.26522490820E+03  0.25500000920E-02 0.  1.
</event>
<event>
 5   0  0.1471290E-02  0.8047894E+03  0.7818609E-02  0.9553110E-01
        1   -1    0    0  501    0  0.00000000000E+00  0.00000000000E+00  0.40039264404E+03  0.40039264407E+03  0.50400001928E-02 0. -1.
       -1   -1    0    0    0  501  0.00000000000E+00  0.00000000000E+00 -0.40440677497E+03  0.40440677500E+03  0.50400001928E-02 0.  1.
    10030    2    1    2    0    0  0.00000000000E+00  0.00000000000E+00 -0.40141309291E+01  0.80479941908E+03  0.80478940829E+03 0.  0.
        2    1    3    3  502    0  0.10752616833E+03  0.48451996085E+02 -0.38673516086E+03  0.40431863357E+03  0.25500000920E-02 0.  1.
       -2    1    3    3    0  502 -0.10752616833E+03 -0.48451996085E+02  0.38272102993E+03  0.40048078551E+03  0.25500000920E-02 0. -1.
</event>
<event>
 5   0  0.1471290E-02  0.7930973E+03  0.7818609E-02  0.9570063E-01
        1   -1    0    0  501    0  0.00000000000E+00  0.00000000000E+00  0.12612257328E+04  0.12612257328E+04  0.50400001928E-02 0.  1.
       -1   -1    0    0    0  501  0.00000000000E+00  0.00000000000E+00 -0.12468096693E+03  0.12468096703E+03  0.50400001928E-02 0. -1.
    10030    2    1    2    0    0  0.00000000000E+00  0.00000000000E+00  0.11365447659E+04  0.13859066998E+04  0.79309733062E+03 0.  0.
        2    1    3    3  502    0 -0.27008041155E+03  0.17606071431E+02  0.61817765409E+02  0.27762355552E+03  0.25500000920E-02 0. -1.
       -2    1    3    3    0  502  0.27008041155E+03 -0.17606071431E+02  0.10747270005E+04  0.11082831443E+04  0.25500000920E-02 0.  1.
</event>
<event>
 5   0  0.2454354E-02  0.6792373E+03  0.7818609E-02  0.9753413E-01
       -2   -1    0    0    0  501  0.00000000000E+00  0.00000000000E+00  0.73154636999E+02  0.73154637044E+02  0.25500000920E-02 0.  1.
        2   -1    0    0  501    0  0.00000000000E+00  0.00000000000E+00 -0.15766715399E+04  0.15766715399E+04  0.25500000920E-02 0. -1.
    10030    2    1    2    0    0  0.00000000000E+00  0.00000000000E+00 -0.15035169029E+04  0.16498261769E+04  0.67923731995E+03 0.  0.
        5    1    3    3  502    0  0.27991703514E+03  0.10760952734E+03 -0.11387562967E+04  0.11775913341E+04  0.46999998093E+01 0. -1.
       -5    1    3    3    0  502 -0.27991703514E+03 -0.10760952734E+03 -0.36476060618E+03  0.47223484280E+03  0.46999998093E+01 0.  1.
</event>
<event>
 5   0  0.1523811E-02  0.7882704E+03  0.7818609E-02  0.9577152E-01
        1   -1    0    0  501    0  0.00000000000E+00  0.00000000000E+00  0.81023327442E+03  0.81023327443E+03  0.50400001928E-02 0. -1.
       -1   -1    0    0    0  501  0.00000000000E+00  0.00000000000E+00 -0.19172570605E+03  0.19172570612E+03  0.50400001928E-02 0.  1.
    10030    2    1    2    0    0  0.00000000000E+00  0.00000000000E+00  0.61850756837E+03  0.10019589805E+04  0.78827037657E+03 0.  0.
        1    1    3    3  502    0  0.24994488124E+03 -0.35785568243E+02 -0.75424412079E+02  0.26351829636E+03  0.50400001928E-02 0.  1.
       -1    1    3    3    0  502 -0.24994488124E+03  0.35785568243E+02  0.69393198045E+03  0.73844068419E+03  0.50400001928E-02 0. -1.
</event>
<event>
 5   0  0.1509629E-02  0.7994815E+03  0.7818609E-02  0.9560768E-01
        1   -1    0    0  501    0  0.00000000000E+00  0.00000000000E+00  0.90424058298E+03  0.90424058300E+03  0.50400001928E-02 0. -1.
       -1   -1    0    0    0  501  0.00000000000E+00  0.00000000000E+00 -0.17671478710E+03  0.17671478717E+03  0.50400001928E-02 0.  1.
    10030    2    1    2    0    0  0.00000000000E+00  0.00000000000E+00  0.72752579589E+03  0.10809553702E+04  0.79948153737E+03 0.  0.
        5    1    3    3  502    0  0.30653782848E+03 -0.20771204928E+03  0.16022865584E+03  0.40349107531E+03  0.46999998093E+01 0.  1.
       -5    1    3    3    0  502 -0.30653782848E+03  0.20771204928E+03  0.56729714004E+03  0.67746429485E+03  0.46999998093E+01 0. -1.
</event>
<event>
 5   0  0.2464780E-02  0.7931750E+03  0.7818609E-02  0.9569949E-01
       -2   -1    0    0    0  501  0.00000000000E+00  0.00000000000E+00  0.21469807692E+03  0.21469807693E+03  0.25500000920E-02 0.  1.
        2   -1    0    0  501    0  0.00000000000E+00  0.00000000000E+00 -0.73257136822E+03  0.73257136823E+03  0.25500000920E-02 0. -1.
    10030    2    1    2    0    0  0.00000000000E+00  0.00000000000E+00 -0.51787329131E+03  0.94726944516E+03  0.79317504744E+03 0.  0.
        3    1    3    3  502    0 -0.87775440623E+02  0.52383732551E+02 -0.71656868881E+03  0.72382268505E+03  0.10100000352E+00 0. -1.
       -3    1    3    3    0  502  0.87775440623E+02 -0.52383732551E+02  0.19869539750E+03  0.22344676011E+03  0.10100000352E+00 0.  1.
</event>
<event>
 5   0  0.1498375E-02  0.7757628E+03  0.7818609E-02  0.9595778E-01
       -1   -1    0    0    0  501  0.00000000000E+00  0.00000000000E+00  0.35212509210E+03  0.35212509213E+03  0.50400001928E-02 0. -1.
        1   -1    0    0  501    0  0.00000000000E+00  0.00000000000E+00 -0.42726855583E+03  0.42726855586E+03  0.50400001928E-02 0.  1.
    10030    2    1    2    0    0  0.00000000000E+00  0.00000000000E+00 -0.75143463734E+02  0.77939364800E+03  0.77576279776E+03 0.  0.
        4    1    3    3  502    0  0.32410016734E+03 -0.20936310064E+03 -0.77463239851E+02  0.39354287290E+03  0.12699999809E+01 0. -1.
       -4    1    3    3    0  502 -0.32410016734E+03  0.20936310064E+03  0.23197761175E+01  0.38585077510E+03  0.12699999809E+01 0.  1.
</event>
<event>
 5   0  0.2422031E-02  0.7949064E+03  0.7818609E-02  0.9567419E-01
        2   -1    0    0  501    0  0.00000000000E+00  0.00000000000E+00  0.56918088190E+03  0.56918088190E+03  0.25500000920E-02 0.  1.
       -2   -1    0    0    0  501  0.00000000000E+00  0.00000000000E+00 -0.27753754201E+03  0.27753754203E+03  0.25500000920E-02 0. -1.
    10030    2    1    2    0    0  0.00000000000E+00  0.00000000000E+00  0.29164333988E+03  0.84671842393E+03  0.79490644212E+03 0.  0.
        4    1    3    3  502    0 -0.34708979193E+02 -0.38221239200E+03  0.35760049282E+02  0.38544963337E+03  0.12699999809E+01 0. -1.
       -4    1    3    3    0  502  0.34708979193E+02  0.38221239200E+03  0.25588329060E+03  0.46126879056E+03  0.12699999809E+01 0.  1.
</event>
<event>
 5   0  0.2571778E-02  0.8673355E+03  0.7818609E-02  0.9467361E-01
        2   -1    0    0  501    0  0.00000000000E+00  0.00000000000E+00  0.10104300067E+04  0.10104300067E+04  0.25500000920E-02 0. -1.
       -2   -1    0    0    0  501  0.00000000000E+00  0.00000000000E+00 -0.18612643224E+03  0.18612643226E+03  0.25500000920E-02 0.  1.
    10030    2    1    2    0    0  0.00000000000E+00  0.00000000000E+00  0.82430357450E+03  0.11965564390E+04  0.86733553413E+03 0.  0.
        1    1    3    3  502    0  0.60400711232E+02  0.38389023031E+02 -0.17792323829E+03  0.19177758408E+03  0.50400001928E-02 0.  1.
       -1    1    3    3    0  502 -0.60400711232E+02 -0.38389023031E+02  0.10022268128E+04  0.10047788549E+04  0.50400001928E-02 0. -1.
</event>
<event>
 5   0  0.1624094E-02  0.8175668E+03  0.7818609E-02  0.9534932E-01
        1   -1    0    0  501    0  0.00000000000E+00  0.00000000000E+00  0.73529957160E+03  0.73529957162E+03  0.50400001928E-02 0. -1.
       -1   -1    0    0    0  501  0.00000000000E+00  0.00000000000E+00 -0.22725958953E+03  0.22725958958E+03  0.50400001928E-02 0.  1.
    10030    2    1    2    0    0  0.00000000000E+00  0.00000000000E+00  0.50803998207E+03  0.96255916120E+03  0.81756682627E+03 0.  0.
        3    1    3    3  502    0  0.61643541070E+02  0.30602678087E+03  0.56474024935E+03  0.64527813864E+03  0.10100000352E+00 0. -1.
       -3    1    3    3    0  502 -0.61643541070E+02 -0.30602678087E+03 -0.56700267281E+02  0.31728102256E+03  0.10100000352E+00 0.  1.
</event>
<event>
 5   0  0.2464780E-02  0.8160311E+03  0.7818609E-02  0.9537098E-01
        2   -1    0    0  501    0  0.00000000000E+00  0.00000000000E+00  0.63167265938E+03  0.63167265939E+03  0.25500000920E-02 0.  1.
       -2   -1    0    0    0  501  0.00000000000E+00  0.00000000000E+00 -0.26354895684E+03  0.26354895685E+03  0.25500000920E-02 0. -1.
    10030    2    1    2    0    0  0.00000000000E+00  0.00000000000E+00  0.36812370254E+03  0.89522161624E+03  0.81603105444E+03 0.  0.
        3    1    3    3  502    0  0.13379484146E+03  0.30801875313E+03  0.43828272812E+03  0.55214886747E+03  0.10100000352E+00 0.  1.
       -3    1    3    3    0  502 -0.13379484146E+03 -0.30801875313E+03 -0.70159025578E+02  0.34307274877E+03  0.10100000352E+00 0. -1.
</event>
<event>
 5   0  0.1498375E-02  0.7644688E+03  0.7818609E-02  0.9612921E-01
       -1   -1    0    0    0  501  0.00000000000E+00  0.00000000000E+00  0.13447347251E+03  0.13447347261E+03  0.50400001928E-02 0. -1.
        1   -1    0    0  501    0  0.00000000000E+00  0.00000000000E+00 -0.10864829705E+04  0.10864829705E+04  0.50400001928E-02 0.  1.
    10030    2    1    2    0    0  0.00000000000E+00  0.00000000000E+00 -0.95200949798E+03  0.12209564431E+04  0.76446880363E+03 0.  0.
        4    1    3    3  502    0 -0.22655862213E+02 -0.85698868525E+02 -0.10698365569E+04  0.10735033561E+04  0.12699999809E+01 0.  1.
       -4    1    3    3    0  502  0.22655862213E+02  0.85698868525E+02  0.11782705892E+03  0.14745308702E+03  0.12699999809E+01 0. -1.
</event>
<event>
 5   0  0.2460312E-02  0.7922424E+03  0.7818609E-02  0.9571314E-01
       -2   -1    0    0    0  501  0.00000000000E+00  0.00000000000E+00  0.12713981286E+03  0.12713981288E+03  0.25500000920E-02 0. -1.
        2   -1    0    0  501    0  0.00000000000E+00  0.00000000000E+00 -0.12341689673E+04  0.12341689673E+04  0.25500000920E-02 0.  1.
    10030    2    1    2    0    0  0.00000000000E+00  0.00000000000E+00 -0.11070291545E+04  0.13613087802E+04  0.79224241634E+03 0.  0.
        2    1    3    3  502    0  0.27706380874E+03 -0.39201344283E+02 -0.71744333528E+02  0.28887427873E+03  0.25500000920E-02 0. -1.
       -2    1    3    3    0  502 -0.27706380874E+03  0.39201344283E+02 -0.10352848209E+04  0.10724345015E+04  0.25500000920E-02 0.  1.
</event>
<event>
 5   0  0.1498375E-02  0.8885673E+03  0.7818609E-02  0.9439987E-01
       -1   -1    0    0    0  501  0.00000000000E+00  0.00000000000E+00  0.31441479595E+03  0.31441479599E+03  0.50400001928E-02 0. -1.
        1   -1    0    0  501    0  0.00000000000E+00  0.00000000000E+00 -0.62779481186E+03  0.62779481188E+03  0.50400001928E-02 0.  1.
    10030    2    1    2    0    0  0.00000000000E+00  0.00000000000E+00 -0.31338001591E+03  0.94220960787E+03  0.88856733610E+03 0.  0.
        4    1    3    3  502    0 -0.25877851693E+03  0.40959743156E+02  0.22377777619E+03  0.34456077461E+03  0.12699999809E+01 0. -1.
       -4    1    3    3    0  502  0.25877851693E+03 -0.40959743156E+02 -0.53715779209E+03  0.59764883325E+03  0.12699999809E+01 0.  1.
</event>
<event>
 5   0  0.1498375E-02  0.7963675E+03  0.7818609E-02  0.9565290E-01
        1   -1    0    0  501    0  0.00000000000E+00  0.00000000000E+00  0.22561393985E+04  0.22561393985E+04  0.50400001928E-02 0.  1.
       -1   -1    0    0    0  501  0.00000000000E+00  0.00000000000E+00 -0.70275037077E+02  0.70275037257E+02  0.50400001928E-02 0. -1.
    10030    2    1    2    0    0  0.00000000000E+00  0.00000000000E+00  0.21858643614E+04  0.23264144357E+04  0.79636745311E+03 0.  0.
        4    1    3    3  502    0 -0.20768924969E+03 -0.25664391897E+03  0.44267446561E+03  0.55223475170E+03  0.12699999809E+01 0. -1.
       -4    1    3    3    0  502  0.20768924969E+03  0.25664391897E+03  0.17431898958E+04  0.17741796840E+04  0.12699999809E+01 0.  1.
</event>
<event>
 5   0  0.1471290E-02  0.7949103E+03  0.7818609E-02  0.9567414E-01
        1   -1    0    0  501    0  0.00000000000E+00  0.00000000000E+00  0.40029814231E+03  0.40029814235E+03  0.50400001928E-02 0.  1.
       -1   -1    0    0    0  501  0.00000000000E+00  0.00000000000E+00 -0.39463231927E+03  0.39463231931E+03  0.50400001928E-02 0. -1.
    10030    2    1    2    0    0  0.00000000000E+00  0.00000000000E+00  0.56658230409E+01  0.79493046165E+03  0.79491026997E+03 0.  0.
        2    1    3    3  502    0  0.20966564617E+02  0.50475448015E+02  0.39652198967E+03  0.40027122803E+03  0.25500000920E-02 0.  1.
       -2    1    3    3    0  502 -0.20966564617E+02 -0.50475448015E+02 -0.39085616663E+03  0.39465923363E+03  0.25500000920E-02 0. -1.
</event>
<event>
 5   0  0.2460312E-02  0.7964952E+03  0.7818609E-02  0.9565104E-01
       -2   -1    0    0    0  501  0.00000000000E+00  0.00000000000E+00  0.31085213671E+03  0.31085213672E+03  0.25500000920E-02 0.  1.
        2   -1    0    0  501    0  0.00000000000E+00  0.00000000000E+00 -0.51021418849E+03  0.51021418850E+03  0.25500000920E-02 0. -1.
    10030    2    1    2    0    0  0.00000000000E+00  0.00000000000E+00 -0.19936205178E+03  0.82106632522E+03  0.79649524965E+03 0.  0.
        2    1    3    3  502    0  0.20809508920E+03  0.28797204217E+03  0.85785030602E+02  0.36550038947E+03  0.25500000920E-02 0. -1.
       -2    1    3    3    0  502 -0.20809508920E+03 -0.28797204217E+03 -0.28514708238E+03  0.45556593575E+03  0.25500000920E-02 0.  1.
</event>
<event>
 5   0  0.2571778E-02  0.8082593E+03  0.7818609E-02  0.9548138E-01
       -2   -1    0    0    0  501  0.00000000000E+00  0.00000000000E+00  0.89477780745E+02  0.89477780781E+02  0.25500000920E-02 0. -1.
        2   -1    0    0  501    0  0.00000000000E+00  0.00000000000E+00 -0.18252663654E+04  0.18252663654E+04  0.25500000920E-02 0.  1.
    10030    2    1    2    0    0  0.00000000000E+00  0.00000000000E+00 -0.17357885846E+04  0.19147441462E+04  0.80825932393E+03 0.  0.
        1    1    3    3  502    0 -0.29615344361E+03  0.19657532091E+03 -0.41238537921E+03  0.54443587314E+03  0.50400001928E-02 0. -1.
       -1    1    3    3    0  502  0.29615344361E+03 -0.19657532091E+03 -0.13234032054E+04  0.13703082730E+04  0.50400001928E-02 0.  1.
</event>
<event>
 5   0  0.2454354E-02  0.8022889E+03  0.7818609E-02  0.9556710E-01
       -2   -1    0    0    0  501  0.00000000000E+00  0.00000000000E+00  0.95046555374E+03  0.95046555374E+03  0.25500000920E-02 0. -1.
        2   -1    0    0  501    0  0.00000000000E+00  0.00000000000E+00 -0.16930320162E+03  0.16930320164E+03  0.25500000920E-02 0.  1.
    10030    2    1    2    0    0  0.00000000000E+00  0.00000000000E+00  0.78116235211E+03  0.11197687554E+04  0.80228887888E+03 0.  0.
        5    1    3    3  502    0 -0.25212029658E+03  0.20191245816E+03  0.72251994639E+03  0.79144832279E+03  0.46999998093E+01 0. -1.
       -5    1    3    3    0  502  0.25212029658E+03 -0.20191245816E+03  0.58642405721E+02  0.32832043259E+03  0.46999998093E+01 0.  1.
</event>
<event>
 5   0  0.2571778E-02  0.7928751E+03  0.7818609E-02  0.9570388E-01
        2   -1    0    0  501    0  0.00000000000E+00  0.00000000000E+00  0.48527483444E+03  0.48527483445E+03  0.25500000920E-02 0. -1.
       -2   -1    0    0    0  501  0.00000000000E+00  0.00000000000E+00 -0.32386337365E+03  0.32386337366E+03  0.25500000920E-02 0.  1.
    10030    2    1    2    0    0  0.00000000000E+00  0.00000000000E+00  0.16141146080E+03  0.80913820811E+03  0.79287513528E+03 0.  0.
        1    1    3    3  502    0 -0.27793479939E+03  0.25600062952E+03  0.20307638095E+03  0.42898029273E+03  0.50400001928E-02 0.  1.
       -1    1    3    3    0  502  0.27793479939E+03 -0.25600062952E+03 -0.41664920151E+02  0.38015791538E+03  0.50400001928E-02 0. -1.
</event>
<event>
 5   0  0.1523811E-02  0.7992162E+03  0.7818609E-02  0.9561152E-01
       -1   -1    0    0    0  501  0.00000000000E+00  0.00000000000E+00  0.16451358732E+03  0.16451358740E+03  0.50400001928E-02 0. -1.
        1   -1    0    0  501    0  0.00000000000E+00  0.00000000000E+00 -0.97065914816E+03  0.97065914817E+03  0.50400001928E-02 0.  1.
    10030    2    1    2    0    0  0.00000000000E+00  0.00000000000E+00 -0.80614556084E+03  0.11351727356E+04  0.79921616244E+03 0.  0.
        1    1    3    3  502    0  0.15716415451E+03 -0.27869179783E+03 -0.74311993880E+03  0.80907164894E+03  0.50400001928E-02 0.  1.
       -1    1    3    3    0  502 -0.15716415451E+03  0.27869179783E+03 -0.63025622037E+02  0.32610108663E+03  0.50400001928E-02 0. -1.
</event>
<event>
 5   0  0.2454354E-02  0.8024135E+03  0.7818609E-02  0.9556530E-01
        2   -1    0    0  501    0  0.00000000000E+00  0.00000000000E+00  0.19273581294E+04  0.19273581294E+04  0.25500000920E-02 0.  1.
       -2   -1    0    0    0  501  0.00000000000E+00  0.00000000000E+00 -0.83516847749E+02  0.83516847788E+02  0.25500000920E-02 0. -1.
    10030    2    1    2    0    0  0.00000000000E+00  0.00000000000E+00  0.18438412816E+04  0.20108749771E+04  0.80241354796E+03 0.  0.
        5    1    3    3  502    0  0.23973184865E+02 -0.77842079843E+01  0.19253028981E+04  0.19254736162E+04  0.46999998093E+01 0.  1.
       -5    1    3    3    0  502 -0.23973184865E+02  0.77842079843E+01 -0.81461616476E+02  0.85401360901E+02  0.46999998093E+01 0. -1.
</event>
<event>
 5   0  0.9919125E-03  0.8002789E+03  0.7818609E-02  0.9559614E-01
        3   -1    0    0  501    0  0.00000000000E+00  0.00000000000E+00  0.44698807987E+03  0.44698809128E+03  0.10100000352E+00 0.  1.
       -3   -1    0    0    0  501  0.00000000000E+00  0.00000000000E+00 -0.35820096685E+03  0.35820098109E+03  0.10100000352E+00 0. -1.
    10030    2    1    2    0    0  0.00000000000E+00  0.00000000000E+00  0.88787113022E+02  0.80518907237E+03  0.80027888316E+03 0.  0.
        2    1    3    3  502    0 -0.28154186185E+03  0.15846728359E+03  0.28192227504E+03  0.42878650762E+03  0.25500000920E-02 0.  1.
       -2    1    3    3    0  502  0.28154186185E+03 -0.15846728359E+03 -0.19313516202E+03  0.37640256476E+03  0.25500000920E-02 0. -1.
</event>
<event>
 5   0  0.2422031E-02  0.8116832E+03  0.7818609E-02  0.9543258E-01
       -2   -1    0    0    0  501  0.00000000000E+00  0.00000000000E+00  0.14205541394E+03  0.14205541397E+03  0.25500000920E-02 0.  1.
        2   -1    0    0  501    0  0.00000000000E+00  0.00000000000E+00 -0.11594587731E+04  0.11594587732E+04  0.25500000920E-02 0. -1.
    10030    2    1    2    0    0  0.00000000000E+00  0.00000000000E+00 -0.10174033592E+04  0.13015141871E+04  0.81168317954E+03 0.  0.
        4    1    3    3  502    0 -0.32237783079E+03  0.19566576999E+02 -0.90276365481E+03  0.95879828226E+03  0.12699999809E+01 0. -1.
       -4    1    3    3    0  502  0.32237783079E+03 -0.19566576999E+02 -0.11463970440E+03  0.34271590486E+03  0.12699999809E+01 0.  1.
</event>
<event>
 5   0  0.2422031E-02  0.7965146E+03  0.7818609E-02  0.9565076E-01
        2   -1    0    0  501    0  0.00000000000E+00  0.00000000000E+00  0.93311138998E+03  0.93311138998E+03  0.25500000920E-02 0. -1.
       -2   -1    0    0    0  501  0.00000000000E+00  0.00000000000E+00 -0.16997851886E+03  0.16997851888E+03  0.25500000920E-02 0.  1.
    10030    2    1    2    0    0  0.00000000000E+00  0.00000000000E+00  0.76313287112E+03  0.11030899089E+04  0.79651463769E+03 0.  0.
        4    1    3    3  502    0 -0.12615187565E+03 -0.28158668960E+03  0.73027960883E+03  0.79278955560E+03  0.12699999809E+01 0. -1.
       -4    1    3    3    0  502  0.12615187565E+03  0.28158668960E+03  0.32853262289E+02  0.31030035326E+03  0.12699999809E+01 0.  1.
</event>
<event>
 5   0  0.9919125E-03  0.8419069E+03  0.7818609E-02  0.9501264E-01
        4   -1    0    0  501    0  0.00000000000E+00  0.00000000000E+00  0.13399062710E+04  0.13399068729E+04  0.12699999809E+01 0.  1.
       -4   -1    0    0    0  501  0.00000000000E+00  0.00000000000E+00 -0.13224571796E+03  0.13225181593E+03  0.12699999809E+01 0. -1.
    10030    2    1    2    0    0  0.00000000000E+00  0.00000000000E+00  0.12076605530E+04  0.14721586888E+04  0.84190687943E+03 0.  0.
        3    1    3    3  502    0 -0.15127349315E+03 -0.13431022144E+03 -0.41682512098E+02  0.20654381455E+03  0.10100000352E+00 0. -1.
       -3    1    3    3    0  502  0.15127349315E+03  0.13431022144E+03  0.12493430651E+04  0.12656148742E+04  0.10100000352E+00 0.  1.
</event>
<event>
 5   0  0.1523811E-02  0.8009920E+03  0.7818609E-02  0.9558582E-01
       -1   -1    0    0    0  501  0.00000000000E+00  0.00000000000E+00  0.39655211989E+03  0.39655211992E+03  0.50400001928E-02 0.  1.
        1   -1    0    0  501    0  0.00000000000E+00  0.00000000000E+00 -0.40447908690E+03  0.40447908693E+03  0.50400001928E-02 0. -1.
    10030    2    1    2    0    0  0.00000000000E+00  0.00000000000E+00 -0.79269670146E+01  0.80103120685E+03  0.80099198345E+03 0.  0.
        1    1    3    3  502    0  0.20929389884E+03 -0.22722496723E+03  0.25092527629E+03  0.39799323629E+03  0.50400001928E-02 0.  1.
       -1    1    3    3    0  502 -0.20929389884E+03  0.22722496723E+03 -0.25885224331E+03  0.40303797056E+03  0.50400001928E-02 0. -1.
</event>
<event>
 5   0  0.1509629E-02  0.6685115E+03  0.7818609E-02  0.9772651E-01
        1   -1    0    0  501    0  0.00000000000E+00  0.00000000000E+00  0.12089979632E+04  0.12089979633E+04  0.50400001928E-02 0. -1.
       -1   -1    0    0    0  501  0.00000000000E+00  0.00000000000E+00 -0.92412802695E+02  0.92412802832E+02  0.50400001928E-02 0.  1.
    10030    2    1    2    0    0  0.00000000000E+00  0.00000000000E+00  0.11165851605E+04  0.13014107661E+04  0.66851145190E+03 0.  0.
        5    1    3    3  502    0 -0.23132836176E+03 -0.22790971257E+03  0.40440056101E+03  0.51866901950E+03  0.46999998093E+01 0. -1.
       -5    1    3    3    0  502  0.23132836176E+03  0.22790971257E+03  0.71218459953E+03  0.78274174659E+03  0.46999998093E+01 0.  1.
</event>
<event>
 5   0  0.2422031E-02  0.7409787E+03  0.7818609E-02  0.9649611E-01
        2   -1    0    0  501    0  0.00000000000E+00  0.00000000000E+00  0.68756938157E+03  0.68756938157E+03  0.25500000920E-02 0.  1.
       -2   -1    0    0    0  501  0.00000000000E+00  0.00000000000E+00 -0.19963419597E+03  0.19963419598E+03  0.25500000920E-02 0. -1.
    10030    2    1    2    0    0  0.00000000000E+00  0.00000000000E+00  0.48793518560E+03  0.88720357756E+03  0.74097870596E+03 0.  0.
        4    1    3    3  502    0 -0.36405658310E+03  0.48930841953E+02  0.18618026932E+03  0.41182050529E+03  0.12699999809E+01 0. -1.
       -4    1    3    3    0  502  0.36405658310E+03 -0.48930841953E+02  0.30175491628E+03  0.47538307226E+03  0.12699999809E+01 0.  1.
</event>
<event>
 5   0  0.2454354E-02  0.7887896E+03  0.7818609E-02  0.9576387E-01
       -2   -1    0    0    0  501  0.00000000000E+00  0.00000000000E+00  0.19250344516E+03  0.19250344518E+03  0.25500000920E-02 0. -1.
        2   -1    0    0  501    0  0.00000000000E+00  0.00000000000E+00 -0.80802317604E+03  0.80802317604E+03  0.25500000920E-02 0.  1.
    10030    2    1    2    0    0  0.00000000000E+00  0.00000000000E+00 -0.61551973088E+03  0.10005266212E+04  0.78878956678E+03 0.  0.
        5    1    3    3  502    0  0.21391328454E+03  0.25798817572E+03 -0.44095524736E+02  0.33805812727E+03  0.46999998093E+01 0. -1.
       -5    1    3    3    0  502 -0.21391328454E+03 -0.25798817572E+03 -0.57142420615E+03  0.66246849395E+03  0.46999998093E+01 0.  1.
</event>
<event>
 5   0  0.2571778E-02  0.7871773E+03  0.7818609E-02  0.9578765E-01
        2   -1    0    0  501    0  0.00000000000E+00  0.00000000000E+00  0.55734555171E+03  0.55734555172E+03  0.25500000920E-02 0. -1.
       -2   -1    0    0    0  501  0.00000000000E+00  0.00000000000E+00 -0.27794613269E+03  0.27794613270E+03  0.25500000920E-02 0.  1.
    10030    2    1    2    0    0  0.00000000000E+00  0.00000000000E+00  0.27939941902E+03  0.83529168442E+03  0.78717733880E+03 0.  0.
        1    1    3    3  502    0 -0.10454074397E+03 -0.23176850097E+02 -0.26219284278E+03  0.28321550163E+03  0.50400001928E-02 0.  1.
       -1    1    3    3    0  502  0.10454074397E+03  0.23176850097E+02  0.54159226181E+03  0.55207618279E+03  0.50400001928E-02 0. -1.
</event>
<event>
 5   0  0.2571778E-02  0.7982327E+03  0.7818609E-02  0.9562579E-01
        2   -1    0    0  501    0  0.00000000000E+00  0.00000000000E+00  0.28848264815E+03  0.28848264816E+03  0.25500000920E-02 0.  1.
       -2   -1    0    0    0  501  0.00000000000E+00  0.00000000000E+00 -0.55217827881E+03  0.55217827882E+03  0.25500000920E-02 0. -1.
    10030    2    1    2    0    0  0.00000000000E+00  0.00000000000E+00 -0.26369563066E+03  0.84066092698E+03  0.79823267819E+03 0.  0.
        1    1    3    3  502    0 -0.36211882922E+03  0.50951317176E+02 -0.30024614345E+03  0.47315307236E+03  0.50400001928E-02 0. -1.
       -1    1    3    3    0  502  0.36211882922E+03 -0.50951317176E+02  0.36550512790E+02  0.36750785462E+03  0.50400001928E-02 0.  1.
</event>
<event>
 5   0  0.1509629E-02  0.8359356E+03  0.7818609E-02  0.9509411E-01
       -1   -1    0    0    0  501  0.00000000000E+00  0.00000000000E+00  0.29865933870E+03  0.29865933874E+03  0.50400001928E-02 0. -1.
        1   -1    0    0  501    0  0.00000000000E+00  0.00000000000E+00 -0.58493758603E+03  0.58493758605E+03  0.50400001928E-02 0.  1.
    10030    2    1    2    0    0  0.00000000000E+00  0.00000000000E+00 -0.28627824733E+03  0.88359692479E+03  0.83593557802E+03 0.  0.
        5    1    3    3  502    0  0.96441403066E+02  0.13955110979E+03 -0.54688521128E+03  0.57260892482E+03  0.46999998093E+01 0.  1.
       -5    1    3    3    0  502 -0.96441403066E+02 -0.13955110979E+03  0.26060696395E+03  0.31098799997E+03  0.46999998093E+01 0. -1.
</event>
<event>
 5   0  0.1509629E-02  0.8104228E+03  0.7818609E-02  0.9545052E-01
       -1   -1    0    0    0  501  0.00000000000E+00  0.00000000000E+00  0.34049260521E+03  0.34049260525E+03  0.50400001928E-02 0. -1.
        1   -1    0    0  501    0  0.00000000000E+00  0.00000000000E+00 -0.48223155689E+03  0.48223155692E+03  0.50400001928E-02 0.  1.
    10030    2    1    2    0    0  0.00000000000E+00  0.00000000000E+00 -0.14173895168E+03  0.82272416217E+03  0.81042280113E+03 0.  0.
        5    1    3    3  502    0  0.37130130612E+03  0.16161937100E+03 -0.84815098749E+02  0.41376463356E+03  0.46999998093E+01 0.  1.
       -5    1    3    3    0  502 -0.37130130612E+03 -0.16161937100E+03 -0.56923852932E+02  0.40895952861E+03  0.46999998093E+01 0. -1.
</event>
<event>
 5   0  0.2422031E-02  0.8207744E+03  0.7818609E-02  0.9530424E-01
        2   -1    0    0  501    0  0.00000000000E+00  0.00000000000E+00  0.80917633821E+03  0.80917633821E+03  0.25500000920E-02 0. -1.
       -2   -1    0    0    0  501  0.00000000000E+00  0.00000000000E+00 -0.20813469405E+03  0.20813469407E+03  0.25500000920E-02 0.  1.
    10030    2    1    2    0    0  0.00000000000E+00  0.00000000000E+00  0.60104164415E+03  0.10173110323E+04  0.82077443819E+03 0.  0.
        4    1    3    3  502    0  0.37398957966E+01 -0.30700105312E+03  0.63803545453E+03  0.70806390077E+03  0.12699999809E+01 0.  1.
       -4    1    3    3    0  502 -0.37398957966E+01  0.30700105312E+03 -0.36993810376E+02  0.30924713151E+03  0.12699999809E+01 0. -1.
</event>
<event>
 5   0  0.1498375E-02  0.7979318E+03  0.7818609E-02  0.9563016E-01
        1   -1    0    0  501    0  0.00000000000E+00  0.00000000000E+00  0.34131595719E+03  0.34131595723E+03  0.50400001928E-02 0. -1.
       -1   -1    0    0    0  501  0.00000000000E+00  0.00000000000E+00 -0.46635314797E+03  0.46635314800E+03  0.50400001928E-02 0.  1.
    10030    2    1    2    0    0  0.00000000000E+00  0.00000000000E+00 -0.12503719078E+03  0.80766910523E+03  0.79793175427E+03 0.  0.
        4    1    3    3  502    0  0.24098670870E+03  0.30677664370E+03  0.22081586932E+02  0.39073739554E+03  0.12699999809E+01 0. -1.
       -4    1    3    3    0  502 -0.24098670870E+03 -0.30677664370E+03 -0.14711877771E+03  0.41693170969E+03  0.12699999809E+01 0.  1.
</event>
<event>
 5   0  0.2422031E-02  0.7916936E+03  0.7818609E-02  0.9572119E-01
        2   -1    0    0  501    0  0.00000000000E+00  0.00000000000E+00  0.77620334172E+03  0.77620334172E+03  0.25500000920E-02 0. -1.
       -2   -1    0    0    0  501  0.00000000000E+00  0.00000000000E+00 -0.20187326906E+03  0.20187326908E+03  0.25500000920E-02 0.  1.
    10030    2    1    2    0    0  0.00000000000E+00  0.00000000000E+00  0.57433007266E+03  0.97807661080E+03  0.79169364292E+03 0.  0.
        4    1    3    3  502    0  0.17915821637E+02 -0.23582525847E+03 -0.10498900994E+03  0.25876405142E+03  0.12699999809E+01 0.  1.
       -4    1    3    3    0  502 -0.17915821637E+02  0.23582525847E+03  0.67931908260E+03  0.71931255938E+03  0.12699999809E+01 0. -1.
</event>
<event>
 5   0  0.1624094E-02  0.7753418E+03  0.7818609E-02  0.9596411E-01
       -1   -1    0    0    0  501  0.00000000000E+00  0.00000000000E+00  0.33736583691E+03  0.33736583694E+03  0.50400001928E-02 0. -1.
        1   -1    0    0  501    0  0.00000000000E+00  0.00000000000E+00 -0.44547704853E+03  0.44547704856E+03  0.50400001928E-02 0.  1.
    10030    2    1    2    0    0  0.00000000000E+00  0.00000000000E+00 -0.10811121162E+03  0.78284288551E+03  0.77534182739E+03 0.  0.
        3    1    3    3  502    0 -0.30476721863E+03  0.20438449997E+02 -0.29508658895E+03  0.42470800907E+03  0.10100000352E+00 0.  1.
       -3    1    3    3    0  502  0.30476721863E+03 -0.20438449997E+02  0.18697537733E+03  0.35813487643E+03  0.10100000352E+00 0. -1.
</event>
<event>
 5   0  0.1498375E-02  0.7985994E+03  0.7818609E-02  0.9562047E-01
       -1   -1    0    0    0  501  0.00000000000E+00  0.00000000000E+00  0.14992524262E+03  0.14992524270E+03  0.50400001928E-02 0. -1.
        1   -1    0    0  501    0  0.00000000000E+00  0.00000000000E+00 -0.10634650337E+04  0.10634650337E+04  0.50400001928E-02 0.  1.
    10030    2    1    2    0    0  0.00000000000E+00  0.00000000000E+00 -0.91353979108E+03  0.12133902764E+04  0.79859940709E+03 0.  0.
        4    1    3    3  502    0  0.29626942556E+03 -0.23703732173E+03 -0.26775059040E+03  0.46438589123E+03  0.12699999809E+01 0. -1.
       -4    1    3    3    0  502 -0.29626942556E+03  0.23703732173E+03 -0.64578920068E+03  0.74900438518E+03  0.12699999809E+01 0.  1.
</event>
<event>
 5   0  0.1471290E-02  0.8034431E+03  0.7818609E-02  0.9555047E-01
        1   -1    0    0  501    0  0.00000000000E+00  0.00000000000E+00  0.12445772634E+04  0.12445772634E+04  0.50400001928E-02 0. -1.
       -1   -1    0    0    0  501  0.00000000000E+00  0.00000000000E+00 -0.12966666975E+03  0.12966666985E+03  0.50400001928E-02 0.  1.
    10030    2    1    2    0    0  0.00000000000E+00  0.00000000000E+00  0.11149105936E+04  0.13742439332E+04  0.80344306349E+03 0.  0.
        2    1    3    3  502    0 -0.26397707070E+03 -0.24501788734E+03  0.25309953314E+03  0.44020112750E+03  0.25500000920E-02 0.  1.
       -2    1    3    3    0  502  0.26397707070E+03  0.24501788734E+03  0.86181106047E+03  0.93404280573E+03  0.25500000920E-02 0. -1.
</event>
<event>
 5   0  0.2571778E-02  0.8045827E+03  0.7818609E-02  0.9553407E-01
       -2   -1    0    0    0  501  0.00000000000E+00  0.00000000000E+00  0.19675716368E+03  0.19675716369E+03  0.25500000920E-02 0. -1.
        2   -1    0    0  501    0  0.00000000000E+00  0.00000000000E+00 -0.82252825569E+03  0.82252825570E+03  0.25500000920E-02 0.  1.
    10030    2    1    2    0    0  0.00000000000E+00  0.00000000000E+00 -0.62577109202E+03  0.10192854194E+04  0.80458269095E+03 0.  0.
        1    1    3    3  502    0  0.36327215129E+03  0.17271677673E+03 -0.30481483303E+03  0.50468784742E+03  0.50400001928E-02 0. -1.
       -1    1    3    3    0  502 -0.36327215129E+03 -0.17271677673E+03 -0.32095625898E+03  0.51459757197E+03  0.50400001928E-02 0.  1.
</event>
<event>
 5   0  0.1523811E-02  0.8226472E+03  0.7818609E-02  0.9527803E-01
        1   -1    0    0  501    0  0.00000000000E+00  0.00000000000E+00  0.10566967468E+04  0.10566967468E+04  0.50400001928E-02 0.  1.
       -1   -1    0    0    0  501  0.00000000000E+00  0.00000000000E+00 -0.16010941852E+03  0.16010941860E+03  0.50400001928E-02 0. -1.
    10030    2    1    2    0    0  0.00000000000E+00  0.00000000000E+00  0.89658732827E+03  0.12168061654E+04  0.82264719470E+03 0.  0.
        1    1    3    3  502    0 -0.24227873954E+02 -0.36606557129E+03  0.17317414035E+03  0.40568494583E+03  0.50400001928E-02 0. -1.
       -1    1    3    3    0  502  0.24227873954E+02  0.36606557129E+03  0.72341318792E+03  0.81112121957E+03  0.50400001928E-02 0.  1.
</event>
<event>
 5   0  0.2571778E-02  0.8146247E+03  0.7818609E-02  0.9539086E-01
        2   -1    0    0  501    0  0.00000000000E+00  0.00000000000E+00  0.25369789457E+03  0.25369789459E+03  0.25500000920E-02 0.  1.
       -2   -1    0    0    0  501  0.00000000000E+00  0.00000000000E+00 -0.65394064352E+03  0.65394064353E+03  0.25500000920E-02 0. -1.
    10030    2    1    2    0    0  0.00000000000E+00  0.00000000000E+00 -0.40024274895E+03  0.90763853812E+03  0.81462473433E+03 0.  0.
        1    1    3    3  502    0 -0.28024677837E+03 -0.40463080172E+02  0.12610291442E+03  0.30996364738E+03  0.50400001928E-02 0.  1.
       -1    1    3    3    0  502  0.28024677837E+03  0.40463080172E+02 -0.52634566337E+03  0.59767489074E+03  0.50400001928E-02 0. -1.
</event>
<event>
 5   0  0.2460312E-02  0.7945371E+03  0.7818609E-02  0.9567958E-01
       -2   -1    0    0    0  501  0.00000000000E+00  0.00000000000E+00  0.13460308485E+03  0.13460308488E+03  0.25500000920E-02 0.  1.
        2   -1    0    0  501    0  0.00000000000E+00  0.00000000000E+00 -0.11725014869E+04  0.11725014869E+04  0.25500000920E-02 0. -1.
    10030    2    1    2    0    0  0.00000000000E+00  0.00000000000E+00 -0.10378984021E+04  0.13071045718E+04  0.79453714111E+03 0.  0.
        2    1    3    3  502    0 -0.27825667523E+03 -0.25207368269E+03 -0.30537304925E+03  0.48396344700E+03  0.25500000920E-02 0.  1.
       -2    1    3    3    0  502  0.27825667523E+03  0.25207368269E+03 -0.73252535283E+03  0.82314112481E+03  0.25500000920E-02 0. -1.
</event>
<event>
 5   0  0.2422031E-02  0.7974483E+03  0.7818609E-02  0.9563718E-01
       -2   -1    0    0    0  501  0.00000000000E+00  0.00000000000E+00  0.98257610620E+02  0.98257610653E+02  0.25500000920E-02 0. -1.
        2   -1    0    0  501    0  0.00000000000E+00  0.00000000000E+00 -0.16180013623E+04  0.16180013623E+04  0.25500000920E-02 0.  1.
    10030    2    1    2    0    0  0.00000000000E+00  0.00000000000E+00 -0.15197437517E+04  0.17162589730E+04  0.79744830020E+03 0.  0.
        4    1    3    3  502    0  0.23018681733E+03 -0.33107816663E+01 -0.59228266745E+02  0.23771102758E+03  0.12699999809E+01 0. -1.
       -4    1    3    3    0  502 -0.23018681733E+03  0.33107816663E+01 -0.14605154850E+04  0.14785479454E+04  0.12699999809E+01 0.  1.
</event>
<event>
 5   0  0.1471290E-02  0.7988633E+03  0.7818609E-02  0.9561664E-01
        1   -1    0    0  501    0  0.00000000000E+00  0.00000000000E+00  0.62564689994E+03  0.62564689996E+03  0.50400001928E-02 0. -1.
       -1   -1    0    0    0  501  0.00000000000E+00  0.00000000000E+00 -0.25500910632E+03  0.25500910637E+03  0.50400001928E-02 0.  1.
    10030    2    1    2    0    0  0.00000000000E+00  0.00000000000E+00  0.37063779363E+03  0.88065600633E+03  0.79886333463E+03 0.  0.
        2    1    3    3  502    0  0.25472338387E+03  0.11773413396E+03  0.49867659992E+03  0.57220947205E+03  0.25500000920E-02 0. -1.
       -2    1    3    3    0  502 -0.25472338387E+03 -0.11773413396E+03 -0.12803880629E+03  0.30844653428E+03  0.25500000920E-02 0.  1.
</event>
<event>
 5   0  0.1523811E-02  0.7978753E+03  0.7818609E-02  0.9563098E-01
       -1   -1    0    0    0  501  0.00000000000E+00  0.00000000000E+00  0.43808621921E+03  0.43808621924E+03  0.50400001928E-02 0. -1.
        1   -1    0    0  501    0  0.00000000000E+00  0.00000000000E+00 -0.36328751931E+03  0.36328751935E+03  0.50400001928E-02 0.  1.
    10030    2    1    2    0    0  0.00000000000E+00  0.00000000000E+00  0.74798699900E+02  0.80137373859E+03  0.79787531820E+03 0.  0.
        1    1    3    3  502    0  0.78066752265E+02  0.31980230652E+03 -0.18894029607E+03  0.37956075742E+03  0.50400001928E-02 0.  1.
       -1    1    3    3    0  502 -0.78066752265E+02 -0.31980230652E+03  0.26373899597E+03  0.42181298117E+03  0.50400001928E-02 0. -1.
</event>
<event>
 5   0  0.2422031E-02  0.8042708E+03  0.7818609E-02  0.9553856E-01
       -2   -1    0    0    0  501  0.00000000000E+00  0.00000000000E+00  0.14867731443E+03  0.14867731445E+03  0.25500000920E-02 0.  1.
        2   -1    0    0  501    0  0.00000000000E+00  0.00000000000E+00 -0.10876768115E+04  0.10876768115E+04  0.25500000920E-02 0. -1.
    10030    2    1    2    0    0  0.00000000000E+00  0.00000000000E+00 -0.93899949704E+03  0.12363541259E+04  0.80427076861E+03 0.  0.
        4    1    3    3  502    0  0.18749191334E+03 -0.21882332305E+02 -0.10153359310E+04  0.10327345834E+04  0.12699999809E+01 0. -1.
       -4    1    3    3    0  502 -0.18749191334E+03  0.21882332305E+02  0.76336433993E+02  0.20361954250E+03  0.12699999809E+01 0.  1.
</event>
<event>
 5   0  0.2464780E-02  0.7952325E+03  0.7818609E-02  0.9566944E-01
       -2   -1    0    0    0  501  0.00000000000E+00  0.00000000000E+00  0.17227511060E+03  0.17227511062E+03  0.25500000920E-02 0. -1.
        2   -1    0    0  501    0  0.00000000000E+00  0.00000000000E+00 -0.91771052436E+03  0.91771052436E+03  0.25500000920E-02 0.  1.
    10030    2    1    2    0    0  0.00000000000E+00  0.00000000000E+00 -0.74543541375E+03  0.10899856350E+04  0.79523249958E+03 0.  0.
        3    1    3    3  502    0 -0.14170642978E+03  0.27521383885E+03 -0.71476375489E+03  0.77891630156E+03  0.10100000352E+00 0.  1.
       -3    1    3    3    0  502  0.14170642978E+03 -0.27521383885E+03 -0.30671658861E+02  0.31106933342E+03  0.10100000352E+00 0. -1.
</event>
<event>
 5   0  0.9919125E-03  0.7973955E+03  0.7818609E-02  0.9563795E-01
       -4   -1    0    0    0  501  0.00000000000E+00  0.00000000000E+00  0.10252544807E+04  0.10252552672E+04  0.12699999809E+01 0.  1.
        4   -1    0    0  501    0  0.00000000000E+00  0.00000000000E+00 -0.15504088719E+03  0.15504608864E+03  0.12699999809E+01 0. -1.
    10030    2    1    2    0    0  0.00000000000E+00  0.00000000000E+00  0.87021359346E+03  0.11803013559E+04  0.79739550565E+03 0.  0.
        1    1    3    3  502    0  0.35500692119E+03  0.96578750418E+02  0.66251094988E+03  0.75781140652E+03  0.50400001928E-02 0.  1.
       -1    1    3    3    0  502 -0.35500692119E+03 -0.96578750418E+02  0.20770264358E+03  0.42248994935E+03  0.50400001928E-02 0. -1.
</event>
<event>
 5   0  0.9919125E-03  0.7972013E+03  0.7818609E-02  0.9564077E-01
       -3   -1    0    0    0  501  0.00000000000E+00  0.00000000000E+00  0.17422709425E+04  0.17422709454E+04  0.10100000352E+00 0. -1.
        3   -1    0    0  501    0  0.00000000000E+00  0.00000000000E+00 -0.91192724889E+02  0.91192780820E+02  0.10100000352E+00 0.  1.
    10030    2    1    2    0    0  0.00000000000E+00  0.00000000000E+00  0.16510782176E+04  0.18334637262E+04  0.79720132638E+03 0.  0.
        4    1    3    3  502    0  0.36424040159E+03  0.20319885189E+02  0.11949316622E+04  0.12493787489E+04  0.12699999809E+01 0. -1.
       -4    1    3    3    0  502 -0.36424040159E+03 -0.20319885189E+02  0.45614655536E+03  0.58408497734E+03  0.12699999809E+01 0.  1.
</event>
<event>
 5   0  0.1624094E-02  0.8088348E+03  0.7818609E-02  0.9547316E-01
       -1   -1    0    0    0  501  0.00000000000E+00  0.00000000000E+00  0.24517519298E+03  0.24517519303E+03  0.50400001928E-02 0.  1.
        1   -1    0    0  501    0  0.00000000000E+00  0.00000000000E+00 -0.66708804232E+03  0.66708804234E+03  0.50400001928E-02 0. -1.
    10030    2    1    2    0    0  0.00000000000E+00  0.00000000000E+00 -0.42191284934E+03  0.91226323538E+03  0.80883481514E+03 0.  0.
        3    1    3    3  502    0  0.60858302924E+02 -0.10638540644E+03  0.22372403662E+03  0.25509614364E+03  0.10100000352E+00 0.  1.
       -3    1    3    3    0  502 -0.60858302924E+02  0.10638540644E+03 -0.64563688596E+03  0.65716709173E+03  0.10100000352E+00 0. -1.
</event>
<event>
 5   0  0.2460312E-02  0.8053352E+03  0.7818609E-02  0.9552327E-01
       -2   -1    0    0    0  501  0.00000000000E+00  0.00000000000E+00  0.31889552277E+03  0.31889552278E+03  0.25500000920E-02 0.  1.
        2   -1    0    0  501    0  0.00000000000E+00  0.00000000000E+00 -0.50844612229E+03  0.50844612229E+03  0.25500000920E-02 0. -1.
    10030    2    1    2    0    0  0.00000000000E+00  0.00000000000E+00 -0.18955059952E+03  0.82734164507E+03  0.80533518978E+03 0.  0.
        2    1    3    3  502    0  0.32300715849E+03  0.22933739181E+03 -0.16894173805E+03  0.43066294777E+03  0.25500000920E-02 0.  1.
       -2    1    3    3    0  502 -0.32300715849E+03 -0.22933739181E+03 -0.20608861473E+02  0.39667869730E+03  0.25500000920E-02 0. -1.
</event>
<event>
 5   0  0.2422031E-02  0.7808005E+03  0.7818609E-02  0.9588231E-01
        2   -1    0    0  501    0  0.00000000000E+00  0.00000000000E+00  0.46548219008E+03  0.46548219009E+03  0.25500000920E-02 0. -1.
       -2   -1    0    0    0  501  0.00000000000E+00  0.00000000000E+00 -0.32742893793E+03  0.32742893794E+03  0.25500000920E-02 0.  1.
    10030    2    1    2    0    0  0.00000000000E+00  0.00000000000E+00  0.13805325215E+03  0.79291112803E+03  0.78080045884E+03 0.  0.
        4    1    3    3  502    0 -0.20860628417E+03  0.16500925162E+03 -0.22117867287E+03  0.34592810401E+03  0.12699999809E+01 0.  1.
       -4    1    3    3    0  502  0.20860628417E+03 -0.16500925162E+03  0.35923192502E+03  0.44698302402E+03  0.12699999809E+01 0. -1.
</event>
<event>
 5   0  0.1523811E-02  0.7993918E+03  0.7818609E-02  0.9560898E-01
        1   -1    0    0  501    0  0.00000000000E+00  0.00000000000E+00  0.60020488241E+03  0.60020488243E+03  0.50400001928E-02 0. -1.
       -1   -1    0    0    0  501  0.00000000000E+00  0.00000000000E+00 -0.26617043829E+03  0.26617043834E+03  0.50400001928E-02 0.  1.
    10030    2    1    2    0    0  0.00000000000E+00  0.00000000000E+00  0.33403444412E+03  0.86637532077E+03  0.79939176039E+03 0.  0.
        1    1    3    3  502    0  0.24309441093E+03  0.22117565248E+03 -0.79514717665E+02  0.33813629238E+03  0.50400001928E-02 0.  1.
       -1    1    3    3    0  502 -0.24309441093E+03 -0.22117565248E+03  0.41354916179E+03  0.52823902839E+03  0.50400001928E-02 0. -1.
</event>
<event>
 5   0  0.1523811E-02  0.8004820E+03  0.7818609E-02  0.9559320E-01
        1   -1    0    0  501    0  0.00000000000E+00  0.00000000000E+00  0.27150616796E+03  0.27150616801E+03  0.50400001928E-02 0. -1.
       -1   -1    0    0    0  501  0.00000000000E+00  0.00000000000E+00 -0.59001548150E+03  0.59001548152E+03  0.50400001928E-02 0.  1.
    10030    2    1    2    0    0  0.00000000000E+00  0.00000000000E+00 -0.31850931354E+03  0.86152164952E+03  0.80048196094E+03 0.  0.
        1    1    3    3  502    0 -0.13024864456E+03  0.21367471146E+03 -0.49543752798E+03  0.55504948958E+03  0.50400001928E-02 0.  1.
       -1    1    3    3    0  502  0.13024864456E+03 -0.21367471146E+03  0.17692821444E+03  0.30647215994E+03  0.50400001928E-02 0. -1.
</event>
<event>
 5   0  0.2464780E-02  0.6402080E+03  0.7818609E-02  0.9825329E-01
        2   -1    0    0  501    0  0.00000000000E+00  0.00000000000E+00  0.37578244243E+03  0.37578244244E+03  0.25500000920E-02 0. -1.
       -2   -1    0    0    0  501  0.00000000000E+00  0.00000000000E+00 -0.27267527579E+03  0.27267527580E+03  0.25500000920E-02 0.  1.
    10030    2    1    2    0    0  0.00000000000E+00  0.00000000000E+00  0.10310716664E+03  0.64845771824E+03  0.64020803223E+03 0.  0.
        3    1    3    3  502    0  0.74779175110E+02 -0.30862316175E+03  0.10705387123E+02  0.31773384541E+03  0.10100000352E+00 0. -1.
       -3    1    3    3    0  502 -0.74779175110E+02  0.30862316175E+03  0.92401779522E+02  0.33072387283E+03  0.10100000352E+00 0.  1.
</event>
<event>
 5   0  0.1498375E-02  0.8010842E+03  0.7818609E-02  0.9558449E-01
        1   -1    0    0  501    0  0.00000000000E+00  0.00000000000E+00  0.60083047676E+03  0.60083047678E+03  0.50400001928E-02 0.  1.
       -1   -1    0    0    0  501  0.00000000000E+00  0.00000000000E+00 -0.26702036619E+03  0.26702036624E+03  0.50400001928E-02 0. -1.
    10030    2    1    2    0    0  0.00000000000E+00  0.00000000000E+00  0.33381011057E+03  0.86785084302E+03  0.80108420020E+03 0.  0.
        4    1    3    3  502    0  0.13422869021E+02 -0.16926738476E+03  0.55990825771E+03  0.58509015623E+03  0.12699999809E+01 0.  1.
       -4    1    3    3    0  502 -0.13422869021E+02  0.16926738476E+03 -0.22609814714E+03  0.28276068680E+03  0.12699999809E+01 0. -1.
</event>
<event>
 5   0  0.1523811E-02  0.8002640E+03  0.7818609E-02  0.9559635E-01
       -1   -1    0    0    0  501  0.00000000000E+00  0.00000000000E+00  0.99095913613E+02  0.99095913741E+02  0.50400001928E-02 0.  1.
        1   -1    0    0  501    0  0.00000000000E+00  0.00000000000E+00 -0.16156630996E+04  0.16156630996E+04  0.50400001928E-02 0. -1.
    10030    2    1    2    0    0  0.00000000000E+00  0.00000000000E+00 -0.15165671860E+04  0.17147590134E+04  0.80026398411E+03 0.  0.
        1    1    3    3  502    0  0.27703668409E+03 -0.24578673633E+03 -0.43370831823E+03  0.57031863850E+03  0.50400001928E-02 0.  1.
       -1    1    3    3    0  502 -0.27703668409E+03  0.24578673633E+03 -0.10828588678E+04  0.11444403749E+04  0.50400001928E-02 0. -1.
</event>
<event>
 5   0  0.9919125E-03  0.7998942E+03  0.7818609E-02  0.9560170E-01
       -3   -1    0    0    0  501  0.00000000000E+00  0.00000000000E+00  0.51326609926E+03  0.51326610920E+03  0.10100000352E+00 0. -1.
        3   -1    0    0  501    0  0.00000000000E+00  0.00000000000E+00 -0.31164663415E+03  0.31164665052E+03  0.10100000352E+00 0.  1.
    10030    2    1    2    0    0  0.00000000000E+00  0.00000000000E+00  0.20161946511E+03  0.82491275971E+03  0.79989415077E+03 0.  0.
        1    1    3    3  502    0  0.38780097692E+03 -0.96091157645E+02  0.81946803263E+02  0.40784603329E+03  0.50400001928E-02 0.  1.
       -1    1    3    3    0  502 -0.38780097692E+03  0.96091157645E+02  0.11967266184E+03  0.41706672643E+03  0.50400001928E-02 0. -1.
</event>
<event>
 5   0  0.1523811E-02  0.7952829E+03  0.7818609E-02  0.9566870E-01
        1   -1    0    0  501    0  0.00000000000E+00  0.00000000000E+00  0.42365022402E+03  0.42365022405E+03  0.50400001928E-02 0. -1.
       -1   -1    0    0    0  501  0.00000000000E+00  0.00000000000E+00 -0.37322939643E+03  0.37322939646E+03  0.50400001928E-02 0.  1.
    10030    2    1    2    0    0  0.00000000000E+00  0.00000000000E+00  0.50420827591E+02  0.79687962051E+03  0.79528288660E+03 0.  0.
        1    1    3    3  502    0  0.55780386470E+02 -0.17562075101E+03  0.37828788788E+03  0.42078002073E+03  0.50400001928E-02 0. -1.
       -1    1    3    3    0  502 -0.55780386470E+02  0.17562075101E+03 -0.32786706029E+03  0.37609959978E+03  0.50400001928E-02 0.  1.
</event>
<event>
 5   0  0.1624094E-02  0.7892603E+03  0.7818609E-02  0.9575694E-01
       -1   -1    0    0    0  501  0.00000000000E+00  0.00000000000E+00  0.26509054428E+03  0.26509054432E+03  0.50400001928E-02 0.  1.
        1   -1    0    0  501    0  0.00000000000E+00  0.00000000000E+00 -0.58747073806E+03  0.58747073808E+03  0.50400001928E-02 0. -1.
    10030    2    1    2    0    0  0.00000000000E+00  0.00000000000E+00 -0.32238019378E+03  0.85256128240E+03  0.78926025550E+03 0.  0.
        3    1    3    3  502    0  0.32047417498E+03  0.24007026868E+02  0.86204435387E+02  0.33273299964E+03  0.10100000352E+00 0.  1.
       -3    1    3    3    0  502 -0.32047417498E+03 -0.24007026868E+02 -0.40858462917E+03  0.51982828276E+03  0.10100000352E+00 0. -1.
</event>
<event>
 5   0  0.2454354E-02  0.8294541E+03  0.7818609E-02  0.9518335E-01
        2   -1    0    0  501    0  0.00000000000E+00  0.00000000000E+00  0.53185888711E+03  0.53185888712E+03  0.25500000920E-02 0.  1.
       -2   -1    0    0    0  501  0.00000000000E+00  0.00000000000E+00 -0.32339131577E+03  0.32339131578E+03  0.25500000920E-02 0. -1.
    10030    2    1    2    0    0  0.00000000000E+00  0.00000000000E+00  0.20846757134E+03  0.85525020290E+03  0.82945414657E+03 0.  0.
        5    1    3    3  502    0  0.31563277903E+03  0.19107567998E+03  0.29944280576E+03  0.47520737642E+03  0.46999998093E+01 0.  1.
       -5    1    3    3    0  502 -0.31563277903E+03 -0.19107567998E+03 -0.90975234419E+02  0.38004282648E+03  0.46999998093E+01 0. -1.
</event>
<event>
 5   0  0.1498375E-02  0.7958720E+03  0.7818609E-02  0.9566011E-01
        1   -1    0    0  501    0  0.00000000000E+00  0.00000000000E+00  0.55712126774E+03  0.55712126776E+03  0.50400001928E-02 0.  1.
       -1   -1    0    0    0  501  0.00000000000E+00  0.00000000000E+00 -0.28423448889E+03  0.28423448893E+03  0.50400001928E-02 0. -1.
    10030    2    1    2    0    0  0.00000000000E+00  0.00000000000E+00  0.27288677885E+03  0.84135575670E+03  0.79587204704E+03 0.  0.
        4    1    3    3  502    0  0.55954839592E+02 -0.14983199069E+03  0.52164479468E+03  0.54561476723E+03  0.12699999809E+01 0.  1.
       -4    1    3    3    0  502 -0.55954839592E+02  0.14983199069E+03 -0.24875801583E+03  0.29574098946E+03  0.12699999809E+01 0. -1.
</event>
<event>
 5   0  0.1523811E-02  0.8021177E+03  0.7818609E-02  0.9556957E-01
       -1   -1    0    0    0  501  0.00000000000E+00  0.00000000000E+00  0.10322910466E+03  0.10322910478E+03  0.50400001928E-02 0.  1.
        1   -1    0    0  501    0  0.00000000000E+00  0.00000000000E+00 -0.15581673327E+04  0.15581673327E+04  0.50400001928E-02 0. -1.
    10030    2    1    2    0    0  0.00000000000E+00  0.00000000000E+00 -0.14549382280E+04  0.16613964375E+04  0.80211774391E+03 0.  0.
        1    1    3    3  502    0  0.36775973410E+03  0.77032682610E+02 -0.10179407940E+04  0.10850735995E+04  0.50400001928E-02 0. -1.
       -1    1    3    3    0  502 -0.36775973410E+03 -0.77032682610E+02 -0.43699743408E+03  0.57632283803E+03  0.50400001928E-02 0.  1.
</event>
<event>
 5   0  0.1523811E-02  0.7997480E+03  0.7818609E-02  0.9560382E-01
        1   -1    0    0  501    0  0.00000000000E+00  0.00000000000E+00  0.42624399350E+03  0.42624399353E+03  0.50400001928E-02 0. -1.
       -1   -1    0    0    0  501  0.00000000000E+00  0.00000000000E+00 -0.37513538980E+03  0.37513538983E+03  0.50400001928E-02 0.  1.
    10030    2    1    2    0    0  0.00000000000E+00  0.00000000000E+00  0.51108603703E+02  0.80137938336E+03  0.79974797699E+03 0.  0.
        1    1    3    3  502    0  0.38659093290E+03  0.67735851920E+02  0.10225135236E+03  0.40558110671E+03  0.50400001928E-02 0.  1.
       -1    1    3    3    0  502 -0.38659093290E+03 -0.67735851920E+02 -0.51142748656E+02  0.39579827665E+03  0.50400001928E-02 0. -1.
</event>
<event>
 5   0  0.2454354E-02  0.7958445E+03  0.7818609E-02  0.9566052E-01
        2   -1    0    0  501    0  0.00000000000E+00  0.00000000000E+00  0.42827384094E+03  0.42827384094E+03  0.25500000920E-02 0.  1.
       -2   -1    0    0    0  501  0.00000000000E+00  0.00000000000E+00 -0.36972165836E+03  0.36972165837E+03  0.25500000920E-02 0. -1.
    10030    2    1    2    0    0  0.00000000000E+00  0.00000000000E+00  0.58552182580E+02  0.79799549931E+03  0.79584449413E+03 0.  0.
        5    1    3    3  502    0  0.13993103272E+03 -0.33437248805E+03 -0.13528442339E+03  0.38692327391E+03  0.46999998093E+01 0. -1.
       -5    1    3    3    0  502 -0.13993103272E+03  0.33437248805E+03  0.19383660597E+03  0.41107222540E+03  0.46999998093E+01 0.  1.
</event>
<event>
 5   0  0.2422031E-02  0.8009154E+03  0.7818609E-02  0.9558693E-01
       -2   -1    0    0    0  501  0.00000000000E+00  0.00000000000E+00  0.14509709904E+03  0.14509709906E+03  0.25500000920E-02 0. -1.
        2   -1    0    0  501    0  0.00000000000E+00  0.00000000000E+00 -0.11052348367E+04  0.11052348367E+04  0.25500000920E-02 0.  1.
    10030    2    1    2    0    0  0.00000000000E+00  0.00000000000E+00 -0.96013773769E+03  0.12503319358E+04  0.80091539772E+03 0.  0.
        4    1    3    3  502    0  0.32129335042E+03  0.20183829431E+03 -0.67997040563E+03  0.77867161211E+03  0.12699999809E+01 0.  1.
       -4    1    3    3    0  502 -0.32129335042E+03 -0.20183829431E+03 -0.28016733205E+03  0.47166032367E+03  0.12699999809E+01 0. -1.
</event>
<event>
 5   0  0.1509629E-02  0.7984783E+03  0.7818609E-02  0.9562222E-01
       -1   -1    0    0    0  501  0.00000000000E+00  0.00000000000E+00  0.22730412216E+03  0.22730412222E+03  0.50400001928E-02 0.  1.
        1   -1    0    0  501    0  0.00000000000E+00  0.00000000000E+00 -0.70122747114E+03  0.70122747116E+03  0.50400001928E-02 0. -1.
    10030    2    1    2    0    0  0.00000000000E+00  0.00000000000E+00 -0.47392334898E+03  0.92853159338E+03  0.79847828975E+03 0.  0.
        5    1    3    3  502    0 -0.36400321820E+03 -0.16392456941E+03 -0.23747844885E+03  0.46452955878E+03  0.46999998093E+01 0. -1.
       -5    1    3    3    0  502  0.36400321820E+03  0.16392456941E+03 -0.23644490013E+03  0.46400203460E+03  0.46999998093E+01 0.  1.
</event>
<event>
 5   0  0.2422031E-02  0.8225106E+03  0.7818609E-02  0.9527994E-01
       -2   -1    0    0    0  501  0.00000000000E+00  0.00000000000E+00  0.17561707407E+03  0.17561707409E+03  0.25500000920E-02 0. -1.
        2   -1    0    0  501    0  0.00000000000E+00  0.00000000000E+00 -0.96306651487E+03  0.96306651487E+03  0.25500000920E-02 0.  1.
    10030    2    1    2    0    0  0.00000000000E+00  0.00000000000E+00 -0.78744944080E+03  0.11386835890E+04  0.82251060417E+03 0.  0.
        4    1    3    3  502    0 -0.19041747599E+03  0.28648046617E+03 -0.70575088245E+03  0.78512151521E+03  0.12699999809E+01 0.  1.
       -4    1    3    3    0  502  0.19041747599E+03 -0.28648046617E+03 -0.81698558347E+02  0.35356207376E+03  0.12699999809E+01 0. -1.
</event>
<event>
 5   0  0.1624094E-02  0.7983805E+03  0.7818609E-02  0.9562364E-01
        1   -1    0    0  501    0  0.00000000000E+00  0.00000000000E+00  0.62381481673E+03  0.62381481675E+03  0.50400001928E-02 0. -1.
       -1   -1    0    0    0  501  0.00000000000E+00  0.00000000000E+00 -0.25544900694E+03  0.25544900699E+03  0.50400001928E-02 0.  1.
    10030    2    1    2    0    0  0.00000000000E+00  0.00000000000E+00  0.36836580980E+03  0.87926382374E+03  0.79838054956E+03 0.  0.
        3    1    3    3  502    0 -0.15644331565E+03 -0.29420484064E+03 -0.57909466978E+02  0.33820779979E+03  0.10100000352E+00 0.  1.
       -3    1    3    3    0  502  0.15644331565E+03  0.29420484064E+03  0.42627527677E+03  0.54105602396E+03  0.10100000352E+00 0. -1.
</event>
<event>
 5   0  0.2460312E-02  0.7765210E+03  0.7818609E-02  0.9594638E-01
       -2   -1    0    0    0  501  0.00000000000E+00  0.00000000000E+00  0.16237379056E+03  0.16237379058E+03  0.25500000920E-02 0.  1.
        2   -1    0    0  501    0  0.00000000000E+00  0.00000000000E+00 -0.92838996068E+03  0.92838996068E+03  0.25500000920E-02 0. -1.
    10030    2    1    2    0    0  0.00000000000E+00  0.00000000000E+00 -0.76601617012E+03  0.10907637513E+04  0.77652095154E+03 0.  0.
        2    1    3    3  502    0 -0.36098184429E+03 -0.84672211950E+02 -0.54481435027E+03  0.65901437894E+03  0.25500000920E-02 0. -1.
       -2    1    3    3    0  502  0.36098184429E+03  0.84672211950E+02 -0.22120181986E+03  0.43174937232E+03  0.25500000920E-02 0.  1.
</event>
<event>
 5   0  0.2571778E-02  0.7977792E+03  0.7818609E-02  0.9563237E-01
        2   -1    0    0  501    0  0.00000000000E+00  0.00000000000E+00  0.35239661550E+03  0.35239661551E+03  0.25500000920E-02 0.  1.
       -2   -1    0    0    0  501  0.00000000000E+00  0.00000000000E+00 -0.45151661682E+03  0.45151661682E+03  0.25500000920E-02 0. -1.
    10030    2    1    2    0    0  0.00000000000E+00  0.00000000000E+00 -0.99120001315E+02  0.80391323233E+03  0.79777923667E+03 0.  0.
        1    1    3    3  502    0 -0.13157219064E+03  0.25458661095E+03  0.23003932269E+03  0.36748288917E+03  0.50400001928E-02 0.  1.
       -1    1    3    3    0  502  0.13157219064E+03 -0.25458661095E+03 -0.32915932401E+03  0.43643034316E+03  0.50400001928E-02 0. -1.
</event>
<event>
 5   0  0.1498375E-02  0.7706728E+03  0.7818609E-02  0.9603465E-01
       -1   -1    0    0    0  501  0.00000000000E+00  0.00000000000E+00  0.12287875722E+04  0.12287875722E+04  0.50400001928E-02 0. -1.
        1   -1    0    0  501    0  0.00000000000E+00  0.00000000000E+00 -0.12083792938E+03  0.12083792948E+03  0.50400001928E-02 0.  1.
    10030    2    1    2    0    0  0.00000000000E+00  0.00000000000E+00  0.11079496429E+04  0.13496255017E+04  0.77067281242E+03 0.  0.
        4    1    3    3  502    0  0.12932384714E+03  0.26748877587E+03  0.98367843409E+03  0.10275698406E+04  0.12699999809E+01 0. -1.
       -4    1    3    3    0  502 -0.12932384714E+03 -0.26748877587E+03  0.12427120877E+03  0.32205566116E+03  0.12699999809E+01 0.  1.
</event>
<event>
 5   0  0.2571778E-02  0.8336815E+03  0.7818609E-02  0.9512505E-01
       -2   -1    0    0    0  501  0.00000000000E+00  0.00000000000E+00  0.17366885920E+03  0.17366885922E+03  0.25500000920E-02 0.  1.
        2   -1    0    0  501    0  0.00000000000E+00  0.00000000000E+00 -0.10005030909E+04  0.10005030909E+04  0.25500000920E-02 0. -1.
    10030    2    1    2    0    0  0.00000000000E+00  0.00000000000E+00 -0.82683423172E+03  0.11741719501E+04  0.83368154696E+03 0.  0.
        1    1    3    3  502    0 -0.31416929355E+03 -0.20311617803E+03 -0.15449144559E+03  0.40475441143E+03  0.50400001928E-02 0.  1.
       -1    1    3    3    0  502  0.31416929355E+03  0.20311617803E+03 -0.67234278612E+03  0.76941753870E+03  0.50400001928E-02 0. -1.
</event>
<event>
 5   0  0.9919125E-03  0.7963397E+03  0.7818609E-02  0.9565330E-01
        4   -1    0    0  501    0  0.00000000000E+00  0.00000000000E+00  0.48131385573E+03  0.48131553124E+03  0.12699999809E+01 0.  1.
       -4   -1    0    0    0  501  0.00000000000E+00  0.00000000000E+00 -0.32938498901E+03  0.32938743735E+03  0.12699999809E+01 0. -1.
    10030    2    1    2    0    0  0.00000000000E+00  0.00000000000E+00  0.15192886672E+03  0.81070296859E+03  0.79633970310E+03 0.  0.
        4    1    3    3  502    0  0.30871566397E+03  0.22483566515E+03 -0.38677429057E+02  0.38386715661E+03  0.12699999809E+01 0.  1.
       -4    1    3    3    0  502 -0.30871566397E+03 -0.22483566515E+03  0.19060629577E+03  0.42683581198E+03  0.12699999809E+01 0. -1.
</event>
<event>
 5   0  0.2422031E-02  0.7942352E+03  0.7818609E-02  0.9568399E-01
        2   -1    0    0  501    0  0.00000000000E+00  0.00000000000E+00  0.19378201234E+03  0.19378201235E+03  0.25500000920E-02 0.  1.
       -2   -1    0    0    0  501  0.00000000000E+00  0.00000000000E+00 -0.81381334659E+03  0.81381334659E+03  0.25500000920E-02 0. -1.
    10030    2    1    2    0    0  0.00000000000E+00  0.00000000000E+00 -0.62003133425E+03  0.10075953589E+04  0.79423519937E+03 0.  0.
        4    1    3    3  502    0  0.37490997373E+03  0.11962231191E+03 -0.24248192795E+03  0.46224028837E+03  0.12699999809E+01 0.  1.
       -4    1    3    3    0  502 -0.37490997373E+03 -0.11962231191E+03 -0.37754940631E+03  0.54535507058E+03  0.12699999809E+01 0. -1.
</event>
<event>
 5   0  0.2464780E-02  0.7968173E+03  0.7818609E-02  0.9564635E-01
        2   -1    0    0  501    0  0.00000000000E+00  0.00000000000E+00  0.48905781160E+03  0.48905781161E+03  0.25500000920E-02 0. -1.
       -2   -1    0    0    0  501  0.00000000000E+00  0.00000000000E+00 -0.32456172989E+03  0.32456172990E+03  0.25500000920E-02 0.  1.
    10030    2    1    2    0    0  0.00000000000E+00  0.00000000000E+00  0.16449608171E+03  0.81361954151E+03  0.79681729238E+03 0.  0.
        3    1    3    3  502    0 -0.36001533456E+03  0.67298407350E+02 -0.77868390129E+02  0.37443772932E+03  0.10100000352E+00 0.  1.
       -3    1    3    3    0  502  0.36001533456E+03 -0.67298407350E+02  0.24236447184E+03  0.43918181220E+03  0.10100000352E+00 0. -1.
</event>
<event>
 5   0  0.1471290E-02  0.7891472E+03  0.7818609E-02  0.9575860E-01
        1   -1    0    0  501    0  0.00000000000E+00  0.00000000000E+00  0.39564208381E+03  0.39564208385E+03  0.50400001928E-02 0. -1.
       -1   -1    0    0    0  501  0.00000000000E+00  0.00000000000E+00 -0.39350799442E+03  0.39350799445E+03  0.50400001928E-02 0.  1.
    10030    2    1    2    0    0  0.00000000000E+00  0.00000000000E+00  0.21340893923E+01  0.78915007830E+03  0.78914719270E+03 0.  0.
        2    1    3    3  502    0 -0.12165078870E+03  0.14509181656E+03  0.34724423878E+03  0.39551120212E+03  0.25500000920E-02 0. -1.
       -2    1    3    3    0  502  0.12165078870E+03 -0.14509181656E+03 -0.34511014939E+03  0.39363887618E+03  0.25500000920E-02 0.  1.
</event>
<event>
 5   0  0.1498375E-02  0.7957415E+03  0.7818609E-02  0.9566202E-01
       -1   -1    0    0    0  501  0.00000000000E+00  0.00000000000E+00  0.18319270089E+03  0.18319270096E+03  0.50400001928E-02 0.  1.
        1   -1    0    0  501    0  0.00000000000E+00  0.00000000000E+00 -0.86412355295E+03  0.86412355297E+03  0.50400001928E-02 0. -1.
    10030    2    1    2    0    0  0.00000000000E+00  0.00000000000E+00 -0.68093085206E+03  0.10473162539E+04  0.79574148468E+03 0.  0.
        4    1    3    3  502    0 -0.32106508059E+03 -0.11502857051E+03 -0.70782325243E+02  0.34831897519E+03  0.12699999809E+01 0.  1.
       -4    1    3    3    0  502  0.32106508059E+03  0.11502857051E+03 -0.61014852682E+03  0.69899727874E+03  0.12699999809E+01 0. -1.
</event>
<event>
 5   0  0.1624094E-02  0.7866948E+03  0.7818609E-02  0.9579478E-01
        1   -1    0    0  501    0  0.00000000000E+00  0.00000000000E+00  0.67704869138E+03  0.67704869139E+03  0.50400001928E-02 0. -1.
       -1   -1    0    0    0  501  0.00000000000E+00  0.00000000000E+00 -0.22852447381E+03  0.22852447387E+03  0.50400001928E-02 0.  1.
    10030    2    1    2    0    0  0.00000000000E+00  0.00000000000E+00  0.44852421756E+03  0.90557316526E+03  0.78669484802E+03 0.  0.
        3    1    3    3  502    0 -0.44168031385E+02 -0.39085108475E+03  0.22726391133E+03  0.45427335498E+03  0.10100000352E+00 0.  1.
       -3    1    3    3    0  502  0.44168031385E+02  0.39085108475E+03  0.22126030624E+03  0.45129981029E+03  0.10100000352E+00 0. -1.
</event>
<event>
 5   0  0.1624094E-02  0.8102582E+03  0.7818609E-02  0.9545286E-01
        1   -1    0    0  501    0  0.00000000000E+00  0.00000000000E+00  0.46167696472E+03  0.46167696475E+03  0.50400001928E-02 0.  1.
       -1   -1    0    0    0  501  0.00000000000E+00  0.00000000000E+00 -0.35550741340E+03  0.35550741344E+03  0.50400001928E-02 0. -1.
    10030    2    1    2    0    0  0.00000000000E+00  0.00000000000E+00  0.10616955131E+03  0.81718437818E+03  0.81025818991E+03 0.  0.
        3    1    3    3  502    0 -0.35576457667E+02 -0.31342257445E+02  0.45886913732E+03  0.46131216852E+03  0.10100000352E+00 0.  1.
       -3    1    3    3    0  502  0.35576457667E+02  0.31342257445E+02 -0.35269958600E+03  0.35587220966E+03  0.10100000352E+00 0. -1.
</event>
<event>
 5   0  0.2571778E-02  0.7999919E+03  0.7818609E-02  0.9560029E-01
        2   -1    0    0  501    0  0.00000000000E+00  0.00000000000E+00  0.11067151093E+04  0.11067151093E+04  0.25500000920E-02 0. -1.
       -2   -1    0    0    0  501  0.00000000000E+00  0.00000000000E+00 -0.14456905761E+03  0.14456905764E+03  0.25500000920E-02 0.  1.
    10030    2    1    2    0    0  0.00000000000E+00  0.00000000000E+00  0.96214605170E+03  0.12512841670E+04  0.79999190100E+03 0.  0.
        1    1    3    3  502    0 -0.28600508182E+02  0.90668796202E+02  0.10887857651E+04  0.10929287543E+04  0.50400001928E-02 0. -1.
       -1    1    3    3    0  502  0.28600508182E+02 -0.90668796202E+02 -0.12663971341E+03  0.15835541264E+03  0.50400001928E-02 0.  1.
</event>
<event>
 5   0  0.2454354E-02  0.7877098E+03  0.7818609E-02  0.9577979E-01
       -2   -1    0    0    0  501  0.00000000000E+00  0.00000000000E+00  0.16872018988E+03  0.16872018990E+03  0.25500000920E-02 0.  1.
        2   -1    0    0  501    0  0.00000000000E+00  0.00000000000E+00 -0.91940191465E+03  0.91940191465E+03  0.25500000920E-02 0. -1.
    10030    2    1    2    0    0  0.00000000000E+00  0.00000000000E+00 -0.75068172476E+03  0.10881221046E+04  0.78770975779E+03 0.  0.
        5    1    3    3  502    0  0.57905639376E+02 -0.38826484473E+03 -0.33172522776E+03  0.51397117570E+03  0.46999998093E+01 0. -1.
       -5    1    3    3    0  502 -0.57905639376E+02  0.38826484473E+03 -0.41895649700E+03  0.57415092885E+03  0.46999998093E+01 0.  1.
</event>
<event>
 5   0  0.2460312E-02  0.6568903E+03  0.7818609E-02  0.9793935E-01
        2   -1    0    0  501    0  0.00000000000E+00  0.00000000000E+00  0.17074694307E+04  0.17074694307E+04  0.25500000920E-02 0.  1.
       -2   -1    0    0    0  501  0.00000000000E+00  0.00000000000E+00 -0.63179003306E+02  0.63179003357E+02  0.25500000920E-02 0. -1.
    10030    2    1    2    0    0  0.00000000000E+00  0.00000000000E+00  0.16442904274E+04  0.17706484340E+04  0.65689030090E+03 0.  0.
        2    1    3    3  502    0 -0.28836212807E+03 -0.84586236467E+02  0.46486504163E+03  0.55354047299E+03  0.25500000920E-02 0.  1.
       -2    1    3    3    0  502  0.28836212807E+03  0.84586236467E+02  0.11794253857E+04  0.12171079610E+04  0.25500000920E-02 0. -1.
</event>
<event>
 5   0  0.1523811E-02  0.7970719E+03  0.7818609E-02  0.9564265E-01
        1   -1    0    0  501    0  0.00000000000E+00  0.00000000000E+00  0.58766344860E+03  0.58766344862E+03  0.50400001928E-02 0. -1.
       -1   -1    0    0    0  501  0.00000000000E+00  0.00000000000E+00 -0.27027526643E+03  0.27027526648E+03  0.50400001928E-02 0.  1.
    10030    2    1    2    0    0  0.00000000000E+00  0.00000000000E+00  0.31738818217E+03  0.85793871510E+03  0.79707187925E+03 0.  0.
        1    1    3    3  502    0 -0.37278903097E+02  0.38760539652E+03  0.67341141554E+02  0.39517399889E+03  0.50400001928E-02 0.  1.
       -1    1    3    3    0  502  0.37278903097E+02 -0.38760539652E+03  0.25004704062E+03  0.46276471621E+03  0.50400001928E-02 0. -1.
</event>
<event>
 5   0  0.2460312E-02  0.7910964E+03  0.7818609E-02  0.9572995E-01
       -2   -1    0    0    0  501  0.00000000000E+00  0.00000000000E+00  0.13366115928E+03  0.13366115930E+03  0.25500000920E-02 0. -1.
        2   -1    0    0  501    0  0.00000000000E+00  0.00000000000E+00 -0.11705598566E+04  0.11705598566E+04  0.25500000920E-02 0.  1.
    10030    2    1    2    0    0  0.00000000000E+00  0.00000000000E+00 -0.10368986973E+04  0.13042210159E+04  0.79109642257E+03 0.  0.
        2    1    3    3  502    0 -0.16340519595E+03 -0.20296725837E+02  0.74471723551E+02  0.18071871170E+03  0.25500000920E-02 0. -1.
       -2    1    3    3    0  502  0.16340519595E+03  0.20296725837E+02 -0.11113704208E+04  0.11235023042E+04  0.25500000920E-02 0.  1.
</event>
<event>
 5   0  0.1523811E-02  0.7990054E+03  0.7818609E-02  0.9561458E-01
       -1   -1    0    0    0  501  0.00000000000E+00  0.00000000000E+00  0.19509684378E+03  0.19509684384E+03  0.50400001928E-02 0. -1.
        1   -1    0    0  501    0  0.00000000000E+00  0.00000000000E+00 -0.81806750595E+03  0.81806750597E+03  0.50400001928E-02 0.  1.
    10030    2    1    2    0    0  0.00000000000E+00  0.00000000000E+00 -0.62297066217E+03  0.10131643498E+04  0.79900535280E+03 0.  0.
        1    1    3    3  502    0 -0.27512124885E+03 -0.28942000921E+03 -0.29612459399E+03  0.49713722300E+03  0.50400001928E-02 0. -1.
       -1    1    3    3    0  502  0.27512124885E+03  0.28942000921E+03 -0.32684606818E+03  0.51602712681E+03  0.50400001928E-02 0.  1.
</event>
<event>
 5   0  0.1509629E-02  0.8092322E+03  0.7818609E-02  0.9546749E-01
        1   -1    0    0  501    0  0.00000000000E+00  0.00000000000E+00  0.40033256189E+03  0.40033256192E+03  0.50400001928E-02 0. -1.
       -1   -1    0    0    0  501  0.00000000000E+00  0.00000000000E+00 -0.40894550973E+03  0.40894550976E+03  0.50400001928E-02 0.  1.
    10030    2    1    2    0    0  0.00000000000E+00  0.00000000000E+00 -0.86129478444E+01  0.80927807168E+03  0.80923223764E+03 0.  0.
        5    1    3    3  502    0  0.11975567242E+03  0.54855681955E+02  0.37826132976E+03  0.40056746062E+03  0.46999998093E+01 0. -1.
       -5    1    3    3    0  502 -0.11975567242E+03 -0.54855681955E+02 -0.38687427761E+03  0.40871061106E+03  0.46999998093E+01 0.  1.
</event>
<event>
 5   0  0.2422031E-02  0.8183572E+03  0.7818609E-02  0.9533819E-01
        2   -1    0    0  501    0  0.00000000000E+00  0.00000000000E+00  0.11148009995E+04  0.11148009995E+04  0.25500000920E-02 0. -1.
       -2   -1    0    0    0  501  0.00000000000E+00  0.00000000000E+00 -0.15018565113E+03  0.15018565115E+03  0.25500000920E-02 0.  1.
    10030    2    1    2    0    0  0.00000000000E+00  0.00000000000E+00  0.96461534838E+03  0.12649866507E+04  0.81835716899E+03 0.  0.
        4    1    3    3  502    0  0.21038748976E+03 -0.63927002918E+02 -0.51094850497E+02  0.22574732378E+03  0.12699999809E+01 0.  1.
       -4    1    3    3    0  502 -0.21038748976E+03  0.63927002918E+02  0.10157101989E+04  0.10392393269E+04  0.12699999809E+01 0. -1.
</event>
<event>
 5   0  0.1523811E-02  0.8044686E+03  0.7818609E-02  0.9553571E-01
        1   -1    0    0  501    0  0.00000000000E+00  0.00000000000E+00  0.48078139512E+03  0.48078139515E+03  0.50400001928E-02 0. -1.
       -1   -1    0    0    0  501  0.00000000000E+00  0.00000000000E+00 -0.33651970588E+03  0.33651970592E+03  0.50400001928E-02 0.  1.
    10030    2    1    2    0    0  0.00000000000E+00  0.00000000000E+00  0.14426168924E+03  0.81730110107E+03  0.80446855428E+03 0.  0.
        1    1    3    3  502    0  0.17993554864E+02 -0.63808599784E+02 -0.33093071947E+03  0.33750621703E+03  0.50400001928E-02 0.  1.
       -1    1    3    3    0  502 -0.17993554864E+02  0.63808599784E+02  0.47519240871E+03  0.47979488403E+03  0.50400001928E-02 0. -1.
</event>
<event>
 5   0  0.1509629E-02  0.9059306E+03  0.7818609E-02  0.9418198E-01
        1   -1    0    0  501    0  0.00000000000E+00  0.00000000000E+00  0.20372132722E+04  0.20372132722E+04  0.50400001928E-02 0.  1.
       -1   -1    0    0    0  501  0.00000000000E+00  0.00000000000E+00 -0.10071482506E+03  0.10071482518E+03  0.50400001928E-02 0. -1.
    10030    2    1    2    0    0  0.00000000000E+00  0.00000000000E+00  0.19364984471E+04  0.21379280973E+04  0.90593063411E+03 0.  0.
        5    1    3    3  502    0 -0.18464993179E+03 -0.13524681996E+03  0.45859163424E+02  0.23347901937E+03  0.46999998093E+01 0. -1.
       -5    1    3    3    0  502  0.18464993179E+03  0.13524681996E+03  0.18906392837E+04  0.19044490780E+04  0.46999998093E+01 0.  1.
</event>
<event>
 5   0  0.1523811E-02  0.7716689E+03  0.7818609E-02  0.9601955E-01
       -1   -1    0    0    0  501  0.00000000000E+00  0.00000000000E+00  0.15801568518E+03  0.15801568526E+03  0.50400001928E-02 0.  1.
        1   -1    0    0  501    0  0.00000000000E+00  0.00000000000E+00 -0.94211053185E+03  0.94211053187E+03  0.50400001928E-02 0. -1.
    10030    2    1    2    0    0  0.00000000000E+00  0.00000000000E+00 -0.78409484667E+03  0.11001262171E+04  0.77166894782E+03 0.  0.
        1    1    3    3  502    0 -0.22493974846E+02  0.30123466428E+03 -0.73426151465E+03  0.79396994514E+03  0.50400001928E-02 0. -1.
       -1    1    3    3    0  502  0.22493974846E+02 -0.30123466428E+03 -0.49833332023E+02  0.30615627198E+03  0.50400001928E-02 0.  1.
</event>
<event>
 5   0  0.1471290E-02  0.7659533E+03  0.7818609E-02  0.9610649E-01
       -1   -1    0    0    0  501  0.00000000000E+00  0.00000000000E+00  0.31759793527E+03  0.31759793531E+03  0.50400001928E-02 0.  1.
        1   -1    0    0  501    0  0.00000000000E+00  0.00000000000E+00 -0.46181381922E+03  0.46181381924E+03  0.50400001928E-02 0. -1.
    10030    2    1    2    0    0  0.00000000000E+00  0.00000000000E+00 -0.14421588395E+03  0.77941175455E+03  0.76595330272E+03 0.  0.
        2    1    3    3  502    0  0.50834064135E+02  0.44083212559E+02  0.31153608526E+03  0.31871956974E+03  0.25500000920E-02 0.  1.
       -2    1    3    3    0  502 -0.50834064135E+02 -0.44083212559E+02 -0.45575196921E+03  0.46069218482E+03  0.25500000920E-02 0. -1.
</event>
<event>
 5   0  0.1471290E-02  0.8059868E+03  0.7818609E-02  0.9551392E-01
       -1   -1    0    0    0  501  0.00000000000E+00  0.00000000000E+00  0.11639780478E+03  0.11639780489E+03  0.50400001928E-02 0. -1.
        1   -1    0    0  501    0  0.00000000000E+00  0.00000000000E+00 -0.13952470816E+04  0.13952470816E+04  0.50400001928E-02 0.  1.
    10030    2    1    2    0    0  0.00000000000E+00  0.00000000000E+00 -0.12788492768E+04  0.15116448865E+04  0.80598684237E+03 0.  0.
        2    1    3    3  502    0  0.39563428322E+02 -0.23815245497E+03 -0.34233240951E+02  0.24383144068E+03  0.25500000920E-02 0. -1.
       -2    1    3    3    0  502 -0.39563428322E+02  0.23815245497E+03 -0.12446160358E+04  0.12678134458E+04  0.25500000920E-02 0.  1.
</event>
<event>
 5   0  0.1509629E-02  0.8059841E+03  0.7818609E-02  0.9551396E-01
        1   -1    0    0  501    0  0.00000000000E+00  0.00000000000E+00  0.76896034909E+03  0.76896034911E+03  0.50400001928E-02 0. -1.
       -1   -1    0    0    0  501  0.00000000000E+00  0.00000000000E+00 -0.21119760132E+03  0.21119760138E+03  0.50400001928E-02 0.  1.
    10030    2    1    2    0    0  0.00000000000E+00  0.00000000000E+00  0.55776274777E+03  0.98015795048E+03  0.80598407248E+03 0.  0.
        5    1    3    3  502    0  0.69699931822E+02  0.13179783854E+03 -0.17638843935E+03  0.23100589229E+03  0.46999998093E+01 0.  1.
       -5    1    3    3    0  502 -0.69699931822E+02 -0.13179783854E+03  0.73415118712E+03  0.74915205819E+03  0.46999998093E+01 0. -1.
</event>
<event>
 5   0  0.2571778E-02  0.7944280E+03  0.7818609E-02  0.9568118E-01
        2   -1    0    0  501    0  0.00000000000E+00  0.00000000000E+00  0.26165526825E+03  0.26165526826E+03  0.25500000920E-02 0. -1.
       -2   -1    0    0    0  501  0.00000000000E+00  0.00000000000E+00 -0.60300318907E+03  0.60300318908E+03  0.25500000920E-02 0.  1.
    10030    2    1    2    0    0  0.00000000000E+00  0.00000000000E+00 -0.34134792083E+03  0.86465845734E+03  0.79442799850E+03 0.  0.
        1    1    3    3  502    0 -0.39674342490E+03 -0.13020763585E+02 -0.18622235965E+03  0.43846739075E+03  0.50400001928E-02 0.  1.
       -1    1    3    3    0  502  0.39674342490E+03  0.13020763585E+02 -0.15512556117E+03  0.42619106659E+03  0.50400001928E-02 0. -1.
</event>
<event>
 5   0  0.1471290E-02  0.8082638E+03  0.7818609E-02  0.9548132E-01
       -1   -1    0    0    0  501  0.00000000000E+00  0.00000000000E+00  0.23344257485E+03  0.23344257490E+03  0.50400001928E-02 0. -1.
        1   -1    0    0  501    0  0.00000000000E+00  0.00000000000E+00 -0.69962639497E+03  0.69962639498E+03  0.50400001928E-02 0.  1.
    10030    2    1    2    0    0  0.00000000000E+00  0.00000000000E+00 -0.46618382012E+03  0.93306896989E+03  0.80826378641E+03 0.  0.
        2    1    3    3  502    0 -0.72928201784E+02  0.20728678196E+03  0.15844976301E+03  0.27091079712E+03  0.25500000920E-02 0. -1.
       -2    1    3    3    0  502  0.72928201784E+02 -0.20728678196E+03 -0.62463358313E+03  0.66215817277E+03  0.25500000920E-02 0.  1.
</event>
<event>
 5   0  0.2464780E-02  0.7839610E+03  0.7818609E-02  0.9583527E-01
       -2   -1    0    0    0  501  0.00000000000E+00  0.00000000000E+00  0.17826231432E+03  0.17826231433E+03  0.25500000920E-02 0. -1.
        2   -1    0    0  501    0  0.00000000000E+00  0.00000000000E+00 -0.86192492520E+03  0.86192492521E+03  0.25500000920E-02 0.  1.
    10030    2    1    2    0    0  0.00000000000E+00  0.00000000000E+00 -0.68366261089E+03  0.10401872395E+04  0.78396104991E+03 0.  0.
        3    1    3    3  502    0 -0.37717873857E+03 -0.46989255504E+02 -0.46893722121E+03  0.60363392764E+03  0.10100000352E+00 0.  1.
       -3    1    3    3    0  502  0.37717873857E+03  0.46989255504E+02 -0.21472538968E+03  0.43655331190E+03  0.10100000352E+00 0. -1.
</event>
<event>
 5   0  0.1498375E-02  0.8023698E+03  0.7818609E-02  0.9556593E-01
        1   -1    0    0  501    0  0.00000000000E+00  0.00000000000E+00  0.83753006868E+03  0.83753006870E+03  0.50400001928E-02 0.  1.
       -1   -1    0    0    0  501  0.00000000000E+00  0.00000000000E+00 -0.19217138226E+03  0.19217138233E+03  0.50400001928E-02 0. -1.
    10030    2    1    2    0    0  0.00000000000E+00  0.00000000000E+00  0.64535868642E+03  0.10297014510E+04  0.80236976769E+03 0.  0.
        4    1    3    3  502    0 -0.78279995322E+02  0.30573831255E+03  0.64052984480E+03  0.71406145983E+03  0.12699999809E+01 0.  1.
       -4    1    3    3    0  502  0.78279995322E+02 -0.30573831255E+03  0.48288416199E+01  0.31563999120E+03  0.12699999809E+01 0. -1.
</event>
<event>
 5   0  0.2571778E-02  0.8001581E+03  0.7818609E-02  0.9559788E-01
        2   -1    0    0  501    0  0.00000000000E+00  0.00000000000E+00  0.47935129746E+03  0.47935129746E+03  0.25500000920E-02 0. -1.
       -2   -1    0    0    0  501  0.00000000000E+00  0.00000000000E+00 -0.33391639710E+03  0.33391639711E+03  0.25500000920E-02 0.  1.
    10030    2    1    2    0    0  0.00000000000E+00  0.00000000000E+00  0.14543490036E+03  0.81326769457E+03  0.80015812987E+03 0.  0.
        1    1    3    3  502    0  0.17901018127E+03  0.35666061516E+03  0.10167669564E+03  0.41181256643E+03  0.50400001928E-02 0. -1.
       -1    1    3    3    0  502 -0.17901018127E+03 -0.35666061516E+03  0.43758204712E+02  0.40145512814E+03  0.50400001928E-02 0.  1.
</event>
<event>
 5   0  0.1523811E-02  0.7988785E+03  0.7818609E-02  0.9561642E-01
       -1   -1    0    0    0  501  0.00000000000E+00  0.00000000000E+00  0.13691323958E+03  0.13691323967E+03  0.50400001928E-02 0. -1.
        1   -1    0    0  501    0  0.00000000000E+00  0.00000000000E+00 -0.11653491460E+04  0.11653491460E+04  0.50400001928E-02 0.  1.
    10030    2    1    2    0    0  0.00000000000E+00  0.00000000000E+00 -0.10284359064E+04  0.13022623857E+04  0.79887853117E+03 0.  0.
        1    1    3    3  502    0  0.42485539584E+02 -0.36952005891E+03 -0.27686076365E+03  0.46368305715E+03  0.50400001928E-02 0. -1.
       -1    1    3    3    0  502 -0.42485539584E+02  0.36952005891E+03 -0.75157514277E+03  0.83857932855E+03  0.50400001928E-02 0.  1.
</event>
<event>
 5   0  0.2422031E-02  0.7944117E+03  0.7818609E-02  0.9568141E-01
       -2   -1    0    0    0  501  0.00000000000E+00  0.00000000000E+00  0.28747136957E+03  0.28747136958E+03  0.25500000920E-02 0. -1.
        2   -1    0    0  501    0  0.00000000000E+00  0.00000000000E+00 -0.54882856171E+03  0.54882856172E+03  0.25500000920E-02 0.  1.
    10030    2    1    2    0    0  0.00000000000E+00  0.00000000000E+00 -0.26135719214E+03  0.83629993130E+03  0.79441172777E+03 0.  0.
        4    1    3    3  502    0  0.86527799299E+02 -0.38598936440E+03 -0.16857735027E+03  0.42999393647E+03  0.12699999809E+01 0.  1.
       -4    1    3    3    0  502 -0.86527799299E+02  0.38598936440E+03 -0.92779841871E+02  0.40630599483E+03  0.12699999809E+01 0. -1.
</event>
<event>
 5   0  0.9919125E-03  0.8155477E+03  0.7818609E-02  0.9537781E-01
       -3   -1    0    0    0  501  0.00000000000E+00  0.00000000000E+00  0.52338450906E+03  0.52338451880E+03  0.10100000352E+00 0.  1.
        3   -1    0    0  501    0  0.00000000000E+00  0.00000000000E+00 -0.31770043532E+03  0.31770045137E+03  0.10100000352E+00 0. -1.
    10030    2    1    2    0    0  0.00000000000E+00  0.00000000000E+00  0.20568407374E+03  0.84108497018E+03  0.81554766192E+03 0.  0.
        4    1    3    3  502    0  0.23536749259E+03 -0.29930036629E+03  0.25335481753E+03  0.45734980299E+03  0.12699999809E+01 0.  1.
       -4    1    3    3    0  502 -0.23536749259E+03  0.29930036629E+03 -0.47670743790E+02  0.38373516719E+03  0.12699999809E+01 0. -1.
</event>
<event>
 5   0  0.2422031E-02  0.7717864E+03  0.7818609E-02  0.9601778E-01
       -2   -1    0    0    0  501  0.00000000000E+00  0.00000000000E+00  0.21729515488E+03  0.21729515489E+03  0.25500000920E-02 0.  1.
        2   -1    0    0  501    0  0.00000000000E+00  0.00000000000E+00 -0.68530543999E+03  0.68530543999E+03  0.25500000920E-02 0. -1.
    10030    2    1    2    0    0  0.00000000000E+00  0.00000000000E+00 -0.46801028511E+03  0.90260059489E+03  0.77178637389E+03 0.  0.
        4    1    3    3  502    0  0.12349610848E+03 -0.16930885630E+03  0.14494593911E+03  0.25480917526E+03  0.12699999809E+01 0.  1.
       -4    1    3    3    0  502 -0.12349610848E+03  0.16930885630E+03 -0.61295622422E+03  0.64779141963E+03  0.12699999809E+01 0. -1.
</event>
<event>
 5   0  0.2454354E-02  0.7894508E+03  0.7818609E-02  0.9575413E-01
        2   -1    0    0  501    0  0.00000000000E+00  0.00000000000E+00  0.27656929330E+03  0.27656929331E+03  0.25500000920E-02 0.  1.
       -2   -1    0    0    0  501  0.00000000000E+00  0.00000000000E+00 -0.56336027726E+03  0.56336027727E+03  0.25500000920E-02 0. -1.
    10030    2    1    2    0    0  0.00000000000E+00  0.00000000000E+00 -0.28679098397E+03  0.83992957058E+03  0.78945083130E+03 0.  0.
        5    1    3    3  502    0  0.32553505236E+03 -0.14963775868E+03 -0.31957835494E+03  0.48012180130E+03  0.46999998093E+01 0. -1.
       -5    1    3    3    0  502 -0.32553505236E+03  0.14963775868E+03  0.32787370974E+02  0.35980776928E+03  0.46999998093E+01 0.  1.
</event>
<event>
 5   0  0.2460312E-02  0.7852561E+03  0.7818609E-02  0.9581607E-01
        2   -1    0    0  501    0  0.00000000000E+00  0.00000000000E+00  0.13062844954E+04  0.13062844954E+04  0.25500000920E-02 0.  1.
       -2   -1    0    0    0  501  0.00000000000E+00  0.00000000000E+00 -0.11801163784E+03  0.11801163787E+03  0.25500000920E-02 0. -1.
    10030    2    1    2    0    0  0.00000000000E+00  0.00000000000E+00  0.11882728576E+04  0.14242961333E+04  0.78525606732E+03 0.  0.
        2    1    3    3  502    0  0.16152822912E+03 -0.19996361632E+03  0.55832512444E+02  0.26304768789E+03  0.25500000920E-02 0. -1.
       -2    1    3    3    0  502 -0.16152822912E+03  0.19996361632E+03  0.11324403451E+04  0.11612484454E+04  0.25500000920E-02 0.  1.
</event>
<event>
 5   0  0.2464780E-02  0.8208337E+03  0.7818609E-02  0.9530341E-01
       -2   -1    0    0    0  501  0.00000000000E+00  0.00000000000E+00  0.10598814275E+03  0.10598814278E+03  0.25500000920E-02 0. -1.
        2   -1    0    0  501    0  0.00000000000E+00  0.00000000000E+00 -0.15892530294E+04  0.15892530294E+04  0.25500000920E-02 0.  1.
    10030    2    1    2    0    0  0.00000000000E+00  0.00000000000E+00 -0.14832648866E+04  0.16952411722E+04  0.82083366640E+03 0.  0.
        3    1    3    3  502    0  0.30552717471E+03 -0.25835620369E+03 -0.93032133440E+03  0.10127154477E+04  0.10100000352E+00 0.  1.
       -3    1    3    3    0  502 -0.30552717471E+03  0.25835620369E+03 -0.55294355223E+03  0.68252572451E+03  0.10100000352E+00 0. -1.
</event>
<event>
 5   0  0.2464780E-02  0.8018894E+03  0.7818609E-02  0.9557286E-01
       -2   -1    0    0    0  501  0.00000000000E+00  0.00000000000E+00  0.16433970946E+03  0.16433970948E+03  0.25500000920E-02 0. -1.
        2   -1    0    0  501    0  0.00000000000E+00  0.00000000000E+00 -0.97819727131E+03  0.97819727131E+03  0.25500000920E-02 0.  1.
    10030    2    1    2    0    0  0.00000000000E+00  0.00000000000E+00 -0.81385756185E+03  0.11425369808E+04  0.80188940726E+03 0.  0.
        3    1    3    3  502    0 -0.36368891139E+03  0.15554679927E+03 -0.31358261607E+03  0.50477569111E+03  0.10100000352E+00 0. -1.
       -3    1    3    3    0  502  0.36368891139E+03 -0.15554679927E+03 -0.50027494578E+03  0.63776128968E+03  0.10100000352E+00 0.  1.
</event>
<event>
 5   0  0.2460312E-02  0.7495314E+03  0.7818609E-02  0.9636086E-01
       -2   -1    0    0    0  501  0.00000000000E+00  0.00000000000E+00  0.86679119610E+02  0.86679119648E+02  0.25500000920E-02 0.  1.
        2   -1    0    0  501    0  0.00000000000E+00  0.00000000000E+00 -0.16203364967E+04  0.16203364967E+04  0.25500000920E-02 0. -1.
    10030    2    1    2    0    0  0.00000000000E+00  0.00000000000E+00 -0.15336573771E+04  0.17070156163E+04  0.74953142972E+03 0.  0.
        2    1    3    3  502    0 -0.25945906004E+03  0.75310397513E+02 -0.17531258976E+03  0.32206391283E+03  0.25500000920E-02 0.  1.
       -2    1    3    3    0  502  0.25945906004E+03 -0.75310397513E+02 -0.13583447873E+04  0.13849517035E+04  0.25500000920E-02 0. -1.
</event>
<event>
 5   0  0.9919125E-03  0.7458486E+03  0.7818609E-02  0.9641886E-01
       -3   -1    0    0    0  501  0.00000000000E+00  0.00000000000E+00  0.94135064279E+03  0.94135064821E+03  0.10100000352E+00 0. -1.
        3   -1    0    0  501    0  0.00000000000E+00  0.00000000000E+00 -0.14773721471E+03  0.14773724924E+03  0.10100000352E+00 0.  1.
    10030    2    1    2    0    0  0.00000000000E+00  0.00000000000E+00  0.79361342808E+03  0.10890878974E+04  0.74584862750E+03 0.  0.
        2    1    3    3  502    0 -0.16238931469E+03  0.86446446702E+02  0.87048176208E+03  0.88970881517E+03  0.25500000920E-02 0. -1.
       -2    1    3    3    0  502  0.16238931469E+03 -0.86446446702E+02 -0.76868333998E+02  0.19937908228E+03  0.25500000920E-02 0.  1.
</event>
<event>
 5   0  0.2454354E-02  0.7957732E+03  0.7818609E-02  0.9566155E-01
        2   -1    0    0  501    0  0.00000000000E+00  0.00000000000E+00  0.24314574625E+04  0.24314574625E+04  0.25500000920E-02 0.  1.
       -2   -1    0    0    0  501  0.00000000000E+00  0.00000000000E+00 -0.65110632614E+02  0.65110632664E+02  0.25500000920E-02 0. -1.
    10030    2    1    2    0    0  0.00000000000E+00  0.00000000000E+00  0.23663468299E+04  0.24965680952E+04  0.79577316774E+03 0.  0.
        5    1    3    3  502    0  0.35220995145E+03  0.53278339809E+02  0.17391126587E+04  0.17752254395E+04  0.46999998093E+01 0.  1.
       -5    1    3    3    0  502 -0.35220995145E+03 -0.53278339809E+02  0.62723417123E+03  0.72134265571E+03  0.46999998093E+01 0. -1.
</event>
<event>
 5   0  0.2464780E-02  0.7980993E+03  0.7818609E-02  0.9562772E-01
       -2   -1    0    0    0  501  0.00000000000E+00  0.00000000000E+00  0.16505110766E+03  0.16505110768E+03  0.25500000920E-02 0. -1.
        2   -1    0    0  501    0  0.00000000000E+00  0.00000000000E+00 -0.96479591375E+03  0.96479591375E+03  0.25500000920E-02 0.  1.
    10030    2    1    2    0    0  0.00000000000E+00  0.00000000000E+00 -0.79974480609E+03  0.11298470214E+04  0.79809932776E+03 0.  0.
        3    1    3    3  502    0  0.32174093430E+03  0.19615076840E+03 -0.58579641718E+03  0.69652695952E+03  0.10100000352E+00 0. -1.
       -3    1    3    3    0  502 -0.32174093430E+03 -0.19615076840E+03 -0.21394838890E+03  0.43332006192E+03  0.10100000352E+00 0.  1.
</event>
<event>
 5   0  0.1498375E-02  0.7943910E+03  0.7818609E-02  0.9568172E-01
       -1   -1    0    0    0  501  0.00000000000E+00  0.00000000000E+00  0.12634125029E+03  0.12634125039E+03  0.50400001928E-02 0.  1.
        1   -1    0    0  501    0  0.00000000000E+00  0.00000000000E+00 -0.12487154487E+04  0.12487154487E+04  0.50400001928E-02 0. -1.
    10030    2    1    2    0    0  0.00000000000E+00  0.00000000000E+00 -0.11223741984E+04  0.13750566991E+04  0.79439101487E+03 0.  0.
        4    1    3    3  502    0 -0.28960602650E+03 -0.10298485107E+03 -0.12573828260E+03  0.33209826670E+03  0.12699999809E+01 0.  1.
       -4    1    3    3    0  502  0.28960602650E+03  0.10298485107E+03 -0.99663591585E+03  0.10429584324E+04  0.12699999809E+01 0. -1.
</event>
<event>
 5   0  0.2571778E-02  0.7456075E+03  0.7818609E-02  0.9642267E-01
       -2   -1    0    0    0  501  0.00000000000E+00  0.00000000000E+00  0.18849520851E+03  0.18849520852E+03  0.25500000920E-02 0.  1.
        2   -1    0    0  501    0  0.00000000000E+00  0.00000000000E+00 -0.73732714493E+03  0.73732714493E+03  0.25500000920E-02 0. -1.
    10030    2    1    2    0    0  0.00000000000E+00  0.00000000000E+00 -0.54883193642E+03  0.92582235346E+03  0.74560749441E+03 0.  0.
        1    1    3    3  502    0 -0.10877845547E+03  0.34626152891E+03 -0.38016375829E+03  0.52559897443E+03  0.50400001928E-02 0. -1.
       -1    1    3    3    0  502  0.10877845547E+03 -0.34626152891E+03 -0.16866817814E+03  0.40022337903E+03  0.50400001928E-02 0.  1.
</event>
<event>
 5   0  0.2460312E-02  0.7929942E+03  0.7818609E-02  0.9570213E-01
       -2   -1    0    0    0  501  0.00000000000E+00  0.00000000000E+00  0.14881265863E+03  0.14881265865E+03  0.25500000920E-02 0. -1.
        2   -1    0    0  501    0  0.00000000000E+00  0.00000000000E+00 -0.10564287065E+04  0.10564287065E+04  0.25500000920E-02 0.  1.
    10030    2    1    2    0    0  0.00000000000E+00  0.00000000000E+00 -0.90761604785E+03  0.12052413651E+04  0.79299423574E+03 0.  0.
        2    1    3    3  502    0  0.68432374154E+02  0.14038824768E+02  0.13938571277E+03  0.15591169092E+03  0.25500000920E-02 0. -1.
       -2    1    3    3    0  502 -0.68432374154E+02 -0.14038824768E+02 -0.10470017606E+04  0.10493296742E+04  0.25500000920E-02 0.  1.
</event>
<event>
 5   0  0.1471290E-02  0.8285423E+03  0.7818609E-02  0.9519598E-01
       -1   -1    0    0    0  501  0.00000000000E+00  0.00000000000E+00  0.43976807705E+03  0.43976807708E+03  0.50400001928E-02 0.  1.
        1   -1    0    0  501    0  0.00000000000E+00  0.00000000000E+00 -0.39025249627E+03  0.39025249630E+03  0.50400001928E-02 0. -1.
    10030    2    1    2    0    0  0.00000000000E+00  0.00000000000E+00  0.49515580788E+02  0.83002057338E+03  0.82854231002E+03 0.  0.
        2    1    3    3  502    0 -0.29448466294E+03 -0.11843477304E+03 -0.24193623142E+03  0.39910042878E+03  0.25500000920E-02 0. -1.
       -2    1    3    3    0  502  0.29448466294E+03  0.11843477304E+03  0.29145181221E+03  0.43092014460E+03  0.25500000920E-02 0.  1.
</event>
<event>
 5   0  0.2454354E-02  0.7595475E+03  0.7818609E-02  0.9620490E-01
       -2   -1    0    0    0  501  0.00000000000E+00  0.00000000000E+00  0.90707517785E+02  0.90707517821E+02  0.25500000920E-02 0.  1.
        2   -1    0    0  501    0  0.00000000000E+00  0.00000000000E+00 -0.15900347519E+04  0.15900347519E+04  0.25500000920E-02 0. -1.
    10030    2    1    2    0    0  0.00000000000E+00  0.00000000000E+00 -0.14993272341E+04  0.16807422697E+04  0.75954751154E+03 0.  0.
        5    1    3    3  502    0  0.16314915169E+03 -0.58452216767E+02 -0.14973602532E+04  0.15073633023E+04  0.46999998093E+01 0. -1.
       -5    1    3    3    0  502 -0.16314915169E+03  0.58452216767E+02 -0.19669809752E+01  0.17337896746E+03  0.46999998093E+01 0.  1.
</event>
<event>
 5   0  0.1624094E-02  0.8121864E+03  0.7818609E-02  0.9542543E-01
        1   -1    0    0  501    0  0.00000000000E+00  0.00000000000E+00  0.33165582946E+03  0.33165582950E+03  0.50400001928E-02 0.  1.
       -1   -1    0    0    0  501  0.00000000000E+00  0.00000000000E+00 -0.49723742617E+03  0.49723742620E+03  0.50400001928E-02 0. -1.
    10030    2    1    2    0    0  0.00000000000E+00  0.00000000000E+00 -0.16558159671E+03  0.82889325570E+03  0.81218640974E+03 0.  0.
        3    1    3    3  502    0  0.36386335445E+03  0.17445849662E+03 -0.36252650265E+02  0.40515006184E+03  0.10100000352E+00 0.  1.
       -3    1    3    3    0  502 -0.36386335445E+03 -0.17445849662E+03 -0.12932894644E+03  0.42374319386E+03  0.10100000352E+00 0. -1.
</event>
<event>
 5   0  0.1624094E-02  0.8193703E+03  0.7818609E-02  0.9532395E-01
        1   -1    0    0  501    0  0.00000000000E+00  0.00000000000E+00  0.28007665404E+03  0.28007665408E+03  0.50400001928E-02 0.  1.
       -1   -1    0    0    0  501  0.00000000000E+00  0.00000000000E+00 -0.59927142609E+03  0.59927142612E+03  0.50400001928E-02 0. -1.
    10030    2    1    2    0    0  0.00000000000E+00  0.00000000000E+00 -0.31919477206E+03  0.87934808020E+03  0.81937033363E+03 0.  0.
        3    1    3    3  502    0  0.39292945732E+03  0.39149122664E+02 -0.42447840041E+02  0.39714989810E+03  0.10100000352E+00 0. -1.
       -3    1    3    3    0  502 -0.39292945732E+03 -0.39149122664E+02 -0.27674693202E+03  0.48219818210E+03  0.10100000352E+00 0.  1.
</event>
<event>
 5   0  0.1471290E-02  0.7999562E+03  0.7818609E-02  0.9560080E-01
        1   -1    0    0  501    0  0.00000000000E+00  0.00000000000E+00  0.16697604498E+04  0.16697604498E+04  0.50400001928E-02 0. -1.
       -1   -1    0    0    0  501  0.00000000000E+00  0.00000000000E+00 -0.95811640417E+02  0.95811640550E+02  0.50400001928E-02 0.  1.
    10030    2    1    2    0    0  0.00000000000E+00  0.00000000000E+00  0.15739488094E+04  0.17655720904E+04  0.79995621862E+03 0.  0.
        2    1    3    3  502    0 -0.69866055608E+02 -0.32643855359E+03  0.12732305067E+04  0.13162671910E+04  0.25500000920E-02 0. -1.
       -2    1    3    3    0  502  0.69866055608E+02  0.32643855359E+03  0.30071830274E+03  0.44930489938E+03  0.25500000920E-02 0.  1.
</event>
<event>
 5   0  0.2422031E-02  0.7846465E+03  0.7818609E-02  0.9582510E-01
       -2   -1    0    0    0  501  0.00000000000E+00  0.00000000000E+00  0.62693603294E+03  0.62693603294E+03  0.25500000920E-02 0.  1.
        2   -1    0    0  501    0  0.00000000000E+00  0.00000000000E+00 -0.24550757421E+03  0.24550757423E+03  0.25500000920E-02 0. -1.
    10030    2    1    2    0    0  0.00000000000E+00  0.00000000000E+00  0.38142845873E+03  0.87244360717E+03  0.78464653097E+03 0.  0.
        4    1    3    3  502    0  0.34709942781E+03  0.11139921811E+03  0.35195084174E+03  0.50671373228E+03  0.12699999809E+01 0.  1.
       -4    1    3    3    0  502 -0.34709942781E+03 -0.11139921811E+03  0.29477616985E+02  0.36572987489E+03  0.12699999809E+01 0. -1.
</event>
<event>
 5   0  0.2460312E-02  0.8030795E+03  0.7818609E-02  0.9555570E-01
       -2   -1    0    0    0  501  0.00000000000E+00  0.00000000000E+00  0.11629021887E+03  0.11629021890E+03  0.25500000920E-02 0.  1.
        2   -1    0    0  501    0  0.00000000000E+00  0.00000000000E+00 -0.13864808905E+04  0.13864808905E+04  0.25500000920E-02 0. -1.
    10030    2    1    2    0    0  0.00000000000E+00  0.00000000000E+00 -0.12701906716E+04  0.15027711094E+04  0.80307948855E+03 0.  0.
        2    1    3    3  502    0 -0.27551027366E+03 -0.70501091680E+02 -0.11655502310E+04  0.11997431624E+04  0.25500000920E-02 0. -1.
       -2    1    3    3    0  502  0.27551027366E+03  0.70501091680E+02 -0.10464044064E+03  0.30302794697E+03  0.25500000920E-02 0.  1.
</event>
<event>
 5   0  0.2422031E-02  0.8006705E+03  0.7818609E-02  0.9559047E-01
        2   -1    0    0  501    0  0.00000000000E+00  0.00000000000E+00  0.15727137186E+04  0.15727137186E+04  0.25500000920E-02 0. -1.
       -2   -1    0    0    0  501  0.00000000000E+00  0.00000000000E+00 -0.10190557558E+03  0.10190557561E+03  0.25500000920E-02 0.  1.
    10030    2    1    2    0    0  0.00000000000E+00  0.00000000000E+00  0.14708081431E+04  0.16746192943E+04  0.80067046092E+03 0.  0.
        4    1    3    3  502    0 -0.17685663225E+03 -0.15342352134E+02  0.14858873316E+04  0.14964546205E+04  0.12699999809E+01 0. -1.
       -4    1    3    3    0  502  0.17685663225E+03  0.15342352134E+02 -0.15079188546E+02  0.17816467373E+03  0.12699999809E+01 0.  1.
</event>
<event>
 5   0  0.2571778E-02  0.8076508E+03  0.7818609E-02  0.9549008E-01
        2   -1    0    0  501    0  0.00000000000E+00  0.00000000000E+00  0.28039898362E+03  0.28039898363E+03  0.25500000920E-02 0. -1.
       -2   -1    0    0    0  501  0.00000000000E+00  0.00000000000E+00 -0.58158180397E+03  0.58158180398E+03  0.25500000920E-02 0.  1.
    10030    2    1    2    0    0  0.00000000000E+00  0.00000000000E+00 -0.30118282035E+03  0.86198078761E+03  0.80765078278E+03 0.  0.
        1    1    3    3  502    0  0.23824280454E+03  0.17799153120E+03 -0.44216170773E+03  0.53286733330E+03  0.50400001928E-02 0.  1.
       -1    1    3    3    0  502 -0.23824280454E+03 -0.17799153120E+03  0.14097888737E+03  0.32911345431E+03  0.50400001928E-02 0. -1.
</event>
<event>
 5   0  0.2464780E-02  0.7687137E+03  0.7818609E-02  0.9606440E-01
        2   -1    0    0  501    0  0.00000000000E+00  0.00000000000E+00  0.67528096163E+03  0.67528096164E+03  0.25500000920E-02 0. -1.
       -2   -1    0    0    0  501  0.00000000000E+00  0.00000000000E+00 -0.21876848571E+03  0.21876848572E+03  0.25500000920E-02 0.  1.
    10030    2    1    2    0    0  0.00000000000E+00  0.00000000000E+00  0.45651247592E+03  0.89404944736E+03  0.76871371371E+03 0.  0.
        3    1    3    3  502    0 -0.20649508552E+03  0.26254402826E+03  0.70921031845E+01  0.33409563788E+03  0.10100000352E+00 0.  1.
       -3    1    3    3    0  502  0.20649508552E+03 -0.26254402826E+03  0.44942037274E+03  0.55995380948E+03  0.10100000352E+00 0. -1.
</event>
<event>
 5   0  0.1523811E-02  0.7758823E+03  0.7818609E-02  0.9595598E-01
       -1   -1    0    0    0  501  0.00000000000E+00  0.00000000000E+00  0.18977624849E+03  0.18977624856E+03  0.50400001928E-02 0.  1.
        1   -1    0    0  501    0  0.00000000000E+00  0.00000000000E+00 -0.79303042892E+03  0.79303042894E+03  0.50400001928E-02 0. -1.
    10030    2    1    2    0    0  0.00000000000E+00  0.00000000000E+00 -0.60325418043E+03  0.98280667750E+03  0.77588231010E+03 0.  0.
        1    1    3    3  502    0 -0.47336862279E+02  0.90393839436E+02  0.17247341054E+03  0.20039686152E+03  0.50400001928E-02 0.  1.
       -1    1    3    3    0  502  0.47336862279E+02 -0.90393839436E+02 -0.77572759096E+03  0.78240981598E+03  0.50400001928E-02 0. -1.
</event>
<event>
 5   0  0.2460312E-02  0.7948831E+03  0.7818609E-02  0.9567453E-01
        2   -1    0    0  501    0  0.00000000000E+00  0.00000000000E+00  0.11125673575E+04  0.11125673575E+04  0.25500000920E-02 0.  1.
       -2   -1    0    0    0  501  0.00000000000E+00  0.00000000000E+00 -0.14197771844E+03  0.14197771846E+03  0.25500000920E-02 0. -1.
    10030    2    1    2    0    0  0.00000000000E+00  0.00000000000E+00  0.97058963903E+03  0.12545450759E+04  0.79488307325E+03 0.  0.
        2    1    3    3  502    0  0.45937559377E+02 -0.13480332551E+03  0.10709131089E+04  0.10803411881E+04  0.25500000920E-02 0.  1.
       -2    1    3    3    0  502 -0.45937559377E+02  0.13480332551E+03 -0.10032346984E+03  0.17420388784E+03  0.25500000920E-02 0. -1.
</event>
<event>
 5   0  0.1471290E-02  0.8051228E+03  0.7818609E-02  0.9552632E-01
       -1   -1    0    0    0  501  0.00000000000E+00  0.00000000000E+00  0.21664285735E+03  0.21664285741E+03  0.50400001928E-02 0. -1.
        1   -1    0    0  501    0  0.00000000000E+00  0.00000000000E+00 -0.74803143141E+03  0.74803143143E+03  0.50400001928E-02 0.  1.
    10030    2    1    2    0    0  0.00000000000E+00  0.00000000000E+00 -0.53138857407E+03  0.96467428884E+03  0.80512276511E+03 0.  0.
        2    1    3    3  502    0 -0.31215094862E+02 -0.23903126454E+03  0.12060250999E+03  0.26954645796E+03  0.25500000920E-02 0. -1.
       -2    1    3    3    0  502  0.31215094862E+02  0.23903126454E+03 -0.65199108405E+03  0.69512783088E+03  0.25500000920E-02 0.  1.
</event>
<event>
 5   0  0.2460312E-02  0.8182446E+03  0.7818609E-02  0.9533978E-01
       -2   -1    0    0    0  501  0.00000000000E+00  0.00000000000E+00  0.38210002591E+03  0.38210002591E+03  0.25500000920E-02 0.  1.
        2   -1    0    0  501    0  0.00000000000E+00  0.00000000000E+00 -0.43805556381E+03  0.43805556382E+03  0.25500000920E-02 0. -1.
    10030    2    1    2    0    0  0.00000000000E+00  0.00000000000E+00 -0.55955537908E+02  0.82015558974E+03  0.81824456561E+03 0.  0.
        2    1    3    3  502    0  0.23027587371E+03 -0.11918720298E+03 -0.34517931077E+03  0.43171903358E+03  0.25500000920E-02 0. -1.
       -2    1    3    3    0  502 -0.23027587371E+03  0.11918720298E+03  0.28922377286E+03  0.38843655616E+03  0.25500000920E-02 0.  1.
</event>
<event>
 5   0  0.2422031E-02  0.8139712E+03  0.7818609E-02  0.9540012E-01
       -2   -1    0    0    0  501  0.00000000000E+00  0.00000000000E+00  0.39728005785E+03  0.39728005786E+03  0.25500000920E-02 0. -1.
        2   -1    0    0  501    0  0.00000000000E+00  0.00000000000E+00 -0.41692822664E+03  0.41692822665E+03  0.25500000920E-02 0.  1.
    10030    2    1    2    0    0  0.00000000000E+00  0.00000000000E+00 -0.19648168793E+02  0.81420828451E+03  0.81397117887E+03 0.  0.
        4    1    3    3  502    0  0.30429830240E+03  0.26881346998E+03  0.18068058964E+02  0.40643105952E+03  0.12699999809E+01 0. -1.
       -4    1    3    3    0  502 -0.30429830240E+03 -0.26881346998E+03 -0.37716227757E+02  0.40777722499E+03  0.12699999809E+01 0.  1.
</event>
<event>
 5   0  0.1498375E-02  0.7685923E+03  0.7818609E-02  0.9606625E-01
        1   -1    0    0  501    0  0.00000000000E+00  0.00000000000E+00  0.26538899747E+03  0.26538899752E+03  0.50400001928E-02 0.  1.
       -1   -1    0    0    0  501  0.00000000000E+00  0.00000000000E+00 -0.55647953821E+03  0.55647953823E+03  0.50400001928E-02 0. -1.
    10030    2    1    2    0    0  0.00000000000E+00  0.00000000000E+00 -0.29109054074E+03  0.82186853575E+03  0.76859234132E+03 0.  0.
        4    1    3    3  502    0 -0.14166582143E+03 -0.34094053889E+01 -0.52751902108E+03  0.54622226201E+03  0.12699999809E+01 0. -1.
       -4    1    3    3    0  502  0.14166582143E+03  0.34094053889E+01  0.23642848035E+03  0.27564627374E+03  0.12699999809E+01 0.  1.
</event>
<event>
 5   0  0.1624094E-02  0.8149753E+03  0.7818609E-02  0.9538590E-01
        1   -1    0    0  501    0  0.00000000000E+00  0.00000000000E+00  0.26340315094E+03  0.26340315099E+03  0.50400001928E-02 0.  1.
       -1   -1    0    0    0  501  0.00000000000E+00  0.00000000000E+00 -0.63038803139E+03  0.63038803141E+03  0.50400001928E-02 0. -1.
    10030    2    1    2    0    0  0.00000000000E+00  0.00000000000E+00 -0.36698488045E+03  0.89379118239E+03  0.81497532186E+03 0.  0.
        3    1    3    3  502    0 -0.15631855008E+03  0.18140654140E+03 -0.54507801539E+03  0.59536029044E+03  0.10100000352E+00 0. -1.
       -3    1    3    3    0  502  0.15631855008E+03 -0.18140654140E+03  0.17809313494E+03  0.29843089196E+03  0.10100000352E+00 0.  1.
</event>
<event>
 5   0  0.2464780E-02  0.7956365E+03  0.7818609E-02  0.9566355E-01
       -2   -1    0    0    0  501  0.00000000000E+00  0.00000000000E+00  0.18388824068E+03  0.18388824070E+03  0.25500000920E-02 0.  1.
        2   -1    0    0  501    0  0.00000000000E+00  0.00000000000E+00 -0.86062792929E+03  0.86062792929E+03  0.25500000920E-02 0. -1.
    10030    2    1    2    0    0  0.00000000000E+00  0.00000000000E+00 -0.67673968861E+03  0.10445161700E+04  0.79563648939E+03 0.  0.
        3    1    3    3  502    0  0.68523613829E+02  0.16351840730E+03  0.12915416818E+03  0.21935032377E+03  0.10100000352E+00 0.  1.
       -3    1    3    3    0  502 -0.68523613829E+02 -0.16351840730E+03 -0.80589385679E+03  0.82516584623E+03  0.10100000352E+00 0. -1.
</event>
<event>
 5   0  0.1509629E-02  0.7958755E+03  0.7818609E-02  0.9566006E-01
       -1   -1    0    0    0  501  0.00000000000E+00  0.00000000000E+00  0.35853979838E+03  0.35853979841E+03  0.50400001928E-02 0.  1.
        1   -1    0    0  501    0  0.00000000000E+00  0.00000000000E+00 -0.44166489237E+03  0.44166489240E+03  0.50400001928E-02 0. -1.
    10030    2    1    2    0    0  0.00000000000E+00  0.00000000000E+00 -0.83125093999E+02  0.80020469081E+03  0.79587547138E+03 0.  0.
        5    1    3    3  502    0  0.36944641949E+03 -0.13971778329E+03  0.68724695459E+01  0.39507092613E+03  0.46999998093E+01 0.  1.
       -5    1    3    3    0  502 -0.36944641949E+03  0.13971778329E+03 -0.89997563544E+02  0.40513376468E+03  0.46999998093E+01 0. -1.
</event>
<event>
 5   0  0.1498375E-02  0.8003609E+03  0.7818609E-02  0.9559495E-01
       -1   -1    0    0    0  501  0.00000000000E+00  0.00000000000E+00  0.15952273830E+03  0.15952273838E+03  0.50400001928E-02 0. -1.
        1   -1    0    0  501    0  0.00000000000E+00  0.00000000000E+00 -0.10038968904E+04  0.10038968904E+04  0.50400001928E-02 0.  1.
    10030    2    1    2    0    0  0.00000000000E+00  0.00000000000E+00 -0.84437415206E+03  0.11634196287E+04  0.80036087104E+03 0.  0.
        4    1    3    3  502    0  0.28046891600E+03 -0.54935238062E+02 -0.15012706321E+02  0.28619519122E+03  0.12699999809E+01 0. -1.
       -4    1    3    3    0  502 -0.28046891600E+03  0.54935238062E+02 -0.82936144573E+03  0.87722443753E+03  0.12699999809E+01 0.  1.
</event>
<event>
 5   0  0.2422031E-02  0.7902000E+03  0.7818609E-02  0.9574312E-01
        2   -1    0    0  501    0  0.00000000000E+00  0.00000000000E+00  0.13285320342E+04  0.13285320342E+04  0.25500000920E-02 0.  1.
       -2   -1    0    0    0  501  0.00000000000E+00  0.00000000000E+00 -0.11750112273E+03  0.11750112276E+03  0.25500000920E-02 0. -1.
    10030    2    1    2    0    0  0.00000000000E+00  0.00000000000E+00  0.12110309115E+04  0.14460331570E+04  0.79019998892E+03 0.  0.
        4    1    3    3  502    0  0.29446846683E+03  0.56133380621E+02  0.13453747679E+03  0.32857964017E+03  0.12699999809E+01 0. -1.
       -4    1    3    3    0  502 -0.29446846683E+03 -0.56133380621E+02  0.10764934347E+04  0.11174535168E+04  0.12699999809E+01 0.  1.
</event>
<event>
 5   0  0.2571778E-02  0.7434646E+03  0.7818609E-02  0.9645660E-01
        2   -1    0    0  501    0  0.00000000000E+00  0.00000000000E+00  0.28943715323E+03  0.28943715325E+03  0.25500000920E-02 0. -1.
       -2   -1    0    0    0  501  0.00000000000E+00  0.00000000000E+00 -0.47742622894E+03  0.47742622895E+03  0.25500000920E-02 0.  1.
    10030    2    1    2    0    0  0.00000000000E+00  0.00000000000E+00 -0.18798907571E+03  0.76686338220E+03  0.74346456161E+03 0.  0.
        1    1    3    3  502    0  0.13237976983E+03 -0.33122906627E+03  0.13930192645E+02  0.35697499646E+03  0.50400001928E-02 0.  1.
       -1    1    3    3    0  502 -0.13237976983E+03  0.33122906627E+03 -0.20191926835E+03  0.40988838574E+03  0.50400001928E-02 0. -1.
</event>
<event>
 5   0  0.1471290E-02  0.7856297E+03  0.7818609E-02  0.9581054E-01
       -1   -1    0    0    0  501  0.00000000000E+00  0.00000000000E+00  0.96178015405E+03  0.96178015406E+03  0.50400001928E-02 0. -1.
        1   -1    0    0  501    0  0.00000000000E+00  0.00000000000E+00 -0.16043530203E+03  0.16043530211E+03  0.50400001928E-02 0.  1.
    10030    2    1    2    0    0  0.00000000000E+00  0.00000000000E+00  0.80134485202E+03  0.11222154562E+04  0.78562965716E+03 0.  0.
        2    1    3    3  502    0  0.36656378644E+03 -0.13593667183E+03  0.45517217559E+03  0.60002458092E+03  0.25500000920E-02 0. -1.
       -2    1    3    3    0  502 -0.36656378644E+03  0.13593667183E+03  0.34617267643E+03  0.52219087525E+03  0.25500000920E-02 0.  1.
</event>
<event>
 5   0  0.2460312E-02  0.8145053E+03  0.7818609E-02  0.9539255E-01
        2   -1    0    0  501    0  0.00000000000E+00  0.00000000000E+00  0.51058148380E+03  0.51058148381E+03  0.25500000920E-02 0.  1.
       -2   -1    0    0    0  501  0.00000000000E+00  0.00000000000E+00 -0.32483495563E+03  0.32483495564E+03  0.25500000920E-02 0. -1.
    10030    2    1    2    0    0  0.00000000000E+00  0.00000000000E+00  0.18574652817E+03  0.83541643944E+03  0.81450528210E+03 0.  0.
        2    1    3    3  502    0  0.28138748925E+03 -0.29102805242E+03  0.47251345781E+02  0.40756464038E+03  0.25500000920E-02 0. -1.
       -2    1    3    3    0  502 -0.28138748925E+03  0.29102805242E+03  0.13849518239E+03  0.42785179906E+03  0.25500000920E-02 0.  1.
</event>
<event>
 5   0  0.9919125E-03  0.8035197E+03  0.7818609E-02  0.9554936E-01
       -3   -1    0    0    0  501  0.00000000000E+00  0.00000000000E+00  0.14745730779E+04  0.14745730813E+04  0.10100000352E+00 0.  1.
        3   -1    0    0  501    0  0.00000000000E+00  0.00000000000E+00 -0.10946283001E+03  0.10946287660E+03  0.10100000352E+00 0. -1.
    10030    2    1    2    0    0  0.00000000000E+00  0.00000000000E+00  0.13651102479E+04  0.15840359579E+04  0.80351971177E+03 0.  0.
        3    1    3    3  502    0  0.14635665193E+03 -0.27518932573E+03  0.11822950580E+04  0.12226900871E+04  0.10100000352E+00 0.  1.
       -3    1    3    3    0  502 -0.14635665193E+03  0.27518932573E+03  0.18281518986E+03  0.36134587089E+03  0.10100000352E+00 0. -1.
</event>
<event>
 5   0  0.2571778E-02  0.7995375E+03  0.7818609E-02  0.9560687E-01
       -2   -1    0    0    0  501  0.00000000000E+00  0.00000000000E+00  0.46205479691E+03  0.46205479691E+03  0.25500000920E-02 0. -1.
        2   -1    0    0  501    0  0.00000000000E+00  0.00000000000E+00 -0.34587897640E+03  0.34587897641E+03  0.25500000920E-02 0.  1.
    10030    2    1    2    0    0  0.00000000000E+00  0.00000000000E+00  0.11617582051E+03  0.80793377332E+03  0.79953746679E+03 0.  0.
        1    1    3    3  502    0  0.19394904599E+03 -0.33110716862E+03 -0.55191288733E+02  0.38767804675E+03  0.50400001928E-02 0. -1.
       -1    1    3    3    0  502 -0.19394904599E+03  0.33110716862E+03  0.17136710924E+03  0.42025572657E+03  0.50400001928E-02 0.  1.
</event>
<event>
 5   0  0.2464780E-02  0.8004242E+03  0.7818609E-02  0.9559403E-01
       -2   -1    0    0    0  501  0.00000000000E+00  0.00000000000E+00  0.13452495700E+03  0.13452495702E+03  0.25500000920E-02 0. -1.
        2   -1    0    0  501    0  0.00000000000E+00  0.00000000000E+00 -0.11906320324E+04  0.11906320324E+04  0.25500000920E-02 0.  1.
    10030    2    1    2    0    0  0.00000000000E+00  0.00000000000E+00 -0.10561070754E+04  0.13251569894E+04  0.80042419498E+03 0.  0.
        3    1    3    3  502    0  0.29066939117E+03  0.27510169986E+03 -0.52849945428E+03  0.66293387574E+03  0.10100000352E+00 0.  1.
       -3    1    3    3    0  502 -0.29066939117E+03 -0.27510169986E+03 -0.52760762110E+03  0.66222311366E+03  0.10100000352E+00 0. -1.
</event>
<event>
 5   0  0.2460312E-02  0.8319777E+03  0.7818609E-02  0.9514850E-01
        2   -1    0    0  501    0  0.00000000000E+00  0.00000000000E+00  0.29728378190E+03  0.29728378191E+03  0.25500000920E-02 0. -1.
       -2   -1    0    0    0  501  0.00000000000E+00  0.00000000000E+00 -0.58209272020E+03  0.58209272021E+03  0.25500000920E-02 0.  1.
    10030    2    1    2    0    0  0.00000000000E+00  0.00000000000E+00 -0.28480893830E+03  0.87937650212E+03  0.83197770472E+03 0.  0.
        2    1    3    3  502    0 -0.34262005923E+03  0.22992181538E+03 -0.19827596369E+03  0.45778368686E+03  0.25500000920E-02 0. -1.
       -2    1    3    3    0  502  0.34262005923E+03 -0.22992181538E+03 -0.86532974607E+02  0.42159281526E+03  0.25500000920E-02 0.  1.
</event>
<event>
 5   0  0.1509629E-02  0.8018571E+03  0.7818609E-02  0.9557333E-01
        1   -1    0    0  501    0  0.00000000000E+00  0.00000000000E+00  0.40750095374E+03  0.40750095377E+03  0.50400001928E-02 0. -1.
       -1   -1    0    0    0  501  0.00000000000E+00  0.00000000000E+00 -0.39446218808E+03  0.39446218812E+03  0.50400001928E-02 0.  1.
    10030    2    1    2    0    0  0.00000000000E+00  0.00000000000E+00  0.13038765656E+02  0.80196314189E+03  0.80185713911E+03 0.  0.
        5    1    3    3  502    0 -0.12415420063E+03 -0.33258153038E+03  0.19281501409E+03  0.40401046960E+03  0.46999998093E+01 0. -1.
       -5    1    3    3    0  502  0.12415420063E+03  0.33258153038E+03 -0.17977624844E+03  0.39795267229E+03  0.46999998093E+01 0.  1.
</event>
<event>
 5   0  0.2422031E-02  0.8132207E+03  0.7818609E-02  0.9541075E-01
       -2   -1    0    0    0  501  0.00000000000E+00  0.00000000000E+00  0.10007063888E+03  0.10007063891E+03  0.25500000920E-02 0.  1.
        2   -1    0    0  501    0  0.00000000000E+00  0.00000000000E+00 -0.16521526236E+04  0.16521526236E+04  0.25500000920E-02 0. -1.
    10030    2    1    2    0    0  0.00000000000E+00  0.00000000000E+00 -0.15520819847E+04  0.17522232625E+04  0.81322068000E+03 0.  0.
        4    1    3    3  502    0  0.40476622554E+02  0.44956979401E+02 -0.16423980419E+04  0.16435122233E+04  0.12699999809E+01 0. -1.
       -4    1    3    3    0  502 -0.40476622554E+02 -0.44956979401E+02  0.90316057194E+02  0.10871103926E+03  0.12699999809E+01 0.  1.
</event>
<event>
 5   0  0.1624094E-02  0.7994896E+03  0.7818609E-02  0.9560756E-01
        1   -1    0    0  501    0  0.00000000000E+00  0.00000000000E+00  0.78254964717E+03  0.78254964718E+03  0.50400001928E-02 0. -1.
       -1   -1    0    0    0  501  0.00000000000E+00  0.00000000000E+00 -0.20419907739E+03  0.20419907746E+03  0.50400001928E-02 0.  1.
    10030    2    1    2    0    0  0.00000000000E+00  0.00000000000E+00  0.57835056977E+03  0.98674872464E+03  0.79948962721E+03 0.  0.
        3    1    3    3  502    0 -0.26548141884E+03 -0.29843518619E+03  0.30876648337E+03  0.50485710410E+03  0.10100000352E+00 0. -1.
       -3    1    3    3    0  502  0.26548141884E+03  0.29843518619E+03  0.26958408640E+03  0.48189162054E+03  0.10100000352E+00 0.  1.
</event>
<event>
 5   0  0.1523811E-02  0.8045951E+03  0.7818609E-02  0.9553390E-01
       -1   -1    0    0    0  501  0.00000000000E+00  0.00000000000E+00  0.61445666973E+03  0.61445666975E+03  0.50400001928E-02 0. -1.
        1   -1    0    0  501    0  0.00000000000E+00  0.00000000000E+00 -0.26339257737E+03  0.26339257742E+03  0.50400001928E-02 0.  1.
    10030    2    1    2    0    0  0.00000000000E+00  0.00000000000E+00  0.35106409236E+03  0.87784924717E+03  0.80459511794E+03 0.  0.
        1    1    3    3  502    0 -0.36227361952E+03  0.40202071739E+02 -0.10217935859E+02  0.36464062886E+03  0.50400001928E-02 0.  1.
       -1    1    3    3    0  502  0.36227361952E+03 -0.40202071739E+02  0.36128202821E+03  0.51320861831E+03  0.50400001928E-02 0. -1.
</event>
<event>
 5   0  0.2464780E-02  0.7931039E+03  0.7818609E-02  0.9570053E-01
        2   -1    0    0  501    0  0.00000000000E+00  0.00000000000E+00  0.26092284422E+03  0.26092284424E+03  0.25500000920E-02 0.  1.
       -2   -1    0    0    0  501  0.00000000000E+00  0.00000000000E+00 -0.60268173070E+03  0.60268173071E+03  0.25500000920E-02 0. -1.
    10030    2    1    2    0    0  0.00000000000E+00  0.00000000000E+00 -0.34175888648E+03  0.86360457494E+03  0.79310385535E+03 0.  0.
        3    1    3    3  502    0 -0.52062589654E+02 -0.35902239951E+03  0.34991648472E+01  0.36279450237E+03  0.10100000352E+00 0.  1.
       -3    1    3    3    0  502  0.52062589654E+02  0.35902239951E+03 -0.34525805132E+03  0.50081007258E+03  0.10100000352E+00 0. -1.
</event>
<event>
 5   0  0.1509629E-02  0.7980726E+03  0.7818609E-02  0.9562811E-01
        1   -1    0    0  501    0  0.00000000000E+00  0.00000000000E+00  0.19192462813E+03  0.19192462820E+03  0.50400001928E-02 0.  1.
       -1   -1    0    0    0  501  0.00000000000E+00  0.00000000000E+00 -0.82964850621E+03  0.82964850623E+03  0.50400001928E-02 0. -1.
    10030    2    1    2    0    0  0.00000000000E+00  0.00000000000E+00 -0.63772387808E+03  0.10215731344E+04  0.79807263097E+03 0.  0.
        5    1    3    3  502    0 -0.94532045518E+02 -0.38623832434E+03 -0.27657103934E+03  0.48438618955E+03  0.46999998093E+01 0. -1.
       -5    1    3    3    0  502  0.94532045518E+02  0.38623832434E+03 -0.36115283874E+03  0.53718694488E+03  0.46999998093E+01 0.  1.
</event>
<event>
 5   0  0.1624094E-02  0.8084838E+03  0.7818609E-02  0.9547818E-01
        1   -1    0    0  501    0  0.00000000000E+00  0.00000000000E+00  0.14595855656E+03  0.14595855665E+03  0.50400001928E-02 0. -1.
       -1   -1    0    0    0  501  0.00000000000E+00  0.00000000000E+00 -0.11195748504E+04  0.11195748505E+04  0.50400001928E-02 0.  1.
    10030    2    1    2    0    0  0.00000000000E+00  0.00000000000E+00 -0.97361629388E+03  0.12655334071E+04  0.80848383830E+03 0.  0.
        3    1    3    3  502    0  0.11245893746E+03  0.34966433712E+02  0.11850994287E+03  0.16707567405E+03  0.10100000352E+00 0. -1.
       -3    1    3    3    0  502 -0.11245893746E+03 -0.34966433712E+02 -0.10921262367E+04  0.10984577330E+04  0.10100000352E+00 0.  1.
</event>
<event>
 5   0  0.1498375E-02  0.8053172E+03  0.7818609E-02  0.9552352E-01
       -1   -1    0    0    0  501  0.00000000000E+00  0.00000000000E+00  0.22869354319E+03  0.22869354325E+03  0.50400001928E-02 0. -1.
        1   -1    0    0  501    0  0.00000000000E+00  0.00000000000E+00 -0.70895727739E+03  0.70895727741E+03  0.50400001928E-02 0.  1.
    10030    2    1    2    0    0  0.00000000000E+00  0.00000000000E+00 -0.48026373420E+03  0.93765082066E+03  0.80531720899E+03 0.  0.
        4    1    3    3  502    0  0.13067155320E+03  0.19704411415E+02 -0.68298725058E+03  0.69565545782E+03  0.12699999809E+01 0.  1.
       -4    1    3    3    0  502 -0.13067155320E+03 -0.19704411415E+02  0.20272351637E+03  0.24199536284E+03  0.12699999809E+01 0. -1.
</event>
<event>
 5   0  0.1509629E-02  0.7988945E+03  0.7818609E-02  0.9561619E-01
       -1   -1    0    0    0  501  0.00000000000E+00  0.00000000000E+00  0.47469826023E+03  0.47469826026E+03  0.50400001928E-02 0. -1.
        1   -1    0    0  501    0  0.00000000000E+00  0.00000000000E+00 -0.33612535852E+03  0.33612535856E+03  0.50400001928E-02 0.  1.
    10030    2    1    2    0    0  0.00000000000E+00  0.00000000000E+00  0.13857290171E+03  0.81082361882E+03  0.79889454357E+03 0.  0.
        5    1    3    3  502    0 -0.22918538221E+03 -0.22327643374E+03 -0.17336026262E+03  0.36394254483E+03  0.46999998093E+01 0.  1.
       -5    1    3    3    0  502  0.22918538221E+03  0.22327643374E+03  0.31193316433E+03  0.44688107399E+03  0.46999998093E+01 0. -1.
</event>
<event>
 5   0  0.1498375E-02  0.7894312E+03  0.7818609E-02  0.9575442E-01
        1   -1    0    0  501    0  0.00000000000E+00  0.00000000000E+00  0.23143852050E+04  0.23143852050E+04  0.50400001928E-02 0.  1.
       -1   -1    0    0    0  501  0.00000000000E+00  0.00000000000E+00 -0.67318270609E+02  0.67318270798E+02  0.50400001928E-02 0. -1.
    10030    2    1    2    0    0  0.00000000000E+00  0.00000000000E+00  0.22470669344E+04  0.23817034758E+04  0.78943121234E+03 0.  0.
        4    1    3    3  502    0  0.40505243104E+02  0.24723696940E+03  0.20437490494E+04  0.20590479799E+04  0.12699999809E+01 0.  1.
       -4    1    3    3    0  502 -0.40505243104E+02 -0.24723696940E+03  0.20331788493E+03  0.32265549583E+03  0.12699999809E+01 0. -1.
</event>
<event>
 5   0  0.2464780E-02  0.7983381E+03  0.7818609E-02  0.9562426E-01
        2   -1    0    0  501    0  0.00000000000E+00  0.00000000000E+00  0.48597496006E+03  0.48597496006E+03  0.25500000920E-02 0.  1.
       -2   -1    0    0    0  501  0.00000000000E+00  0.00000000000E+00 -0.32786856386E+03  0.32786856387E+03  0.25500000920E-02 0. -1.
    10030    2    1    2    0    0  0.00000000000E+00  0.00000000000E+00  0.15810639620E+03  0.81384352393E+03  0.79833805429E+03 0.  0.
        3    1    3    3  502    0 -0.75154031744E+02  0.12634542417E+03  0.45737367822E+03  0.48041855338E+03  0.10100000352E+00 0.  1.
       -3    1    3    3    0  502  0.75154031744E+02 -0.12634542417E+03 -0.29926728202E+03  0.33342497055E+03  0.10100000352E+00 0. -1.
</event>
<event>
 5   0  0.1498375E-02  0.8057398E+03  0.7818609E-02  0.9551746E-01
        1   -1    0    0  501    0  0.00000000000E+00  0.00000000000E+00  0.43337712116E+03  0.43337712119E+03  0.50400001928E-02 0. -1.
       -1   -1    0    0    0  501  0.00000000000E+00  0.00000000000E+00 -0.37451016606E+03  0.37451016609E+03  0.50400001928E-02 0.  1.
    10030    2    1    2    0    0  0.00000000000E+00  0.00000000000E+00  0.58866955097E+02  0.80788728728E+03  0.80573975361E+03 0.  0.
        4    1    3    3  502    0 -0.31563456250E+03 -0.25031888980E+03  0.25203097184E+02  0.40363539568E+03  0.12699999809E+01 0.  1.
       -4    1    3    3    0  502  0.31563456250E+03  0.25031888980E+03  0.33663857913E+02  0.40425189160E+03  0.12699999809E+01 0. -1.
</event>
<event>
 5   0  0.2464780E-02  0.8024776E+03  0.7818609E-02  0.9556438E-01
        2   -1    0    0  501    0  0.00000000000E+00  0.00000000000E+00  0.24696323165E+04  0.24696323165E+04  0.25500000920E-02 0. -1.
       -2   -1    0    0    0  501  0.00000000000E+00  0.00000000000E+00 -0.65188883220E+02  0.65188883270E+02  0.25500000920E-02 0.  1.
    10030    2    1    2    0    0  0.00000000000E+00  0.00000000000E+00  0.24044434332E+04  0.25348211997E+04  0.80247759530E+03 0.  0.
        3    1    3    3  502    0 -0.27815319927E+01 -0.23812235521E+03  0.18217449665E+03  0.29982920205E+03  0.10100000352E+00 0.  1.
       -3    1    3    3    0  502  0.27815319927E+01  0.23812235521E+03  0.22222689366E+04  0.22349919977E+04  0.10100000352E+00 0. -1.
</event>
<event>
 5   0  0.2422031E-02  0.7949737E+03  0.7818609E-02  0.9567321E-01
       -2   -1    0    0    0  501  0.00000000000E+00  0.00000000000E+00  0.14497696071E+03  0.14497696073E+03  0.25500000920E-02 0. -1.
        2   -1    0    0  501    0  0.00000000000E+00  0.00000000000E+00 -0.10897994032E+04  0.10897994032E+04  0.25500000920E-02 0.  1.
    10030    2    1    2    0    0  0.00000000000E+00  0.00000000000E+00 -0.94482244253E+03  0.12347763640E+04  0.79497372354E+03 0.  0.
        4    1    3    3  502    0 -0.60230007648E+02  0.14420500057E+03 -0.10400765429E+04  0.10517526154E+04  0.12699999809E+01 0.  1.
       -4    1    3    3    0  502  0.60230007648E+02 -0.14420500057E+03  0.95254100360E+02  0.18302374858E+03  0.12699999809E+01 0. -1.
</event>
<event>
 5   0  0.1498375E-02  0.7919829E+03  0.7818609E-02  0.9571695E-01
        1   -1    0    0  501    0  0.00000000000E+00  0.00000000000E+00  0.51695287806E+03  0.51695287809E+03  0.50400001928E-02 0. -1.
       -1   -1    0    0    0  501  0.00000000000E+00  0.00000000000E+00 -0.30333371469E+03  0.30333371473E+03  0.50400001928E-02 0.  1.
    10030    2    1    2    0    0  0.00000000000E+00  0.00000000000E+00  0.21361916337E+03  0.82028659282E+03  0.79198292115E+03 0.  0.
        4    1    3    3  502    0  0.68455861668E+01 -0.46311222857E+02 -0.30045539086E+03  0.30408328827E+03  0.12699999809E+01 0.  1.
       -4    1    3    3    0  502 -0.68455861668E+01  0.46311222857E+02  0.51407455423E+03  0.51620330454E+03  0.12699999809E+01 0. -1.
</event>
<event>
 5   0  0.1523811E-02  0.8096614E+03  0.7818609E-02  0.9546137E-01
       -1   -1    0    0    0  501  0.00000000000E+00  0.00000000000E+00  0.56284887612E+03  0.56284887614E+03  0.50400001928E-02 0.  1.
        1   -1    0    0  501    0  0.00000000000E+00  0.00000000000E+00 -0.29117565673E+03  0.29117565677E+03  0.50400001928E-02 0. -1.
    10030    2    1    2    0    0  0.00000000000E+00  0.00000000000E+00  0.27167321939E+03  0.85402453291E+03  0.80966138890E+03 0.  0.
        1    1    3    3  502    0 -0.49405727028E+02  0.34960059588E+03 -0.73071875876E+02  0.36055651648E+03  0.50400001928E-02 0. -1.
       -1    1    3    3    0  502  0.49405727028E+02 -0.34960059588E+03  0.34474509527E+03  0.49346801643E+03  0.50400001928E-02 0.  1.
</event>
<event>
 5   0  0.2460312E-02  0.7956780E+03  0.7818609E-02  0.9566294E-01
       -2   -1    0    0    0  501  0.00000000000E+00  0.00000000000E+00  0.44010790760E+03  0.44010790760E+03  0.25500000920E-02 0. -1.
        2   -1    0    0  501    0  0.00000000000E+00  0.00000000000E+00 -0.35962965000E+03  0.35962965001E+03  0.25500000920E-02 0.  1.
    10030    2    1    2    0    0  0.00000000000E+00  0.00000000000E+00  0.80478257596E+02  0.79973755761E+03  0.79567795691E+03 0.  0.
        2    1    3    3  502    0 -0.19314217740E+03 -0.25758740460E+03 -0.19466395641E+03  0.37623028538E+03  0.25500000920E-02 0.  1.
       -2    1    3    3    0  502  0.19314217740E+03  0.25758740460E+03  0.27514221401E+03  0.42350727224E+03  0.25500000920E-02 0. -1.
</event>
<event>
 5   0  0.2464780E-02  0.7899053E+03  0.7818609E-02  0.9574745E-01
        2   -1    0    0  501    0  0.00000000000E+00  0.00000000000E+00  0.91737152755E+03  0.91737152756E+03  0.25500000920E-02 0. -1.
       -2   -1    0    0    0  501  0.00000000000E+00  0.00000000000E+00 -0.17003751944E+03  0.17003751946E+03  0.25500000920E-02 0.  1.
    10030    2    1    2    0    0  0.00000000000E+00  0.00000000000E+00  0.74733400811E+03  0.10874090470E+04  0.78990525752E+03 0.  0.
        3    1    3    3  502    0 -0.44446238814E+02 -0.38402886037E+03  0.48494398724E+03  0.62018087257E+03  0.10100000352E+00 0. -1.
       -3    1    3    3    0  502  0.44446238814E+02  0.38402886037E+03  0.26239002087E+03  0.46722817445E+03  0.10100000352E+00 0.  1.
</event>
<event>
 5   0  0.1498375E-02  0.8056735E+03  0.7818609E-02  0.9551841E-01
       -1   -1    0    0    0  501  0.00000000000E+00  0.00000000000E+00  0.17485068481E+03  0.17485068489E+03  0.50400001928E-02 0. -1.
        1   -1    0    0  501    0  0.00000000000E+00  0.00000000000E+00 -0.92809158437E+03  0.92809158438E+03  0.50400001928E-02 0.  1.
    10030    2    1    2    0    0  0.00000000000E+00  0.00000000000E+00 -0.75324089955E+03  0.11029422693E+04  0.80567350494E+03 0.  0.
        4    1    3    3  502    0 -0.19627137339E+03 -0.27964287040E+03 -0.84438502442E+02  0.35192905616E+03  0.12699999809E+01 0. -1.
       -4    1    3    3    0  502  0.19627137339E+03  0.27964287040E+03 -0.66880239711E+03  0.75101321310E+03  0.12699999809E+01 0.  1.
</event>
<event>
 5   0  0.1471290E-02  0.7670512E+03  0.7818609E-02  0.9608973E-01
        1   -1    0    0  501    0  0.00000000000E+00  0.00000000000E+00  0.36949305672E+03  0.36949305675E+03  0.50400001928E-02 0. -1.
       -1   -1    0    0    0  501  0.00000000000E+00  0.00000000000E+00 -0.39809101913E+03  0.39809101917E+03  0.50400001928E-02 0.  1.
    10030    2    1    2    0    0  0.00000000000E+00  0.00000000000E+00 -0.28597962417E+02  0.76758407592E+03  0.76705115224E+03 0.  0.
        2    1    3    3  502    0 -0.20498195007E+03 -0.95468378310E+02 -0.32428840517E+03  0.39534134724E+03  0.25500000920E-02 0.  1.
       -2    1    3    3    0  502  0.20498195007E+03  0.95468378310E+02  0.29569044275E+03  0.37224272867E+03  0.25500000920E-02 0. -1.
</event>
<event>
 5   0  0.1523811E-02  0.7980529E+03  0.7818609E-02  0.9562840E-01
       -1   -1    0    0    0  501  0.00000000000E+00  0.00000000000E+00  0.26588618756E+03  0.26588618761E+03  0.50400001928E-02 0.  1.
        1   -1    0    0  501    0  0.00000000000E+00  0.00000000000E+00 -0.59883555279E+03  0.59883555281E+03  0.50400001928E-02 0. -1.
    10030    2    1    2    0    0  0.00000000000E+00  0.00000000000E+00 -0.33294936523E+03  0.86472174042E+03  0.79805288581E+03 0.  0.
        1    1    3    3  502    0 -0.32377841617E+03 -0.16023964076E+03  0.17129770816E+02  0.36166646834E+03  0.50400001928E-02 0.  1.
       -1    1    3    3    0  502  0.32377841617E+03  0.16023964076E+03 -0.35007913604E+03  0.50305527208E+03  0.50400001928E-02 0. -1.
</event>
<event>
 5   0  0.2460312E-02  0.8056673E+03  0.7818609E-02  0.9551850E-01
       -2   -1    0    0    0  501  0.00000000000E+00  0.00000000000E+00  0.41522240635E+03  0.41522240636E+03  0.25500000920E-02 0.  1.
        2   -1    0    0  501    0  0.00000000000E+00  0.00000000000E+00 -0.39081452228E+03  0.39081452229E+03  0.25500000920E-02 0. -1.
    10030    2    1    2    0    0  0.00000000000E+00  0.00000000000E+00  0.24407884074E+02  0.80603692865E+03  0.80566729209E+03 0.  0.
        2    1    3    3  502    0 -0.59065735948E+02  0.16746860566E+03 -0.34954244029E+03  0.39206429653E+03  0.25500000920E-02 0. -1.
       -2    1    3    3    0  502  0.59065735948E+02 -0.16746860566E+03  0.37395032436E+03  0.41397263212E+03  0.25500000920E-02 0.  1.
</event>
<event>
 5   0  0.9919125E-03  0.7788863E+03  0.7818609E-02  0.9591091E-01
        3   -1    0    0  501    0  0.00000000000E+00  0.00000000000E+00  0.26493179465E+03  0.26493181390E+03  0.10100000352E+00 0. -1.
       -3   -1    0    0    0  501  0.00000000000E+00  0.00000000000E+00 -0.57247176064E+03  0.57247176955E+03  0.10100000352E+00 0.  1.
    10030    2    1    2    0    0  0.00000000000E+00  0.00000000000E+00 -0.30753996599E+03  0.83740358346E+03  0.77888634017E+03 0.  0.
        5    1    3    3  502    0  0.13102498685E+03 -0.34170550486E+03 -0.10678003892E+02  0.36615066434E+03  0.46999998093E+01 0. -1.
       -5    1    3    3    0  502 -0.13102498685E+03  0.34170550486E+03 -0.29686196210E+03  0.47125291911E+03  0.46999998093E+01 0.  1.
</event>
<event>
 5   0  0.1624094E-02  0.7970233E+03  0.7818609E-02  0.9564336E-01
       -1   -1    0    0    0  501  0.00000000000E+00  0.00000000000E+00  0.27441108605E+03  0.27441108610E+03  0.50400001928E-02 0.  1.
        1   -1    0    0  501    0  0.00000000000E+00  0.00000000000E+00 -0.57873591284E+03  0.57873591287E+03  0.50400001928E-02 0. -1.
    10030    2    1    2    0    0  0.00000000000E+00  0.00000000000E+00 -0.30432482679E+03  0.85314699896E+03  0.79702333820E+03 0.  0.
        3    1    3    3  502    0 -0.17873544588E+03 -0.31120932453E+03 -0.33760706470E+03  0.49272319169E+03  0.10100000352E+00 0. -1.
       -3    1    3    3    0  502  0.17873544588E+03  0.31120932453E+03  0.33282237906E+02  0.36042380728E+03  0.10100000352E+00 0.  1.
</event>
<event>
 5   0  0.1523811E-02  0.7535743E+03  0.7818609E-02  0.9629760E-01
        1   -1    0    0  501    0  0.00000000000E+00  0.00000000000E+00  0.99081832574E+03  0.99081832576E+03  0.50400001928E-02 0. -1.
       -1   -1    0    0    0  501  0.00000000000E+00  0.00000000000E+00 -0.14328412690E+03  0.14328412699E+03  0.50400001928E-02 0.  1.
    10030    2    1    2    0    0  0.00000000000E+00  0.00000000000E+00  0.84753419884E+03  0.11341024527E+04  0.75357425322E+03 0.  0.
        1    1    3    3  502    0 -0.48285360954E+02 -0.11916624792E+03 -0.10924632383E+03  0.16872116056E+03  0.50400001928E-02 0.  1.
       -1    1    3    3    0  502  0.48285360954E+02  0.11916624792E+03  0.95678052267E+03  0.96538129219E+03  0.50400001928E-02 0. -1.
</event>
<event>
 5   0  0.2464780E-02  0.8157141E+03  0.7818609E-02  0.9537546E-01
        2   -1    0    0  501    0  0.00000000000E+00  0.00000000000E+00  0.67508768570E+03  0.67508768571E+03  0.25500000920E-02 0. -1.
       -2   -1    0    0    0  501  0.00000000000E+00  0.00000000000E+00 -0.24640854763E+03  0.24640854765E+03  0.25500000920E-02 0.  1.
    10030    2    1    2    0    0  0.00000000000E+00  0.00000000000E+00  0.42867913807E+03  0.92149623335E+03  0.81571410719E+03 0.  0.
        3    1    3    3  502    0 -0.22997837476E+03  0.70702387425E+02  0.58637761876E+03  0.63381985014E+03  0.10100000352E+00 0. -1.
       -3    1    3    3    0  502  0.22997837476E+03 -0.70702387425E+02 -0.15769848069E+03  0.28767638322E+03  0.10100000352E+00 0.  1.
</event>
<event>
 5   0  0.2464780E-02  0.8101095E+03  0.7818609E-02  0.9545498E-01
        2   -1    0    0  501    0  0.00000000000E+00  0.00000000000E+00  0.12734983978E+04  0.12734983978E+04  0.25500000920E-02 0. -1.
       -2   -1    0    0    0  501  0.00000000000E+00  0.00000000000E+00 -0.12883358451E+03  0.12883358453E+03  0.25500000920E-02 0.  1.
    10030    2    1    2    0    0  0.00000000000E+00  0.00000000000E+00  0.11446648133E+04  0.14023319823E+04  0.81010953203E+03 0.  0.
        3    1    3    3  502    0  0.43154976992E+01 -0.34005979073E+03  0.95320080982E+03  0.10120529032E+04  0.10100000352E+00 0. -1.
       -3    1    3    3    0  502 -0.43154976992E+01  0.34005979073E+03  0.19146400344E+03  0.39027907913E+03  0.10100000352E+00 0.  1.
</event>
<event>
 5   0  0.1523811E-02  0.8006596E+03  0.7818609E-02  0.9559063E-01
       -1   -1    0    0    0  501  0.00000000000E+00  0.00000000000E+00  0.11971666646E+03  0.11971666657E+03  0.50400001928E-02 0.  1.
        1   -1    0    0  501    0  0.00000000000E+00  0.00000000000E+00 -0.13386937705E+04  0.13386937705E+04  0.50400001928E-02 0. -1.
    10030    2    1    2    0    0  0.00000000000E+00  0.00000000000E+00 -0.12189771041E+04  0.14584104371E+04  0.80065961732E+03 0.  0.
        1    1    3    3  502    0  0.41111045944E+02 -0.25924963742E+01  0.11584606255E+03  0.12295181727E+03  0.50400001928E-02 0.  1.
       -1    1    3    3    0  502 -0.41111045944E+02  0.25924963742E+01 -0.13348231666E+04  0.13354586198E+04  0.50400001928E-02 0. -1.
</event>
<event>
 5   0  0.2571778E-02  0.7737968E+03  0.7818609E-02  0.9598739E-01
        2   -1    0    0  501    0  0.00000000000E+00  0.00000000000E+00  0.47708445692E+03  0.47708445693E+03  0.25500000920E-02 0. -1.
       -2   -1    0    0    0  501  0.00000000000E+00  0.00000000000E+00 -0.31376071365E+03  0.31376071366E+03  0.25500000920E-02 0.  1.
    10030    2    1    2    0    0  0.00000000000E+00  0.00000000000E+00  0.16332374327E+03  0.79084517059E+03  0.77379676837E+03 0.  0.
        1    1    3    3  502    0  0.63896538662E+02  0.36476109230E+03  0.19618848602E+03  0.41907438980E+03  0.50400001928E-02 0. -1.
       -1    1    3    3    0  502 -0.63896538662E+02 -0.36476109230E+03 -0.32864742754E+02  0.37177078079E+03  0.50400001928E-02 0.  1.
</event>
<event>
 5   0  0.1471290E-02  0.7971140E+03  0.7818609E-02  0.9564204E-01
       -1   -1    0    0    0  501  0.00000000000E+00  0.00000000000E+00  0.11823731180E+03  0.11823731191E+03  0.50400001928E-02 0. -1.
        1   -1    0    0  501    0  0.00000000000E+00  0.00000000000E+00 -0.13434648991E+04  0.13434648991E+04  0.50400001928E-02 0.  1.
    10030    2    1    2    0    0  0.00000000000E+00  0.00000000000E+00 -0.12252275873E+04  0.14617022111E+04  0.79711399000E+03 0.  0.
        2    1    3    3  502    0 -0.16035417848E+03 -0.28582724928E+02  0.54418246022E+02  0.17173171002E+03  0.25500000920E-02 0. -1.
       -2    1    3    3    0  502  0.16035417848E+03  0.28582724928E+02 -0.12796458334E+04  0.12899705010E+04  0.25500000920E-02 0.  1.
</event>
<event>
 5   0  0.1523811E-02  0.7994206E+03  0.7818609E-02  0.9560856E-01
       -1   -1    0    0    0  501  0.00000000000E+00  0.00000000000E+00  0.21057241640E+03  0.21057241646E+03  0.50400001928E-02 0. -1.
        1   -1    0    0  501    0  0.00000000000E+00  0.00000000000E+00 -0.75873348074E+03  0.75873348076E+03  0.50400001928E-02 0.  1.
    10030    2    1    2    0    0  0.00000000000E+00  0.00000000000E+00 -0.54816106435E+03  0.96930589722E+03  0.79942064641E+03 0.  0.
        1    1    3    3  502    0 -0.27696255711E+03 -0.94113577357E+02  0.56209451927E+02  0.29786763166E+03  0.50400001928E-02 0. -1.
       -1    1    3    3    0  502  0.27696255711E+03  0.94113577357E+02 -0.60437051627E+03  0.67143826555E+03  0.50400001928E-02 0.  1.
</event>
<event>
 5   0  0.2454354E-02  0.7984268E+03  0.7818609E-02  0.9562297E-01
       -2   -1    0    0    0  501  0.00000000000E+00  0.00000000000E+00  0.24219377535E+03  0.24219377536E+03  0.25500000920E-02 0.  1.
        2   -1    0    0  501    0  0.00000000000E+00  0.00000000000E+00 -0.65803228916E+03  0.65803228917E+03  0.25500000920E-02 0. -1.
    10030    2    1    2    0    0  0.00000000000E+00  0.00000000000E+00 -0.41583851381E+03  0.90022606453E+03  0.79842676414E+03 0.  0.
        5    1    3    3  502    0  0.15289371234E+03 -0.33128716803E+03 -0.25342388047E+02  0.36577588986E+03  0.46999998093E+01 0.  1.
       -5    1    3    3    0  502 -0.15289371234E+03  0.33128716803E+03 -0.39049612576E+03  0.53445017467E+03  0.46999998093E+01 0. -1.
</event>
<event>
 5   0  0.2571778E-02  0.8041499E+03  0.7818609E-02  0.9554030E-01
       -2   -1    0    0    0  501  0.00000000000E+00  0.00000000000E+00  0.30526012413E+03  0.30526012414E+03  0.25500000920E-02 0. -1.
        2   -1    0    0  501    0  0.00000000000E+00  0.00000000000E+00 -0.52959510054E+03  0.52959510055E+03  0.25500000920E-02 0.  1.
    10030    2    1    2    0    0  0.00000000000E+00  0.00000000000E+00 -0.22433497641E+03  0.83485522469E+03  0.80414990179E+03 0.  0.
        1    1    3    3  502    0 -0.27299093838E+03  0.78821376223E+02 -0.40750727816E+03  0.49678873132E+03  0.50400001928E-02 0.  1.
       -1    1    3    3    0  502  0.27299093838E+03 -0.78821376223E+02  0.18317230175E+03  0.33806649337E+03  0.50400001928E-02 0. -1.
</event>
<event>
 5   0  0.1471290E-02  0.7930813E+03  0.7818609E-02  0.9570086E-01
        1   -1    0    0  501    0  0.00000000000E+00  0.00000000000E+00  0.13891068528E+04  0.13891068528E+04  0.50400001928E-02 0.  1.
       -1   -1    0    0    0  501  0.00000000000E+00  0.00000000000E+00 -0.11319825676E+03  0.11319825687E+03  0.50400001928E-02 0. -1.
    10030    2    1    2    0    0  0.00000000000E+00  0.00000000000E+00  0.12759085960E+04  0.15023051096E+04  0.79308126764E+03 0.  0.
        2    1    3    3  502    0  0.29948922437E+00 -0.14125930507E+03  0.13398300041E+04  0.13472559968E+04  0.25500000920E-02 0.  1.
       -2    1    3    3    0  502 -0.29948922437E+00  0.14125930507E+03 -0.63921408132E+02  0.15504911282E+03  0.25500000920E-02 0. -1.
</event>
<event>
 5   0  0.1471290E-02  0.8506414E+03  0.7818609E-02  0.9489476E-01
        1   -1    0    0  501    0  0.00000000000E+00  0.00000000000E+00  0.19027215988E+03  0.19027215994E+03  0.50400001928E-02 0. -1.
       -1   -1    0    0    0  501  0.00000000000E+00  0.00000000000E+00 -0.95073131469E+03  0.95073131471E+03  0.50400001928E-02 0.  1.
    10030    2    1    2    0    0  0.00000000000E+00  0.00000000000E+00 -0.76045915482E+03  0.11410034747E+04  0.85064140683E+03 0.  0.
        2    1    3    3  502    0 -0.41651377183E+03  0.15730687324E+01 -0.26475307435E+03  0.49353863785E+03  0.25500000920E-02 0.  1.
       -2    1    3    3    0  502  0.41651377183E+03 -0.15730687324E+01 -0.49570608047E+03  0.64746483680E+03  0.25500000920E-02 0. -1.
</event>
<event>
 5   0  0.2460312E-02  0.8037263E+03  0.7818609E-02  0.9554639E-01
       -2   -1    0    0    0  501  0.00000000000E+00  0.00000000000E+00  0.85732956012E+02  0.85732956050E+02  0.25500000920E-02 0. -1.
        2   -1    0    0  501    0  0.00000000000E+00  0.00000000000E+00 -0.18836864097E+04  0.18836864097E+04  0.25500000920E-02 0.  1.
    10030    2    1    2    0    0  0.00000000000E+00  0.00000000000E+00 -0.17979534537E+04  0.19694193657E+04  0.80372633188E+03 0.  0.
        2    1    3    3  502    0 -0.15254353512E+03 -0.17174345935E+03 -0.17069593511E+04  0.17223459502E+04  0.25500000920E-02 0.  1.
       -2    1    3    3    0  502  0.15254353512E+03  0.17174345935E+03 -0.90994102542E+02  0.24707341548E+03  0.25500000920E-02 0. -1.
</event>
<event>
 5   0  0.9919125E-03  0.8015764E+03  0.7818609E-02  0.9557738E-01
        3   -1    0    0  501    0  0.00000000000E+00  0.00000000000E+00  0.13632912018E+03  0.13632915759E+03  0.10100000352E+00 0. -1.
       -3   -1    0    0    0  501  0.00000000000E+00  0.00000000000E+00 -0.11782599988E+04  0.11782600032E+04  0.10100000352E+00 0.  1.
    10030    2    1    2    0    0  0.00000000000E+00  0.00000000000E+00 -0.10419308787E+04  0.13145891608E+04  0.80157638793E+03 0.  0.
        4    1    3    3  502    0  0.13752125695E+03 -0.32380127327E+03 -0.83587286003E+03  0.90688721003E+03  0.12699999809E+01 0.  1.
       -4    1    3    3    0  502 -0.13752125695E+03  0.32380127327E+03 -0.20605801862E+03  0.40770195073E+03  0.12699999809E+01 0. -1.
</event>
<event>
 5   0  0.1624094E-02  0.7973069E+03  0.7818609E-02  0.9563923E-01
        1   -1    0    0  501    0  0.00000000000E+00  0.00000000000E+00  0.22484493967E+04  0.22484493967E+04  0.50400001928E-02 0. -1.
       -1   -1    0    0    0  501  0.00000000000E+00  0.00000000000E+00 -0.70681862856E+02  0.70681863036E+02  0.50400001928E-02 0.  1.
    10030    2    1    2    0    0  0.00000000000E+00  0.00000000000E+00  0.21777675339E+04  0.23191312598E+04  0.79730694745E+03 0.  0.
        3    1    3    3  502    0  0.17939507612E+03  0.32269579066E+03  0.15262491908E+04  0.15702712407E+04  0.10100000352E+00 0.  1.
       -3    1    3    3    0  502 -0.17939507612E+03 -0.32269579066E+03  0.65151834304E+03  0.74886001907E+03  0.10100000352E+00 0. -1.
</event>
<event>
 5   0  0.2454354E-02  0.8001922E+03  0.7818609E-02  0.9559739E-01
        2   -1    0    0  501    0  0.00000000000E+00  0.00000000000E+00  0.98057746351E+03  0.98057746351E+03  0.25500000920E-02 0. -1.
       -2   -1    0    0    0  501  0.00000000000E+00  0.00000000000E+00 -0.16324756362E+03  0.16324756364E+03  0.25500000920E-02 0.  1.
    10030    2    1    2    0    0  0.00000000000E+00  0.00000000000E+00  0.81732989989E+03  0.11438250272E+04  0.80019218160E+03 0.  0.
        5    1    3    3  502    0  0.12386489445E+03  0.30581307500E+03  0.73208026614E+03  0.80301167799E+03  0.46999998093E+01 0. -1.
       -5    1    3    3    0  502 -0.12386489445E+03 -0.30581307500E+03  0.85249633745E+02  0.34081334917E+03  0.46999998093E+01 0.  1.
</event>
<event>
 5   0  0.1624094E-02  0.7930499E+03  0.7818609E-02  0.9570132E-01
        1   -1    0    0  501    0  0.00000000000E+00  0.00000000000E+00  0.11135540571E+04  0.11135540571E+04  0.50400001928E-02 0.  1.
       -1   -1    0    0    0  501  0.00000000000E+00  0.00000000000E+00 -0.14119838385E+03  0.14119838394E+03  0.50400001928E-02 0. -1.
    10030    2    1    2    0    0  0.00000000000E+00  0.00000000000E+00  0.97235567321E+03  0.12547524410E+04  0.79304989312E+03 0.  0.
        3    1    3    3  502    0  0.17388717879E+03  0.31715121840E+03  0.22905252163E+03  0.42811997635E+03  0.10100000352E+00 0.  1.
       -3    1    3    3    0  502 -0.17388717879E+03 -0.31715121840E+03  0.74330315158E+03  0.82663246466E+03  0.10100000352E+00 0. -1.
</event>
<event>
 5   0  0.2460312E-02  0.8018745E+03  0.7818609E-02  0.9557308E-01
        2   -1    0    0  501    0  0.00000000000E+00  0.00000000000E+00  0.24348623153E+03  0.24348623154E+03  0.25500000920E-02 0.  1.
       -2   -1    0    0    0  501  0.00000000000E+00  0.00000000000E+00 -0.66020435175E+03  0.66020435176E+03  0.25500000920E-02 0. -1.
    10030    2    1    2    0    0  0.00000000000E+00  0.00000000000E+00 -0.41671812022E+03  0.90369058330E+03  0.80187447810E+03 0.  0.
        2    1    3    3  502    0 -0.10748717764E+03  0.11865827271E+03 -0.62261523484E+03  0.64287091216E+03  0.25500000920E-02 0. -1.
       -2    1    3    3    0  502  0.10748717764E+03 -0.11865827271E+03  0.20589711462E+03  0.26081967114E+03  0.25500000920E-02 0.  1.
</event>
<event>
 5   0  0.2460312E-02  0.7812267E+03  0.7818609E-02  0.9587595E-01
       -2   -1    0    0    0  501  0.00000000000E+00  0.00000000000E+00  0.20409788722E+03  0.20409788724E+03  0.25500000920E-02 0. -1.
        2   -1    0    0  501    0  0.00000000000E+00  0.00000000000E+00 -0.74757645862E+03  0.74757645862E+03  0.25500000920E-02 0.  1.
    10030    2    1    2    0    0  0.00000000000E+00  0.00000000000E+00 -0.54347857139E+03  0.95167434586E+03  0.78122666557E+03 0.  0.
        2    1    3    3  502    0  0.33021561521E+03 -0.91667103354E+02 -0.43404322966E+02  0.34544050953E+03  0.25500000920E-02 0. -1.
       -2    1    3    3    0  502 -0.33021561521E+03  0.91667103354E+02 -0.50007424843E+03  0.60623383633E+03  0.25500000920E-02 0.  1.
</event>
<event>
 5   0  0.1523811E-02  0.8208978E+03  0.7818609E-02  0.9530251E-01
       -1   -1    0    0    0  501  0.00000000000E+00  0.00000000000E+00  0.23571927748E+03  0.23571927753E+03  0.50400001928E-02 0. -1.
        1   -1    0    0  501    0  0.00000000000E+00  0.00000000000E+00 -0.71469890405E+03  0.71469890407E+03  0.50400001928E-02 0.  1.
    10030    2    1    2    0    0  0.00000000000E+00  0.00000000000E+00 -0.47897962657E+03  0.95041818160E+03  0.82089782387E+03 0.  0.
        1    1    3    3  502    0  0.50786822039E+02 -0.38245556472E+03 -0.77331525861E+02  0.39348662646E+03  0.50400001928E-02 0. -1.
       -1    1    3    3    0  502 -0.50786822039E+02  0.38245556472E+03 -0.40164810071E+03  0.55693155514E+03  0.50400001928E-02 0.  1.
</event>
<event>
 5   0  0.2464780E-02  0.8121958E+03  0.7818609E-02  0.9542530E-01
        2   -1    0    0  501    0  0.00000000000E+00  0.00000000000E+00  0.74471288329E+03  0.74471288329E+03  0.25500000920E-02 0. -1.
       -2   -1    0    0    0  501  0.00000000000E+00  0.00000000000E+00 -0.22144841355E+03  0.22144841356E+03  0.25500000920E-02 0.  1.
    10030    2    1    2    0    0  0.00000000000E+00  0.00000000000E+00  0.52326446974E+03  0.96616129685E+03  0.81219575611E+03 0.  0.
        3    1    3    3  502    0  0.15554329313E+03 -0.36484957681E+03  0.36538094029E+03  0.53927003575E+03  0.10100000352E+00 0. -1.
       -3    1    3    3    0  502 -0.15554329313E+03  0.36484957681E+03  0.15788352945E+03  0.42689126110E+03  0.10100000352E+00 0.  1.
</event>
<event>
 5   0  0.2460312E-02  0.7980879E+03  0.7818609E-02  0.9562789E-01
       -2   -1    0    0    0  501  0.00000000000E+00  0.00000000000E+00  0.25926028690E+03  0.25926028691E+03  0.25500000920E-02 0.  1.
        2   -1    0    0  501    0  0.00000000000E+00  0.00000000000E+00 -0.61419387457E+03  0.61419387458E+03  0.25500000920E-02 0. -1.
    10030    2    1    2    0    0  0.00000000000E+00  0.00000000000E+00 -0.35493358767E+03  0.87345416149E+03  0.79808791531E+03 0.  0.
        2    1    3    3  502    0 -0.96671485731E+02  0.26924112533E+02 -0.60015877483E+03  0.60849062360E+03  0.25500000920E-02 0. -1.
       -2    1    3    3    0  502  0.96671485731E+02 -0.26924112533E+02  0.24522518716E+03  0.26496353789E+03  0.25500000920E-02 0.  1.
</event>
<event>
 5   0  0.1624094E-02  0.7971566E+03  0.7818609E-02  0.9564142E-01
        1   -1    0    0  501    0  0.00000000000E+00  0.00000000000E+00  0.63444388869E+03  0.63444388871E+03  0.50400001928E-02 0.  1.
       -1   -1    0    0    0  501  0.00000000000E+00  0.00000000000E+00 -0.25039986753E+03  0.25039986758E+03  0.50400001928E-02 0. -1.
    10030    2    1    2    0    0  0.00000000000E+00  0.00000000000E+00  0.38404402116E+03  0.88484375630E+03  0.79715661126E+03 0.  0.
        3    1    3    3  502    0 -0.13876128258E+02  0.34573374709E+02 -0.24846308262E+03  0.25124048002E+03  0.10100000352E+00 0. -1.
       -3    1    3    3    0  502  0.13876128258E+02 -0.34573374709E+02  0.63250710378E+03  0.63360327628E+03  0.10100000352E+00 0.  1.
</event>
<event>
 5   0  0.1624094E-02  0.7860154E+03  0.7818609E-02  0.9580483E-01
       -1   -1    0    0    0  501  0.00000000000E+00  0.00000000000E+00  0.13244450744E+03  0.13244450753E+03  0.50400001928E-02 0. -1.
        1   -1    0    0  501    0  0.00000000000E+00  0.00000000000E+00 -0.11661869521E+04  0.11661869521E+04  0.50400001928E-02 0.  1.
    10030    2    1    2    0    0  0.00000000000E+00  0.00000000000E+00 -0.10337424446E+04  0.12986314596E+04  0.78601541083E+03 0.  0.
        3    1    3    3  502    0 -0.12325032759E+03  0.37016031194E+03 -0.43857600621E+03  0.58699082038E+03  0.10100000352E+00 0. -1.
       -3    1    3    3    0  502  0.12325032759E+03 -0.37016031194E+03 -0.59516643842E+03  0.71164063923E+03  0.10100000352E+00 0.  1.
</event>
<event>
 5   0  0.1498375E-02  0.8030780E+03  0.7818609E-02  0.9555572E-01
        1   -1    0    0  501    0  0.00000000000E+00  0.00000000000E+00  0.37174010486E+03  0.37174010489E+03  0.50400001928E-02 0. -1.
       -1   -1    0    0    0  501  0.00000000000E+00  0.00000000000E+00 -0.43372660551E+03  0.43372660554E+03  0.50400001928E-02 0.  1.
    10030    2    1    2    0    0  0.00000000000E+00  0.00000000000E+00 -0.61986500657E+02  0.80546671044E+03  0.80307801324E+03 0.  0.
        4    1    3    3  502    0 -0.82352391535E+02 -0.22855801628E+03 -0.35164917506E+03  0.42741015245E+03  0.12699999809E+01 0.  1.
       -4    1    3    3    0  502  0.82352391535E+02  0.22855801628E+03  0.28966267440E+03  0.37805655799E+03  0.12699999809E+01 0. -1.
</event>
<event>
 5   0  0.2464780E-02  0.8052834E+03  0.7818609E-02  0.9552401E-01
       -2   -1    0    0    0  501  0.00000000000E+00  0.00000000000E+00  0.12884411738E+03  0.12884411741E+03  0.25500000920E-02 0.  1.
        2   -1    0    0  501    0  0.00000000000E+00  0.00000000000E+00 -0.12582671507E+04  0.12582671507E+04  0.25500000920E-02 0. -1.
    10030    2    1    2    0    0  0.00000000000E+00  0.00000000000E+00 -0.11294230333E+04  0.13871112681E+04  0.80528335505E+03 0.  0.
        3    1    3    3  502    0 -0.25341101136E+03 -0.19780880382E+03 -0.14711359372E+03  0.35353625444E+03  0.10100000352E+00 0. -1.
       -3    1    3    3    0  502  0.25341101136E+03  0.19780880382E+03 -0.98230943960E+03  0.10335750137E+04  0.10100000352E+00 0.  1.
</event>
<event>
 5   0  0.2460312E-02  0.7641973E+03  0.7818609E-02  0.9613337E-01
        2   -1    0    0  501    0  0.00000000000E+00  0.00000000000E+00  0.36224511755E+03  0.36224511756E+03  0.25500000920E-02 0.  1.
       -2   -1    0    0    0  501  0.00000000000E+00  0.00000000000E+00 -0.40304029269E+03  0.40304029270E+03  0.25500000920E-02 0. -1.
    10030    2    1    2    0    0  0.00000000000E+00  0.00000000000E+00 -0.40795175142E+02  0.76528541026E+03  0.76419729968E+03 0.  0.
        2    1    3    3  502    0 -0.32705420520E+03 -0.46086284925E+02  0.17199827110E+03  0.37238663250E+03  0.25500000920E-02 0.  1.
       -2    1    3    3    0  502  0.32705420520E+03  0.46086284925E+02 -0.21279344624E+03  0.39289877776E+03  0.25500000920E-02 0. -1.
</event>
<event>
 5   0  0.2422031E-02  0.8314900E+03  0.7818609E-02  0.9515523E-01
       -2   -1    0    0    0  501  0.00000000000E+00  0.00000000000E+00  0.33068805012E+03  0.33068805013E+03  0.25500000920E-02 0.  1.
        2   -1    0    0  501    0  0.00000000000E+00  0.00000000000E+00 -0.52267959618E+03  0.52267959619E+03  0.25500000920E-02 0. -1.
    10030    2    1    2    0    0  0.00000000000E+00  0.00000000000E+00 -0.19199154607E+03  0.85336764632E+03  0.83148997950E+03 0.  0.
        4    1    3    3  502    0 -0.16067100901E+03 -0.37770950078E+03 -0.28207586495E+02  0.41143276601E+03  0.12699999809E+01 0.  1.
       -4    1    3    3    0  502  0.16067100901E+03  0.37770950078E+03 -0.16378395957E+03  0.44193488030E+03  0.12699999809E+01 0. -1.
</event>
<event>
 5   0  0.1471290E-02  0.7293237E+03  0.7818609E-02  0.9668359E-01
        1   -1    0    0  501    0  0.00000000000E+00  0.00000000000E+00  0.94684303055E+03  0.94684303057E+03  0.50400001928E-02 0.  1.
       -1   -1    0    0    0  501  0.00000000000E+00  0.00000000000E+00 -0.14044381768E+03  0.14044381777E+03  0.50400001928E-02 0. -1.
    10030    2    1    2    0    0  0.00000000000E+00  0.00000000000E+00  0.80639921288E+03  0.10872868483E+04  0.72932365931E+03 0.  0.
        2    1    3    3  502    0  0.23590942633E+03  0.19899245441E+03  0.69276719110E+03  0.75840466468E+03  0.25500000920E-02 0.  1.
       -2    1    3    3    0  502 -0.23590942633E+03 -0.19899245441E+03  0.11363202178E+03  0.32888218365E+03  0.25500000920E-02 0. -1.
</event>
<event>
 5   0  0.1509629E-02  0.8018318E+03  0.7818609E-02  0.9557369E-01
        1   -1    0    0  501    0  0.00000000000E+00  0.00000000000E+00  0.65764456956E+03  0.65764456958E+03  0.50400001928E-02 0. -1.
       -1   -1    0    0    0  501  0.00000000000E+00  0.00000000000E+00 -0.24440794438E+03  0.24440794443E+03  0.50400001928E-02 0.  1.
    10030    2    1    2    0    0  0.00000000000E+00  0.00000000000E+00  0.41323662518E+03  0.90205251401E+03  0.80183179635E+03 0.  0.
        5    1    3    3  502    0  0.20197727801E+02  0.28971771044E+03 -0.10426820519E+03  0.30860694834E+03  0.46999998093E+01 0.  1.
       -5    1    3    3    0  502 -0.20197727801E+02 -0.28971771044E+03  0.51750483037E+03  0.59344556566E+03  0.46999998093E+01 0. -1.
</event>
<event>
 5   0  0.2571778E-02  0.8468031E+03  0.7818609E-02  0.9494638E-01
        2   -1    0    0  501    0  0.00000000000E+00  0.00000000000E+00  0.15397381087E+04  0.15397381087E+04  0.25500000920E-02 0.  1.
       -2   -1    0    0    0  501  0.00000000000E+00  0.00000000000E+00 -0.11642814658E+03  0.11642814661E+03  0.25500000920E-02 0. -1.
    10030    2    1    2    0    0  0.00000000000E+00  0.00000000000E+00  0.14233099621E+04  0.16561662553E+04  0.84680305678E+03 0.  0.
        1    1    3    3  502    0 -0.82526844117E+02 -0.11219569421E+03 -0.70342600670E+02  0.15603408376E+03  0.50400001928E-02 0. -1.
       -1    1    3    3    0  502  0.82526844117E+02  0.11219569421E+03  0.14936525628E+04  0.15001321715E+04  0.50400001928E-02 0.  1.
</event>
<event>
 5   0  0.2460312E-02  0.8107767E+03  0.7818609E-02  0.9544548E-01
       -2   -1    0    0    0  501  0.00000000000E+00  0.00000000000E+00  0.65197274683E+02  0.65197274733E+02  0.25500000920E-02 0. -1.
        2   -1    0    0  501    0  0.00000000000E+00  0.00000000000E+00 -0.25206531807E+04  0.25206531807E+04  0.25500000920E-02 0.  1.
    10030    2    1    2    0    0  0.00000000000E+00  0.00000000000E+00 -0.24554559060E+04  0.25858504555E+04  0.81077670877E+03 0.  0.
        2    1    3    3  502    0 -0.41218810274E+02  0.53610976552E+02 -0.25025369650E+04  0.25034504965E+04  0.25500000920E-02 0.  1.
       -2    1    3    3    0  502  0.41218810274E+02 -0.53610976552E+02  0.47081058932E+02  0.82399959005E+02  0.25500000920E-02 0. -1.
</event>
<event>
 5   0  0.1523811E-02  0.8127950E+03  0.7818609E-02  0.9541679E-01
        1   -1    0    0  501    0  0.00000000000E+00  0.00000000000E+00  0.73393977427E+03  0.73393977429E+03  0.50400001928E-02 0.  1.
       -1   -1    0    0    0  501  0.00000000000E+00  0.00000000000E+00 -0.22503062704E+03  0.22503062710E+03  0.50400001928E-02 0. -1.
    10030    2    1    2    0    0  0.00000000000E+00  0.00000000000E+00  0.50890914723E+03  0.95897040139E+03  0.81279499912E+03 0.  0.
        1    1    3    3  502    0  0.17920057466E+03  0.22165666800E+03  0.59623126020E+03  0.66086022735E+03  0.50400001928E-02 0.  1.
       -1    1    3    3    0  502 -0.17920057466E+03 -0.22165666800E+03 -0.87322112966E+02  0.29811017404E+03  0.50400001928E-02 0. -1.
</event>
<event>
 5   0  0.1624094E-02  0.7545089E+03  0.7818609E-02  0.9628303E-01
        1   -1    0    0  501    0  0.00000000000E+00  0.00000000000E+00  0.39544222313E+03  0.39544222316E+03  0.50400001928E-02 0. -1.
       -1   -1    0    0    0  501  0.00000000000E+00  0.00000000000E+00 -0.35990318133E+03  0.35990318136E+03  0.50400001928E-02 0.  1.
    10030    2    1    2    0    0  0.00000000000E+00  0.00000000000E+00  0.35539041802E+02  0.75534540452E+03  0.75450888440E+03 0.  0.
        3    1    3    3  502    0 -0.25837566901E+03  0.57769317860E+02  0.28681573379E+03  0.39033134101E+03  0.10100000352E+00 0. -1.
       -3    1    3    3    0  502  0.25837566901E+03 -0.57769317860E+02 -0.25127669199E+03  0.36501406351E+03  0.10100000352E+00 0.  1.
</event>
<event>
 5   0  0.1498375E-02  0.7962733E+03  0.7818609E-02  0.9565427E-01
        1   -1    0    0  501    0  0.00000000000E+00  0.00000000000E+00  0.81297846527E+03  0.81297846529E+03  0.50400001928E-02 0.  1.
       -1   -1    0    0    0  501  0.00000000000E+00  0.00000000000E+00 -0.19497784138E+03  0.19497784144E+03  0.50400001928E-02 0. -1.
    10030    2    1    2    0    0  0.00000000000E+00  0.00000000000E+00  0.61800062390E+03  0.10079563067E+04  0.79627328546E+03 0.  0.
        4    1    3    3  502    0 -0.47291965025E+02  0.13313043232E+03  0.78017753231E+03  0.79286747744E+03  0.12699999809E+01 0.  1.
       -4    1    3    3    0  502  0.47291965025E+02 -0.13313043232E+03 -0.16217690841E+03  0.21508882929E+03  0.12699999809E+01 0. -1.
</event>
<event>
 5   0  0.9919125E-03  0.8298530E+03  0.7818609E-02  0.9517784E-01
       -3   -1    0    0    0  501  0.00000000000E+00  0.00000000000E+00  0.18949798576E+03  0.18949801267E+03  0.10100000352E+00 0.  1.
        3   -1    0    0  501    0  0.00000000000E+00  0.00000000000E+00 -0.90852674324E+03  0.90852674885E+03  0.10100000352E+00 0. -1.
    10030    2    1    2    0    0  0.00000000000E+00  0.00000000000E+00 -0.71902875748E+03  0.10980247615E+04  0.82985301279E+03 0.  0.
        4    1    3    3  502    0  0.17224034327E+03 -0.10190281690E+03 -0.84044366703E+03  0.86394333744E+03  0.12699999809E+01 0. -1.
       -4    1    3    3    0  502 -0.17224034327E+03  0.10190281690E+03  0.12141490955E+03  0.23408142409E+03  0.12699999809E+01 0.  1.
</event>
<event>
 5   0  0.1523811E-02  0.8122272E+03  0.7818609E-02  0.9542485E-01
        1   -1    0    0  501    0  0.00000000000E+00  0.00000000000E+00  0.74537991852E+03  0.74537991854E+03  0.50400001928E-02 0. -1.
       -1   -1    0    0    0  501  0.00000000000E+00  0.00000000000E+00 -0.22126736097E+03  0.22126736103E+03  0.50400001928E-02 0.  1.
    10030    2    1    2    0    0  0.00000000000E+00  0.00000000000E+00  0.52411255755E+03  0.96664727957E+03  0.81222717889E+03 0.  0.
        1    1    3    3  502    0 -0.36982051723E+03 -0.15421373033E+03  0.34081267199E+03  0.52602506309E+03  0.50400001928E-02 0. -1.
       -1    1    3    3    0  502  0.36982051723E+03  0.15421373033E+03  0.18329988556E+03  0.44062221648E+03  0.50400001928E-02 0.  1.
</event>
<event>
 5   0  0.2464780E-02  0.7940139E+03  0.7818609E-02  0.9568722E-01
        2   -1    0    0  501    0  0.00000000000E+00  0.00000000000E+00  0.74682363463E+03  0.74682363464E+03  0.25500000920E-02 0. -1.
       -2   -1    0    0    0  501  0.00000000000E+00  0.00000000000E+00 -0.21104649083E+03  0.21104649084E+03  0.25500000920E-02 0.  1.
    10030    2    1    2    0    0  0.00000000000E+00  0.00000000000E+00  0.53577714380E+03  0.95787012548E+03  0.79401387234E+03 0.  0.
        3    1    3    3  502    0 -0.15691934215E+03 -0.28231819622E+03 -0.10588988658E+02  0.32317082285E+03  0.10100000352E+00 0.  1.
       -3    1    3    3    0  502  0.15691934215E+03  0.28231819622E+03  0.54636613246E+03  0.63469930263E+03  0.10100000352E+00 0. -1.
</event>
<event>
 5   0  0.1471290E-02  0.7986755E+03  0.7818609E-02  0.9561936E-01
       -1   -1    0    0    0  501  0.00000000000E+00  0.00000000000E+00  0.11953026846E+03  0.11953026856E+03  0.50400001928E-02 0.  1.
        1   -1    0    0  501    0  0.00000000000E+00  0.00000000000E+00 -0.13341444019E+04  0.13341444019E+04  0.50400001928E-02 0. -1.
    10030    2    1    2    0    0  0.00000000000E+00  0.00000000000E+00 -0.12146141334E+04  0.14536746704E+04  0.79867550006E+03 0.  0.
        2    1    3    3  502    0 -0.25031518463E+03  0.12545900814E+03 -0.89062281872E+02  0.29381923769E+03  0.25500000920E-02 0.  1.
       -2    1    3    3    0  502  0.25031518463E+03 -0.12545900814E+03 -0.11255518515E+04  0.11598554328E+04  0.25500000920E-02 0. -1.
</event>
<event>
 5   0  0.2571778E-02  0.8071936E+03  0.7818609E-02  0.9549663E-01
        2   -1    0    0  501    0  0.00000000000E+00  0.00000000000E+00  0.71392508320E+03  0.71392508320E+03  0.25500000920E-02 0. -1.
       -2   -1    0    0    0  501  0.00000000000E+00  0.00000000000E+00 -0.22816173882E+03  0.22816173883E+03  0.25500000920E-02 0.  1.
    10030    2    1    2    0    0  0.00000000000E+00  0.00000000000E+00  0.48576334438E+03  0.94208682203E+03  0.80719362826E+03 0.  0.
        1    1    3    3  502    0  0.22120236951E+03  0.25487264932E+03 -0.15469539319E+02  0.33783111509E+03  0.50400001928E-02 0.  1.
       -1    1    3    3    0  502 -0.22120236951E+03 -0.25487264932E+03  0.50123288370E+03  0.60425570694E+03  0.50400001928E-02 0. -1.
</event>
<event>
 5   0  0.1471290E-02  0.7844848E+03  0.7818609E-02  0.9582750E-01
        1   -1    0    0  501    0  0.00000000000E+00  0.00000000000E+00  0.30636405060E+03  0.30636405064E+03  0.50400001928E-02 0. -1.
       -1   -1    0    0    0  501  0.00000000000E+00  0.00000000000E+00 -0.50219372738E+03  0.50219372741E+03  0.50400001928E-02 0.  1.
    10030    2    1    2    0    0  0.00000000000E+00  0.00000000000E+00 -0.19582967678E+03  0.80855777805E+03  0.78448481064E+03 0.  0.
        2    1    3    3  502    0 -0.29178835721E+03  0.24950881736E+03 -0.18074899811E+03  0.42434101342E+03  0.25500000920E-02 0. -1.
       -2    1    3    3    0  502  0.29178835721E+03 -0.24950881736E+03 -0.15080678669E+02  0.38421676463E+03  0.25500000920E-02 0.  1.
</event>
<event>
 5   0  0.1624094E-02  0.8025928E+03  0.7818609E-02  0.9556272E-01
        1   -1    0    0  501    0  0.00000000000E+00  0.00000000000E+00  0.10511342039E+04  0.10511342039E+04  0.50400001928E-02 0.  1.
       -1   -1    0    0    0  501  0.00000000000E+00  0.00000000000E+00 -0.15320479794E+03  0.15320479803E+03  0.50400001928E-02 0. -1.
    10030    2    1    2    0    0  0.00000000000E+00  0.00000000000E+00  0.89792940596E+03  0.12043390019E+04  0.80259280679E+03 0.  0.
        3    1    3    3  502    0 -0.32085445754E+03 -0.19631187146E+03  0.65879037679E+03  0.75861103640E+03  0.10100000352E+00 0.  1.
       -3    1    3    3    0  502  0.32085445754E+03  0.19631187146E+03  0.23913902918E+03  0.44572796555E+03  0.10100000352E+00 0. -1.
</event>
<event>
 5   0  0.2422031E-02  0.7979576E+03  0.7818609E-02  0.9562978E-01
       -2   -1    0    0    0  501  0.00000000000E+00  0.00000000000E+00  0.12151908576E+03  0.12151908579E+03  0.25500000920E-02 0. -1.
        2   -1    0    0  501    0  0.00000000000E+00  0.00000000000E+00 -0.13099512508E+04  0.13099512508E+04  0.25500000920E-02 0.  1.
    10030    2    1    2    0    0  0.00000000000E+00  0.00000000000E+00 -0.11884321650E+04  0.14314703366E+04  0.79795758887E+03 0.  0.
        4    1    3    3  502    0  0.11352285695E+03  0.15468865360E+03 -0.12217449636E+04  0.12367208204E+04  0.12699999809E+01 0.  1.
       -4    1    3    3    0  502 -0.11352285695E+03 -0.15468865360E+03  0.33312798578E+02  0.19474951618E+03  0.12699999809E+01 0. -1.
</event>
<event>
 5   0  0.1498375E-02  0.7004833E+03  0.7818609E-02  0.9716406E-01
       -1   -1    0    0    0  501  0.00000000000E+00  0.00000000000E+00  0.16804136297E+03  0.16804136305E+03  0.50400001928E-02 0.  1.
        1   -1    0    0  501    0  0.00000000000E+00  0.00000000000E+00 -0.72999408218E+03  0.72999408220E+03  0.50400001928E-02 0. -1.
    10030    2    1    2    0    0  0.00000000000E+00  0.00000000000E+00 -0.56195271921E+03  0.89803544524E+03  0.70048326339E+03 0.  0.
        4    1    3    3  502    0  0.28585426113E+03  0.19066162349E+03 -0.19399629772E+03  0.39458926709E+03  0.12699999809E+01 0.  1.
       -4    1    3    3    0  502 -0.28585426113E+03 -0.19066162349E+03 -0.36795642149E+03  0.50344617815E+03  0.12699999809E+01 0. -1.
</event>
<event>
 5   0  0.2460312E-02  0.7966071E+03  0.7818609E-02  0.9564941E-01
       -2   -1    0    0    0  501  0.00000000000E+00  0.00000000000E+00  0.13690070608E+03  0.13690070611E+03  0.25500000920E-02 0.  1.
        2   -1    0    0  501    0  0.00000000000E+00  0.00000000000E+00 -0.11588377741E+04  0.11588377742E+04  0.25500000920E-02 0. -1.
    10030    2    1    2    0    0  0.00000000000E+00  0.00000000000E+00 -0.10219370681E+04  0.12957384803E+04  0.79660707889E+03 0.  0.
        2    1    3    3  502    0 -0.19391348135E+03  0.77304806881E+02 -0.10627270433E+04  0.10830361213E+04  0.25500000920E-02 0. -1.
       -2    1    3    3    0  502  0.19391348135E+03 -0.77304806881E+02  0.40789975260E+02  0.21270235896E+03  0.25500000920E-02 0.  1.
</event>
<event>
 5   0  0.1624094E-02  0.8112951E+03  0.7818609E-02  0.9543810E-01
        1   -1    0    0  501    0  0.00000000000E+00  0.00000000000E+00  0.64572195334E+03  0.64572195336E+03  0.50400001928E-02 0. -1.
       -1   -1    0    0    0  501  0.00000000000E+00  0.00000000000E+00 -0.25483095154E+03  0.25483095159E+03  0.50400001928E-02 0.  1.
    10030    2    1    2    0    0  0.00000000000E+00  0.00000000000E+00  0.39089100180E+03  0.90055290495E+03  0.81129511235E+03 0.  0.
        3    1    3    3  502    0  0.25467088552E+03 -0.20002844540E+03 -0.75729390828E+02  0.33257117996E+03  0.10100000352E+00 0.  1.
       -3    1    3    3    0  502 -0.25467088552E+03  0.20002844540E+03  0.46662039263E+03  0.56798172499E+03  0.10100000352E+00 0. -1.
</event>
<event>
 5   0  0.2464780E-02  0.7740825E+03  0.7818609E-02  0.9598308E-01
        2   -1    0    0  501    0  0.00000000000E+00  0.00000000000E+00  0.25283840188E+03  0.25283840189E+03  0.25500000920E-02 0. -1.
       -2   -1    0    0    0  501  0.00000000000E+00  0.00000000000E+00 -0.59247695020E+03  0.59247695020E+03  0.25500000920E-02 0.  1.
    10030    2    1    2    0    0  0.00000000000E+00  0.00000000000E+00 -0.33963854832E+03  0.84531535210E+03  0.77408248978E+03 0.  0.
        3    1    3    3  502    0  0.21389702922E+03 -0.26360868674E+03  0.33189513361E+02  0.34109094510E+03  0.10100000352E+00 0. -1.
       -3    1    3    3    0  502 -0.21389702922E+03  0.26360868674E+03 -0.37282806168E+03  0.50422440699E+03  0.10100000352E+00 0.  1.
</event>
<event>
 5   0  0.1471290E-02  0.7415268E+03  0.7818609E-02  0.9648738E-01
       -1   -1    0    0    0  501  0.00000000000E+00  0.00000000000E+00  0.28464252174E+03  0.28464252178E+03  0.50400001928E-02 0.  1.
        1   -1    0    0  501    0  0.00000000000E+00  0.00000000000E+00 -0.48294077832E+03  0.48294077835E+03  0.50400001928E-02 0. -1.
    10030    2    1    2    0    0  0.00000000000E+00  0.00000000000E+00 -0.19829825659E+03  0.76758330013E+03  0.74152675210E+03 0.  0.
        2    1    3    3  502    0 -0.19576425429E+01  0.31728994168E+03 -0.29769285060E+03  0.43508363881E+03  0.25500000920E-02 0. -1.
       -2    1    3    3    0  502  0.19576425429E+01 -0.31728994168E+03  0.99394594019E+02  0.33249966132E+03  0.25500000920E-02 0.  1.
</event>
<event>
 5   0  0.2460312E-02  0.7953017E+03  0.7818609E-02  0.9566843E-01
        2   -1    0    0  501    0  0.00000000000E+00  0.00000000000E+00  0.12172632648E+04  0.12172632648E+04  0.25500000920E-02 0.  1.
       -2   -1    0    0    0  501  0.00000000000E+00  0.00000000000E+00 -0.12990304723E+03  0.12990304726E+03  0.25500000920E-02 0. -1.
    10030    2    1    2    0    0  0.00000000000E+00  0.00000000000E+00  0.10873602175E+04  0.13471663120E+04  0.79530172236E+03 0.  0.
        2    1    3    3  502    0  0.24601762774E+03 -0.99062784606E+02  0.41791760503E+02  0.26848586500E+03  0.25500000920E-02 0.  1.
       -2    1    3    3    0  502 -0.24601762774E+03  0.99062784606E+02  0.10455684570E+04  0.10786804470E+04  0.25500000920E-02 0. -1.
</event>
<event>
 5   0  0.2571778E-02  0.7634205E+03  0.7818609E-02  0.9614528E-01
       -2   -1    0    0    0  501  0.00000000000E+00  0.00000000000E+00  0.90576577937E+02  0.90576577973E+02  0.25500000920E-02 0. -1.
        2   -1    0    0  501    0  0.00000000000E+00  0.00000000000E+00 -0.16086137223E+04  0.16086137223E+04  0.25500000920E-02 0.  1.
    10030    2    1    2    0    0  0.00000000000E+00  0.00000000000E+00 -0.15180371443E+04  0.16991903003E+04  0.76342052951E+03 0.  0.
        1    1    3    3  502    0  0.28531442446E+03  0.12936622525E+03 -0.27360510109E+03  0.41593231710E+03  0.50400001928E-02 0. -1.
       -1    1    3    3    0  502 -0.28531442446E+03 -0.12936622525E+03 -0.12444320433E+04  0.12832579832E+04  0.50400001928E-02 0.  1.
</event>
<event>
 5   0  0.1523811E-02  0.7968781E+03  0.7818609E-02  0.9564547E-01
        1   -1    0    0  501    0  0.00000000000E+00  0.00000000000E+00  0.95979928230E+03  0.95979928232E+03  0.50400001928E-02 0. -1.
       -1   -1    0    0    0  501  0.00000000000E+00  0.00000000000E+00 -0.16540299583E+03  0.16540299590E+03  0.50400001928E-02 0.  1.
    10030    2    1    2    0    0  0.00000000000E+00  0.00000000000E+00  0.79439628648E+03  0.11252022782E+04  0.79687810043E+03 0.  0.
        1    1    3    3  502    0 -0.57061970749E+02  0.14647911552E+03  0.91415977701E+03  0.92757765050E+03  0.50400001928E-02 0. -1.
       -1    1    3    3    0  502  0.57061970749E+02 -0.14647911552E+03 -0.11976349053E+03  0.19762462772E+03  0.50400001928E-02 0.  1.
</event>
<event>
 5   0  0.1471290E-02  0.8241368E+03  0.7818609E-02  0.9525723E-01
        1   -1    0    0  501    0  0.00000000000E+00  0.00000000000E+00  0.30769015742E+03  0.30769015746E+03  0.50400001928E-02 0. -1.
       -1   -1    0    0    0  501  0.00000000000E+00  0.00000000000E+00 -0.55185499041E+03  0.55185499043E+03  0.50400001928E-02 0.  1.
    10030    2    1    2    0    0  0.00000000000E+00  0.00000000000E+00 -0.24416483299E+03  0.85954514789E+03  0.82413675782E+03 0.  0.
        2    1    3    3  502    0  0.11929941516E+03  0.22786156208E+03 -0.45785714025E+03  0.52515369447E+03  0.25500000920E-02 0.  1.
       -2    1    3    3    0  502 -0.11929941516E+03 -0.22786156208E+03  0.21369230726E+03  0.33439145342E+03  0.25500000920E-02 0. -1.
</event>
<event>
 5   0  0.2460312E-02  0.9623514E+03  0.7818609E-02  0.9350829E-01
       -2   -1    0    0    0  501  0.00000000000E+00  0.00000000000E+00  0.20498960773E+03  0.20498960775E+03  0.25500000920E-02 0.  1.
        2   -1    0    0  501    0  0.00000000000E+00  0.00000000000E+00 -0.11294721275E+04  0.11294721275E+04  0.25500000920E-02 0. -1.
    10030    2    1    2    0    0  0.00000000000E+00  0.00000000000E+00 -0.92448251973E+03  0.13344617352E+04  0.96235138772E+03 0.  0.
        2    1    3    3  502    0 -0.38558996509E+03 -0.23074358039E+03 -0.70084415976E+03  0.83252913303E+03  0.25500000920E-02 0. -1.
       -2    1    3    3    0  502  0.38558996509E+03  0.23074358039E+03 -0.22363835997E+03  0.50193260218E+03  0.25500000920E-02 0.  1.
</event>
<event>
 5   0  0.2422031E-02  0.8015103E+03  0.7818609E-02  0.9557834E-01
       -2   -1    0    0    0  501  0.00000000000E+00  0.00000000000E+00  0.19354765670E+03  0.19354765672E+03  0.25500000920E-02 0. -1.
        2   -1    0    0  501    0  0.00000000000E+00  0.00000000000E+00 -0.82979402900E+03  0.82979402900E+03  0.25500000920E-02 0.  1.
    10030    2    1    2    0    0  0.00000000000E+00  0.00000000000E+00 -0.63624637230E+03  0.10233416857E+04  0.80151029904E+03 0.  0.
        4    1    3    3  502    0  0.55023940926E+02  0.17251854503E+03  0.13833260709E+03  0.22787673321E+03  0.12699999809E+01 0. -1.
       -4    1    3    3    0  502 -0.55023940926E+02 -0.17251854503E+03 -0.77457897939E+03  0.79546495251E+03  0.12699999809E+01 0.  1.
</event>
<event>
 5   0  0.2464780E-02  0.7310789E+03  0.7818609E-02  0.9665511E-01
        2   -1    0    0  501    0  0.00000000000E+00  0.00000000000E+00  0.66857086588E+03  0.66857086589E+03  0.25500000920E-02 0. -1.
       -2   -1    0    0    0  501  0.00000000000E+00  0.00000000000E+00 -0.19985777203E+03  0.19985777204E+03  0.25500000920E-02 0.  1.
    10030    2    1    2    0    0  0.00000000000E+00  0.00000000000E+00  0.46871309386E+03  0.86842863793E+03  0.73107888413E+03 0.  0.
        3    1    3    3  502    0 -0.26679165853E+03 -0.23247271145E+03  0.34321211932E+03  0.49296644883E+03  0.10100000352E+00 0.  1.
       -3    1    3    3    0  502  0.26679165853E+03  0.23247271145E+03  0.12550097454E+03  0.37546218909E+03  0.10100000352E+00 0. -1.
</event>
<event>
 5   0  0.2454354E-02  0.7839192E+03  0.7818609E-02  0.9583590E-01
       -2   -1    0    0    0  501  0.00000000000E+00  0.00000000000E+00  0.96621799902E+02  0.96621799935E+02  0.25500000920E-02 0.  1.
        2   -1    0    0  501    0  0.00000000000E+00  0.00000000000E+00 -0.15900379002E+04  0.15900379002E+04  0.25500000920E-02 0. -1.
    10030    2    1    2    0    0  0.00000000000E+00  0.00000000000E+00 -0.14934161003E+04  0.16866597001E+04  0.78391918935E+03 0.  0.
        5    1    3    3  502    0  0.16538836293E+03  0.12998857285E+03 -0.14582249395E+04  0.14733269847E+04  0.46999998093E+01 0. -1.
       -5    1    3    3    0  502 -0.16538836293E+03 -0.12998857285E+03 -0.35191160749E+02  0.21333271539E+03  0.46999998093E+01 0.  1.
</event>
<event>
 5   0  0.1498375E-02  0.7891902E+03  0.7818609E-02  0.9575797E-01
        1   -1    0    0  501    0  0.00000000000E+00  0.00000000000E+00  0.20415598743E+03  0.20415598749E+03  0.50400001928E-02 0.  1.
       -1   -1    0    0    0  501  0.00000000000E+00  0.00000000000E+00 -0.76267813209E+03  0.76267813211E+03  0.50400001928E-02 0. -1.
    10030    2    1    2    0    0  0.00000000000E+00  0.00000000000E+00 -0.55852214467E+03  0.96683411960E+03  0.78919023609E+03 0.  0.
        4    1    3    3  502    0  0.14847384718E+03 -0.93798108062E+02  0.15363524191E+03  0.23334088546E+03  0.12699999809E+01 0.  1.
       -4    1    3    3    0  502 -0.14847384718E+03  0.93798108062E+02 -0.71215738658E+03  0.73349323414E+03  0.12699999809E+01 0. -1.
</event>
<event>
 5   0  0.1624094E-02  0.7702016E+03  0.7818609E-02  0.9604180E-01
        1   -1    0    0  501    0  0.00000000000E+00  0.00000000000E+00  0.16722825235E+03  0.16722825242E+03  0.50400001928E-02 0. -1.
       -1   -1    0    0    0  501  0.00000000000E+00  0.00000000000E+00 -0.88682756107E+03  0.88682756108E+03  0.50400001928E-02 0.  1.
    10030    2    1    2    0    0  0.00000000000E+00  0.00000000000E+00 -0.71959930872E+03  0.10540558135E+04  0.77020159236E+03 0.  0.
        3    1    3    3  502    0 -0.37545181874E+03  0.55327815429E+02 -0.27029451065E+03  0.46592313534E+03  0.10100000352E+00 0. -1.
       -3    1    3    3    0  502  0.37545181874E+03 -0.55327815429E+02 -0.44930479808E+03  0.58813267817E+03  0.10100000352E+00 0.  1.
</event>
<event>
 5   0  0.1498375E-02  0.7998883E+03  0.7818609E-02  0.9560179E-01
        1   -1    0    0  501    0  0.00000000000E+00  0.00000000000E+00  0.12716271070E+04  0.12716271070E+04  0.50400001928E-02 0.  1.
       -1   -1    0    0    0  501  0.00000000000E+00  0.00000000000E+00 -0.12578792644E+03  0.12578792654E+03  0.50400001928E-02 0. -1.
    10030    2    1    2    0    0  0.00000000000E+00  0.00000000000E+00  0.11458391806E+04  0.13974150336E+04  0.79988833489E+03 0.  0.
        4    1    3    3  502    0 -0.35068056715E+03  0.18937608904E+03  0.63121750687E+03  0.74651009180E+03  0.12699999809E+01 0. -1.
       -4    1    3    3    0  502  0.35068056715E+03 -0.18937608904E+03  0.51462167370E+03  0.65090494177E+03  0.12699999809E+01 0.  1.
</event>
<event>
 5   0  0.2422031E-02  0.7882854E+03  0.7818609E-02  0.9577130E-01
        2   -1    0    0  501    0  0.00000000000E+00  0.00000000000E+00  0.18024634934E+04  0.18024634934E+04  0.25500000920E-02 0.  1.
       -2   -1    0    0    0  501  0.00000000000E+00  0.00000000000E+00 -0.86186755856E+02  0.86186755894E+02  0.25500000920E-02 0. -1.
    10030    2    1    2    0    0  0.00000000000E+00  0.00000000000E+00  0.17162767375E+04  0.18886502493E+04  0.78828543328E+03 0.  0.
        4    1    3    3  502    0  0.14182124012E+03 -0.35242496750E+03  0.60650939622E+03  0.71566184925E+03  0.12699999809E+01 0. -1.
       -4    1    3    3    0  502 -0.14182124012E+03  0.35242496750E+03  0.11097673413E+04  0.11729884000E+04  0.12699999809E+01 0.  1.
</event>
<event>
 5   0  0.2422031E-02  0.8038626E+03  0.7818609E-02  0.9554443E-01
        2   -1    0    0  501    0  0.00000000000E+00  0.00000000000E+00  0.39881370014E+03  0.39881370015E+03  0.25500000920E-02 0.  1.
       -2   -1    0    0    0  501  0.00000000000E+00  0.00000000000E+00 -0.40507330804E+03  0.40507330805E+03  0.25500000920E-02 0. -1.
    10030    2    1    2    0    0  0.00000000000E+00  0.00000000000E+00 -0.62596079008E+01  0.80388700820E+03  0.80386263706E+03 0.  0.
        4    1    3    3  502    0  0.11957052294E+02 -0.24401408670E+03 -0.32229669254E+03  0.40442875334E+03  0.12699999809E+01 0. -1.
       -4    1    3    3    0  502 -0.11957052294E+02  0.24401408670E+03  0.31603708464E+03  0.39945825486E+03  0.12699999809E+01 0.  1.
</event>
<event>
 5   0  0.1509629E-02  0.7927919E+03  0.7818609E-02  0.9570510E-01
        1   -1    0    0  501    0  0.00000000000E+00  0.00000000000E+00  0.13747085046E+04  0.13747085046E+04  0.50400001928E-02 0.  1.
       -1   -1    0    0    0  501  0.00000000000E+00  0.00000000000E+00 -0.11430039816E+03  0.11430039827E+03  0.50400001928E-02 0. -1.
    10030    2    1    2    0    0  0.00000000000E+00  0.00000000000E+00  0.12604081064E+04  0.14890089029E+04  0.79279185039E+03 0.  0.
        5    1    3    3  502    0  0.36150943260E+03 -0.20469937405E+02  0.93304949682E+03  0.10008554050E+04  0.46999998093E+01 0.  1.
       -5    1    3    3    0  502 -0.36150943260E+03  0.20469937405E+02  0.32735860962E+03  0.48815349787E+03  0.46999998093E+01 0. -1.
</event>
<event>
 5   0  0.2460312E-02  0.8030426E+03  0.7818609E-02  0.9555624E-01
        2   -1    0    0  501    0  0.00000000000E+00  0.00000000000E+00  0.27407339907E+03  0.27407339908E+03  0.25500000920E-02 0. -1.
       -2   -1    0    0    0  501  0.00000000000E+00  0.00000000000E+00 -0.58823418309E+03  0.58823418309E+03  0.25500000920E-02 0.  1.
    10030    2    1    2    0    0  0.00000000000E+00  0.00000000000E+00 -0.31416078401E+03  0.86230758217E+03  0.80304256927E+03 0.  0.
        2    1    3    3  502    0  0.82076019333E+02  0.19037887521E+03 -0.52631598369E+03  0.56567579387E+03  0.25500000920E-02 0.  1.
       -2    1    3    3    0  502 -0.82076019333E+02 -0.19037887521E+03  0.21215519968E+03  0.29663178830E+03  0.25500000920E-02 0. -1.
</event>
<event>
 5   0  0.1471290E-02  0.7904168E+03  0.7818609E-02  0.9573993E-01
       -1   -1    0    0    0  501  0.00000000000E+00  0.00000000000E+00  0.50971407637E+03  0.50971407640E+03  0.50400001928E-02 0. -1.
        1   -1    0    0  501    0  0.00000000000E+00  0.00000000000E+00 -0.30642603055E+03  0.30642603059E+03  0.50400001928E-02 0.  1.
    10030    2    1    2    0    0  0.00000000000E+00  0.00000000000E+00  0.20328804583E+03  0.81614010699E+03  0.79041675378E+03 0.  0.
        2    1    3    3  502    0  0.11763221498E+03  0.33769518722E+03 -0.72100600094E+02  0.36479291936E+03  0.25500000920E-02 0.  1.
       -2    1    3    3    0  502 -0.11763221498E+03 -0.33769518722E+03  0.27538864592E+03  0.45134718763E+03  0.25500000920E-02 0. -1.
</event>
<event>
 5   0  0.1624094E-02  0.8023865E+03  0.7818609E-02  0.9556569E-01
        1   -1    0    0  501    0  0.00000000000E+00  0.00000000000E+00  0.55981939569E+03  0.55981939572E+03  0.50400001928E-02 0. -1.
       -1   -1    0    0    0  501  0.00000000000E+00  0.00000000000E+00 -0.28751417865E+03  0.28751417869E+03  0.50400001928E-02 0.  1.
    10030    2    1    2    0    0  0.00000000000E+00  0.00000000000E+00  0.27230521704E+03  0.84733357441E+03  0.80238647489E+03 0.  0.
        3    1    3    3  502    0 -0.23399527072E+03  0.83044806052E+02  0.46893326373E+03  0.53061157410E+03  0.10100000352E+00 0. -1.
       -3    1    3    3    0  502  0.23399527072E+03 -0.83044806052E+02 -0.19662804669E+03  0.31672200031E+03  0.10100000352E+00 0.  1.
</event>
<event>
 5   0  0.2454354E-02  0.8058007E+03  0.7818609E-02  0.9551659E-01
       -2   -1    0    0    0  501  0.00000000000E+00  0.00000000000E+00  0.32762667190E+03  0.32762667191E+03  0.25500000920E-02 0.  1.
        2   -1    0    0  501    0  0.00000000000E+00  0.00000000000E+00 -0.49546849894E+03  0.49546849895E+03  0.25500000920E-02 0. -1.
    10030    2    1    2    0    0  0.00000000000E+00  0.00000000000E+00 -0.16784182704E+03  0.82309517085E+03  0.80580070823E+03 0.  0.
        5    1    3    3  502    0 -0.97679089579E+01  0.21341567153E+03 -0.43281418835E+03  0.48269231664E+03  0.46999998093E+01 0. -1.
       -5    1    3    3    0  502  0.97679089579E+01 -0.21341567153E+03  0.26497236131E+03  0.34040285422E+03  0.46999998093E+01 0.  1.
</event>
<event>
 5   0  0.2571778E-02  0.7938565E+03  0.7818609E-02  0.9568952E-01
        2   -1    0    0  501    0  0.00000000000E+00  0.00000000000E+00  0.14428359892E+04  0.14428359892E+04  0.25500000920E-02 0. -1.
       -2   -1    0    0    0  501  0.00000000000E+00  0.00000000000E+00 -0.10919608460E+03  0.10919608463E+03  0.25500000920E-02 0.  1.
    10030    2    1    2    0    0  0.00000000000E+00  0.00000000000E+00  0.13336399046E+04  0.15520320739E+04  0.79385651291E+03 0.  0.
        1    1    3    3  502    0 -0.34162232625E+03  0.18026026815E+03  0.84549584134E+03  0.92954978125E+03  0.50400001928E-02 0. -1.
       -1    1    3    3    0  502  0.34162232625E+03 -0.18026026815E+03  0.48814406328E+03  0.62248229261E+03  0.50400001928E-02 0.  1.
</event>
<event>
 5   0  0.1498375E-02  0.8169017E+03  0.7818609E-02  0.9535870E-01
       -1   -1    0    0    0  501  0.00000000000E+00  0.00000000000E+00  0.20379446098E+03  0.20379446104E+03  0.50400001928E-02 0. -1.
        1   -1    0    0  501    0  0.00000000000E+00  0.00000000000E+00 -0.81862926198E+03  0.81862926199E+03  0.50400001928E-02 0.  1.
    10030    2    1    2    0    0  0.00000000000E+00  0.00000000000E+00 -0.61483480099E+03  0.10224237230E+04  0.81690173027E+03 0.  0.
        4    1    3    3  502    0  0.15016561377E+03 -0.20264451515E+03 -0.70951787266E+03  0.75301509653E+03  0.12699999809E+01 0.  1.
       -4    1    3    3    0  502 -0.15016561377E+03  0.20264451515E+03  0.94683071663E+02  0.26940862651E+03  0.12699999809E+01 0. -1.
</event>
<event>
 5   0  0.1471290E-02  0.7917099E+03  0.7818609E-02  0.9572095E-01
       -1   -1    0    0    0  501  0.00000000000E+00  0.00000000000E+00  0.22793140944E+03  0.22793140950E+03  0.50400001928E-02 0.  1.
        1   -1    0    0  501    0  0.00000000000E+00  0.00000000000E+00 -0.68749248327E+03  0.68749248329E+03  0.50400001928E-02 0. -1.
    10030    2    1    2    0    0  0.00000000000E+00  0.00000000000E+00 -0.45956107383E+03  0.91542389279E+03  0.79170987294E+03 0.  0.
        2    1    3    3  502    0 -0.22395394282E+03  0.94004423608E+02  0.13164872643E+03  0.27626723899E+03  0.25500000920E-02 0.  1.
       -2    1    3    3    0  502  0.22395394282E+03 -0.94004423608E+02 -0.59120980026E+03  0.63915665380E+03  0.25500000920E-02 0. -1.
</event>
<event>
 5   0  0.1624094E-02  0.7944494E+03  0.7818609E-02  0.9568086E-01
        1   -1    0    0  501    0  0.00000000000E+00  0.00000000000E+00  0.27527736967E+03  0.27527736972E+03  0.50400001928E-02 0. -1.
       -1   -1    0    0    0  501  0.00000000000E+00  0.00000000000E+00 -0.57319443471E+03  0.57319443473E+03  0.50400001928E-02 0.  1.
    10030    2    1    2    0    0  0.00000000000E+00  0.00000000000E+00 -0.29791706504E+03  0.84847180445E+03  0.79444938499E+03 0.  0.
        3    1    3    3  502    0 -0.53805323437E+02 -0.35996354014E+03  0.20979950797E+02  0.36456677248E+03  0.10100000352E+00 0.  1.
       -3    1    3    3    0  502  0.53805323437E+02  0.35996354014E+03 -0.31889701583E+03  0.48390503197E+03  0.10100000352E+00 0. -1.
</event>
<event>
 5   0  0.2422031E-02  0.8004928E+03  0.7818609E-02  0.9559304E-01
       -2   -1    0    0    0  501  0.00000000000E+00  0.00000000000E+00  0.13024177454E+03  0.13024177456E+03  0.25500000920E-02 0. -1.
        2   -1    0    0  501    0  0.00000000000E+00  0.00000000000E+00 -0.12299983198E+04  0.12299983198E+04  0.25500000920E-02 0.  1.
    10030    2    1    2    0    0  0.00000000000E+00  0.00000000000E+00 -0.10997565452E+04  0.13602400943E+04  0.80049275791E+03 0.  0.
        4    1    3    3  502    0  0.22003085106E+03 -0.31876061312E+03 -0.72127262152E+03  0.81869268432E+03  0.12699999809E+01 0. -1.
       -4    1    3    3    0  502 -0.22003085106E+03  0.31876061312E+03 -0.37848392372E+03  0.54154741003E+03  0.12699999809E+01 0.  1.
</event>
<event>
 5   0  0.1509629E-02  0.8003964E+03  0.7818609E-02  0.9559444E-01
       -1   -1    0    0    0  501  0.00000000000E+00  0.00000000000E+00  0.23583392298E+03  0.23583392303E+03  0.50400001928E-02 0.  1.
        1   -1    0    0  501    0  0.00000000000E+00  0.00000000000E+00 -0.67911601025E+03  0.67911601027E+03  0.50400001928E-02 0. -1.
    10030    2    1    2    0    0  0.00000000000E+00  0.00000000000E+00 -0.44328208727E+03  0.91494993330E+03  0.80039638402E+03 0.  0.
        5    1    3    3  502    0  0.70448539180E+02 -0.25549317248E+03  0.12109848526E+03  0.29142184371E+03  0.46999998093E+01 0.  1.
       -5    1    3    3    0  502 -0.70448539180E+02  0.25549317248E+03 -0.56438057254E+03  0.62352808959E+03  0.46999998093E+01 0. -1.
</event>
<event>
 5   0  0.2464780E-02  0.7956496E+03  0.7818609E-02  0.9566336E-01
       -2   -1    0    0    0  501  0.00000000000E+00  0.00000000000E+00  0.19814788175E+03  0.19814788177E+03  0.25500000920E-02 0.  1.
        2   -1    0    0  501    0  0.00000000000E+00  0.00000000000E+00 -0.79871940745E+03  0.79871940746E+03  0.25500000920E-02 0. -1.
    10030    2    1    2    0    0  0.00000000000E+00  0.00000000000E+00 -0.60057152570E+03  0.99686728923E+03  0.79564956787E+03 0.  0.
        3    1    3    3  502    0  0.18972686015E+03 -0.20135349771E+03  0.57887426863E+02  0.28264903483E+03  0.10100000352E+00 0.  1.
       -3    1    3    3    0  502 -0.18972686015E+03  0.20135349771E+03 -0.65845895256E+03  0.71421825440E+03  0.10100000352E+00 0. -1.
</event>
<event>
 5   0  0.2464780E-02  0.8051537E+03  0.7818609E-02  0.9552587E-01
       -2   -1    0    0    0  501  0.00000000000E+00  0.00000000000E+00  0.34919282194E+03  0.34919282195E+03  0.25500000920E-02 0. -1.
        2   -1    0    0  501    0  0.00000000000E+00  0.00000000000E+00 -0.46412212896E+03  0.46412212897E+03  0.25500000920E-02 0.  1.
    10030    2    1    2    0    0  0.00000000000E+00  0.00000000000E+00 -0.11492930702E+03  0.81331495092E+03  0.80515368954E+03 0.  0.
        3    1    3    3  502    0 -0.27349676657E+03  0.15241800167E+03  0.19815447244E+03  0.37053600865E+03  0.10100000352E+00 0. -1.
       -3    1    3    3    0  502  0.27349676657E+03 -0.15241800167E+03 -0.31308377946E+03  0.44277894227E+03  0.10100000352E+00 0.  1.
</event>
<event>
 5   0  0.1509629E-02  0.8103856E+03  0.7818609E-02  0.9545105E-01
        1   -1    0    0  501    0  0.00000000000E+00  0.00000000000E+00  0.42329723594E+03  0.42329723597E+03  0.50400001928E-02 0.  1.
       -1   -1    0    0    0  501  0.00000000000E+00  0.00000000000E+00 -0.38786268873E+03  0.38786268876E+03  0.50400001928E-02 0. -1.
    10030    2    1    2    0    0  0.00000000000E+00  0.00000000000E+00  0.35434547209E+02  0.81115992473E+03  0.81038559733E+03 0.  0.
        5    1    3    3  502    0 -0.40110625369E+03  0.44658461867E+02 -0.18073137642E+02  0.40401650123E+03  0.46999998093E+01 0.  1.
       -5    1    3    3    0  502  0.40110625369E+03 -0.44658461867E+02  0.53507684851E+02  0.40714342350E+03  0.46999998093E+01 0. -1.
</event>
<event>
 5   0  0.9919125E-03  0.8008078E+03  0.7818609E-02  0.9558849E-01
        3   -1    0    0  501    0  0.00000000000E+00  0.00000000000E+00  0.38237879242E+03  0.38237880576E+03  0.10100000352E+00 0.  1.
       -3   -1    0    0    0  501  0.00000000000E+00  0.00000000000E+00 -0.41927871192E+03  0.41927872408E+03  0.10100000352E+00 0. -1.
    10030    2    1    2    0    0  0.00000000000E+00  0.00000000000E+00 -0.36899919502E+02  0.80165752984E+03  0.80080783656E+03 0.  0.
        3    1    3    3  502    0  0.40156764886E+02  0.28718434121E+03  0.25795145344E+03  0.38810613772E+03  0.10100000352E+00 0.  1.
       -3    1    3    3    0  502 -0.40156764886E+02 -0.28718434121E+03 -0.29485137294E+03  0.41355139212E+03  0.10100000352E+00 0. -1.
</event>
<event>
 5   0  0.1509629E-02  0.7923396E+03  0.7818609E-02  0.9571172E-01
       -1   -1    0    0    0  501  0.00000000000E+00  0.00000000000E+00  0.27491173590E+03  0.27491173595E+03  0.50400001928E-02 0.  1.
        1   -1    0    0  501    0  0.00000000000E+00  0.00000000000E+00 -0.57091232985E+03  0.57091232987E+03  0.50400001928E-02 0. -1.
    10030    2    1    2    0    0  0.00000000000E+00  0.00000000000E+00 -0.29600059395E+03  0.84582406582E+03  0.79233957285E+03 0.  0.
        5    1    3    3  502    0  0.11830331693E+03 -0.37287168042E+03 -0.21466102928E+03  0.44624030785E+03  0.46999998093E+01 0. -1.
       -5    1    3    3    0  502 -0.11830331693E+03  0.37287168042E+03 -0.81339564666E+02  0.39958375797E+03  0.46999998093E+01 0.  1.
</event>
<event>
 5   0  0.2464780E-02  0.7989599E+03  0.7818609E-02  0.9561524E-01
       -2   -1    0    0    0  501  0.00000000000E+00  0.00000000000E+00  0.13880345439E+03  0.13880345442E+03  0.25500000920E-02 0. -1.
        2   -1    0    0  501    0  0.00000000000E+00  0.00000000000E+00 -0.11497135388E+04  0.11497135388E+04  0.25500000920E-02 0.  1.
    10030    2    1    2    0    0  0.00000000000E+00  0.00000000000E+00 -0.10109100844E+04  0.12885169933E+04  0.79895985073E+03 0.  0.
        3    1    3    3  502    0 -0.38132822040E+03  0.10476005235E+03 -0.41424846163E+03  0.57270208521E+03  0.10100000352E+00 0.  1.
       -3    1    3    3    0  502  0.38132822040E+03 -0.10476005235E+03 -0.59666162281E+03  0.71581490804E+03  0.10100000352E+00 0. -1.
</event>
<event>
 5   0  0.9919125E-03  0.8013740E+03  0.7818609E-02  0.9558030E-01
       -3   -1    0    0    0  501  0.00000000000E+00  0.00000000000E+00  0.24392545254E+03  0.24392547345E+03  0.10100000352E+00 0. -1.
        3   -1    0    0  501    0  0.00000000000E+00  0.00000000000E+00 -0.65819315933E+03  0.65819316708E+03  0.10100000352E+00 0.  1.
    10030    2    1    2    0    0  0.00000000000E+00  0.00000000000E+00 -0.41426770679E+03  0.90211864053E+03  0.80137401299E+03 0.  0.
        2    1    3    3  502    0 -0.54578697498E+02 -0.19335286622E+03  0.18312717404E+03  0.27184504221E+03  0.25500000920E-02 0. -1.
       -2    1    3    3    0  502  0.54578697498E+02  0.19335286622E+03 -0.59739488083E+03  0.63027359832E+03  0.25500000920E-02 0.  1.
</event>
<event>
 5   0  0.2460312E-02  0.8001031E+03  0.7818609E-02  0.9559868E-01
       -2   -1    0    0    0  501  0.00000000000E+00  0.00000000000E+00  0.27364905492E+03  0.27364905493E+03  0.25500000920E-02 0.  1.
        2   -1    0    0  501    0  0.00000000000E+00  0.00000000000E+00 -0.58484126402E+03  0.58484126403E+03  0.25500000920E-02 0. -1.
    10030    2    1    2    0    0  0.00000000000E+00  0.00000000000E+00 -0.31119220910E+03  0.85849031896E+03  0.80010314132E+03 0.  0.
        2    1    3    3  502    0 -0.11540933396E+03  0.34563067791E+03 -0.33275515312E+03  0.49346314129E+03  0.25500000920E-02 0. -1.
       -2    1    3    3    0  502  0.11540933396E+03 -0.34563067791E+03  0.21562944021E+02  0.36502717767E+03  0.25500000920E-02 0.  1.
</event>
<event>
 5   0  0.2571778E-02  0.8048138E+03  0.7818609E-02  0.9553075E-01
        2   -1    0    0  501    0  0.00000000000E+00  0.00000000000E+00  0.34429519549E+03  0.34429519550E+03  0.25500000920E-02 0. -1.
       -2   -1    0    0    0  501  0.00000000000E+00  0.00000000000E+00 -0.47032698314E+03  0.47032698315E+03  0.25500000920E-02 0.  1.
    10030    2    1    2    0    0  0.00000000000E+00  0.00000000000E+00 -0.12603178765E+03  0.81462217864E+03  0.80481381849E+03 0.  0.
        1    1    3    3  502    0  0.27146815712E+03 -0.24563121004E+03 -0.23208953114E+03  0.43346880183E+03  0.50400001928E-02 0.  1.
       -1    1    3    3    0  502 -0.27146815712E+03  0.24563121004E+03  0.10605774349E+03  0.38115337681E+03  0.50400001928E-02 0. -1.
</event>
<event>
 5   0  0.1523811E-02  0.7569108E+03  0.7818609E-02  0.9624570E-01
       -1   -1    0    0    0  501  0.00000000000E+00  0.00000000000E+00  0.24929075547E+03  0.24929075552E+03  0.50400001928E-02 0.  1.
        1   -1    0    0  501    0  0.00000000000E+00  0.00000000000E+00 -0.57454398882E+03  0.57454398884E+03  0.50400001928E-02 0. -1.
    10030    2    1    2    0    0  0.00000000000E+00  0.00000000000E+00 -0.32525323335E+03  0.82383474436E+03  0.75691084033E+03 0.  0.
        1    1    3    3  502    0  0.26467323975E+03  0.21803548560E+02 -0.45609824921E+03  0.52778113980E+03  0.50400001928E-02 0.  1.
       -1    1    3    3    0  502 -0.26467323975E+03 -0.21803548560E+02  0.13084501586E+03  0.29605360456E+03  0.50400001928E-02 0. -1.
</event>
<event>
 5   0  0.2422031E-02  0.7967147E+03  0.7818609E-02  0.9564785E-01
       -2   -1    0    0    0  501  0.00000000000E+00  0.00000000000E+00  0.30041869905E+03  0.30041869906E+03  0.25500000920E-02 0.  1.
        2   -1    0    0  501    0  0.00000000000E+00  0.00000000000E+00 -0.52822464749E+03  0.52822464749E+03  0.25500000920E-02 0. -1.
    10030    2    1    2    0    0  0.00000000000E+00  0.00000000000E+00 -0.22780594843E+03  0.82864334656E+03  0.79671465761E+03 0.  0.
        4    1    3    3  502    0 -0.34353299875E+03  0.80204623646E+02 -0.30635697078E+03  0.46723003898E+03  0.12699999809E+01 0. -1.
       -4    1    3    3    0  502  0.34353299875E+03 -0.80204623646E+02  0.78551022342E+02  0.36141330758E+03  0.12699999809E+01 0.  1.
</event>
<event>
 5   0  0.2422031E-02  0.8004708E+03  0.7818609E-02  0.9559336E-01
       -2   -1    0    0    0  501  0.00000000000E+00  0.00000000000E+00  0.17739885792E+03  0.17739885794E+03  0.25500000920E-02 0.  1.
        2   -1    0    0  501    0  0.00000000000E+00  0.00000000000E+00 -0.90298428844E+03  0.90298428844E+03  0.25500000920E-02 0. -1.
    10030    2    1    2    0    0  0.00000000000E+00  0.00000000000E+00 -0.72558543052E+03  0.10803831464E+04  0.80047081521E+03 0.  0.
        4    1    3    3  502    0  0.37813167555E+03  0.39391385676E+02 -0.19393900649E+03  0.42678940528E+03  0.12699999809E+01 0. -1.
       -4    1    3    3    0  502 -0.37813167555E+03 -0.39391385676E+02 -0.53164642403E+03  0.65359374110E+03  0.12699999809E+01 0.  1.
</event>
<event>
 5   0  0.2464780E-02  0.7869454E+03  0.7818609E-02  0.9579108E-01
        2   -1    0    0  501    0  0.00000000000E+00  0.00000000000E+00  0.10756700729E+04  0.10756700729E+04  0.25500000920E-02 0. -1.
       -2   -1    0    0    0  501  0.00000000000E+00  0.00000000000E+00 -0.14392958550E+03  0.14392958553E+03  0.25500000920E-02 0.  1.
    10030    2    1    2    0    0  0.00000000000E+00  0.00000000000E+00  0.93174048739E+03  0.12195996584E+04  0.78694535451E+03 0.  0.
        3    1    3    3  502    0 -0.35710961154E+03  0.16222312877E+03  0.41742551456E+03  0.57278939285E+03  0.10100000352E+00 0.  1.
       -3    1    3    3    0  502  0.35710961154E+03 -0.16222312877E+03  0.51431497283E+03  0.64681026557E+03  0.10100000352E+00 0. -1.
</event>
<event>
 5   0  0.1498375E-02  0.8117801E+03  0.7818609E-02  0.9543121E-01
        1   -1    0    0  501    0  0.00000000000E+00  0.00000000000E+00  0.16461731023E+04  0.16461731023E+04  0.50400001928E-02 0. -1.
       -1   -1    0    0    0  501  0.00000000000E+00  0.00000000000E+00 -0.10007863070E+03  0.10007863082E+03  0.50400001928E-02 0.  1.
    10030    2    1    2    0    0  0.00000000000E+00  0.00000000000E+00  0.15460944716E+04  0.17462517331E+04  0.81178014285E+03 0.  0.
        4    1    3    3  502    0  0.91785112688E+02 -0.14546722100E+03 -0.17799608574E+02  0.17292674248E+03  0.12699999809E+01 0.  1.
       -4    1    3    3    0  502 -0.91785112688E+02  0.14546722100E+03  0.15638940802E+04  0.15733249906E+04  0.12699999809E+01 0. -1.
</event>
<event>
 5   0  0.1471290E-02  0.8008479E+03  0.7818609E-02  0.9558791E-01
        1   -1    0    0  501    0  0.00000000000E+00  0.00000000000E+00  0.10475319839E+04  0.10475319839E+04  0.50400001928E-02 0. -1.
       -1   -1    0    0    0  501  0.00000000000E+00  0.00000000000E+00 -0.15306389975E+03  0.15306389984E+03  0.50400001928E-02 0.  1.
    10030    2    1    2    0    0  0.00000000000E+00  0.00000000000E+00  0.89446808412E+03  0.12005958837E+04  0.80084787725E+03 0.  0.
        2    1    3    3  502    0 -0.60434655538E+02  0.24807486737E+03  0.90965949532E+03  0.94481420652E+03  0.25500000920E-02 0. -1.
       -2    1    3    3    0  502  0.60434655538E+02 -0.24807486737E+03 -0.15191411202E+02  0.25578167720E+03  0.25500000920E-02 0.  1.
</event>
<event>
 5   0  0.2464780E-02  0.7986604E+03  0.7818609E-02  0.9561958E-01
        2   -1    0    0  501    0  0.00000000000E+00  0.00000000000E+00  0.73785790185E+03  0.73785790185E+03  0.25500000920E-02 0. -1.
       -2   -1    0    0    0  501  0.00000000000E+00  0.00000000000E+00 -0.21611832714E+03  0.21611832715E+03  0.25500000920E-02 0.  1.
    10030    2    1    2    0    0  0.00000000000E+00  0.00000000000E+00  0.52173957471E+03  0.95397622900E+03  0.79866041700E+03 0.  0.
        3    1    3    3  502    0 -0.16866712996E+03  0.36081072006E+03  0.22642368020E+03  0.45814917832E+03  0.10100000352E+00 0.  1.
       -3    1    3    3    0  502  0.16866712996E+03 -0.36081072006E+03  0.29531589451E+03  0.49582705068E+03  0.10100000352E+00 0. -1.
</event>
<event>
 5   0  0.2422031E-02  0.8122709E+03  0.7818609E-02  0.9542423E-01
       -2   -1    0    0    0  501  0.00000000000E+00  0.00000000000E+00  0.36621007640E+03  0.36621007641E+03  0.25500000920E-02 0. -1.
        2   -1    0    0  501    0  0.00000000000E+00  0.00000000000E+00 -0.45041364791E+03  0.45041364792E+03  0.25500000920E-02 0.  1.
    10030    2    1    2    0    0  0.00000000000E+00  0.00000000000E+00 -0.84203571509E+02  0.81662372433E+03  0.81227093121E+03 0.  0.
        4    1    3    3  502    0  0.18880827703E+03  0.21750746933E+03  0.24576517851E+03  0.37862937097E+03  0.12699999809E+01 0. -1.
       -4    1    3    3    0  502 -0.18880827703E+03 -0.21750746933E+03 -0.32996875002E+03  0.43799435337E+03  0.12699999809E+01 0.  1.
</event>
<event>
 5   0  0.2422031E-02  0.7838147E+03  0.7818609E-02  0.9583745E-01
        2   -1    0    0  501    0  0.00000000000E+00  0.00000000000E+00  0.89599021052E+03  0.89599021052E+03  0.25500000920E-02 0. -1.
       -2   -1    0    0    0  501  0.00000000000E+00  0.00000000000E+00 -0.17142082858E+03  0.17142082860E+03  0.25500000920E-02 0.  1.
    10030    2    1    2    0    0  0.00000000000E+00  0.00000000000E+00  0.72456938194E+03  0.10674110391E+04  0.78381473397E+03 0.  0.
        4    1    3    3  502    0  0.38074981431E+03  0.11643636460E+02  0.48771799565E+03  0.61885091221E+03  0.12699999809E+01 0. -1.
       -4    1    3    3    0  502 -0.38074981431E+03 -0.11643636460E+02  0.23685138629E+03  0.44856012691E+03  0.12699999809E+01 0.  1.
</event>
<event>
 5   0  0.1624094E-02  0.7778077E+03  0.7818609E-02  0.9592707E-01
        1   -1    0    0  501    0  0.00000000000E+00  0.00000000000E+00  0.51433440208E+03  0.51433440210E+03  0.50400001928E-02 0.  1.
       -1   -1    0    0    0  501  0.00000000000E+00  0.00000000000E+00 -0.29406200505E+03  0.29406200509E+03  0.50400001928E-02 0. -1.
    10030    2    1    2    0    0  0.00000000000E+00  0.00000000000E+00  0.22027239703E+03  0.80839640720E+03  0.77780770263E+03 0.  0.
        3    1    3    3  502    0 -0.16693892481E+03 -0.24965209004E+03 -0.14666676817E+03  0.33422435842E+03  0.10100000352E+00 0. -1.
       -3    1    3    3    0  502  0.16693892481E+03  0.24965209004E+03  0.36693916520E+03  0.47417204877E+03  0.10100000352E+00 0.  1.
</event>
<event>
 5   0  0.1523811E-02  0.7786419E+03  0.7818609E-02  0.9591457E-01
       -1   -1    0    0    0  501  0.00000000000E+00  0.00000000000E+00  0.18974000856E+03  0.18974000862E+03  0.50400001928E-02 0.  1.
        1   -1    0    0  501    0  0.00000000000E+00  0.00000000000E+00 -0.79883407360E+03  0.79883407362E+03  0.50400001928E-02 0. -1.
    10030    2    1    2    0    0  0.00000000000E+00  0.00000000000E+00 -0.60909406504E+03  0.98857408224E+03  0.77864185349E+03 0.  0.
        1    1    3    3  502    0  0.21839660551E+03 -0.31940829879E+03 -0.35918534576E+03  0.52795156148E+03  0.50400001928E-02 0.  1.
       -1    1    3    3    0  502 -0.21839660551E+03  0.31940829879E+03 -0.24990871928E+03  0.46062252076E+03  0.50400001928E-02 0. -1.
</event>
<event>
 5   0  0.1471290E-02  0.7923573E+03  0.7818609E-02  0.9571146E-01
        1   -1    0    0  501    0  0.00000000000E+00  0.00000000000E+00  0.58991514490E+03  0.58991514492E+03  0.50400001928E-02 0.  1.
       -1   -1    0    0    0  501  0.00000000000E+00  0.00000000000E+00 -0.26606794902E+03  0.26606794907E+03  0.50400001928E-02 0. -1.
    10030    2    1    2    0    0  0.00000000000E+00  0.00000000000E+00  0.32384719587E+03  0.85598309399E+03  0.79235727479E+03 0.  0.
        2    1    3    3  502    0  0.39479168791E+03  0.32771469826E+02  0.16711203294E+03  0.42995450647E+03  0.25500000920E-02 0. -1.
       -2    1    3    3    0  502 -0.39479168791E+03 -0.32771469826E+02  0.15673516294E+03  0.42602858752E+03  0.25500000920E-02 0.  1.
</event>
<event>
 5   0  0.2571778E-02  0.8038495E+03  0.7818609E-02  0.9554462E-01
        2   -1    0    0  501    0  0.00000000000E+00  0.00000000000E+00  0.10565852820E+04  0.10565852820E+04  0.25500000920E-02 0. -1.
       -2   -1    0    0    0  501  0.00000000000E+00  0.00000000000E+00 -0.15289208285E+03  0.15289208287E+03  0.25500000920E-02 0.  1.
    10030    2    1    2    0    0  0.00000000000E+00  0.00000000000E+00  0.90369319919E+03  0.12094773649E+04  0.80384954934E+03 0.  0.
        1    1    3    3  502    0  0.10980249006E+02 -0.34728869454E+03  0.75581259738E+03  0.83185496669E+03  0.50400001928E-02 0. -1.
       -1    1    3    3    0  502 -0.10980249006E+02  0.34728869454E+03  0.14788060181E+03  0.37762239822E+03  0.50400001928E-02 0.  1.
</event>
<event>
 5   0  0.2422031E-02  0.8091385E+03  0.7818609E-02  0.9546883E-01
       -2   -1    0    0    0  501  0.00000000000E+00  0.00000000000E+00  0.51691036687E+03  0.51691036688E+03  0.25500000920E-02 0. -1.
        2   -1    0    0  501    0  0.00000000000E+00  0.00000000000E+00 -0.31664340900E+03  0.31664340901E+03  0.25500000920E-02 0.  1.
    10030    2    1    2    0    0  0.00000000000E+00  0.00000000000E+00  0.20026695787E+03  0.83355377589E+03  0.80913845717E+03 0.  0.
        4    1    3    3  502    0 -0.16609635907E+03  0.57231122751E+02  0.47556281511E+03  0.50697633665E+03  0.12699999809E+01 0. -1.
       -4    1    3    3    0  502  0.16609635907E+03 -0.57231122751E+02 -0.27529585723E+03  0.32657743924E+03  0.12699999809E+01 0.  1.
</event>
<event>
 5   0  0.1509629E-02  0.8267130E+03  0.7818609E-02  0.9522136E-01
        1   -1    0    0  501    0  0.00000000000E+00  0.00000000000E+00  0.90496251264E+03  0.90496251266E+03  0.50400001928E-02 0.  1.
       -1   -1    0    0    0  501  0.00000000000E+00  0.00000000000E+00 -0.18880737585E+03  0.18880737591E+03  0.50400001928E-02 0. -1.
    10030    2    1    2    0    0  0.00000000000E+00  0.00000000000E+00  0.71615513680E+03  0.10937698886E+04  0.82671300291E+03 0.  0.
        5    1    3    3  502    0 -0.24374791904E+03  0.26449329536E+03  0.88646665291E+02  0.37047276903E+03  0.46999998093E+01 0. -1.
       -5    1    3    3    0  502  0.24374791904E+03 -0.26449329536E+03  0.62750847151E+03  0.72329711954E+03  0.46999998093E+01 0.  1.
</event>
<event>
 5   0  0.2571778E-02  0.8066232E+03  0.7818609E-02  0.9550480E-01
        2   -1    0    0  501    0  0.00000000000E+00  0.00000000000E+00  0.79330243795E+03  0.79330243796E+03  0.25500000920E-02 0.  1.
       -2   -1    0    0    0  501  0.00000000000E+00  0.00000000000E+00 -0.20504190127E+03  0.20504190129E+03  0.25500000920E-02 0. -1.
    10030    2    1    2    0    0  0.00000000000E+00  0.00000000000E+00  0.58826053668E+03  0.99834433925E+03  0.80662318383E+03 0.  0.
        1    1    3    3  502    0  0.16750859520E+03  0.46698960674E+02  0.74451843587E+03  0.76455714225E+03  0.50400001928E-02 0.  1.
       -1    1    3    3    0  502 -0.16750859520E+03 -0.46698960674E+02 -0.15625789919E+03  0.23378719700E+03  0.50400001928E-02 0. -1.
</event>
<event>
 5   0  0.1523811E-02  0.8436667E+03  0.7818609E-02  0.9498877E-01
        1   -1    0    0  501    0  0.00000000000E+00  0.00000000000E+00  0.74606700362E+03  0.74606700364E+03  0.50400001928E-02 0. -1.
       -1   -1    0    0    0  501  0.00000000000E+00  0.00000000000E+00 -0.23850854634E+03  0.23850854640E+03  0.50400001928E-02 0.  1.
    10030    2    1    2    0    0  0.00000000000E+00  0.00000000000E+00  0.50755845728E+03  0.98457555004E+03  0.84366665584E+03 0.  0.
        1    1    3    3  502    0 -0.92255597172E+02  0.35865051845E+03  0.48951161019E+03  0.61381015479E+03  0.50400001928E-02 0. -1.
       -1    1    3    3    0  502  0.92255597172E+02 -0.35865051845E+03  0.18046847092E+02  0.37076539524E+03  0.50400001928E-02 0.  1.
</event>
<event>
 5   0  0.1509629E-02  0.7928260E+03  0.7818609E-02  0.9570460E-01
        1   -1    0    0  501    0  0.00000000000E+00  0.00000000000E+00  0.12803814606E+04  0.12803814606E+04  0.50400001928E-02 0.  1.
       -1   -1    0    0    0  501  0.00000000000E+00  0.00000000000E+00 -0.12273159567E+03  0.12273159578E+03  0.50400001928E-02 0. -1.
    10030    2    1    2    0    0  0.00000000000E+00  0.00000000000E+00  0.11576498649E+04  0.14031130564E+04  0.79282598295E+03 0.  0.
        5    1    3    3  502    0  0.22996948449E+03  0.40949888966E+02  0.12063584383E+02  0.23394545789E+03  0.46999998093E+01 0. -1.
       -5    1    3    3    0  502 -0.22996948449E+03 -0.40949888966E+02  0.11455862805E+04  0.11691675985E+04  0.46999998093E+01 0.  1.
</event>
<event>
 5   0  0.1509629E-02  0.7907598E+03  0.7818609E-02  0.9573489E-01
        1   -1    0    0  501    0  0.00000000000E+00  0.00000000000E+00  0.16678409390E+03  0.16678409397E+03  0.50400001928E-02 0.  1.
       -1   -1    0    0    0  501  0.00000000000E+00  0.00000000000E+00 -0.93729110774E+03  0.93729110775E+03  0.50400001928E-02 0. -1.
    10030    2    1    2    0    0  0.00000000000E+00  0.00000000000E+00 -0.77050701384E+03  0.11040752017E+04  0.79075975662E+03 0.  0.
        5    1    3    3  502    0 -0.22039721223E+03 -0.33035944570E+02  0.70686558418E+02  0.23384820789E+03  0.46999998093E+01 0.  1.
       -5    1    3    3    0  502  0.22039721223E+03  0.33035944570E+02 -0.84119357226E+03  0.87022699384E+03  0.46999998093E+01 0. -1.
</event>
<event>
 5   0  0.2454354E-02  0.8003855E+03  0.7818609E-02  0.9559459E-01
        2   -1    0    0  501    0  0.00000000000E+00  0.00000000000E+00  0.11939910602E+04  0.11939910602E+04  0.25500000920E-02 0.  1.
       -2   -1    0    0    0  501  0.00000000000E+00  0.00000000000E+00 -0.13413353644E+03  0.13413353647E+03  0.25500000920E-02 0. -1.
    10030    2    1    2    0    0  0.00000000000E+00  0.00000000000E+00  0.10598575238E+04  0.13281245967E+04  0.80038551563E+03 0.  0.
        5    1    3    3  502    0  0.12023298852E+03 -0.45360669768E+02 -0.98918147406E+02  0.16223579067E+03  0.46999998093E+01 0. -1.
       -5    1    3    3    0  502 -0.12023298852E+03  0.45360669768E+02  0.11587756712E+04  0.11658888060E+04  0.46999998093E+01 0.  1.
</event>
<event>
 5   0  0.2454354E-02  0.7961199E+03  0.7818609E-02  0.9565650E-01
        2   -1    0    0  501    0  0.00000000000E+00  0.00000000000E+00  0.48608813182E+03  0.48608813182E+03  0.25500000920E-02 0.  1.
       -2   -1    0    0    0  501  0.00000000000E+00  0.00000000000E+00 -0.32597324251E+03  0.32597324252E+03  0.25500000920E-02 0. -1.
    10030    2    1    2    0    0  0.00000000000E+00  0.00000000000E+00  0.16011488931E+03  0.81206137434E+03  0.79611990173E+03 0.  0.
        5    1    3    3  502    0  0.62128340943E+02 -0.40429739625E+02 -0.31884253614E+03  0.32737921046E+03  0.46999998093E+01 0. -1.
       -5    1    3    3    0  502 -0.62128340943E+02  0.40429739625E+02  0.47895742545E+03  0.48468216388E+03  0.46999998093E+01 0.  1.
</event>
<event>
 5   0  0.2422031E-02  0.8072952E+03  0.7818609E-02  0.9549517E-01
       -2   -1    0    0    0  501  0.00000000000E+00  0.00000000000E+00  0.17753300978E+03  0.17753300980E+03  0.25500000920E-02 0.  1.
        2   -1    0    0  501    0  0.00000000000E+00  0.00000000000E+00 -0.91775259157E+03  0.91775259158E+03  0.25500000920E-02 0. -1.
    10030    2    1    2    0    0  0.00000000000E+00  0.00000000000E+00 -0.74021958179E+03  0.10952856014E+04  0.80729518722E+03 0.  0.
        4    1    3    3  502    0  0.17545886355E+02 -0.38019114190E+03 -0.55252180650E+03  0.67092109973E+03  0.12699999809E+01 0. -1.
       -4    1    3    3    0  502 -0.17545886355E+02  0.38019114190E+03 -0.18769777529E+03  0.42436450164E+03  0.12699999809E+01 0.  1.
</event>
<event>
 5   0  0.1523811E-02  0.8036721E+03  0.7818609E-02  0.9554717E-01
        1   -1    0    0  501    0  0.00000000000E+00  0.00000000000E+00  0.35135168390E+03  0.35135168394E+03  0.50400001928E-02 0.  1.
       -1   -1    0    0    0  501  0.00000000000E+00  0.00000000000E+00 -0.45957434363E+03  0.45957434366E+03  0.50400001928E-02 0. -1.
    10030    2    1    2    0    0  0.00000000000E+00  0.00000000000E+00 -0.10822265973E+03  0.81092602760E+03  0.80367212106E+03 0.  0.
        1    1    3    3  502    0 -0.14999714027E+03  0.20944894266E+03  0.25706189861E+03  0.36393518848E+03  0.50400001928E-02 0.  1.
       -1    1    3    3    0  502  0.14999714027E+03 -0.20944894266E+03 -0.36528455834E+03  0.44699083912E+03  0.50400001928E-02 0. -1.
</event>
<event>
 5   0  0.2454354E-02  0.8052090E+03  0.7818609E-02  0.9552508E-01
        2   -1    0    0  501    0  0.00000000000E+00  0.00000000000E+00  0.23298903457E+04  0.23298903457E+04  0.25500000920E-02 0. -1.
       -2   -1    0    0    0  501  0.00000000000E+00  0.00000000000E+00 -0.69569963107E+02  0.69569963154E+02  0.25500000920E-02 0.  1.
    10030    2    1    2    0    0  0.00000000000E+00  0.00000000000E+00  0.22603203826E+04  0.23994603089E+04  0.80520900505E+03 0.  0.
        5    1    3    3  502    0  0.20042559969E+03  0.73096095937E+02  0.11281088211E+03  0.24137490626E+03  0.46999998093E+01 0.  1.
       -5    1    3    3    0  502 -0.20042559969E+03 -0.73096095937E+02  0.21475095005E+04  0.21580854026E+04  0.46999998093E+01 0. -1.
</event>
<event>
 5   0  0.1509629E-02  0.9145272E+03  0.7818609E-02  0.9407602E-01
        1   -1    0    0  501    0  0.00000000000E+00  0.00000000000E+00  0.79785905282E+03  0.79785905284E+03  0.50400001928E-02 0. -1.
       -1   -1    0    0    0  501  0.00000000000E+00  0.00000000000E+00 -0.26206381140E+03  0.26206381145E+03  0.50400001928E-02 0.  1.
    10030    2    1    2    0    0  0.00000000000E+00  0.00000000000E+00  0.53579524142E+03  0.10599228643E+04  0.91452716609E+03 0.  0.
        5    1    3    3  502    0  0.30997021164E+03  0.12227445431E+03  0.63078255280E+03  0.71340121475E+03  0.46999998093E+01 0. -1.
       -5    1    3    3    0  502 -0.30997021164E+03 -0.12227445431E+03 -0.94987311383E+02  0.34652164954E+03  0.46999998093E+01 0.  1.
</event>
<event>
 5   0  0.2464780E-02  0.7998829E+03  0.7818609E-02  0.9560187E-01
       -2   -1    0    0    0  501  0.00000000000E+00  0.00000000000E+00  0.21964279819E+03  0.21964279820E+03  0.25500000920E-02 0. -1.
        2   -1    0    0  501    0  0.00000000000E+00  0.00000000000E+00 -0.72824223189E+03  0.72824223189E+03  0.25500000920E-02 0.  1.
    10030    2    1    2    0    0  0.00000000000E+00  0.00000000000E+00 -0.50859943370E+03  0.94788503009E+03  0.79988289537E+03 0.  0.
        3    1    3    3  502    0 -0.28019999005E+03  0.43042907324E+02  0.80014010750E+02  0.29456235064E+03  0.10100000352E+00 0. -1.
       -3    1    3    3    0  502  0.28019999005E+03 -0.43042907324E+02 -0.58861344445E+03  0.65332267945E+03  0.10100000352E+00 0.  1.
</event>
<event>
 5   0  0.2454354E-02  0.7782558E+03  0.7818609E-02  0.9592035E-01
        2   -1    0    0  501    0  0.00000000000E+00  0.00000000000E+00  0.10041066268E+04  0.10041066268E+04  0.25500000920E-02 0.  1.
       -2   -1    0    0    0  501  0.00000000000E+00  0.00000000000E+00 -0.15080125691E+03  0.15080125693E+03  0.25500000920E-02 0. -1.
    10030    2    1    2    0    0  0.00000000000E+00  0.00000000000E+00  0.85330536993E+03  0.11549078838E+04  0.77825584844E+03 0.  0.
        5    1    3    3  502    0 -0.14113140218E+03 -0.29886384056E+02  0.96291246949E+03  0.97367026376E+03  0.46999998093E+01 0.  1.
       -5    1    3    3    0  502  0.14113140218E+03  0.29886384056E+02 -0.10960709956E+03  0.18123762001E+03  0.46999998093E+01 0. -1.
</event>
<event>
 5   0  0.1498375E-02  0.7975319E+03  0.7818609E-02  0.9563596E-01
        1   -1    0    0  501    0  0.00000000000E+00  0.00000000000E+00  0.70126722404E+03  0.70126722406E+03  0.50400001928E-02 0. -1.
       -1   -1    0    0    0  501  0.00000000000E+00  0.00000000000E+00 -0.22675277340E+03  0.22675277346E+03  0.50400001928E-02 0.  1.
    10030    2    1    2    0    0  0.00000000000E+00  0.00000000000E+00  0.47451445064E+03  0.92801999752E+03  0.79753191280E+03 0.  0.
        4    1    3    3  502    0 -0.35024447215E+03 -0.10330576280E+03  0.42368780879E+03  0.55933553715E+03  0.12699999809E+01 0. -1.
       -4    1    3    3    0  502  0.35024447215E+03  0.10330576280E+03  0.50826641844E+02  0.36868446037E+03  0.12699999809E+01 0.  1.
</event>
<event>
 5   0  0.2464780E-02  0.7718986E+03  0.7818609E-02  0.9601608E-01
        2   -1    0    0  501    0  0.00000000000E+00  0.00000000000E+00  0.97931099796E+03  0.97931099796E+03  0.25500000920E-02 0. -1.
       -2   -1    0    0    0  501  0.00000000000E+00  0.00000000000E+00 -0.15210372347E+03  0.15210372350E+03  0.25500000920E-02 0.  1.
    10030    2    1    2    0    0  0.00000000000E+00  0.00000000000E+00  0.82720727448E+03  0.11314147215E+04  0.77189856651E+03 0.  0.
        3    1    3    3  502    0 -0.13971382332E+02  0.10840370827E+03  0.95615162961E+03  0.96237857026E+03  0.10100000352E+00 0. -1.
       -3    1    3    3    0  502  0.13971382332E+02 -0.10840370827E+03 -0.12894435513E+03  0.16903615119E+03  0.10100000352E+00 0.  1.
</event>
<event>
 5   0  0.2460312E-02  0.8024582E+03  0.7818609E-02  0.9556466E-01
       -2   -1    0    0    0  501  0.00000000000E+00  0.00000000000E+00  0.18573439418E+03  0.18573439420E+03  0.25500000920E-02 0.  1.
        2   -1    0    0  501    0  0.00000000000E+00  0.00000000000E+00 -0.86674731613E+03  0.86674731614E+03  0.25500000920E-02 0. -1.
    10030    2    1    2    0    0  0.00000000000E+00  0.00000000000E+00 -0.68101292195E+03  0.10524817103E+04  0.80245819251E+03 0.  0.
        2    1    3    3  502    0 -0.20928565097E+03 -0.22276291331E+03  0.40385222177E+00  0.30565333689E+03  0.25500000920E-02 0.  1.
       -2    1    3    3    0  502  0.20928565097E+03  0.22276291331E+03 -0.68141677417E+03  0.74682837344E+03  0.25500000920E-02 0. -1.
</event>
<event>
 5   0  0.2422031E-02  0.7873457E+03  0.7818609E-02  0.9578516E-01
       -2   -1    0    0    0  501  0.00000000000E+00  0.00000000000E+00  0.11377430901E+03  0.11377430903E+03  0.25500000920E-02 0. -1.
        2   -1    0    0  501    0  0.00000000000E+00  0.00000000000E+00 -0.13621556175E+04  0.13621556176E+04  0.25500000920E-02 0.  1.
    10030    2    1    2    0    0  0.00000000000E+00  0.00000000000E+00 -0.12483813085E+04  0.14759299266E+04  0.78734570341E+03 0.  0.
        4    1    3    3  502    0  0.15442976765E+02  0.29239677455E+02 -0.13595438122E+04  0.13599464822E+04  0.12699999809E+01 0.  1.
       -4    1    3    3    0  502 -0.15442976765E+02 -0.29239677455E+02  0.11116250362E+03  0.11598344442E+03  0.12699999809E+01 0. -1.
</event>
<event>
 5   0  0.2464780E-02  0.8079209E+03  0.7818609E-02  0.9548622E-01
        2   -1    0    0  501    0  0.00000000000E+00  0.00000000000E+00  0.91902612574E+03  0.91902612574E+03  0.25500000920E-02 0. -1.
       -2   -1    0    0    0  501  0.00000000000E+00  0.00000000000E+00 -0.17756191298E+03  0.17756191299E+03  0.25500000920E-02 0.  1.
    10030    2    1    2    0    0  0.00000000000E+00  0.00000000000E+00  0.74146421276E+03  0.10965880387E+04  0.80792087972E+03 0.  0.
        3    1    3    3  502    0  0.78377100589E+02 -0.38866391231E+03  0.47570491732E+03  0.61927197998E+03  0.10100000352E+00 0. -1.
       -3    1    3    3    0  502 -0.78377100589E+02  0.38866391231E+03  0.26575929544E+03  0.47731605875E+03  0.10100000352E+00 0.  1.
</event>
<event>
 5   0  0.2571778E-02  0.8912160E+03  0.7818609E-02  0.9436629E-01
       -2   -1    0    0    0  501  0.00000000000E+00  0.00000000000E+00  0.36797479608E+03  0.36797479609E+03  0.25500000920E-02 0.  1.
        2   -1    0    0  501    0  0.00000000000E+00  0.00000000000E+00 -0.53961983374E+03  0.53961983375E+03  0.25500000920E-02 0. -1.
    10030    2    1    2    0    0  0.00000000000E+00  0.00000000000E+00 -0.17164503766E+03  0.90759462984E+03  0.89121601936E+03 0.  0.
        1    1    3    3  502    0 -0.12909922916E+03 -0.35692637342E+03 -0.32357274296E+03  0.49876083149E+03  0.50400001928E-02 0. -1.
       -1    1    3    3    0  502  0.12909922916E+03  0.35692637342E+03  0.15192770530E+03  0.40883379835E+03  0.50400001928E-02 0.  1.
</event>
<event>
 5   0  0.2571778E-02  0.7900166E+03  0.7818609E-02  0.9574581E-01
        2   -1    0    0  501    0  0.00000000000E+00  0.00000000000E+00  0.17059005769E+04  0.17059005769E+04  0.25500000920E-02 0.  1.
       -2   -1    0    0    0  501  0.00000000000E+00  0.00000000000E+00 -0.91465807625E+02  0.91465807660E+02  0.25500000920E-02 0. -1.
    10030    2    1    2    0    0  0.00000000000E+00  0.00000000000E+00  0.16144347693E+04  0.17973663846E+04  0.79001664293E+03 0.  0.
        1    1    3    3  502    0  0.38300540007E+03  0.77032544945E+02  0.93996362526E+03  0.10179188407E+04  0.50400001928E-02 0.  1.
       -1    1    3    3    0  502 -0.38300540007E+03 -0.77032544945E+02  0.67447114401E+03  0.77944754383E+03  0.50400001928E-02 0. -1.
</event>
<event>
 5   0  0.1523811E-02  0.7655136E+03  0.7818609E-02  0.9611322E-01
       -1   -1    0    0    0  501  0.00000000000E+00  0.00000000000E+00  0.50683940922E+03  0.50683940924E+03  0.50400001928E-02 0. -1.
        1   -1    0    0  501    0  0.00000000000E+00  0.00000000000E+00 -0.28905161970E+03  0.28905161974E+03  0.50400001928E-02 0.  1.
    10030    2    1    2    0    0  0.00000000000E+00  0.00000000000E+00  0.21778778952E+03  0.79589102899E+03  0.76551355883E+03 0.  0.
        1    1    3    3  502    0  0.77343876330E+02  0.37130549497E+03  0.16244416696E+03  0.41259902230E+03  0.50400001928E-02 0.  1.
       -1    1    3    3    0  502 -0.77343876330E+02 -0.37130549497E+03  0.55343622563E+02  0.38329200668E+03  0.50400001928E-02 0. -1.
</event>
<event>
 5   0  0.1471290E-02  0.7987039E+03  0.7818609E-02  0.9561895E-01
        1   -1    0    0  501    0  0.00000000000E+00  0.00000000000E+00  0.80075378985E+03  0.80075378986E+03  0.50400001928E-02 0. -1.
       -1   -1    0    0    0  501  0.00000000000E+00  0.00000000000E+00 -0.19916480919E+03  0.19916480926E+03  0.50400001928E-02 0.  1.
    10030    2    1    2    0    0  0.00000000000E+00  0.00000000000E+00  0.60158898065E+03  0.99991859912E+03  0.79870388957E+03 0.  0.
        2    1    3    3  502    0 -0.35560163508E+03 -0.16633246895E+03  0.39247589012E+03  0.55511830940E+03  0.25500000920E-02 0. -1.
       -2    1    3    3    0  502  0.35560163508E+03  0.16633246895E+03  0.20911309053E+03  0.44480028972E+03  0.25500000920E-02 0.  1.
</event>
<event>
 5   0  0.2571778E-02  0.8131613E+03  0.7818609E-02  0.9541160E-01
        2   -1    0    0  501    0  0.00000000000E+00  0.00000000000E+00  0.21594346775E+03  0.21594346776E+03  0.25500000920E-02 0. -1.
       -2   -1    0    0    0  501  0.00000000000E+00  0.00000000000E+00 -0.76551443347E+03  0.76551443347E+03  0.25500000920E-02 0.  1.
    10030    2    1    2    0    0  0.00000000000E+00  0.00000000000E+00 -0.54957096573E+03  0.98145790123E+03  0.81316134040E+03 0.  0.
        1    1    3    3  502    0  0.37890701634E+03 -0.76894761969E+02 -0.12295461066E+03  0.40571069466E+03  0.50400001928E-02 0. -1.
       -1    1    3    3    0  502 -0.37890701634E+03  0.76894761969E+02 -0.42661635506E+03  0.57574720658E+03  0.50400001928E-02 0.  1.
</event>
<event>
 5   0  0.1624094E-02  0.7856286E+03  0.7818609E-02  0.9581055E-01
       -1   -1    0    0    0  501  0.00000000000E+00  0.00000000000E+00  0.34007754613E+03  0.34007754617E+03  0.50400001928E-02 0.  1.
        1   -1    0    0  501    0  0.00000000000E+00  0.00000000000E+00 -0.45372909470E+03  0.45372909473E+03  0.50400001928E-02 0. -1.
    10030    2    1    2    0    0  0.00000000000E+00  0.00000000000E+00 -0.11365154856E+03  0.79380664090E+03  0.78562860732E+03 0.  0.
        3    1    3    3  502    0 -0.29389004567E+03 -0.26446408065E+02 -0.31881679597E+03  0.43441331821E+03  0.10100000352E+00 0. -1.
       -3    1    3    3    0  502  0.29389004567E+03  0.26446408065E+02  0.20516524741E+03  0.35939332268E+03  0.10100000352E+00 0.  1.
</event>
<event>
 5   0  0.2454354E-02  0.8097740E+03  0.7818609E-02  0.9545976E-01
       -2   -1    0    0    0  501  0.00000000000E+00  0.00000000000E+00  0.17942758240E+03  0.17942758242E+03  0.25500000920E-02 0. -1.
        2   -1    0    0  501    0  0.00000000000E+00  0.00000000000E+00 -0.91364698599E+03  0.91364698599E+03  0.25500000920E-02 0.  1.
    10030    2    1    2    0    0  0.00000000000E+00  0.00000000000E+00 -0.73421940359E+03  0.10930745684E+04  0.80977396815E+03 0.  0.
        5    1    3    3  502    0  0.21686639093E+03  0.23615420127E+03 -0.33416316133E+02  0.32239506584E+03  0.46999998093E+01 0.  1.
       -5    1    3    3    0  502 -0.21686639093E+03 -0.23615420127E+03 -0.70080308746E+03  0.77067950257E+03  0.46999998093E+01 0. -1.
</event>
<event>
 5   0  0.1624094E-02  0.7879561E+03  0.7818609E-02  0.9577616E-01
        1   -1    0    0  501    0  0.00000000000E+00  0.00000000000E+00  0.54797871015E+03  0.54797871017E+03  0.50400001928E-02 0.  1.
       -1   -1    0    0    0  501  0.00000000000E+00  0.00000000000E+00 -0.28325683184E+03  0.28325683189E+03  0.50400001928E-02 0. -1.
    10030    2    1    2    0    0  0.00000000000E+00  0.00000000000E+00  0.26472187831E+03  0.83123554206E+03  0.78795612411E+03 0.  0.
        3    1    3    3  502    0 -0.83103778596E+01  0.35734561981E+03  0.30715348065E+03  0.47128359324E+03  0.10100000352E+00 0.  1.
       -3    1    3    3    0  502  0.83103778596E+01 -0.35734561981E+03 -0.42431602347E+02  0.35995194882E+03  0.10100000352E+00 0. -1.
</event>
<event>
 5   0  0.2460312E-02  0.7848415E+03  0.7818609E-02  0.9582221E-01
       -2   -1    0    0    0  501  0.00000000000E+00  0.00000000000E+00  0.25188204813E+03  0.25188204814E+03  0.25500000920E-02 0. -1.
        2   -1    0    0  501    0  0.00000000000E+00  0.00000000000E+00 -0.61137362290E+03  0.61137362291E+03  0.25500000920E-02 0.  1.
    10030    2    1    2    0    0  0.00000000000E+00  0.00000000000E+00 -0.35949157477E+03  0.86325567105E+03  0.78484148799E+03 0.  0.
        2    1    3    3  502    0  0.11133420482E+03  0.20333742646E+03 -0.52800720744E+03  0.57665676557E+03  0.25500000920E-02 0.  1.
       -2    1    3    3    0  502 -0.11133420482E+03 -0.20333742646E+03  0.16851563267E+03  0.28659890548E+03  0.25500000920E-02 0. -1.
</event>
<event>
 5   0  0.1498375E-02  0.8259540E+03  0.7818609E-02  0.9523191E-01
        1   -1    0    0  501    0  0.00000000000E+00  0.00000000000E+00  0.23799928321E+03  0.23799928327E+03  0.50400001928E-02 0. -1.
       -1   -1    0    0    0  501  0.00000000000E+00  0.00000000000E+00 -0.71659875035E+03  0.71659875037E+03  0.50400001928E-02 0.  1.
    10030    2    1    2    0    0  0.00000000000E+00  0.00000000000E+00 -0.47859946714E+03  0.95459803363E+03  0.82595396716E+03 0.  0.
        4    1    3    3  502    0  0.30830810047E+03 -0.67762178586E+02 -0.54704849863E+03  0.63159264595E+03  0.12699999809E+01 0.  1.
       -4    1    3    3    0  502 -0.30830810047E+03  0.67762178586E+02  0.68449031491E+02  0.32300538769E+03  0.12699999809E+01 0. -1.
</event>
<event>
 5   0  0.1509629E-02  0.8039875E+03  0.7818609E-02  0.9554263E-01
       -1   -1    0    0    0  501  0.00000000000E+00  0.00000000000E+00  0.38096133294E+03  0.38096133297E+03  0.50400001928E-02 0. -1.
        1   -1    0    0  501    0  0.00000000000E+00  0.00000000000E+00 -0.42418735179E+03  0.42418735182E+03  0.50400001928E-02 0.  1.
    10030    2    1    2    0    0  0.00000000000E+00  0.00000000000E+00 -0.43226018854E+02  0.80514868480E+03  0.80398750981E+03 0.  0.
        5    1    3    3  502    0  0.27898545073E+02  0.39974974885E+03  0.10034823467E+02  0.40087526514E+03  0.46999998093E+01 0. -1.
       -5    1    3    3    0  502 -0.27898545073E+02 -0.39974974885E+03 -0.53260842322E+02  0.40427341966E+03  0.46999998093E+01 0.  1.
</event>
<event>
 5   0  0.1523811E-02  0.8003449E+03  0.7818609E-02  0.9559518E-01
        1   -1    0    0  501    0  0.00000000000E+00  0.00000000000E+00  0.22572624320E+03  0.22572624326E+03  0.50400001928E-02 0. -1.
       -1   -1    0    0    0  501  0.00000000000E+00  0.00000000000E+00 -0.70943455752E+03  0.70943455753E+03  0.50400001928E-02 0.  1.
    10030    2    1    2    0    0  0.00000000000E+00  0.00000000000E+00 -0.48370831431E+03  0.93516080079E+03  0.80034491939E+03 0.  0.
        1    1    3    3  502    0 -0.27393583953E+03  0.13124405648E+03 -0.54626134856E+03  0.62503384508E+03  0.50400001928E-02 0.  1.
       -1    1    3    3    0  502  0.27393583953E+03 -0.13124405648E+03  0.62553034243E+02  0.31012695571E+03  0.50400001928E-02 0. -1.
</event>
<event>
 5   0  0.1471290E-02  0.7979654E+03  0.7818609E-02  0.9562967E-01
        1   -1    0    0  501    0  0.00000000000E+00  0.00000000000E+00  0.12104323757E+04  0.12104323757E+04  0.50400001928E-02 0. -1.
       -1   -1    0    0    0  501  0.00000000000E+00  0.00000000000E+00 -0.13151267110E+03  0.13151267120E+03  0.50400001928E-02 0.  1.
    10030    2    1    2    0    0  0.00000000000E+00  0.00000000000E+00  0.10789197046E+04  0.13419450469E+04  0.79796540023E+03 0.  0.
        2    1    3    3  502    0 -0.27478213242E+03  0.28708811611E+03  0.59921112314E+03  0.71901236207E+03  0.25500000920E-02 0. -1.
       -2    1    3    3    0  502  0.27478213242E+03 -0.28708811611E+03  0.47970858146E+03  0.62293268484E+03  0.25500000920E-02 0.  1.
</event>
<event>
 5   0  0.2464780E-02  0.7880499E+03  0.7818609E-02  0.9577477E-01
       -2   -1    0    0    0  501  0.00000000000E+00  0.00000000000E+00  0.16496728713E+03  0.16496728715E+03  0.25500000920E-02 0.  1.
        2   -1    0    0  501    0  0.00000000000E+00  0.00000000000E+00 -0.94112990151E+03  0.94112990151E+03  0.25500000920E-02 0. -1.
    10030    2    1    2    0    0  0.00000000000E+00  0.00000000000E+00 -0.77616261437E+03  0.11060971887E+04  0.78804986316E+03 0.  0.
        3    1    3    3  502    0 -0.30658417809E+03 -0.15105692618E+03 -0.66328326624E+03  0.74616134628E+03  0.10100000352E+00 0. -1.
       -3    1    3    3    0  502  0.30658417809E+03  0.15105692618E+03 -0.11287934813E+03  0.35993584239E+03  0.10100000352E+00 0.  1.
</event>
<event>
 5   0  0.2571778E-02  0.8457769E+03  0.7818609E-02  0.9496023E-01
        2   -1    0    0  501    0  0.00000000000E+00  0.00000000000E+00  0.14846624985E+03  0.14846624987E+03  0.25500000920E-02 0.  1.
       -2   -1    0    0    0  501  0.00000000000E+00  0.00000000000E+00 -0.12045474430E+04  0.12045474430E+04  0.25500000920E-02 0. -1.
    10030    2    1    2    0    0  0.00000000000E+00  0.00000000000E+00 -0.10560811931E+04  0.13530136928E+04  0.84577690117E+03 0.  0.
        1    1    3    3  502    0  0.28567445394E+03 -0.31117939294E+03 -0.55971899987E+03  0.70123310466E+03  0.50400001928E-02 0. -1.
       -1    1    3    3    0  502 -0.28567445394E+03  0.31117939294E+03 -0.49636219324E+03  0.65178058818E+03  0.50400001928E-02 0.  1.
</event>
<event>
 5   0  0.9919125E-03  0.8022523E+03  0.7818609E-02  0.9556763E-01
        4   -1    0    0  501    0  0.00000000000E+00  0.00000000000E+00  0.19144641293E+03  0.19145062529E+03  0.12699999809E+01 0.  1.
       -4   -1    0    0    0  501  0.00000000000E+00  0.00000000000E+00 -0.84044153887E+03  0.84044249843E+03  0.12699999809E+01 0. -1.
    10030    2    1    2    0    0  0.00000000000E+00  0.00000000000E+00 -0.64899512594E+03  0.10318931237E+04  0.80225229527E+03 0.  0.
        5    1    3    3  502    0 -0.20134231016E+03  0.28232314730E+03 -0.58378050190E+03  0.67901903491E+03  0.46999998093E+01 0. -1.
       -5    1    3    3    0  502  0.20134231016E+03 -0.28232314730E+03 -0.65214624039E+02  0.35287408881E+03  0.46999998093E+01 0.  1.
</event>
<event>
 5   0  0.1471290E-02  0.7951552E+03  0.7818609E-02  0.9567056E-01
        1   -1    0    0  501    0  0.00000000000E+00  0.00000000000E+00  0.38540108441E+03  0.38540108444E+03  0.50400001928E-02 0.  1.
       -1   -1    0    0    0  501  0.00000000000E+00  0.00000000000E+00 -0.41013880786E+03  0.41013880789E+03  0.50400001928E-02 0. -1.
    10030    2    1    2    0    0  0.00000000000E+00  0.00000000000E+00 -0.24737723454E+02  0.79553989233E+03  0.79515518317E+03 0.  0.
        2    1    3    3  502    0  0.32232193248E+03  0.17497713800E+03 -0.16593421206E+03  0.40254513997E+03  0.25500000920E-02 0.  1.
       -2    1    3    3    0  502 -0.32232193248E+03 -0.17497713800E+03  0.14119648861E+03  0.39299475236E+03  0.25500000920E-02 0. -1.
</event>
<event>
 5   0  0.1624094E-02  0.8007144E+03  0.7818609E-02  0.9558984E-01
        1   -1    0    0  501    0  0.00000000000E+00  0.00000000000E+00  0.64799434031E+03  0.64799434033E+03  0.50400001928E-02 0.  1.
       -1   -1    0    0    0  501  0.00000000000E+00  0.00000000000E+00 -0.24735692133E+03  0.24735692138E+03  0.50400001928E-02 0. -1.
    10030    2    1    2    0    0  0.00000000000E+00  0.00000000000E+00  0.40063741899E+03  0.89535126171E+03  0.80071439375E+03 0.  0.
        3    1    3    3  502    0  0.38954188189E+03 -0.20643006649E+02  0.30106056222E+03  0.49275397897E+03  0.10100000352E+00 0. -1.
       -3    1    3    3    0  502 -0.38954188189E+03  0.20643006649E+02  0.99576856770E+02  0.40259728274E+03  0.10100000352E+00 0.  1.
</event>
<event>
 5   0  0.1498375E-02  0.8021782E+03  0.7818609E-02  0.9556870E-01
       -1   -1    0    0    0  501  0.00000000000E+00  0.00000000000E+00  0.29533822026E+03  0.29533822031E+03  0.50400001928E-02 0.  1.
        1   -1    0    0  501    0  0.00000000000E+00  0.00000000000E+00 -0.54470587299E+03  0.54470587301E+03  0.50400001928E-02 0. -1.
    10030    2    1    2    0    0  0.00000000000E+00  0.00000000000E+00 -0.24936765273E+03  0.84004409332E+03  0.80217819248E+03 0.  0.
        4    1    3    3  502    0  0.30655369024E+03  0.22683675034E+03  0.54426779492E+01  0.38139390655E+03  0.12699999809E+01 0.  1.
       -4    1    3    3    0  502 -0.30655369024E+03 -0.22683675034E+03 -0.25481033068E+03  0.45865018677E+03  0.12699999809E+01 0. -1.
</event>
<event>
 5   0  0.2460312E-02  0.7910131E+03  0.7818609E-02  0.9573117E-01
       -2   -1    0    0    0  501  0.00000000000E+00  0.00000000000E+00  0.81730707678E+02  0.81730707718E+02  0.25500000920E-02 0. -1.
        2   -1    0    0  501    0  0.00000000000E+00  0.00000000000E+00 -0.19139124108E+04  0.19139124108E+04  0.25500000920E-02 0.  1.
    10030    2    1    2    0    0  0.00000000000E+00  0.00000000000E+00 -0.18321817031E+04  0.19956431185E+04  0.79101306135E+03 0.  0.
        2    1    3    3  502    0 -0.18567977382E+02 -0.37586228481E+03 -0.12230992080E+04  0.12796831247E+04  0.25500000920E-02 0.  1.
       -2    1    3    3    0  502  0.18567977382E+02  0.37586228481E+03 -0.60908249509E+03  0.71595999382E+03  0.25500000920E-02 0. -1.
</event>
<event>
 5   0  0.2571778E-02  0.9158515E+03  0.7818609E-02  0.9405980E-01
        2   -1    0    0  501    0  0.00000000000E+00  0.00000000000E+00  0.17846622335E+04  0.17846622335E+04  0.25500000920E-02 0. -1.
       -2   -1    0    0    0  501  0.00000000000E+00  0.00000000000E+00 -0.11749896771E+03  0.11749896774E+03  0.25500000920E-02 0.  1.
    10030    2    1    2    0    0  0.00000000000E+00  0.00000000000E+00  0.16671632658E+04  0.19021612012E+04  0.91585145123E+03 0.  0.
        1    1    3    3  502    0 -0.34392573920E+03 -0.29675222468E+03  0.71338533647E+03  0.84573366685E+03  0.50400001928E-02 0.  1.
       -1    1    3    3    0  502  0.34392573920E+03  0.29675222468E+03  0.95377792932E+03  0.10564275344E+04  0.50400001928E-02 0. -1.
</event>
<event>
 5   0  0.9919125E-03  0.8100454E+03  0.7818609E-02  0.9545590E-01
        3   -1    0    0  501    0  0.00000000000E+00  0.00000000000E+00  0.20517754694E+04  0.20517754719E+04  0.10100000352E+00 0.  1.
       -3   -1    0    0    0  501  0.00000000000E+00  0.00000000000E+00 -0.79951889422E+02  0.79951953217E+02  0.10100000352E+00 0. -1.
    10030    2    1    2    0    0  0.00000000000E+00  0.00000000000E+00  0.19718235799E+04  0.21317274251E+04  0.81004542118E+03 0.  0.
        1    1    3    3  502    0  0.22749022110E+03  0.17465223127E+03  0.17385176731E+04  0.17620155795E+04  0.50400001928E-02 0.  1.
       -1    1    3    3    0  502 -0.22749022110E+03 -0.17465223127E+03  0.23330590683E+03  0.36971184559E+03  0.50400001928E-02 0. -1.
</event>
<event>
 5   0  0.1523811E-02  0.7990071E+03  0.7818609E-02  0.9561455E-01
       -1   -1    0    0    0  501  0.00000000000E+00  0.00000000000E+00  0.14883471229E+03  0.14883471237E+03  0.50400001928E-02 0.  1.
        1   -1    0    0  501    0  0.00000000000E+00  0.00000000000E+00 -0.10723513593E+04  0.10723513593E+04  0.50400001928E-02 0. -1.
    10030    2    1    2    0    0  0.00000000000E+00  0.00000000000E+00 -0.92351664697E+03  0.12211860716E+04  0.79900714912E+03 0.  0.
        1    1    3    3  502    0  0.14850755013E+03  0.30462164121E+03 -0.78509011797E+03  0.85511129691E+03  0.50400001928E-02 0. -1.
       -1    1    3    3    0  502 -0.14850755013E+03 -0.30462164121E+03 -0.13842652899E+03  0.36607477473E+03  0.50400001928E-02 0.  1.
</event>
<event>
 5   0  0.2460312E-02  0.7943521E+03  0.7818609E-02  0.9568228E-01
        2   -1    0    0  501    0  0.00000000000E+00  0.00000000000E+00  0.49049452330E+03  0.49049452331E+03  0.25500000920E-02 0.  1.
       -2   -1    0    0    0  501  0.00000000000E+00  0.00000000000E+00 -0.32161177820E+03  0.32161177821E+03  0.25500000920E-02 0. -1.
    10030    2    1    2    0    0  0.00000000000E+00  0.00000000000E+00  0.16888274510E+03  0.81210630152E+03  0.79435210289E+03 0.  0.
        2    1    3    3  502    0  0.14109288396E+03 -0.35435214835E+03  0.19771563893E+03  0.42960926530E+03  0.25500000920E-02 0.  1.
       -2    1    3    3    0  502 -0.14109288396E+03  0.35435214835E+03 -0.28832893833E+02  0.38249703622E+03  0.25500000920E-02 0. -1.
</event>
<event>
 5   0  0.1523811E-02  0.8087227E+03  0.7818609E-02  0.9547476E-01
        1   -1    0    0  501    0  0.00000000000E+00  0.00000000000E+00  0.14822712163E+04  0.14822712163E+04  0.50400001928E-02 0. -1.
       -1   -1    0    0    0  501  0.00000000000E+00  0.00000000000E+00 -0.11030916890E+03  0.11030916902E+03  0.50400001928E-02 0.  1.
    10030    2    1    2    0    0  0.00000000000E+00  0.00000000000E+00  0.13719620474E+04  0.15925803853E+04  0.80872271158E+03 0.  0.
        1    1    3    3  502    0  0.73347023462E+02 -0.15193350387E+03 -0.37688398870E+02  0.17286986690E+03  0.50400001928E-02 0.  1.
       -1    1    3    3    0  502 -0.73347023462E+02  0.15193350387E+03  0.14096504463E+04  0.14197105184E+04  0.50400001928E-02 0. -1.
</event>
<event>
 5   0  0.2571778E-02  0.7056600E+03  0.7818609E-02  0.9707602E-01
        2   -1    0    0  501    0  0.00000000000E+00  0.00000000000E+00  0.39832201035E+03  0.39832201036E+03  0.25500000920E-02 0. -1.
       -2   -1    0    0    0  501  0.00000000000E+00  0.00000000000E+00 -0.31253359323E+03  0.31253359324E+03  0.25500000920E-02 0.  1.
    10030    2    1    2    0    0  0.00000000000E+00  0.00000000000E+00  0.85788417121E+02  0.71085560360E+03  0.70566000075E+03 0.  0.
        1    1    3    3  502    0 -0.30674476440E+03  0.60389289993E+02  0.20765205160E+03  0.37531132595E+03  0.50400001928E-02 0. -1.
       -1    1    3    3    0  502  0.30674476440E+03 -0.60389289993E+02 -0.12186363448E+03  0.33554427765E+03  0.50400001928E-02 0.  1.
</event>
<event>
 5   0  0.1624094E-02  0.8066560E+03  0.7818609E-02  0.9550432E-01
       -1   -1    0    0    0  501  0.00000000000E+00  0.00000000000E+00  0.45293844659E+03  0.45293844662E+03  0.50400001928E-02 0.  1.
        1   -1    0    0  501    0  0.00000000000E+00  0.00000000000E+00 -0.35915142232E+03  0.35915142236E+03  0.50400001928E-02 0. -1.
    10030    2    1    2    0    0  0.00000000000E+00  0.00000000000E+00  0.93787024271E+02  0.81208986898E+03  0.80665602916E+03 0.  0.
        3    1    3    3  502    0 -0.18840426232E+02 -0.50956202049E+02 -0.35545097249E+03  0.35957878168E+03  0.10100000352E+00 0. -1.
       -3    1    3    3    0  502  0.18840426232E+02  0.50956202049E+02  0.44923799676E+03  0.45251108730E+03  0.10100000352E+00 0.  1.
</event>
<event>
 5   0  0.2454354E-02  0.8173629E+03  0.7818609E-02  0.9535220E-01
        2   -1    0    0  501    0  0.00000000000E+00  0.00000000000E+00  0.27139123438E+03  0.27139123439E+03  0.25500000920E-02 0.  1.
       -2   -1    0    0    0  501  0.00000000000E+00  0.00000000000E+00 -0.61542351544E+03  0.61542351545E+03  0.25500000920E-02 0. -1.
    10030    2    1    2    0    0  0.00000000000E+00  0.00000000000E+00 -0.34403228106E+03  0.88681474984E+03  0.81736294883E+03 0.  0.
        5    1    3    3  502    0 -0.70359935373E+01 -0.33482873473E+03  0.82058558738E+02  0.34484124444E+03  0.46999998093E+01 0.  1.
       -5    1    3    3    0  502  0.70359935373E+01  0.33482873473E+03 -0.42609083980E+03  0.54197350541E+03  0.46999998093E+01 0. -1.
</event>
<event>
 5   0  0.2571778E-02  0.7971294E+03  0.7818609E-02  0.9564182E-01
        2   -1    0    0  501    0  0.00000000000E+00  0.00000000000E+00  0.24480253646E+04  0.24480253647E+04  0.25500000920E-02 0.  1.
       -2   -1    0    0    0  501  0.00000000000E+00  0.00000000000E+00 -0.64890588606E+02  0.64890588656E+02  0.25500000920E-02 0. -1.
    10030    2    1    2    0    0  0.00000000000E+00  0.00000000000E+00  0.23831347760E+04  0.25129159533E+04  0.79712936691E+03 0.  0.
        1    1    3    3  502    0 -0.73877982850E+02 -0.15127227320E+03  0.52694401956E+02  0.17640282598E+03  0.50400001928E-02 0. -1.
       -1    1    3    3    0  502  0.73877982850E+02  0.15127227320E+03  0.23304403741E+04  0.23365131273E+04  0.50400001928E-02 0.  1.
</event>
<event>
 5   0  0.1471290E-02  0.7970899E+03  0.7818609E-02  0.9564239E-01
        1   -1    0    0  501    0  0.00000000000E+00  0.00000000000E+00  0.35516808817E+03  0.35516808821E+03  0.50400001928E-02 0.  1.
       -1   -1    0    0    0  501  0.00000000000E+00  0.00000000000E+00 -0.44721945391E+03  0.44721945394E+03  0.50400001928E-02 0. -1.
    10030    2    1    2    0    0  0.00000000000E+00  0.00000000000E+00 -0.92051365739E+02  0.80238754214E+03  0.79708990324E+03 0.  0.
        2    1    3    3  502    0 -0.66751960383E+02  0.16925322724E+03  0.31092317555E+03  0.36024394547E+03  0.25500000920E-02 0.  1.
       -2    1    3    3    0  502  0.66751960383E+02 -0.16925322724E+03 -0.40297454129E+03  0.44214359667E+03  0.25500000920E-02 0. -1.
</event>
<event>
 5   0  0.2460312E-02  0.8088140E+03  0.7818609E-02  0.9547346E-01
       -2   -1    0    0    0  501  0.00000000000E+00  0.00000000000E+00  0.16882358113E+03  0.16882358115E+03  0.25500000920E-02 0.  1.
        2   -1    0    0  501    0  0.00000000000E+00  0.00000000000E+00 -0.96873334883E+03  0.96873334883E+03  0.25500000920E-02 0. -1.
    10030    2    1    2    0    0  0.00000000000E+00  0.00000000000E+00 -0.79990976770E+03  0.11375569300E+04  0.80881402837E+03 0.  0.
        2    1    3    3  502    0  0.64327562598E+02 -0.21506761792E+03  0.73149904280E+02  0.23609960629E+03  0.25500000920E-02 0.  1.
       -2    1    3    3    0  502 -0.64327562598E+02  0.21506761792E+03 -0.87305967198E+03  0.90145732369E+03  0.25500000920E-02 0. -1.
</event>
<event>
 5   0  0.2571778E-02  0.7981620E+03  0.7818609E-02  0.9562681E-01
        2   -1    0    0  501    0  0.00000000000E+00  0.00000000000E+00  0.47536441230E+03  0.47536441231E+03  0.25500000920E-02 0. -1.
       -2   -1    0    0    0  501  0.00000000000E+00  0.00000000000E+00 -0.33503906058E+03  0.33503906059E+03  0.25500000920E-02 0.  1.
    10030    2    1    2    0    0  0.00000000000E+00  0.00000000000E+00  0.14032535173E+03  0.81040347290E+03  0.79816200395E+03 0.  0.
        1    1    3    3  502    0  0.34554237518E+03 -0.16022369950E+03 -0.50805177813E+02  0.38425555694E+03  0.50400001928E-02 0.  1.
       -1    1    3    3    0  502 -0.34554237518E+03  0.16022369950E+03  0.19113052954E+03  0.42614791595E+03  0.50400001928E-02 0. -1.
</event>
<event>
 5   0  0.1471290E-02  0.8112543E+03  0.7818609E-02  0.9543868E-01
        1   -1    0    0  501    0  0.00000000000E+00  0.00000000000E+00  0.61759698611E+03  0.61759698613E+03  0.50400001928E-02 0. -1.
       -1   -1    0    0    0  501  0.00000000000E+00  0.00000000000E+00 -0.26640896452E+03  0.26640896457E+03  0.50400001928E-02 0.  1.
    10030    2    1    2    0    0  0.00000000000E+00  0.00000000000E+00  0.35118802158E+03  0.88400595070E+03  0.81125427233E+03 0.  0.
        2    1    3    3  502    0 -0.27903664516E+03 -0.21277672825E+03 -0.46117279561E+02  0.35392398747E+03  0.25500000920E-02 0. -1.
       -2    1    3    3    0  502  0.27903664516E+03  0.21277672825E+03  0.39730530115E+03  0.53008196324E+03  0.25500000920E-02 0.  1.
</event>
<event>
 5   0  0.1498375E-02  0.7993723E+03  0.7818609E-02  0.9560926E-01
       -1   -1    0    0    0  501  0.00000000000E+00  0.00000000000E+00  0.24627523284E+03  0.24627523290E+03  0.50400001928E-02 0. -1.
        1   -1    0    0  501    0  0.00000000000E+00  0.00000000000E+00 -0.64866053545E+03  0.64866053547E+03  0.50400001928E-02 0.  1.
    10030    2    1    2    0    0  0.00000000000E+00  0.00000000000E+00 -0.40238530260E+03  0.89493576836E+03  0.79937231485E+03 0.  0.
        4    1    3    3  502    0 -0.18543579670E+03 -0.83564962352E+02 -0.58638533619E+03  0.62066006238E+03  0.12699999809E+01 0.  1.
       -4    1    3    3    0  502  0.18543579670E+03  0.83564962352E+02  0.18400003359E+03  0.27427570598E+03  0.12699999809E+01 0. -1.
</event>
<event>
 5   0  0.2454354E-02  0.7771249E+03  0.7818609E-02  0.9593731E-01
        2   -1    0    0  501    0  0.00000000000E+00  0.00000000000E+00  0.73785479384E+03  0.73785479384E+03  0.25500000920E-02 0.  1.
       -2   -1    0    0    0  501  0.00000000000E+00  0.00000000000E+00 -0.20462125159E+03  0.20462125161E+03  0.25500000920E-02 0. -1.
    10030    2    1    2    0    0  0.00000000000E+00  0.00000000000E+00  0.53323354224E+03  0.94247604545E+03  0.77712488422E+03 0.  0.
        5    1    3    3  502    0 -0.10096259160E+03  0.38017554814E+02 -0.18605778590E+03  0.21512407831E+03  0.46999998093E+01 0. -1.
       -5    1    3    3    0  502  0.10096259160E+03 -0.38017554814E+02  0.71929132814E+03  0.72735196715E+03  0.46999998093E+01 0.  1.
</event>
<event>
 5   0  0.1624094E-02  0.7836765E+03  0.7818609E-02  0.9583950E-01
       -1   -1    0    0    0  501  0.00000000000E+00  0.00000000000E+00  0.19472047028E+03  0.19472047035E+03  0.50400001928E-02 0. -1.
        1   -1    0    0  501    0  0.00000000000E+00  0.00000000000E+00 -0.78850062681E+03  0.78850062683E+03  0.50400001928E-02 0.  1.
    10030    2    1    2    0    0  0.00000000000E+00  0.00000000000E+00 -0.59378015653E+03  0.98322109718E+03  0.78367649681E+03 0.  0.
        3    1    3    3  502    0 -0.11260335559E+03  0.37523145045E+03 -0.30653076965E+03  0.49743268896E+03  0.10100000352E+00 0. -1.
       -3    1    3    3    0  502  0.11260335559E+03 -0.37523145045E+03 -0.28724938688E+03  0.48578840822E+03  0.10100000352E+00 0.  1.
</event>
<event>
 5   0  0.1523811E-02  0.8018308E+03  0.7818609E-02  0.9557371E-01
       -1   -1    0    0    0  501  0.00000000000E+00  0.00000000000E+00  0.33145224039E+03  0.33145224043E+03  0.50400001928E-02 0. -1.
        1   -1    0    0  501    0  0.00000000000E+00  0.00000000000E+00 -0.48493604512E+03  0.48493604515E+03  0.50400001928E-02 0.  1.
    10030    2    1    2    0    0  0.00000000000E+00  0.00000000000E+00 -0.15348380473E+03  0.81638828557E+03  0.80183075178E+03 0.  0.
        1    1    3    3  502    0  0.15345214732E+03 -0.36818232889E+03 -0.35669083428E+02  0.40047231160E+03  0.50400001928E-02 0.  1.
       -1    1    3    3    0  502 -0.15345214732E+03  0.36818232889E+03 -0.11781472130E+03  0.41591597397E+03  0.50400001928E-02 0. -1.
</event>
<event>
 5   0  0.2464780E-02  0.8043797E+03  0.7818609E-02  0.9553699E-01
       -2   -1    0    0    0  501  0.00000000000E+00  0.00000000000E+00  0.31701459814E+03  0.31701459816E+03  0.25500000920E-02 0.  1.
        2   -1    0    0  501    0  0.00000000000E+00  0.00000000000E+00 -0.51024992153E+03  0.51024992154E+03  0.25500000920E-02 0. -1.
    10030    2    1    2    0    0  0.00000000000E+00  0.00000000000E+00 -0.19323532339E+03  0.82726451969E+03  0.80437969600E+03 0.  0.
        3    1    3    3  502    0  0.30841631391E+03 -0.17622550096E+03  0.97377105916E+02  0.36831828740E+03  0.10100000352E+00 0.  1.
       -3    1    3    3    0  502 -0.30841631391E+03  0.17622550096E+03 -0.29061242930E+03  0.45894623230E+03  0.10100000352E+00 0. -1.
</event>
<event>
 5   0  0.2454354E-02  0.7758504E+03  0.7818609E-02  0.9595646E-01
        2   -1    0    0  501    0  0.00000000000E+00  0.00000000000E+00  0.14383496015E+04  0.14383496015E+04  0.25500000920E-02 0.  1.
       -2   -1    0    0    0  501  0.00000000000E+00  0.00000000000E+00 -0.10462403737E+03  0.10462403740E+03  0.25500000920E-02 0. -1.
    10030    2    1    2    0    0  0.00000000000E+00  0.00000000000E+00  0.13337255641E+04  0.15429736389E+04  0.77585035280E+03 0.  0.
        5    1    3    3  502    0  0.11669569149E+03 -0.31100001676E+03  0.26849167003E+03  0.42714021318E+03  0.46999998093E+01 0. -1.
       -5    1    3    3    0  502 -0.11669569149E+03  0.31100001676E+03  0.10652338941E+04  0.11158334257E+04  0.46999998093E+01 0.  1.
</event>
<event>
 5   0  0.1509629E-02  0.8063400E+03  0.7818609E-02  0.9550885E-01
       -1   -1    0    0    0  501  0.00000000000E+00  0.00000000000E+00  0.23893854369E+03  0.23893854374E+03  0.50400001928E-02 0. -1.
        1   -1    0    0  501    0  0.00000000000E+00  0.00000000000E+00 -0.68028397292E+03  0.68028397294E+03  0.50400001928E-02 0.  1.
    10030    2    1    2    0    0  0.00000000000E+00  0.00000000000E+00 -0.44134542923E+03  0.91922251669E+03  0.80634003204E+03 0.  0.
        5    1    3    3  502    0 -0.30554986948E+02  0.19085680612E+03  0.18264029014E+03  0.26596897046E+03  0.46999998093E+01 0. -1.
       -5    1    3    3    0  502  0.30554986948E+02 -0.19085680612E+03 -0.62398571938E+03  0.65325354622E+03  0.46999998093E+01 0.  1.
</event>
<event>
 5   0  0.1471290E-02  0.7952369E+03  0.7818609E-02  0.9566937E-01
        1   -1    0    0  501    0  0.00000000000E+00  0.00000000000E+00  0.79899590714E+03  0.79899590716E+03  0.50400001928E-02 0. -1.
       -1   -1    0    0    0  501  0.00000000000E+00  0.00000000000E+00 -0.19787388787E+03  0.19787388793E+03  0.50400001928E-02 0.  1.
    10030    2    1    2    0    0  0.00000000000E+00  0.00000000000E+00  0.60112201927E+03  0.99686979509E+03  0.79523688691E+03 0.  0.
        2    1    3    3  502    0 -0.22262017233E+03  0.14356854431E+03 -0.71151683354E+02  0.27428858907E+03  0.25500000920E-02 0.  1.
       -2    1    3    3    0  502  0.22262017233E+03 -0.14356854431E+03  0.67227370263E+03  0.72258120602E+03  0.25500000920E-02 0. -1.
</event>
<event>
 5   0  0.2422031E-02  0.7816024E+03  0.7818609E-02  0.9587035E-01
        2   -1    0    0  501    0  0.00000000000E+00  0.00000000000E+00  0.86592106061E+03  0.86592106061E+03  0.25500000920E-02 0.  1.
       -2   -1    0    0    0  501  0.00000000000E+00  0.00000000000E+00 -0.17637355388E+03  0.17637355390E+03  0.25500000920E-02 0. -1.
    10030    2    1    2    0    0  0.00000000000E+00  0.00000000000E+00  0.68954750673E+03  0.10422946145E+04  0.78160239214E+03 0.  0.
        4    1    3    3  502    0 -0.34630112666E+03 -0.76891500555E+02  0.56343776529E+03  0.66580815663E+03  0.12699999809E+01 0.  1.
       -4    1    3    3    0  502  0.34630112666E+03  0.76891500555E+02  0.12610974144E+03  0.37648645788E+03  0.12699999809E+01 0. -1.
</event>
<event>
 5   0  0.2454354E-02  0.8080061E+03  0.7818609E-02  0.9548500E-01
       -2   -1    0    0    0  501  0.00000000000E+00  0.00000000000E+00  0.82041564861E+02  0.82041564901E+02  0.25500000920E-02 0.  1.
        2   -1    0    0  501    0  0.00000000000E+00  0.00000000000E+00 -0.19894607091E+04  0.19894607091E+04  0.25500000920E-02 0. -1.
    10030    2    1    2    0    0  0.00000000000E+00  0.00000000000E+00 -0.19074191442E+04  0.20715022740E+04  0.80800611346E+03 0.  0.
        5    1    3    3  502    0  0.12405863260E+03 -0.23056997873E+03 -0.16500246931E+03  0.30951730855E+03  0.46999998093E+01 0.  1.
       -5    1    3    3    0  502 -0.12405863260E+03  0.23056997873E+03 -0.17424166749E+04  0.17619849654E+04  0.46999998093E+01 0. -1.
</event>
<event>
 5   0  0.1498375E-02  0.7209534E+03  0.7818609E-02  0.9682055E-01
        1   -1    0    0  501    0  0.00000000000E+00  0.00000000000E+00  0.79429141097E+02  0.79429141257E+02  0.50400001928E-02 0. -1.
       -1   -1    0    0    0  501  0.00000000000E+00  0.00000000000E+00 -0.16359670201E+04  0.16359670201E+04  0.50400001928E-02 0.  1.
    10030    2    1    2    0    0  0.00000000000E+00  0.00000000000E+00 -0.15565378790E+04  0.17153961614E+04  0.72095341157E+03 0.  0.
        4    1    3    3  502    0  0.20439978886E+03  0.17384850636E+03 -0.20554712426E+03  0.33801451158E+03  0.12699999809E+01 0.  1.
       -4    1    3    3    0  502 -0.20439978886E+03 -0.17384850636E+03 -0.13509907547E+04  0.13773816498E+04  0.12699999809E+01 0. -1.
</event>
<event>
 5   0  0.2460312E-02  0.8007400E+03  0.7818609E-02  0.9558947E-01
        2   -1    0    0  501    0  0.00000000000E+00  0.00000000000E+00  0.19390145148E+04  0.19390145148E+04  0.25500000920E-02 0. -1.
       -2   -1    0    0    0  501  0.00000000000E+00  0.00000000000E+00 -0.82668859614E+02  0.82668859653E+02  0.25500000920E-02 0.  1.
    10030    2    1    2    0    0  0.00000000000E+00  0.00000000000E+00  0.18563456552E+04  0.20216833744E+04  0.80073995467E+03 0.  0.
        2    1    3    3  502    0 -0.26358822495E+03 -0.10070730107E+03  0.16452934638E+04  0.16693146183E+04  0.25500000920E-02 0. -1.
       -2    1    3    3    0  502  0.26358822495E+03  0.10070730107E+03  0.21105219137E+03  0.35236875615E+03  0.25500000920E-02 0.  1.
</event>
<event>
 5   0  0.9919125E-03  0.7942544E+03  0.7818609E-02  0.9568371E-01
       -3   -1    0    0    0  501  0.00000000000E+00  0.00000000000E+00  0.93223597360E+03  0.93223597908E+03  0.10100000352E+00 0. -1.
        3   -1    0    0  501    0  0.00000000000E+00  0.00000000000E+00 -0.16917388885E+03  0.16917391900E+03  0.10100000352E+00 0.  1.
    10030    2    1    2    0    0  0.00000000000E+00  0.00000000000E+00  0.76306208476E+03  0.11014098981E+04  0.79425437889E+03 0.  0.
        5    1    3    3  502    0  0.18177074331E+03  0.30819380055E+03  0.62036904388E+03  0.71617306737E+03  0.46999998093E+01 0. -1.
       -5    1    3    3    0  502 -0.18177074331E+03 -0.30819380055E+03  0.14269304088E+03  0.38523683071E+03  0.46999998093E+01 0.  1.
</event>
<event>
 5   0  0.1471290E-02  0.8134417E+03  0.7818609E-02  0.9540762E-01
        1   -1    0    0  501    0  0.00000000000E+00  0.00000000000E+00  0.26527964497E+03  0.26527964502E+03  0.50400001928E-02 0.  1.
       -1   -1    0    0    0  501  0.00000000000E+00  0.00000000000E+00 -0.62357536562E+03  0.62357536564E+03  0.50400001928E-02 0. -1.
    10030    2    1    2    0    0  0.00000000000E+00  0.00000000000E+00 -0.35829572065E+03  0.88885501066E+03  0.81344170445E+03 0.  0.
        2    1    3    3  502    0 -0.49794322663E+02  0.12385157727E+03 -0.59895741989E+03  0.61365191975E+03  0.25500000920E-02 0. -1.
       -2    1    3    3    0  502  0.49794322663E+02 -0.12385157727E+03  0.24066169924E+03  0.27520309091E+03  0.25500000920E-02 0.  1.
</event>
<event>
 5   0  0.2571778E-02  0.7933574E+03  0.7818609E-02  0.9569682E-01
        2   -1    0    0  501    0  0.00000000000E+00  0.00000000000E+00  0.79177137287E+03  0.79177137287E+03  0.25500000920E-02 0.  1.
       -2   -1    0    0    0  501  0.00000000000E+00  0.00000000000E+00 -0.19873663700E+03  0.19873663702E+03  0.25500000920E-02 0. -1.
    10030    2    1    2    0    0  0.00000000000E+00  0.00000000000E+00  0.59303473587E+03  0.99050800989E+03  0.79335737200E+03 0.  0.
        1    1    3    3  502    0 -0.61512044677E+02 -0.33340644365E+03  0.55363109954E+03  0.64919256211E+03  0.50400001928E-02 0.  1.
       -1    1    3    3    0  502  0.61512044677E+02  0.33340644365E+03  0.39403636332E+02  0.34131544777E+03  0.50400001928E-02 0. -1.
</event>
<event>
 5   0  0.1523811E-02  0.7034381E+03  0.7818609E-02  0.9711371E-01
       -1   -1    0    0    0  501  0.00000000000E+00  0.00000000000E+00  0.11757079954E+03  0.11757079964E+03  0.50400001928E-02 0.  1.
        1   -1    0    0  501    0  0.00000000000E+00  0.00000000000E+00 -0.10521856033E+04  0.10521856033E+04  0.50400001928E-02 0. -1.
    10030    2    1    2    0    0  0.00000000000E+00  0.00000000000E+00 -0.93461480376E+03  0.11697564030E+04  0.70343813576E+03 0.  0.
        1    1    3    3  502    0  0.27862985931E+03  0.16807532032E+03 -0.24530764230E+03  0.40750429593E+03  0.50400001928E-02 0. -1.
       -1    1    3    3    0  502 -0.27862985931E+03 -0.16807532032E+03 -0.68930716146E+03  0.76225210702E+03  0.50400001928E-02 0.  1.
</event>
<event>
 5   0  0.1624094E-02  0.8033772E+03  0.7818609E-02  0.9555142E-01
        1   -1    0    0  501    0  0.00000000000E+00  0.00000000000E+00  0.11580730755E+04  0.11580730755E+04  0.50400001928E-02 0.  1.
       -1   -1    0    0    0  501  0.00000000000E+00  0.00000000000E+00 -0.13932950292E+03  0.13932950301E+03  0.50400001928E-02 0. -1.
    10030    2    1    2    0    0  0.00000000000E+00  0.00000000000E+00  0.10187435725E+04  0.12974025785E+04  0.80337723646E+03 0.  0.
        3    1    3    3  502    0 -0.30559735620E+03 -0.14152005944E+03  0.86295075331E+03  0.92633778082E+03  0.10100000352E+00 0.  1.
       -3    1    3    3    0  502  0.30559735620E+03  0.14152005944E+03  0.15579281923E+03  0.37106479766E+03  0.10100000352E+00 0. -1.
</event>
<event>
 5   0  0.2422031E-02  0.8170254E+03  0.7818609E-02  0.9535695E-01
        2   -1    0    0  501    0  0.00000000000E+00  0.00000000000E+00  0.75495595217E+03  0.75495595217E+03  0.25500000920E-02 0.  1.
       -2   -1    0    0    0  501  0.00000000000E+00  0.00000000000E+00 -0.22104946403E+03  0.22104946405E+03  0.25500000920E-02 0. -1.
    10030    2    1    2    0    0  0.00000000000E+00  0.00000000000E+00  0.53390648814E+03  0.97600541622E+03  0.81702535727E+03 0.  0.
        4    1    3    3  502    0  0.97406142279E+02 -0.16420429906E+03  0.69837835379E+03  0.72400617838E+03  0.12699999809E+01 0.  1.
       -4    1    3    3    0  502 -0.97406142279E+02  0.16420429906E+03 -0.16447186566E+03  0.25199923784E+03  0.12699999809E+01 0. -1.
</event>
<event>
 5   0  0.2571778E-02  0.7833510E+03  0.7818609E-02  0.9584433E-01
       -2   -1    0    0    0  501  0.00000000000E+00  0.00000000000E+00  0.33371407550E+03  0.33371407551E+03  0.25500000920E-02 0.  1.
        2   -1    0    0  501    0  0.00000000000E+00  0.00000000000E+00 -0.45970405666E+03  0.45970405667E+03  0.25500000920E-02 0. -1.
    10030    2    1    2    0    0  0.00000000000E+00  0.00000000000E+00 -0.12598998116E+03  0.79341813218E+03  0.78335104335E+03 0.  0.
        1    1    3    3  502    0  0.28933954079E+03  0.12244084482E+03  0.17389225394E+03  0.35909281022E+03  0.50400001928E-02 0.  1.
       -1    1    3    3    0  502 -0.28933954079E+03 -0.12244084482E+03 -0.29988223510E+03  0.43432532196E+03  0.50400001928E-02 0. -1.
</event>
<event>
 5   0  0.2454354E-02  0.7954769E+03  0.7818609E-02  0.9566587E-01
        2   -1    0    0  501    0  0.00000000000E+00  0.00000000000E+00  0.21442986688E+04  0.21442986688E+04  0.25500000920E-02 0.  1.
       -2   -1    0    0    0  501  0.00000000000E+00  0.00000000000E+00 -0.73775107173E+02  0.73775107217E+02  0.25500000920E-02 0. -1.
    10030    2    1    2    0    0  0.00000000000E+00  0.00000000000E+00  0.20705235616E+04  0.22180737760E+04  0.79547687371E+03 0.  0.
        5    1    3    3  502    0 -0.33087793813E+03 -0.17288934708E+03  0.14176109314E+04  0.14659514928E+04  0.46999998093E+01 0.  1.
       -5    1    3    3    0  502  0.33087793813E+03  0.17288934708E+03  0.65291263019E+03  0.75212228323E+03  0.46999998093E+01 0. -1.
</event>
<event>
 5   0  0.1498375E-02  0.8039483E+03  0.7818609E-02  0.9554320E-01
        1   -1    0    0  501    0  0.00000000000E+00  0.00000000000E+00  0.27411384300E+03  0.27411384305E+03  0.50400001928E-02 0. -1.
       -1   -1    0    0    0  501  0.00000000000E+00  0.00000000000E+00 -0.58947481155E+03  0.58947481157E+03  0.50400001928E-02 0.  1.
    10030    2    1    2    0    0  0.00000000000E+00  0.00000000000E+00 -0.31536096855E+03  0.86358865461E+03  0.80394827190E+03 0.  0.
        4    1    3    3  502    0 -0.48755937950E+02  0.31085870694E+03 -0.42637974181E+03  0.52991657295E+03  0.12699999809E+01 0. -1.
       -4    1    3    3    0  502  0.48755937950E+02 -0.31085870694E+03  0.11101877326E+03  0.33367208166E+03  0.12699999809E+01 0.  1.
</event>
<event>
 5   0  0.1509629E-02  0.7975881E+03  0.7818609E-02  0.9563515E-01
        1   -1    0    0  501    0  0.00000000000E+00  0.00000000000E+00  0.41090258115E+03  0.41090258119E+03  0.50400001928E-02 0.  1.
       -1   -1    0    0    0  501  0.00000000000E+00  0.00000000000E+00 -0.38704235072E+03  0.38704235075E+03  0.50400001928E-02 0. -1.
    10030    2    1    2    0    0  0.00000000000E+00  0.00000000000E+00  0.23860230438E+02  0.79794493194E+03  0.79758811664E+03 0.  0.
        5    1    3    3  502    0  0.21042219622E+03  0.60522490951E+02  0.34535708265E+03  0.40894263303E+03  0.46999998093E+01 0.  1.
       -5    1    3    3    0  502 -0.21042219622E+03 -0.60522490951E+02 -0.32149685222E+03  0.38900229891E+03  0.46999998093E+01 0. -1.
</event>
<event>
 5   0  0.2460312E-02  0.7961847E+03  0.7818609E-02  0.9565556E-01
       -2   -1    0    0    0  501  0.00000000000E+00  0.00000000000E+00  0.11245239498E+03  0.11245239501E+03  0.25500000920E-02 0. -1.
        2   -1    0    0  501    0  0.00000000000E+00  0.00000000000E+00 -0.14092855795E+04  0.14092855795E+04  0.25500000920E-02 0.  1.
    10030    2    1    2    0    0  0.00000000000E+00  0.00000000000E+00 -0.12968331845E+04  0.15217379745E+04  0.79618474904E+03 0.  0.
        2    1    3    3  502    0  0.39174066933E+03 -0.59579421295E+02 -0.57520955967E+03  0.69848156525E+03  0.25500000920E-02 0.  1.
       -2    1    3    3    0  502 -0.39174066933E+03  0.59579421295E+02 -0.72162362480E+03  0.82325640923E+03  0.25500000920E-02 0. -1.
</event>
<event>
 5   0  0.1498375E-02  0.7918170E+03  0.7818609E-02  0.9571938E-01
       -1   -1    0    0    0  501  0.00000000000E+00  0.00000000000E+00  0.57082932704E+03  0.57082932707E+03  0.50400001928E-02 0. -1.
        1   -1    0    0  501    0  0.00000000000E+00  0.00000000000E+00 -0.27458918257E+03  0.27458918261E+03  0.50400001928E-02 0.  1.
    10030    2    1    2    0    0  0.00000000000E+00  0.00000000000E+00  0.29624014448E+03  0.84541850968E+03  0.79181704535E+03 0.  0.
        4    1    3    3  502    0 -0.85025667858E+01 -0.37542410981E+03  0.28201416603E+03  0.46962661617E+03  0.12699999809E+01 0. -1.
       -4    1    3    3    0  502  0.85025667858E+01  0.37542410981E+03  0.14225978443E+02  0.37579189351E+03  0.12699999809E+01 0.  1.
</event>
<event>
 5   0  0.2454354E-02  0.8115259E+03  0.7818609E-02  0.9543482E-01
       -2   -1    0    0    0  501  0.00000000000E+00  0.00000000000E+00  0.50283452816E+03  0.50283452816E+03  0.25500000920E-02 0.  1.
        2   -1    0    0  501    0  0.00000000000E+00  0.00000000000E+00 -0.32743095472E+03  0.32743095473E+03  0.25500000920E-02 0. -1.
    10030    2    1    2    0    0  0.00000000000E+00  0.00000000000E+00  0.17540357343E+03  0.83026548289E+03  0.81152594445E+03 0.  0.
        5    1    3    3  502    0  0.31217339411E+02  0.31517946117E+03  0.34714962883E+03  0.46994421990E+03  0.46999998093E+01 0.  1.
       -5    1    3    3    0  502 -0.31217339411E+02 -0.31517946117E+03 -0.17174605539E+03  0.36032126299E+03  0.46999998093E+01 0. -1.
</event>
<event>
 5   0  0.1509629E-02  0.7993739E+03  0.7818609E-02  0.9560924E-01
       -1   -1    0    0    0  501  0.00000000000E+00  0.00000000000E+00  0.27545237471E+03  0.27545237475E+03  0.50400001928E-02 0.  1.
        1   -1    0    0  501    0  0.00000000000E+00  0.00000000000E+00 -0.57995383207E+03  0.57995383209E+03  0.50400001928E-02 0. -1.
    10030    2    1    2    0    0  0.00000000000E+00  0.00000000000E+00 -0.30450145736E+03  0.85540620684E+03  0.79937390574E+03 0.  0.
        5    1    3    3  502    0 -0.25110398711E+03  0.21366796565E+02 -0.48418353807E+03  0.54586219953E+03  0.46999998093E+01 0. -1.
       -5    1    3    3    0  502  0.25110398711E+03 -0.21366796565E+02  0.17968208071E+03  0.30954400731E+03  0.46999998093E+01 0.  1.
</event>
<event>
 5   0  0.1498375E-02  0.7703621E+03  0.7818609E-02  0.9603936E-01
       -1   -1    0    0    0  501  0.00000000000E+00  0.00000000000E+00  0.44480454429E+03  0.44480454432E+03  0.50400001928E-02 0.  1.
        1   -1    0    0  501    0  0.00000000000E+00  0.00000000000E+00 -0.33354975323E+03  0.33354975327E+03  0.50400001928E-02 0. -1.
    10030    2    1    2    0    0  0.00000000000E+00  0.00000000000E+00  0.11125479106E+03  0.77835429759E+03  0.77036211229E+03 0.  0.
        4    1    3    3  502    0 -0.31070162099E+03  0.16756080832E+03  0.21133890796E+03  0.41143391777E+03  0.12699999809E+01 0. -1.
       -4    1    3    3    0  502  0.31070162099E+03 -0.16756080832E+03 -0.10008411690E+03  0.36692037982E+03  0.12699999809E+01 0.  1.
</event>
<event>
 5   0  0.2460312E-02  0.7567513E+03  0.7818609E-02  0.9624818E-01
        2   -1    0    0  501    0  0.00000000000E+00  0.00000000000E+00  0.11945225768E+04  0.11945225768E+04  0.25500000920E-02 0.  1.
       -2   -1    0    0    0  501  0.00000000000E+00  0.00000000000E+00 -0.11985383962E+03  0.11985383965E+03  0.25500000920E-02 0. -1.
    10030    2    1    2    0    0  0.00000000000E+00  0.00000000000E+00  0.10746687371E+04  0.13143764164E+04  0.75675125995E+03 0.  0.
        2    1    3    3  502    0 -0.12311182090E+03 -0.35756722387E+03  0.51555227314E+03  0.63937859394E+03  0.25500000920E-02 0. -1.
       -2    1    3    3    0  502  0.12311182090E+03  0.35756722387E+03  0.55911646400E+03  0.67499782248E+03  0.25500000920E-02 0.  1.
</event>
<event>
 5   0  0.1509629E-02  0.8085895E+03  0.7818609E-02  0.9547667E-01
       -1   -1    0    0    0  501  0.00000000000E+00  0.00000000000E+00  0.13530442440E+03  0.13530442449E+03  0.50400001928E-02 0.  1.
        1   -1    0    0  501    0  0.00000000000E+00  0.00000000000E+00 -0.12080478953E+04  0.12080478953E+04  0.50400001928E-02 0. -1.
    10030    2    1    2    0    0  0.00000000000E+00  0.00000000000E+00 -0.10727434709E+04  0.13433523198E+04  0.80858945129E+03 0.  0.
        5    1    3    3  502    0 -0.38249709968E+03  0.11959390424E+03 -0.44806334248E+03  0.60115686977E+03  0.46999998093E+01 0.  1.
       -5    1    3    3    0  502  0.38249709968E+03 -0.11959390424E+03 -0.62468012842E+03  0.74219545002E+03  0.46999998093E+01 0. -1.
</event>
<event>
 5   0  0.2571778E-02  0.7438457E+03  0.7818609E-02  0.9645055E-01
       -2   -1    0    0    0  501  0.00000000000E+00  0.00000000000E+00  0.16819695827E+03  0.16819695829E+03  0.25500000920E-02 0.  1.
        2   -1    0    0  501    0  0.00000000000E+00  0.00000000000E+00 -0.82240844282E+03  0.82240844283E+03  0.25500000920E-02 0. -1.
    10030    2    1    2    0    0  0.00000000000E+00  0.00000000000E+00 -0.65421148456E+03  0.99060540111E+03  0.74384567901E+03 0.  0.
        1    1    3    3  502    0  0.83894377706E+02 -0.23763733223E+03  0.37159303646E+02  0.25473629924E+03  0.50400001928E-02 0.  1.
       -1    1    3    3    0  502 -0.83894377706E+02  0.23763733223E+03 -0.69137078820E+03  0.73586910187E+03  0.50400001928E-02 0. -1.
</event>
<event>
 5   0  0.1523811E-02  0.8269036E+03  0.7818609E-02  0.9521871E-01
       -1   -1    0    0    0  501  0.00000000000E+00  0.00000000000E+00  0.14256863352E+03  0.14256863361E+03  0.50400001928E-02 0.  1.
        1   -1    0    0  501    0  0.00000000000E+00  0.00000000000E+00 -0.11990181026E+04  0.11990181026E+04  0.50400001928E-02 0. -1.
    10030    2    1    2    0    0  0.00000000000E+00  0.00000000000E+00 -0.10564494691E+04  0.13415867362E+04  0.82690355551E+03 0.  0.
        1    1    3    3  502    0 -0.14178632028E+03 -0.27026647416E+03 -0.75702561142E+02  0.31444905066E+03  0.50400001928E-02 0.  1.
       -1    1    3    3    0  502  0.14178632028E+03  0.27026647416E+03 -0.98074690795E+03  0.10271376856E+04  0.50400001928E-02 0. -1.
</event>
<event>
 5   0  0.1471290E-02  0.7931294E+03  0.7818609E-02  0.9570016E-01
        1   -1    0    0  501    0  0.00000000000E+00  0.00000000000E+00  0.55733683501E+03  0.55733683503E+03  0.50400001928E-02 0. -1.
       -1   -1    0    0    0  501  0.00000000000E+00  0.00000000000E+00 -0.28216966961E+03  0.28216966966E+03  0.50400001928E-02 0.  1.
    10030    2    1    2    0    0  0.00000000000E+00  0.00000000000E+00  0.27516716539E+03  0.83950650469E+03  0.79312937312E+03 0.  0.
        2    1    3    3  502    0  0.26035094866E+02  0.16266325107E+03 -0.24423997884E+03  0.29460198011E+03  0.25500000920E-02 0.  1.
       -2    1    3    3    0  502 -0.26035094866E+02 -0.16266325107E+03  0.51940714423E+03  0.54490452458E+03  0.25500000920E-02 0. -1.
</event>
<event>
 5   0  0.2422031E-02  0.7732893E+03  0.7818609E-02  0.9599505E-01
        2   -1    0    0  501    0  0.00000000000E+00  0.00000000000E+00  0.24561568007E+03  0.24561568008E+03  0.25500000920E-02 0.  1.
       -2   -1    0    0    0  501  0.00000000000E+00  0.00000000000E+00 -0.60865041839E+03  0.60865041839E+03  0.25500000920E-02 0. -1.
    10030    2    1    2    0    0  0.00000000000E+00  0.00000000000E+00 -0.36303473832E+03  0.85426609847E+03  0.77328930276E+03 0.  0.
        4    1    3    3  502    0 -0.36117709897E+03  0.25916893633E+02 -0.31780722329E+02  0.36349994417E+03  0.12699999809E+01 0.  1.
       -4    1    3    3    0  502  0.36117709897E+03 -0.25916893633E+02 -0.33125401599E+03  0.49076615430E+03  0.12699999809E+01 0. -1.
</event>
<event>
 5   0  0.2460312E-02  0.7958447E+03  0.7818609E-02  0.9566051E-01
        2   -1    0    0  501    0  0.00000000000E+00  0.00000000000E+00  0.12811340585E+04  0.12811340585E+04  0.25500000920E-02 0. -1.
       -2   -1    0    0    0  501  0.00000000000E+00  0.00000000000E+00 -0.12359533879E+03  0.12359533881E+03  0.25500000920E-02 0.  1.
    10030    2    1    2    0    0  0.00000000000E+00  0.00000000000E+00  0.11575387197E+04  0.14047293974E+04  0.79584470349E+03 0.  0.
        2    1    3    3  502    0  0.48671229064E+02  0.11381643474E+03 -0.88746217127E+02  0.15231204948E+03  0.25500000920E-02 0.  1.
       -2    1    3    3    0  502 -0.48671229064E+02 -0.11381643474E+03  0.12462849369E+04  0.12524173479E+04  0.25500000920E-02 0. -1.
</event>
<event>
 5   0  0.2422031E-02  0.7850924E+03  0.7818609E-02  0.9581849E-01
       -2   -1    0    0    0  501  0.00000000000E+00  0.00000000000E+00  0.70924453392E+02  0.70924453438E+02  0.25500000920E-02 0.  1.
        2   -1    0    0  501    0  0.00000000000E+00  0.00000000000E+00 -0.21726291747E+04  0.21726291747E+04  0.25500000920E-02 0. -1.
    10030    2    1    2    0    0  0.00000000000E+00  0.00000000000E+00 -0.21017047213E+04  0.22435536281E+04  0.78509244473E+03 0.  0.
        4    1    3    3  502    0  0.10237301446E+03  0.11771752654E+03 -0.20802302107E+04  0.20860721446E+04  0.12699999809E+01 0. -1.
       -4    1    3    3    0  502 -0.10237301446E+03 -0.11771752654E+03 -0.21474510604E+02  0.15748148352E+03  0.12699999809E+01 0.  1.
</event>
<event>
 5   0  0.9919125E-03  0.8043248E+03  0.7818609E-02  0.9553778E-01
        4   -1    0    0  501    0  0.00000000000E+00  0.00000000000E+00  0.43382795685E+03  0.43382981576E+03  0.12699999809E+01 0. -1.
       -4   -1    0    0    0  501  0.00000000000E+00  0.00000000000E+00 -0.37280440611E+03  0.37280656930E+03  0.12699999809E+01 0.  1.
    10030    2    1    2    0    0  0.00000000000E+00  0.00000000000E+00  0.61023550736E+02  0.80663638507E+03  0.80432480004E+03 0.  0.
        5    1    3    3  502    0  0.93740763697E+02  0.10240535596E+03 -0.34798289365E+03  0.37468436313E+03  0.46999998093E+01 0.  1.
       -5    1    3    3    0  502 -0.93740763697E+02 -0.10240535596E+03  0.40900644438E+03  0.43195202193E+03  0.46999998093E+01 0. -1.
</event>
<event>
 5   0  0.2571778E-02  0.8091140E+03  0.7818609E-02  0.9546918E-01
        2   -1    0    0  501    0  0.00000000000E+00  0.00000000000E+00  0.21056493536E+04  0.21056493536E+04  0.25500000920E-02 0.  1.
       -2   -1    0    0    0  501  0.00000000000E+00  0.00000000000E+00 -0.77727268222E+02  0.77727268264E+02  0.25500000920E-02 0. -1.
    10030    2    1    2    0    0  0.00000000000E+00  0.00000000000E+00  0.20279220854E+04  0.21833766219E+04  0.80911401455E+03 0.  0.
        1    1    3    3  502    0 -0.38596593253E+03 -0.10822884282E+03  0.86657400544E+03  0.95479510389E+03  0.50400001928E-02 0. -1.
       -1    1    3    3    0  502  0.38596593253E+03  0.10822884282E+03  0.11613480799E+04  0.12285815180E+04  0.50400001928E-02 0.  1.
</event>
<event>
 5   0  0.1498375E-02  0.7907681E+03  0.7818609E-02  0.9573477E-01
        1   -1    0    0  501    0  0.00000000000E+00  0.00000000000E+00  0.17106581904E+03  0.17106581911E+03  0.50400001928E-02 0. -1.
       -1   -1    0    0    0  501  0.00000000000E+00  0.00000000000E+00 -0.91385020550E+03  0.91385020551E+03  0.50400001928E-02 0.  1.
    10030    2    1    2    0    0  0.00000000000E+00  0.00000000000E+00 -0.74278438646E+03  0.10849160246E+04  0.79076806696E+03 0.  0.
        4    1    3    3  502    0  0.77171427216E+02  0.38513503924E+03 -0.30938710470E+03  0.50000642104E+03  0.12699999809E+01 0. -1.
       -4    1    3    3    0  502 -0.77171427216E+02 -0.38513503924E+03 -0.43339728177E+03  0.58490960359E+03  0.12699999809E+01 0.  1.
</event>
<event>
 5   0  0.1471290E-02  0.7788892E+03  0.7818609E-02  0.9591087E-01
        1   -1    0    0  501    0  0.00000000000E+00  0.00000000000E+00  0.18768047513E+03  0.18768047520E+03  0.50400001928E-02 0. -1.
       -1   -1    0    0    0  501  0.00000000000E+00  0.00000000000E+00 -0.80811333706E+03  0.80811333708E+03  0.50400001928E-02 0.  1.
    10030    2    1    2    0    0  0.00000000000E+00  0.00000000000E+00 -0.62043286193E+03  0.99579381228E+03  0.77888919649E+03 0.  0.
        2    1    3    3  502    0 -0.30103916426E+03  0.18128224491E+03 -0.52483068787E+03  0.63161307908E+03  0.25500000920E-02 0. -1.
       -2    1    3    3    0  502  0.30103916426E+03 -0.18128224491E+03 -0.95602174065E+02  0.36418073319E+03  0.25500000920E-02 0.  1.
</event>
<event>
 5   0  0.1498375E-02  0.9261770E+03  0.7818609E-02  0.9393438E-01
        1   -1    0    0  501    0  0.00000000000E+00  0.00000000000E+00  0.10167493038E+04  0.10167493038E+04  0.50400001928E-02 0. -1.
       -1   -1    0    0    0  501  0.00000000000E+00  0.00000000000E+00 -0.21091822828E+03  0.21091822834E+03  0.50400001928E-02 0.  1.
    10030    2    1    2    0    0  0.00000000000E+00  0.00000000000E+00  0.80583107549E+03  0.12276675321E+04  0.92617700642E+03 0.  0.
        4    1    3    3  502    0  0.29593251941E+03 -0.27209582316E+03  0.98226736854E+02  0.41383849235E+03  0.12699999809E+01 0.  1.
       -4    1    3    3    0  502 -0.29593251941E+03  0.27209582316E+03  0.70760433863E+03  0.81382903977E+03  0.12699999809E+01 0. -1.
</event>
<event>
 5   0  0.2571778E-02  0.8117656E+03  0.7818609E-02  0.9543141E-01
        2   -1    0    0  501    0  0.00000000000E+00  0.00000000000E+00  0.76561487921E+03  0.76561487921E+03  0.25500000920E-02 0. -1.
       -2   -1    0    0    0  501  0.00000000000E+00  0.00000000000E+00 -0.21517457604E+03  0.21517457606E+03  0.25500000920E-02 0.  1.
    10030    2    1    2    0    0  0.00000000000E+00  0.00000000000E+00  0.55044030317E+03  0.98078945527E+03  0.81176562395E+03 0.  0.
        1    1    3    3  502    0 -0.31483380443E+03  0.91496825578E+02  0.56430715451E+03  0.65263662031E+03  0.50400001928E-02 0. -1.
       -1    1    3    3    0  502  0.31483380443E+03 -0.91496825578E+02 -0.13866851345E+02  0.32815283497E+03  0.50400001928E-02 0.  1.
</event>
<event>
 5   0  0.1523811E-02  0.8074757E+03  0.7818609E-02  0.9549259E-01
        1   -1    0    0  501    0  0.00000000000E+00  0.00000000000E+00  0.74580293285E+03  0.74580293286E+03  0.50400001928E-02 0. -1.
       -1   -1    0    0    0  501  0.00000000000E+00  0.00000000000E+00 -0.21856207526E+03  0.21856207532E+03  0.50400001928E-02 0.  1.
    10030    2    1    2    0    0  0.00000000000E+00  0.00000000000E+00  0.52724085758E+03  0.96436500818E+03  0.80747566348E+03 0.  0.
        1    1    3    3  502    0 -0.38869607535E+03 -0.66743141553E+02  0.36680754539E+03  0.53859730905E+03  0.50400001928E-02 0. -1.
       -1    1    3    3    0  502  0.38869607535E+03  0.66743141553E+02  0.16043331219E+03  0.42576769913E+03  0.50400001928E-02 0.  1.
</event>
<event>
 5   0  0.1509629E-02  0.8050306E+03  0.7818609E-02  0.9552764E-01
       -1   -1    0    0    0  501  0.00000000000E+00  0.00000000000E+00  0.62705344644E+03  0.62705344646E+03  0.50400001928E-02 0. -1.
        1   -1    0    0  501    0  0.00000000000E+00  0.00000000000E+00 -0.25838077464E+03  0.25838077469E+03  0.50400001928E-02 0.  1.
    10030    2    1    2    0    0  0.00000000000E+00  0.00000000000E+00  0.36867267180E+03  0.88543422115E+03  0.80503057150E+03 0.  0.
        5    1    3    3  502    0 -0.55386661354E+02  0.81501416419E+02  0.61355080146E+03  0.62143128269E+03  0.46999998093E+01 0. -1.
       -5    1    3    3    0  502  0.55386661354E+02 -0.81501416419E+02 -0.24487812966E+03  0.26400293846E+03  0.46999998093E+01 0.  1.
</event>
<event>
 5   0  0.1624094E-02  0.7910651E+03  0.7818609E-02  0.9573041E-01
       -1   -1    0    0    0  501  0.00000000000E+00  0.00000000000E+00  0.16442532044E+03  0.16442532051E+03  0.50400001928E-02 0.  1.
        1   -1    0    0  501    0  0.00000000000E+00  0.00000000000E+00 -0.95147139198E+03  0.95147139200E+03  0.50400001928E-02 0. -1.
    10030    2    1    2    0    0  0.00000000000E+00  0.00000000000E+00 -0.78704607155E+03  0.11158967125E+04  0.79106507586E+03 0.  0.
        3    1    3    3  502    0 -0.10940718242E+03 -0.99972271049E+02 -0.91082390370E+03  0.92280256843E+03  0.10100000352E+00 0. -1.
       -3    1    3    3    0  502  0.10940718242E+03  0.99972271049E+02  0.12377783216E+03  0.19309414408E+03  0.10100000352E+00 0.  1.
</event>
<event>
 5   0  0.2460312E-02  0.8048244E+03  0.7818609E-02  0.9553060E-01
       -2   -1    0    0    0  501  0.00000000000E+00  0.00000000000E+00  0.10494732383E+03  0.10494732386E+03  0.25500000920E-02 0.  1.
        2   -1    0    0  501    0  0.00000000000E+00  0.00000000000E+00 -0.15430177138E+04  0.15430177138E+04  0.25500000920E-02 0. -1.
    10030    2    1    2    0    0  0.00000000000E+00  0.00000000000E+00 -0.14380703900E+04  0.16479650376E+04  0.80482440249E+03 0.  0.
        2    1    3    3  502    0 -0.36676168522E+03  0.13792757877E+03 -0.90667286325E+03  0.98772153550E+03  0.25500000920E-02 0.  1.
       -2    1    3    3    0  502  0.36676168522E+03 -0.13792757877E+03 -0.53139752671E+03  0.66024350215E+03  0.25500000920E-02 0. -1.
</event>
<event>
 5   0  0.2460312E-02  0.8250840E+03  0.7818609E-02  0.9524402E-01
       -2   -1    0    0    0  501  0.00000000000E+00  0.00000000000E+00  0.13411904510E+03  0.13411904512E+03  0.25500000920E-02 0. -1.
        2   -1    0    0  501    0  0.00000000000E+00  0.00000000000E+00 -0.12689540889E+04  0.12689540889E+04  0.25500000920E-02 0.  1.
    10030    2    1    2    0    0  0.00000000000E+00  0.00000000000E+00 -0.11348350438E+04  0.14030731340E+04  0.82508402166E+03 0.  0.
        2    1    3    3  502    0  0.32474542925E+03 -0.22971847085E+03 -0.38143969210E+03  0.55111378896E+03  0.25500000920E-02 0.  1.
       -2    1    3    3    0  502 -0.32474542925E+03  0.22971847085E+03 -0.75339535171E+03  0.85195934508E+03  0.25500000920E-02 0. -1.
</event>
<event>
 5   0  0.9919125E-03  0.7364224E+03  0.7818609E-02  0.9656896E-01
       -3   -1    0    0    0  501  0.00000000000E+00  0.00000000000E+00  0.46703267224E+03  0.46703268316E+03  0.10100000352E+00 0.  1.
        3   -1    0    0  501    0  0.00000000000E+00  0.00000000000E+00 -0.29029979307E+03  0.29029981064E+03  0.10100000352E+00 0. -1.
    10030    2    1    2    0    0  0.00000000000E+00  0.00000000000E+00  0.17673287917E+03  0.75733249380E+03  0.73642243012E+03 0.  0.
        5    1    3    3  502    0  0.25102518345E+03  0.26893355074E+03  0.73164580847E+02  0.37511870565E+03  0.46999998093E+01 0. -1.
       -5    1    3    3    0  502 -0.25102518345E+03 -0.26893355074E+03  0.10356829832E+03  0.38221378815E+03  0.46999998093E+01 0.  1.
</event>
<event>
 5   0  0.2422031E-02  0.8063900E+03  0.7818609E-02  0.9550814E-01
        2   -1    0    0  501    0  0.00000000000E+00  0.00000000000E+00  0.12114785361E+04  0.12114785361E+04  0.25500000920E-02 0.  1.
       -2   -1    0    0    0  501  0.00000000000E+00  0.00000000000E+00 -0.13418825863E+03  0.13418825865E+03  0.25500000920E-02 0. -1.
    10030    2    1    2    0    0  0.00000000000E+00  0.00000000000E+00  0.10772902775E+04  0.13456667947E+04  0.80638996804E+03 0.  0.
        4    1    3    3  502    0  0.13275504089E+03  0.71019855674E+02  0.11628058178E+04  0.11725129865E+04  0.12699999809E+01 0.  1.
       -4    1    3    3    0  502 -0.13275504089E+03 -0.71019855674E+02 -0.85515540290E+02  0.17315380826E+03  0.12699999809E+01 0. -1.
</event>
<event>
 5   0  0.9919125E-03  0.7822043E+03  0.7818609E-02  0.9586139E-01
       -3   -1    0    0    0  501  0.00000000000E+00  0.00000000000E+00  0.89082297073E+03  0.89082297645E+03  0.10100000352E+00 0.  1.
        3   -1    0    0  501    0  0.00000000000E+00  0.00000000000E+00 -0.17170735195E+03  0.17170738166E+03  0.10100000352E+00 0. -1.
    10030    2    1    2    0    0  0.00000000000E+00  0.00000000000E+00  0.71911561878E+03  0.10625303581E+04  0.78220425001E+03 0.  0.
        5    1    3    3  502    0 -0.96114863157E+02 -0.10209422076E+03 -0.13634842830E+03  0.19563813721E+03  0.46999998093E+01 0. -1.
       -5    1    3    3    0  502  0.96114863157E+02  0.10209422076E+03  0.85546404707E+03  0.86689222090E+03  0.46999998093E+01 0.  1.
</event>
<event>
 5   0  0.1509629E-02  0.8048584E+03  0.7818609E-02  0.9553011E-01
       -1   -1    0    0    0  501  0.00000000000E+00  0.00000000000E+00  0.12036099632E+03  0.12036099642E+03  0.50400001928E-02 0. -1.
        1   -1    0    0  501    0  0.00000000000E+00  0.00000000000E+00 -0.13455293920E+04  0.13455293920E+04  0.50400001928E-02 0.  1.
    10030    2    1    2    0    0  0.00000000000E+00  0.00000000000E+00 -0.12251683957E+04  0.14658903884E+04  0.80485839321E+03 0.  0.
        5    1    3    3  502    0  0.34373868987E+03 -0.16875644505E+03 -0.83780899480E+03  0.92118457783E+03  0.46999998093E+01 0. -1.
       -5    1    3    3    0  502 -0.34373868987E+03  0.16875644505E+03 -0.38735940088E+03  0.54470581061E+03  0.46999998093E+01 0.  1.
</event>
<event>
 5   0  0.1523811E-02  0.7908370E+03  0.7818609E-02  0.9573376E-01
       -1   -1    0    0    0  501  0.00000000000E+00  0.00000000000E+00  0.11527821852E+03  0.11527821863E+03  0.50400001928E-02 0.  1.
        1   -1    0    0  501    0  0.00000000000E+00  0.00000000000E+00 -0.13563340749E+04  0.13563340749E+04  0.50400001928E-02 0. -1.
    10030    2    1    2    0    0  0.00000000000E+00  0.00000000000E+00 -0.12410558564E+04  0.14716122935E+04  0.79083696415E+03 0.  0.
        1    1    3    3  502    0 -0.80424725400E+02  0.38564885085E+03 -0.68397655500E+03  0.78931432296E+03  0.50400001928E-02 0.  1.
       -1    1    3    3    0  502  0.80424725400E+02 -0.38564885085E+03 -0.55707930137E+03  0.68229797058E+03  0.50400001928E-02 0. -1.
</event>
<event>
 5   0  0.1471290E-02  0.7948208E+03  0.7818609E-02  0.9567544E-01
       -1   -1    0    0    0  501  0.00000000000E+00  0.00000000000E+00  0.11029568857E+04  0.11029568857E+04  0.50400001928E-02 0.  1.
        1   -1    0    0  501    0  0.00000000000E+00  0.00000000000E+00 -0.14319240157E+03  0.14319240166E+03  0.50400001928E-02 0. -1.
    10030    2    1    2    0    0  0.00000000000E+00  0.00000000000E+00  0.95976448416E+03  0.12461492874E+04  0.79482084865E+03 0.  0.
        2    1    3    3  502    0  0.37832220986E+03  0.51889614718E+02  0.30731463225E+03  0.49016579826E+03  0.25500000920E-02 0.  1.
       -2    1    3    3    0  502 -0.37832220986E+03 -0.51889614718E+02  0.65244985191E+03  0.75598348914E+03  0.25500000920E-02 0. -1.
</event>
<event>
 5   0  0.2454354E-02  0.7456360E+03  0.7818609E-02  0.9642222E-01
       -2   -1    0    0    0  501  0.00000000000E+00  0.00000000000E+00  0.13729283345E+03  0.13729283347E+03  0.25500000920E-02 0.  1.
        2   -1    0    0  501    0  0.00000000000E+00  0.00000000000E+00 -0.10123854286E+04  0.10123854286E+04  0.25500000920E-02 0. -1.
    10030    2    1    2    0    0  0.00000000000E+00  0.00000000000E+00 -0.87509259517E+03  0.11496782621E+04  0.74563600786E+03 0.  0.
        5    1    3    3  502    0  0.16230877345E+03  0.31839001174E+03 -0.60112209395E+03  0.69934698065E+03  0.46999998093E+01 0. -1.
       -5    1    3    3    0  502 -0.16230877345E+03 -0.31839001174E+03 -0.27397050122E+03  0.45033128145E+03  0.46999998093E+01 0.  1.
</event>
<event>
 5   0  0.1624094E-02  0.7987042E+03  0.7818609E-02  0.9561895E-01
        1   -1    0    0  501    0  0.00000000000E+00  0.00000000000E+00  0.15586722711E+04  0.15586722711E+04  0.50400001928E-02 0.  1.
       -1   -1    0    0    0  501  0.00000000000E+00  0.00000000000E+00 -0.10231919312E+03  0.10231919324E+03  0.50400001928E-02 0. -1.
    10030    2    1    2    0    0  0.00000000000E+00  0.00000000000E+00  0.14563530780E+04  0.16609914644E+04  0.79870417359E+03 0.  0.
        3    1    3    3  502    0  0.28158736407E+03 -0.17057758552E+03  0.25810271274E+03  0.41833620070E+03  0.10100000352E+00 0. -1.
       -3    1    3    3    0  502 -0.28158736407E+03  0.17057758552E+03  0.11982503652E+04  0.12426552637E+04  0.10100000352E+00 0.  1.
</event>
<event>
 5   0  0.1471290E-02  0.8074031E+03  0.7818609E-02  0.9549363E-01
        1   -1    0    0  501    0  0.00000000000E+00  0.00000000000E+00  0.38044236143E+03  0.38044236147E+03  0.50400001928E-02 0.  1.
       -1   -1    0    0    0  501  0.00000000000E+00  0.00000000000E+00 -0.42838278576E+03  0.42838278579E+03  0.50400001928E-02 0. -1.
    10030    2    1    2    0    0  0.00000000000E+00  0.00000000000E+00 -0.47940424327E+02  0.80882514725E+03  0.80740314252E+03 0.  0.
        2    1    3    3  502    0 -0.15293678657E+03 -0.27762515491E+03 -0.27442968971E+03  0.41925772733E+03  0.25500000920E-02 0. -1.
       -2    1    3    3    0  502  0.15293678657E+03  0.27762515491E+03  0.22648926538E+03  0.38956741992E+03  0.25500000920E-02 0.  1.
</event>
<event>
 5   0  0.2464780E-02  0.7631962E+03  0.7818609E-02  0.9614872E-01
       -2   -1    0    0    0  501  0.00000000000E+00  0.00000000000E+00  0.24363412031E+03  0.24363412033E+03  0.25500000920E-02 0.  1.
        2   -1    0    0  501    0  0.00000000000E+00  0.00000000000E+00 -0.59768764133E+03  0.59768764133E+03  0.25500000920E-02 0. -1.
    10030    2    1    2    0    0  0.00000000000E+00  0.00000000000E+00 -0.35405352101E+03  0.84132176166E+03  0.76319618113E+03 0.  0.
        3    1    3    3  502    0 -0.28571535688E+03 -0.14079947181E+03 -0.40867937265E+03  0.51814727274E+03  0.10100000352E+00 0. -1.
       -3    1    3    3    0  502  0.28571535688E+03  0.14079947181E+03  0.54625851636E+02  0.32317448892E+03  0.10100000352E+00 0.  1.
</event>
<event>
 5   0  0.1624094E-02  0.7846040E+03  0.7818609E-02  0.9582573E-01
       -1   -1    0    0    0  501  0.00000000000E+00  0.00000000000E+00  0.97096371786E+02  0.97096371916E+02  0.50400001928E-02 0.  1.
        1   -1    0    0  501    0  0.00000000000E+00  0.00000000000E+00 -0.15850322066E+04  0.15850322066E+04  0.50400001928E-02 0. -1.
    10030    2    1    2    0    0  0.00000000000E+00  0.00000000000E+00 -0.14879358348E+04  0.16821285785E+04  0.78460404419E+03 0.  0.
        3    1    3    3  502    0 -0.35417772766E+03 -0.12265831470E+03 -0.99227370905E+03  0.10607045059E+04  0.10100000352E+00 0. -1.
       -3    1    3    3    0  502  0.35417772766E+03  0.12265831470E+03 -0.49566212576E+03  0.62142407264E+03  0.10100000352E+00 0.  1.
</event>
<event>
 5   0  0.1624094E-02  0.8056368E+03  0.7818609E-02  0.9551894E-01
        1   -1    0    0  501    0  0.00000000000E+00  0.00000000000E+00  0.33339544273E+03  0.33339544277E+03  0.50400001928E-02 0.  1.
       -1   -1    0    0    0  501  0.00000000000E+00  0.00000000000E+00 -0.48669735551E+03  0.48669735554E+03  0.50400001928E-02 0. -1.
    10030    2    1    2    0    0  0.00000000000E+00  0.00000000000E+00 -0.15330191278E+03  0.82009279831E+03  0.80563684212E+03 0.  0.
        3    1    3    3  502    0 -0.20768166704E+03  0.29132550195E+02  0.27344213562E+03  0.34460265820E+03  0.10100000352E+00 0.  1.
       -3    1    3    3    0  502  0.20768166704E+03 -0.29132550195E+02 -0.42674404840E+03  0.47549014012E+03  0.10100000352E+00 0. -1.
</event>
<event>
 5   0  0.1523811E-02  0.8010585E+03  0.7818609E-02  0.9558486E-01
       -1   -1    0    0    0  501  0.00000000000E+00  0.00000000000E+00  0.39387076011E+03  0.39387076014E+03  0.50400001928E-02 0.  1.
        1   -1    0    0  501    0  0.00000000000E+00  0.00000000000E+00 -0.40730029836E+03  0.40730029839E+03  0.50400001928E-02 0. -1.
    10030    2    1    2    0    0  0.00000000000E+00  0.00000000000E+00 -0.13429538244E+02  0.80117105853E+03  0.80105849507E+03 0.  0.
        1    1    3    3  502    0  0.37479819779E+03 -0.75695773162E+01  0.13434649951E+03  0.39822100588E+03  0.50400001928E-02 0.  1.
       -1    1    3    3    0  502 -0.37479819779E+03  0.75695773162E+01 -0.14777603775E+03  0.40295005265E+03  0.50400001928E-02 0. -1.
</event>
<event>
 5   0  0.9919125E-03  0.8067336E+03  0.7818609E-02  0.9550321E-01
        4   -1    0    0  501    0  0.00000000000E+00  0.00000000000E+00  0.12531436546E+03  0.12532080071E+03  0.12699999809E+01 0.  1.
       -4   -1    0    0    0  501  0.00000000000E+00  0.00000000000E+00 -0.12983329257E+04  0.12983335469E+04  0.12699999809E+01 0. -1.
    10030    2    1    2    0    0  0.00000000000E+00  0.00000000000E+00 -0.11730185603E+04  0.14236543476E+04  0.80673363550E+03 0.  0.
        2    1    3    3  502    0  0.13085619538E+03  0.46181091977E+02 -0.12548882584E+04  0.12625373572E+04  0.25500000920E-02 0. -1.
       -2    1    3    3    0  502 -0.13085619538E+03 -0.46181091977E+02  0.81869698128E+02  0.16111699043E+03  0.25500000920E-02 0.  1.
</event>
<event>
 5   0  0.1498375E-02  0.8096820E+03  0.7818609E-02  0.9546108E-01
       -1   -1    0    0    0  501  0.00000000000E+00  0.00000000000E+00  0.21691399972E+03  0.21691399978E+03  0.50400001928E-02 0.  1.
        1   -1    0    0  501    0  0.00000000000E+00  0.00000000000E+00 -0.75558167367E+03  0.75558167369E+03  0.50400001928E-02 0. -1.
    10030    2    1    2    0    0  0.00000000000E+00  0.00000000000E+00 -0.53866767395E+03  0.97249567347E+03  0.80968201904E+03 0.  0.
        4    1    3    3  502    0 -0.10808308286E+03  0.83471954419E+02  0.18841151504E+03  0.23270159405E+03  0.12699999809E+01 0.  1.
       -4    1    3    3    0  502  0.10808308286E+03 -0.83471954419E+02 -0.72707918899E+03  0.73979407942E+03  0.12699999809E+01 0. -1.
</event>
<event>
 5   0  0.1471290E-02  0.7942501E+03  0.7818609E-02  0.9568377E-01
       -1   -1    0    0    0  501  0.00000000000E+00  0.00000000000E+00  0.45428431928E+03  0.45428431931E+03  0.50400001928E-02 0. -1.
        1   -1    0    0  501    0  0.00000000000E+00  0.00000000000E+00 -0.34715772019E+03  0.34715772023E+03  0.50400001928E-02 0.  1.
    10030    2    1    2    0    0  0.00000000000E+00  0.00000000000E+00  0.10712659909E+03  0.80144203953E+03  0.79425010828E+03 0.  0.
        2    1    3    3  502    0  0.35584555895E+02  0.36925986668E+03  0.19658309275E+03  0.41983809036E+03  0.25500000920E-02 0. -1.
       -2    1    3    3    0  502 -0.35584555895E+02 -0.36925986668E+03 -0.89456493661E+02  0.38160394917E+03  0.25500000920E-02 0.  1.
</event>
<event>
 5   0  0.2464780E-02  0.7967508E+03  0.7818609E-02  0.9564732E-01
       -2   -1    0    0    0  501  0.00000000000E+00  0.00000000000E+00  0.74305766864E+03  0.74305766865E+03  0.25500000920E-02 0.  1.
        2   -1    0    0  501    0  0.00000000000E+00  0.00000000000E+00 -0.21358094153E+03  0.21358094154E+03  0.25500000920E-02 0. -1.
    10030    2    1    2    0    0  0.00000000000E+00  0.00000000000E+00  0.52947672712E+03  0.95663861019E+03  0.79675079287E+03 0.  0.
        3    1    3    3  502    0 -0.27701655213E+03 -0.29049924163E+02 -0.77234560755E+02  0.28904542173E+03  0.10100000352E+00 0. -1.
       -3    1    3    3    0  502  0.27701655213E+03  0.29049924163E+02  0.60671128787E+03  0.66759318846E+03  0.10100000352E+00 0.  1.
</event>
<event>
 5   0  0.2422031E-02  0.8080366E+03  0.7818609E-02  0.9548457E-01
       -2   -1    0    0    0  501  0.00000000000E+00  0.00000000000E+00  0.16938945765E+03  0.16938945767E+03  0.25500000920E-02 0.  1.
        2   -1    0    0  501    0  0.00000000000E+00  0.00000000000E+00 -0.96364200403E+03  0.96364200403E+03  0.25500000920E-02 0. -1.
    10030    2    1    2    0    0  0.00000000000E+00  0.00000000000E+00 -0.79425254638E+03  0.11330314617E+04  0.80803662403E+03 0.  0.
        4    1    3    3  502    0 -0.62209210215E+02 -0.10261876135E+03  0.14381996367E+03  0.18731361634E+03  0.12699999809E+01 0.  1.
       -4    1    3    3    0  502  0.62209210215E+02  0.10261876135E+03 -0.93807251005E+03  0.94571784536E+03  0.12699999809E+01 0. -1.
</event>
<event>
 5   0  0.2422031E-02  0.7083570E+03  0.7818609E-02  0.9703046E-01
        2   -1    0    0  501    0  0.00000000000E+00  0.00000000000E+00  0.32907395481E+03  0.32907395482E+03  0.25500000920E-02 0. -1.
       -2   -1    0    0    0  501  0.00000000000E+00  0.00000000000E+00 -0.38119822238E+03  0.38119822239E+03  0.25500000920E-02 0.  1.
    10030    2    1    2    0    0  0.00000000000E+00  0.00000000000E+00 -0.52124267564E+02  0.71027217721E+03  0.70835699083E+03 0.  0.
        4    1    3    3  502    0 -0.15029040693E+03  0.26882593483E+03 -0.20142410123E+03  0.36800525962E+03  0.12699999809E+01 0. -1.
       -4    1    3    3    0  502  0.15029040693E+03 -0.26882593483E+03  0.14929983366E+03  0.34226691760E+03  0.12699999809E+01 0.  1.
</event>
<event>
 5   0  0.1509629E-02  0.9274977E+03  0.7818609E-02  0.9391846E-01
       -1   -1    0    0    0  501  0.00000000000E+00  0.00000000000E+00  0.12701736765E+03  0.12701736775E+03  0.50400001928E-02 0.  1.
        1   -1    0    0  501    0  0.00000000000E+00  0.00000000000E+00 -0.16931778426E+04  0.16931778426E+04  0.50400001928E-02 0. -1.
    10030    2    1    2    0    0  0.00000000000E+00  0.00000000000E+00 -0.15661604749E+04  0.18201952103E+04  0.92749769297E+03 0.  0.
        5    1    3    3  502    0  0.27432791213E+03  0.11245572349E+01 -0.49354752063E+02  0.27877419097E+03  0.46999998093E+01 0.  1.
       -5    1    3    3    0  502 -0.27432791213E+03 -0.11245572349E+01 -0.15168057229E+04  0.15414210194E+04  0.46999998093E+01 0. -1.
</event>
<event>
 5   0  0.1624094E-02  0.7958329E+03  0.7818609E-02  0.9566069E-01
       -1   -1    0    0    0  501  0.00000000000E+00  0.00000000000E+00  0.26229974309E+03  0.26229974314E+03  0.50400001928E-02 0.  1.
        1   -1    0    0  501    0  0.00000000000E+00  0.00000000000E+00 -0.60365093707E+03  0.60365093709E+03  0.50400001928E-02 0. -1.
    10030    2    1    2    0    0  0.00000000000E+00  0.00000000000E+00 -0.34135119397E+03  0.86595068023E+03  0.79583286120E+03 0.  0.
        3    1    3    3  502    0  0.38614086624E+03  0.75739842864E+02 -0.23501371875E+03  0.45833694001E+03  0.10100000352E+00 0. -1.
       -3    1    3    3    0  502 -0.38614086624E+03 -0.75739842864E+02 -0.10633747523E+03  0.40761374022E+03  0.10100000352E+00 0.  1.
</event>
<event>
 5   0  0.2422031E-02  0.8174568E+03  0.7818609E-02  0.9535087E-01
        2   -1    0    0  501    0  0.00000000000E+00  0.00000000000E+00  0.25657838813E+03  0.25657838815E+03  0.25500000920E-02 0.  1.
       -2   -1    0    0    0  501  0.00000000000E+00  0.00000000000E+00 -0.65110286695E+03  0.65110286696E+03  0.25500000920E-02 0. -1.
    10030    2    1    2    0    0  0.00000000000E+00  0.00000000000E+00 -0.39452447882E+03  0.90768125510E+03  0.81745684686E+03 0.  0.
        4    1    3    3  502    0  0.14823631882E+03  0.11598959306E+03  0.20558974621E+03  0.27874064749E+03  0.12699999809E+01 0.  1.
       -4    1    3    3    0  502 -0.14823631882E+03 -0.11598959306E+03 -0.60011422503E+03  0.62894060761E+03  0.12699999809E+01 0. -1.
</event>
<event>
 5   0  0.9919125E-03  0.7777026E+03  0.7818609E-02  0.9592865E-01
        3   -1    0    0  501    0  0.00000000000E+00  0.00000000000E+00  0.28620250550E+03  0.28620252333E+03  0.10100000352E+00 0. -1.
       -3   -1    0    0    0  501  0.00000000000E+00  0.00000000000E+00 -0.52831584161E+03  0.52831585127E+03  0.10100000352E+00 0.  1.
    10030    2    1    2    0    0  0.00000000000E+00  0.00000000000E+00 -0.24211333611E+03  0.81451837459E+03  0.77770258777E+03 0.  0.
        5    1    3    3  502    0  0.14673208254E+03  0.25589046399E+03 -0.38637272269E+03  0.48612365140E+03  0.46999998093E+01 0.  1.
       -5    1    3    3    0  502 -0.14673208254E+03 -0.25589046399E+03  0.14425938658E+03  0.32839472320E+03  0.46999998093E+01 0. -1.
</event>
<event>
 5   0  0.2454354E-02  0.8096645E+03  0.7818609E-02  0.9546133E-01
       -2   -1    0    0    0  501  0.00000000000E+00  0.00000000000E+00  0.52150558056E+03  0.52150558056E+03  0.25500000920E-02 0. -1.
        2   -1    0    0  501    0  0.00000000000E+00  0.00000000000E+00 -0.31426153207E+03  0.31426153208E+03  0.25500000920E-02 0.  1.
    10030    2    1    2    0    0  0.00000000000E+00  0.00000000000E+00  0.20724404849E+03  0.83576711265E+03  0.80966448048E+03 0.  0.
        5    1    3    3  502    0  0.33880732450E+03  0.12231417237E+03 -0.87037524626E+02  0.37060596405E+03  0.46999998093E+01 0.  1.
       -5    1    3    3    0  502 -0.33880732450E+03 -0.12231417237E+03  0.29428157311E+03  0.46516114860E+03  0.46999998093E+01 0. -1.
</event>
<event>
 5   0  0.1509629E-02  0.7940158E+03  0.7818609E-02  0.9568720E-01
       -1   -1    0    0    0  501  0.00000000000E+00  0.00000000000E+00  0.91082939645E+02  0.91082939785E+02  0.50400001928E-02 0.  1.
        1   -1    0    0  501    0  0.00000000000E+00  0.00000000000E+00 -0.17304586592E+04  0.17304586592E+04  0.50400001928E-02 0. -1.
    10030    2    1    2    0    0  0.00000000000E+00  0.00000000000E+00 -0.16393757195E+04  0.18215415990E+04  0.79401577250E+03 0.  0.
        5    1    3    3  502    0  0.10920639656E+03  0.16627982010E+01  0.55873589543E+02  0.12277112834E+03  0.46999998093E+01 0.  1.
       -5    1    3    3    0  502 -0.10920639656E+03 -0.16627982010E+01 -0.16952493091E+04  0.16987704706E+04  0.46999998093E+01 0. -1.
</event>
<event>
 5   0  0.1624094E-02  0.7976895E+03  0.7818609E-02  0.9563367E-01
        1   -1    0    0  501    0  0.00000000000E+00  0.00000000000E+00  0.12761525889E+04  0.12761525889E+04  0.50400001928E-02 0.  1.
       -1   -1    0    0    0  501  0.00000000000E+00  0.00000000000E+00 -0.12465370125E+03  0.12465370135E+03  0.50400001928E-02 0. -1.
    10030    2    1    2    0    0  0.00000000000E+00  0.00000000000E+00  0.11514988876E+04  0.14008062903E+04  0.79768952267E+03 0.  0.
        3    1    3    3  502    0 -0.39156607635E+03  0.39389197581E+02  0.46192036469E+03  0.60683270722E+03  0.10100000352E+00 0. -1.
       -3    1    3    3    0  502  0.39156607635E+03 -0.39389197581E+02  0.68957852296E+03  0.79397358304E+03  0.10100000352E+00 0.  1.
</event>
<event>
 5   0  0.2460312E-02  0.7935332E+03  0.7818609E-02  0.9569425E-01
       -2   -1    0    0    0  501  0.00000000000E+00  0.00000000000E+00  0.38707536951E+03  0.38707536952E+03  0.25500000920E-02 0.  1.
        2   -1    0    0  501    0  0.00000000000E+00  0.00000000000E+00 -0.40670050649E+03  0.40670050650E+03  0.25500000920E-02 0. -1.
    10030    2    1    2    0    0  0.00000000000E+00  0.00000000000E+00 -0.19625136980E+02  0.79377587602E+03  0.79353323519E+03 0.  0.
        2    1    3    3  502    0  0.24093860470E+03  0.18545001095E+03  0.24517836413E+03  0.39058359930E+03  0.25500000920E-02 0.  1.
       -2    1    3    3    0  502 -0.24093860470E+03 -0.18545001095E+03 -0.26480350111E+03  0.40319227672E+03  0.25500000920E-02 0. -1.
</event>
<event>
 5   0  0.2454354E-02  0.7979618E+03  0.7818609E-02  0.9562972E-01
        2   -1    0    0  501    0  0.00000000000E+00  0.00000000000E+00  0.57698731856E+03  0.57698731857E+03  0.25500000920E-02 0. -1.
       -2   -1    0    0    0  501  0.00000000000E+00  0.00000000000E+00 -0.27589124792E+03  0.27589124793E+03  0.25500000920E-02 0.  1.
    10030    2    1    2    0    0  0.00000000000E+00  0.00000000000E+00  0.30109607064E+03  0.85287856650E+03  0.79796178194E+03 0.  0.
        5    1    3    3  502    0  0.15124916773E+01  0.67608047111E+02 -0.26969115005E+03  0.27808010011E+03  0.46999998093E+01 0.  1.
       -5    1    3    3    0  502 -0.15124916773E+01 -0.67608047111E+02  0.57078722069E+03  0.57479846639E+03  0.46999998093E+01 0. -1.
</event>
<event>
 5   0  0.2571778E-02  0.7985701E+03  0.7818609E-02  0.9562089E-01
        2   -1    0    0  501    0  0.00000000000E+00  0.00000000000E+00  0.16195007249E+04  0.16195007249E+04  0.25500000920E-02 0.  1.
       -2   -1    0    0    0  501  0.00000000000E+00  0.00000000000E+00 -0.98443026078E+02  0.98443026112E+02  0.25500000920E-02 0. -1.
    10030    2    1    2    0    0  0.00000000000E+00  0.00000000000E+00  0.15210576988E+04  0.17179437510E+04  0.79857010243E+03 0.  0.
        1    1    3    3  502    0 -0.50484500610E+02 -0.10336131497E+03 -0.62024533471E+02  0.13068775387E+03  0.50400001928E-02 0. -1.
       -1    1    3    3    0  502  0.50484500610E+02  0.10336131497E+03  0.15830822323E+04  0.15872559971E+04  0.50400001928E-02 0.  1.
</event>
<event>
 5   0  0.2422031E-02  0.8019652E+03  0.7818609E-02  0.9557177E-01
       -2   -1    0    0    0  501  0.00000000000E+00  0.00000000000E+00  0.20776401855E+03  0.20776401856E+03  0.25500000920E-02 0. -1.
        2   -1    0    0  501    0  0.00000000000E+00  0.00000000000E+00 -0.77389267471E+03  0.77389267471E+03  0.25500000920E-02 0.  1.
    10030    2    1    2    0    0  0.00000000000E+00  0.00000000000E+00 -0.56612865616E+03  0.98165669328E+03  0.80196521628E+03 0.  0.
        4    1    3    3  502    0 -0.74210378659E+02  0.12951350252E+03 -0.73861433759E+03  0.75354739747E+03  0.12699999809E+01 0.  1.
       -4    1    3    3    0  502  0.74210378659E+02 -0.12951350252E+03  0.17248568143E+03  0.22810929581E+03  0.12699999809E+01 0. -1.
</event>
<event>
 5   0  0.2454354E-02  0.7982250E+03  0.7818609E-02  0.9562590E-01
       -2   -1    0    0    0  501  0.00000000000E+00  0.00000000000E+00  0.40701629988E+03  0.40701629989E+03  0.25500000920E-02 0.  1.
        2   -1    0    0  501    0  0.00000000000E+00  0.00000000000E+00 -0.39136220650E+03  0.39136220651E+03  0.25500000920E-02 0. -1.
    10030    2    1    2    0    0  0.00000000000E+00  0.00000000000E+00  0.15654093379E+02  0.79837850639E+03  0.79822502393E+03 0.  0.
        5    1    3    3  502    0 -0.35388402952E+03  0.18183271176E+03 -0.23350501174E+02  0.39857794385E+03  0.46999998093E+01 0.  1.
       -5    1    3    3    0  502  0.35388402952E+03 -0.18183271176E+03  0.39004594553E+02  0.39980056255E+03  0.46999998093E+01 0. -1.
</event>
<event>
 5   0  0.2464780E-02  0.8032441E+03  0.7818609E-02  0.9555333E-01
       -2   -1    0    0    0  501  0.00000000000E+00  0.00000000000E+00  0.32774177943E+03  0.32774177943E+03  0.25500000920E-02 0. -1.
        2   -1    0    0  501    0  0.00000000000E+00  0.00000000000E+00 -0.49215651452E+03  0.49215651453E+03  0.25500000920E-02 0.  1.
    10030    2    1    2    0    0  0.00000000000E+00  0.00000000000E+00 -0.16441473510E+03  0.81989829396E+03  0.80324405216E+03 0.  0.
        3    1    3    3  502    0  0.15793831434E+02 -0.28711537731E+03  0.20399070938E+03  0.35255766154E+03  0.10100000352E+00 0. -1.
       -3    1    3    3    0  502 -0.15793831434E+02  0.28711537731E+03 -0.36840544447E+03  0.46734063243E+03  0.10100000352E+00 0.  1.
</event>
<event>
 5   0  0.1471290E-02  0.7980057E+03  0.7818609E-02  0.9562908E-01
       -1   -1    0    0    0  501  0.00000000000E+00  0.00000000000E+00  0.41428361904E+03  0.41428361908E+03  0.50400001928E-02 0. -1.
        1   -1    0    0  501    0  0.00000000000E+00  0.00000000000E+00 -0.38428571360E+03  0.38428571364E+03  0.50400001928E-02 0.  1.
    10030    2    1    2    0    0  0.00000000000E+00  0.00000000000E+00  0.29997905440E+02  0.79856933271E+03  0.79800570475E+03 0.  0.
        2    1    3    3  502    0  0.72639716616E+02 -0.87915796848E+02  0.39762690618E+03  0.41365791699E+03  0.25500000920E-02 0. -1.
       -2    1    3    3    0  502 -0.72639716616E+02  0.87915796848E+02 -0.36762900074E+03  0.38491141572E+03  0.25500000920E-02 0.  1.
</event>
<event>
 5   0  0.2454354E-02  0.8082123E+03  0.7818609E-02  0.9548206E-01
       -2   -1    0    0    0  501  0.00000000000E+00  0.00000000000E+00  0.18188135227E+03  0.18188135229E+03  0.25500000920E-02 0.  1.
        2   -1    0    0  501    0  0.00000000000E+00  0.00000000000E+00 -0.89784794952E+03  0.89784794953E+03  0.25500000920E-02 0. -1.
    10030    2    1    2    0    0  0.00000000000E+00  0.00000000000E+00 -0.71596659725E+03  0.10797293018E+04  0.80821234636E+03 0.  0.
        5    1    3    3  502    0  0.15974233081E+03 -0.94811312053E+02  0.12142071471E+03  0.22197269450E+03  0.46999998093E+01 0.  1.
       -5    1    3    3    0  502 -0.15974233081E+03  0.94811312053E+02 -0.83738731196E+03  0.85775660731E+03  0.46999998093E+01 0. -1.
</event>
<event>
 5   0  0.1509629E-02  0.8028330E+03  0.7818609E-02  0.9555926E-01
        1   -1    0    0  501    0  0.00000000000E+00  0.00000000000E+00  0.45783132404E+03  0.45783132406E+03  0.50400001928E-02 0.  1.
       -1   -1    0    0    0  501  0.00000000000E+00  0.00000000000E+00 -0.35195319941E+03  0.35195319944E+03  0.50400001928E-02 0. -1.
    10030    2    1    2    0    0  0.00000000000E+00  0.00000000000E+00  0.10587812463E+03  0.80978452351E+03  0.80283298216E+03 0.  0.
        5    1    3    3  502    0  0.27937246807E+03 -0.30422542744E+02 -0.23614085417E+03  0.36709549170E+03  0.46999998093E+01 0. -1.
       -5    1    3    3    0  502 -0.27937246807E+03  0.30422542744E+02  0.34201897880E+03  0.44268903180E+03  0.46999998093E+01 0.  1.
</event>
<event>
 5   0  0.1509629E-02  0.7971602E+03  0.7818609E-02  0.9564137E-01
        1   -1    0    0  501    0  0.00000000000E+00  0.00000000000E+00  0.17478239258E+04  0.17478239258E+04  0.50400001928E-02 0.  1.
       -1   -1    0    0    0  501  0.00000000000E+00  0.00000000000E+00 -0.90893651390E+02  0.90893651530E+02  0.50400001928E-02 0. -1.
    10030    2    1    2    0    0  0.00000000000E+00  0.00000000000E+00  0.16569302744E+04  0.18387175774E+04  0.79716020658E+03 0.  0.
        5    1    3    3  502    0  0.50583580074E+02 -0.37811610725E+03  0.56232164096E+03  0.67952792954E+03  0.46999998093E+01 0. -1.
       -5    1    3    3    0  502 -0.50583580074E+02  0.37811610725E+03  0.10946086335E+04  0.11591896478E+04  0.46999998093E+01 0.  1.
</event>
<event>
 5   0  0.1509629E-02  0.7854978E+03  0.7818609E-02  0.9581249E-01
       -1   -1    0    0    0  501  0.00000000000E+00  0.00000000000E+00  0.17400545856E+03  0.17400545863E+03  0.50400001928E-02 0. -1.
        1   -1    0    0  501    0  0.00000000000E+00  0.00000000000E+00 -0.88647629635E+03  0.88647629637E+03  0.50400001928E-02 0.  1.
    10030    2    1    2    0    0  0.00000000000E+00  0.00000000000E+00 -0.71247083779E+03  0.10604817550E+04  0.78549784085E+03 0.  0.
        5    1    3    3  502    0  0.79087085945E+01 -0.38725345037E+03 -0.26872131215E+03  0.47144566612E+03  0.46999998093E+01 0. -1.
       -5    1    3    3    0  502 -0.79087085945E+01  0.38725345037E+03 -0.44374952564E+03  0.58903608888E+03  0.46999998093E+01 0.  1.
</event>
<event>
 5   0  0.1498375E-02  0.7901014E+03  0.7818609E-02  0.9574456E-01
       -1   -1    0    0    0  501  0.00000000000E+00  0.00000000000E+00  0.33020372580E+03  0.33020372584E+03  0.50400001928E-02 0. -1.
        1   -1    0    0  501    0  0.00000000000E+00  0.00000000000E+00 -0.47263262046E+03  0.47263262049E+03  0.50400001928E-02 0.  1.
    10030    2    1    2    0    0  0.00000000000E+00  0.00000000000E+00 -0.14242889466E+03  0.80283634633E+03  0.79010139156E+03 0.  0.
        4    1    3    3  502    0  0.13703760284E+02 -0.43435437344E+02  0.32752487025E+03  0.33067897392E+03  0.12699999809E+01 0. -1.
       -4    1    3    3    0  502 -0.13703760284E+02  0.43435437344E+02 -0.46995376491E+03  0.47215737240E+03  0.12699999809E+01 0.  1.
</event>
<event>
 5   0  0.2464780E-02  0.7826623E+03  0.7818609E-02  0.9585457E-01
       -2   -1    0    0    0  501  0.00000000000E+00  0.00000000000E+00  0.14196364889E+03  0.14196364891E+03  0.25500000920E-02 0.  1.
        2   -1    0    0  501    0  0.00000000000E+00  0.00000000000E+00 -0.10787272126E+04  0.10787272126E+04  0.25500000920E-02 0. -1.
    10030    2    1    2    0    0  0.00000000000E+00  0.00000000000E+00 -0.93676356370E+03  0.12206908615E+04  0.78266225480E+03 0.  0.
        3    1    3    3  502    0  0.51365477341E+02  0.33082725721E+03 -0.15236212864E+03  0.36783055178E+03  0.10100000352E+00 0. -1.
       -3    1    3    3    0  502 -0.51365477341E+02 -0.33082725721E+03 -0.78440143506E+03  0.85286030973E+03  0.10100000352E+00 0.  1.
</event>
<event>
 5   0  0.2454354E-02  0.8273599E+03  0.7818609E-02  0.9521238E-01
       -2   -1    0    0    0  501  0.00000000000E+00  0.00000000000E+00  0.19907771363E+03  0.19907771365E+03  0.25500000920E-02 0.  1.
        2   -1    0    0  501    0  0.00000000000E+00  0.00000000000E+00 -0.85961959095E+03  0.85961959095E+03  0.25500000920E-02 0. -1.
    10030    2    1    2    0    0  0.00000000000E+00  0.00000000000E+00 -0.66054187732E+03  0.10586973046E+04  0.82735990420E+03 0.  0.
        5    1    3    3  502    0 -0.24901712020E+03 -0.31442706697E+03 -0.45972733500E+03  0.61011902047E+03  0.46999998093E+01 0. -1.
       -5    1    3    3    0  502  0.24901712020E+03  0.31442706697E+03 -0.20081454232E+03  0.44857828413E+03  0.46999998093E+01 0.  1.
</event>
<event>
 5   0  0.1498375E-02  0.7972055E+03  0.7818609E-02  0.9564071E-01
       -1   -1    0    0    0  501  0.00000000000E+00  0.00000000000E+00  0.75045663519E+02  0.75045663689E+02  0.50400001928E-02 0.  1.
        1   -1    0    0  501    0  0.00000000000E+00  0.00000000000E+00 -0.21171663639E+04  0.21171663639E+04  0.50400001928E-02 0. -1.
    10030    2    1    2    0    0  0.00000000000E+00  0.00000000000E+00 -0.20421207004E+04  0.21922120276E+04  0.79720550614E+03 0.  0.
        4    1    3    3  502    0 -0.24105184683E+03 -0.20949407225E+03 -0.16769421609E+04  0.17070824184E+04  0.12699999809E+01 0. -1.
       -4    1    3    3    0  502  0.24105184683E+03  0.20949407225E+03 -0.36517853951E+03  0.48512960926E+03  0.12699999809E+01 0.  1.
</event>
<event>
 5   0  0.2460312E-02  0.7997904E+03  0.7818609E-02  0.9560320E-01
       -2   -1    0    0    0  501  0.00000000000E+00  0.00000000000E+00  0.25913875488E+03  0.25913875489E+03  0.25500000920E-02 0.  1.
        2   -1    0    0  501    0  0.00000000000E+00  0.00000000000E+00 -0.61710640326E+03  0.61710640326E+03  0.25500000920E-02 0. -1.
    10030    2    1    2    0    0  0.00000000000E+00  0.00000000000E+00 -0.35796764838E+03  0.87624515815E+03  0.79979043499E+03 0.  0.
        2    1    3    3  502    0  0.25174191696E+03 -0.26636701785E+03 -0.35424728805E+03  0.50972200467E+03  0.25500000920E-02 0. -1.
       -2    1    3    3    0  502 -0.25174191696E+03  0.26636701785E+03 -0.37203603358E+01  0.36652315348E+03  0.25500000920E-02 0.  1.
</event>
<event>
 5   0  0.2460312E-02  0.7897266E+03  0.7818609E-02  0.9575008E-01
       -2   -1    0    0    0  501  0.00000000000E+00  0.00000000000E+00  0.37855508019E+03  0.37855508020E+03  0.25500000920E-02 0. -1.
        2   -1    0    0  501    0  0.00000000000E+00  0.00000000000E+00 -0.41187409839E+03  0.41187409840E+03  0.25500000920E-02 0.  1.
    10030    2    1    2    0    0  0.00000000000E+00  0.00000000000E+00 -0.33319018201E+02  0.79042917859E+03  0.78972661687E+03 0.  0.
        2    1    3    3  502    0 -0.27891269036E+03 -0.18303261148E+03  0.19477189583E+03  0.38630210603E+03  0.25500000920E-02 0.  1.
       -2    1    3    3    0  502  0.27891269036E+03  0.18303261148E+03 -0.22809091403E+03  0.40412707256E+03  0.25500000920E-02 0. -1.
</event>
<event>
 5   0  0.1498375E-02  0.8020531E+03  0.7818609E-02  0.9557050E-01
        1   -1    0    0  501    0  0.00000000000E+00  0.00000000000E+00  0.10007774986E+04  0.10007774986E+04  0.50400001928E-02 0.  1.
       -1   -1    0    0    0  501  0.00000000000E+00  0.00000000000E+00 -0.16069735528E+03  0.16069735536E+03  0.50400001928E-02 0. -1.
    10030    2    1    2    0    0  0.00000000000E+00  0.00000000000E+00  0.84008014330E+03  0.11614748540E+04  0.80205310872E+03 0.  0.
        4    1    3    3  502    0  0.17384812197E+03  0.67957640094E+02 -0.93951782139E+02  0.20897358834E+03  0.12699999809E+01 0. -1.
       -4    1    3    3    0  502 -0.17384812197E+03 -0.67957640094E+02  0.93403192543E+03  0.95250126561E+03  0.12699999809E+01 0.  1.
</event>
<event>
 5   0  0.2454354E-02  0.7995857E+03  0.7818609E-02  0.9560617E-01
       -2   -1    0    0    0  501  0.00000000000E+00  0.00000000000E+00  0.28089257023E+03  0.28089257024E+03  0.25500000920E-02 0. -1.
        2   -1    0    0  501    0  0.00000000000E+00  0.00000000000E+00 -0.56902300561E+03  0.56902300561E+03  0.25500000920E-02 0.  1.
    10030    2    1    2    0    0  0.00000000000E+00  0.00000000000E+00 -0.28813043538E+03  0.84991557585E+03  0.79958572916E+03 0.  0.
        5    1    3    3  502    0 -0.33149940551E+03 -0.11572445096E+03 -0.34721910123E+03  0.49382911889E+03  0.46999998093E+01 0.  1.
       -5    1    3    3    0  502  0.33149940551E+03  0.11572445096E+03  0.59088665845E+02  0.35608645697E+03  0.46999998093E+01 0. -1.
</event>
<event>
 5   0  0.1624094E-02  0.8150005E+03  0.7818609E-02  0.9538555E-01
       -1   -1    0    0    0  501  0.00000000000E+00  0.00000000000E+00  0.10532502515E+03  0.10532502528E+03  0.50400001928E-02 0. -1.
        1   -1    0    0  501    0  0.00000000000E+00  0.00000000000E+00 -0.15766095769E+04  0.15766095769E+04  0.50400001928E-02 0.  1.
    10030    2    1    2    0    0  0.00000000000E+00  0.00000000000E+00 -0.14712845517E+04  0.16819346022E+04  0.81500047473E+03 0.  0.
        3    1    3    3  502    0 -0.26218086501E+03  0.25341649279E+03 -0.11110906316E+04  0.11693934867E+04  0.10100000352E+00 0.  1.
       -3    1    3    3    0  502  0.26218086501E+03 -0.25341649279E+03 -0.36019392014E+03  0.51254111552E+03  0.10100000352E+00 0. -1.
</event>
<event>
 5   0  0.2422031E-02  0.8036717E+03  0.7818609E-02  0.9554718E-01
       -2   -1    0    0    0  501  0.00000000000E+00  0.00000000000E+00  0.43663199201E+03  0.43663199202E+03  0.25500000920E-02 0.  1.
        2   -1    0    0  501    0  0.00000000000E+00  0.00000000000E+00 -0.36981271450E+03  0.36981271451E+03  0.25500000920E-02 0. -1.
    10030    2    1    2    0    0  0.00000000000E+00  0.00000000000E+00  0.66819277509E+02  0.80644470653E+03  0.80367172953E+03 0.  0.
        4    1    3    3  502    0 -0.21518375910E+03  0.90515174499E+02  0.36160603534E+03  0.43041559531E+03  0.12699999809E+01 0.  1.
       -4    1    3    3    0  502  0.21518375910E+03 -0.90515174499E+02 -0.29478675783E+03  0.37602911122E+03  0.12699999809E+01 0. -1.
</event>
<event>
 5   0  0.9919125E-03  0.8106511E+03  0.7818609E-02  0.9544727E-01
       -3   -1    0    0    0  501  0.00000000000E+00  0.00000000000E+00  0.26739644015E+03  0.26739645922E+03  0.10100000352E+00 0. -1.
        3   -1    0    0  501    0  0.00000000000E+00  0.00000000000E+00 -0.61440161365E+03  0.61440162195E+03  0.10100000352E+00 0.  1.
    10030    2    1    2    0    0  0.00000000000E+00  0.00000000000E+00 -0.34700517351E+03  0.88179808118E+03  0.81065113676E+03 0.  0.
        4    1    3    3  502    0  0.28841306771E+03 -0.12223100506E+03  0.10629778388E+03  0.33079200108E+03  0.12699999809E+01 0.  1.
       -4    1    3    3    0  502 -0.28841306771E+03  0.12223100506E+03 -0.45330295739E+03  0.55100608009E+03  0.12699999809E+01 0. -1.
</event>
<event>
 5   0  0.2454354E-02  0.6473354E+03  0.7818609E-02  0.9811792E-01
        2   -1    0    0  501    0  0.00000000000E+00  0.00000000000E+00  0.74519025071E+03  0.74519025072E+03  0.25500000920E-02 0.  1.
       -2   -1    0    0    0  501  0.00000000000E+00  0.00000000000E+00 -0.14058261146E+03  0.14058261148E+03  0.25500000920E-02 0. -1.
    10030    2    1    2    0    0  0.00000000000E+00  0.00000000000E+00  0.60460763925E+03  0.88577286220E+03  0.64733543543E+03 0.  0.
        5    1    3    3  502    0  0.14320628647E+00  0.31428514246E+03  0.40797211498E+03  0.51501311427E+03  0.46999998093E+01 0. -1.
       -5    1    3    3    0  502 -0.14320628647E+00 -0.31428514246E+03  0.19663552428E+03  0.37075974793E+03  0.46999998093E+01 0.  1.
</event>
<event>
 5   0  0.1523811E-02  0.8253679E+03  0.7818609E-02  0.9524007E-01
        1   -1    0    0  501    0  0.00000000000E+00  0.00000000000E+00  0.17790926964E+04  0.17790926964E+04  0.50400001928E-02 0. -1.
       -1   -1    0    0    0  501  0.00000000000E+00  0.00000000000E+00 -0.95727461550E+02  0.95727461682E+02  0.50400001928E-02 0.  1.
    10030    2    1    2    0    0  0.00000000000E+00  0.00000000000E+00  0.16833652348E+04  0.18748201581E+04  0.82536786421E+03 0.  0.
        1    1    3    3  502    0 -0.12797113006E+03 -0.39174205546E+03  0.79245977467E+03  0.89321382806E+03  0.50400001928E-02 0.  1.
       -1    1    3    3    0  502  0.12797113006E+03  0.39174205546E+03  0.89090546015E+03  0.98160633000E+03  0.50400001928E-02 0. -1.
</event>
<event>
 5   0  0.1523811E-02  0.8457360E+03  0.7818609E-02  0.9496078E-01
        1   -1    0    0  501    0  0.00000000000E+00  0.00000000000E+00  0.15958171105E+04  0.15958171105E+04  0.50400001928E-02 0.  1.
       -1   -1    0    0    0  501  0.00000000000E+00  0.00000000000E+00 -0.11205377605E+03  0.11205377616E+03  0.50400001928E-02 0. -1.
    10030    2    1    2    0    0  0.00000000000E+00  0.00000000000E+00  0.14837633345E+04  0.17078708867E+04  0.84573597115E+03 0.  0.
        1    1    3    3  502    0 -0.31029646155E+02 -0.42161090706E+03  0.72181566415E+03  0.83650250982E+03  0.50400001928E-02 0. -1.
       -1    1    3    3    0  502  0.31029646155E+02  0.42161090706E+03  0.76194767033E+03  0.87136837688E+03  0.50400001928E-02 0.  1.
</event>
<event>
 5   0  0.1624094E-02  0.6064237E+03  0.7818609E-02  0.9892168E-01
        1   -1    0    0  501    0  0.00000000000E+00  0.00000000000E+00  0.82782334164E+03  0.82782334166E+03  0.50400001928E-02 0. -1.
       -1   -1    0    0    0  501  0.00000000000E+00  0.00000000000E+00 -0.11105921633E+03  0.11105921644E+03  0.50400001928E-02 0.  1.
    10030    2    1    2    0    0  0.00000000000E+00  0.00000000000E+00  0.71676412532E+03  0.93888255810E+03  0.60642365271E+03 0.  0.
        3    1    3    3  502    0 -0.10870081683E+03  0.18180560015E+03  0.69427370665E+03  0.72586853753E+03  0.10100000352E+00 0. -1.
       -3    1    3    3    0  502  0.10870081683E+03 -0.18180560015E+03  0.22490418668E+02  0.21301402057E+03  0.10100000352E+00 0.  1.
</event>
<event>
 5   0  0.2422031E-02  0.8032216E+03  0.7818609E-02  0.9555366E-01
        2   -1    0    0  501    0  0.00000000000E+00  0.00000000000E+00  0.17036558166E+04  0.17036558166E+04  0.25500000920E-02 0. -1.
       -2   -1    0    0    0  501  0.00000000000E+00  0.00000000000E+00 -0.94673595296E+02  0.94673595330E+02  0.25500000920E-02 0.  1.
    10030    2    1    2    0    0  0.00000000000E+00  0.00000000000E+00  0.16089822213E+04  0.17983294119E+04  0.80322156678E+03 0.  0.
        4    1    3    3  502    0 -0.35228608608E+03  0.72230404497E+02  0.40419249873E+03  0.54101377682E+03  0.12699999809E+01 0.  1.
       -4    1    3    3    0  502  0.35228608608E+03 -0.72230404497E+02  0.12047897226E+04  0.12573156351E+04  0.12699999809E+01 0. -1.
</event>
<event>
 5   0  0.2571778E-02  0.8084872E+03  0.7818609E-02  0.9547813E-01
       -2   -1    0    0    0  501  0.00000000000E+00  0.00000000000E+00  0.11174958517E+03  0.11174958520E+03  0.25500000920E-02 0.  1.
        2   -1    0    0  501    0  0.00000000000E+00  0.00000000000E+00 -0.14623131857E+04  0.14623131857E+04  0.25500000920E-02 0. -1.
    10030    2    1    2    0    0  0.00000000000E+00  0.00000000000E+00 -0.13505636005E+04  0.15740627709E+04  0.80848720933E+03 0.  0.
        1    1    3    3  502    0 -0.35687789810E+03 -0.14740687300E+03 -0.44228237743E+03  0.58711525425E+03  0.50400001928E-02 0.  1.
       -1    1    3    3    0  502  0.35687789810E+03  0.14740687300E+03 -0.90828122307E+03  0.98694751663E+03  0.50400001928E-02 0. -1.
</event>
<event>
 5   0  0.2454354E-02  0.8208962E+03  0.7818609E-02  0.9530254E-01
        2   -1    0    0  501    0  0.00000000000E+00  0.00000000000E+00  0.29723300155E+03  0.29723300156E+03  0.25500000920E-02 0.  1.
       -2   -1    0    0    0  501  0.00000000000E+00  0.00000000000E+00 -0.56678649171E+03  0.56678649172E+03  0.25500000920E-02 0. -1.
    10030    2    1    2    0    0  0.00000000000E+00  0.00000000000E+00 -0.26955349017E+03  0.86401949328E+03  0.82089621798E+03 0.  0.
        5    1    3    3  502    0 -0.23305540174E+03 -0.20457547584E+03  0.14819508270E+03  0.34372928029E+03  0.46999998093E+01 0.  1.
       -5    1    3    3    0  502  0.23305540174E+03  0.20457547584E+03 -0.41774857287E+03  0.52029021298E+03  0.46999998093E+01 0. -1.
</event>
<event>
 5   0  0.1471290E-02  0.8292699E+03  0.7818609E-02  0.9518590E-01
        1   -1    0    0  501    0  0.00000000000E+00  0.00000000000E+00  0.69238750408E+03  0.69238750409E+03  0.50400001928E-02 0. -1.
       -1   -1    0    0    0  501  0.00000000000E+00  0.00000000000E+00 -0.24830334883E+03  0.24830334888E+03  0.50400001928E-02 0.  1.
    10030    2    1    2    0    0  0.00000000000E+00  0.00000000000E+00  0.44408415525E+03  0.94069085297E+03  0.82926988606E+03 0.  0.
        2    1    3    3  502    0  0.30837492878E+03 -0.19224344217E+03  0.44854374908E+03  0.57727301392E+03  0.25500000920E-02 0. -1.
       -2    1    3    3    0  502 -0.30837492878E+03  0.19224344217E+03 -0.44595938257E+01  0.36341783905E+03  0.25500000920E-02 0.  1.
</event>
<event>
 5   0  0.9919125E-03  0.8031320E+03  0.7818609E-02  0.9555495E-01
        3   -1    0    0  501    0  0.00000000000E+00  0.00000000000E+00  0.13804527694E+04  0.13804527731E+04  0.10100000352E+00 0. -1.
       -3   -1    0    0    0  501  0.00000000000E+00  0.00000000000E+00 -0.11681327046E+03  0.11681331412E+03  0.10100000352E+00 0.  1.
    10030    2    1    2    0    0  0.00000000000E+00  0.00000000000E+00  0.12636394990E+04  0.14972660873E+04  0.80313196467E+03 0.  0.
        5    1    3    3  502    0  0.77103174667E+02  0.38673591569E+03  0.49077856032E+03  0.62959927994E+03  0.46999998093E+01 0.  1.
       -5    1    3    3    0  502 -0.77103174667E+02 -0.38673591569E+03  0.77286093866E+03  0.86766680733E+03  0.46999998093E+01 0. -1.
</event>
<event>
 5   0  0.1509629E-02  0.8689257E+03  0.7818609E-02  0.9465282E-01
       -1   -1    0    0    0  501  0.00000000000E+00  0.00000000000E+00  0.27990159573E+03  0.27990159577E+03  0.50400001928E-02 0. -1.
        1   -1    0    0  501    0  0.00000000000E+00  0.00000000000E+00 -0.67437265490E+03  0.67437265492E+03  0.50400001928E-02 0.  1.
    10030    2    1    2    0    0  0.00000000000E+00  0.00000000000E+00 -0.39447105917E+03  0.95427425069E+03  0.86892573273E+03 0.  0.
        5    1    3    3  502    0 -0.21612821262E+03 -0.19383164647E+03 -0.55217363654E+03  0.62385889939E+03  0.46999998093E+01 0.  1.
       -5    1    3    3    0  502  0.21612821262E+03  0.19383164647E+03  0.15770257737E+03  0.33041535129E+03  0.46999998093E+01 0. -1.
</event>
<event>
 5   0  0.2422031E-02  0.8123260E+03  0.7818609E-02  0.9542345E-01
        2   -1    0    0  501    0  0.00000000000E+00  0.00000000000E+00  0.12066196072E+04  0.12066196072E+04  0.25500000920E-02 0. -1.
       -2   -1    0    0    0  501  0.00000000000E+00  0.00000000000E+00 -0.13671944554E+03  0.13671944556E+03  0.25500000920E-02 0.  1.
    10030    2    1    2    0    0  0.00000000000E+00  0.00000000000E+00  0.10699001617E+04  0.13433390528E+04  0.81232595354E+03 0.  0.
        4    1    3    3  502    0  0.65308014893E+02 -0.39683321522E+03  0.44103808604E+03  0.59687347382E+03  0.12699999809E+01 0.  1.
       -4    1    3    3    0  502 -0.65308014893E+02  0.39683321522E+03  0.62886207565E+03  0.74646557898E+03  0.12699999809E+01 0. -1.
</event>
<event>
 5   0  0.1624094E-02  0.8365292E+03  0.7818609E-02  0.9508597E-01
        1   -1    0    0  501    0  0.00000000000E+00  0.00000000000E+00  0.65154801501E+03  0.65154801503E+03  0.50400001928E-02 0.  1.
       -1   -1    0    0    0  501  0.00000000000E+00  0.00000000000E+00 -0.26850712307E+03  0.26850712312E+03  0.50400001928E-02 0. -1.
    10030    2    1    2    0    0  0.00000000000E+00  0.00000000000E+00  0.38304089194E+03  0.92005513815E+03  0.83652921786E+03 0.  0.
        3    1    3    3  502    0 -0.38297575695E+03 -0.16606775163E+03  0.16249728136E+03  0.44794453361E+03  0.10100000352E+00 0. -1.
       -3    1    3    3    0  502  0.38297575695E+03  0.16606775163E+03  0.22054361059E+03  0.47211060454E+03  0.10100000352E+00 0.  1.
</event>
<event>
 5   0  0.2422031E-02  0.8082408E+03  0.7818609E-02  0.9548165E-01
        2   -1    0    0  501    0  0.00000000000E+00  0.00000000000E+00  0.21074127813E+04  0.21074127813E+04  0.25500000920E-02 0.  1.
       -2   -1    0    0    0  501  0.00000000000E+00  0.00000000000E+00 -0.77494688708E+02  0.77494688750E+02  0.25500000920E-02 0. -1.
    10030    2    1    2    0    0  0.00000000000E+00  0.00000000000E+00  0.20299180926E+04  0.21849074700E+04  0.80824079955E+03 0.  0.
        4    1    3    3  502    0 -0.25276651050E+03 -0.65781387054E+02  0.18133949863E+03  0.31796812163E+03  0.12699999809E+01 0. -1.
       -4    1    3    3    0  502  0.25276651050E+03  0.65781387054E+02  0.18485785940E+04  0.18669393484E+04  0.12699999809E+01 0.  1.
</event>
<event>
 5   0  0.1523811E-02  0.8062304E+03  0.7818609E-02  0.9551042E-01
       -1   -1    0    0    0  501  0.00000000000E+00  0.00000000000E+00  0.80002085088E+02  0.80002085246E+02  0.50400001928E-02 0.  1.
        1   -1    0    0  501    0  0.00000000000E+00  0.00000000000E+00 -0.20312205107E+04  0.20312205107E+04  0.50400001928E-02 0. -1.
    10030    2    1    2    0    0  0.00000000000E+00  0.00000000000E+00 -0.19512184256E+04  0.21112225959E+04  0.80623042935E+03 0.  0.
        1    1    3    3  502    0 -0.34400147810E+02  0.14036734253E+03 -0.19610493750E+04  0.19663674662E+04  0.50400001928E-02 0. -1.
       -1    1    3    3    0  502  0.34400147810E+02 -0.14036734253E+03  0.98309493877E+01  0.14485512973E+03  0.50400001928E-02 0.  1.
</event>
<event>
 5   0  0.1523811E-02  0.7904332E+03  0.7818609E-02  0.9573969E-01
       -1   -1    0    0    0  501  0.00000000000E+00  0.00000000000E+00  0.38403081269E+03  0.38403081273E+03  0.50400001928E-02 0.  1.
        1   -1    0    0  501    0  0.00000000000E+00  0.00000000000E+00 -0.40672822054E+03  0.40672822057E+03  0.50400001928E-02 0. -1.
    10030    2    1    2    0    0  0.00000000000E+00  0.00000000000E+00 -0.22697407845E+02  0.79075903330E+03  0.79043322072E+03 0.  0.
        1    1    3    3  502    0 -0.35100843050E+03 -0.26151140893E+02  0.16846232559E+03  0.39021834352E+03  0.50400001928E-02 0.  1.
       -1    1    3    3    0  502  0.35100843050E+03  0.26151140893E+02 -0.19115973344E+03  0.40054068977E+03  0.50400001928E-02 0. -1.
</event>
<event>
 5   0  0.2422031E-02  0.6944642E+03  0.7818609E-02  0.9726746E-01
        2   -1    0    0  501    0  0.00000000000E+00  0.00000000000E+00  0.53774653351E+03  0.53774653352E+03  0.25500000920E-02 0. -1.
       -2   -1    0    0    0  501  0.00000000000E+00  0.00000000000E+00 -0.22421370354E+03  0.22421370355E+03  0.25500000920E-02 0.  1.
    10030    2    1    2    0    0  0.00000000000E+00  0.00000000000E+00  0.31353282997E+03  0.76196023707E+03  0.69446423047E+03 0.  0.
        4    1    3    3  502    0 -0.32987993931E+03 -0.81907852642E+02  0.23465045978E+03  0.41302799162E+03  0.12699999809E+01 0. -1.
       -4    1    3    3    0  502  0.32987993931E+03  0.81907852642E+02  0.78882370193E+02  0.34893224545E+03  0.12699999809E+01 0.  1.
</event>
<event>
 5   0  0.2571778E-02  0.7986753E+03  0.7818609E-02  0.9561937E-01
       -2   -1    0    0    0  501  0.00000000000E+00  0.00000000000E+00  0.13334509661E+03  0.13334509664E+03  0.25500000920E-02 0.  1.
        2   -1    0    0  501    0  0.00000000000E+00  0.00000000000E+00 -0.11959236305E+04  0.11959236305E+04  0.25500000920E-02 0. -1.
    10030    2    1    2    0    0  0.00000000000E+00  0.00000000000E+00 -0.10625785338E+04  0.13292687271E+04  0.79867528336E+03 0.  0.
        1    1    3    3  502    0  0.15237702880E+03 -0.14851966046E+02 -0.11451386548E+04  0.11553276066E+04  0.50400001928E-02 0. -1.
       -1    1    3    3    0  502 -0.15237702880E+03  0.14851966046E+02  0.82560120969E+02  0.17394112050E+03  0.50400001928E-02 0.  1.
</event>
<event>
 5   0  0.2460312E-02  0.8378537E+03  0.7818609E-02  0.9506786E-01
       -2   -1    0    0    0  501  0.00000000000E+00  0.00000000000E+00  0.17179132819E+03  0.17179132821E+03  0.25500000920E-02 0. -1.
        2   -1    0    0  501    0  0.00000000000E+00  0.00000000000E+00 -0.10215866371E+04  0.10215866371E+04  0.25500000920E-02 0.  1.
    10030    2    1    2    0    0  0.00000000000E+00  0.00000000000E+00 -0.84979530890E+03  0.11933779653E+04  0.83785374682E+03 0.  0.
        2    1    3    3  502    0  0.12756681600E+03 -0.30831043862E+03 -0.78570848163E+03  0.85361960920E+03  0.25500000920E-02 0.  1.
       -2    1    3    3    0  502 -0.12756681600E+03  0.30831043862E+03 -0.64086827272E+02  0.33975835611E+03  0.25500000920E-02 0. -1.
</event>
<event>
 5   0  0.2422031E-02  0.7994515E+03  0.7818609E-02  0.9560811E-01
       -2   -1    0    0    0  501  0.00000000000E+00  0.00000000000E+00  0.11184530701E+03  0.11184530704E+03  0.25500000920E-02 0. -1.
        2   -1    0    0  501    0  0.00000000000E+00  0.00000000000E+00 -0.14285861880E+04  0.14285861880E+04  0.25500000920E-02 0.  1.
    10030    2    1    2    0    0  0.00000000000E+00  0.00000000000E+00 -0.13167408810E+04  0.15404314950E+04  0.79945146396E+03 0.  0.
        4    1    3    3  502    0 -0.14863671499E+03  0.35785092978E+03 -0.46929360264E+03  0.60859531658E+03  0.12699999809E+01 0. -1.
       -4    1    3    3    0  502  0.14863671499E+03 -0.35785092978E+03 -0.84744727834E+03  0.93183617844E+03  0.12699999809E+01 0.  1.
</event>
<event>
 5   0  0.1523811E-02  0.8060670E+03  0.7818609E-02  0.9551277E-01
        1   -1    0    0  501    0  0.00000000000E+00  0.00000000000E+00  0.36582616656E+03  0.36582616660E+03  0.50400001928E-02 0.  1.
       -1   -1    0    0    0  501  0.00000000000E+00  0.00000000000E+00 -0.44402514871E+03  0.44402514874E+03  0.50400001928E-02 0. -1.
    10030    2    1    2    0    0  0.00000000000E+00  0.00000000000E+00 -0.78198982149E+02  0.80985131534E+03  0.80606703949E+03 0.  0.
        1    1    3    3  502    0  0.23285897786E+03  0.19488012007E+03  0.22716253469E+03  0.37921548223E+03  0.50400001928E-02 0.  1.
       -1    1    3    3    0  502 -0.23285897786E+03 -0.19488012007E+03 -0.30536151684E+03  0.43063583311E+03  0.50400001928E-02 0. -1.
</event>
<event>
 5   0  0.1624094E-02  0.7823377E+03  0.7818609E-02  0.9585940E-01
        1   -1    0    0  501    0  0.00000000000E+00  0.00000000000E+00  0.65274106991E+03  0.65274106993E+03  0.50400001928E-02 0.  1.
       -1   -1    0    0    0  501  0.00000000000E+00  0.00000000000E+00 -0.23441618157E+03  0.23441618163E+03  0.50400001928E-02 0. -1.
    10030    2    1    2    0    0  0.00000000000E+00  0.00000000000E+00  0.41832488834E+03  0.88715725155E+03  0.78233769996E+03 0.  0.
        3    1    3    3  502    0 -0.22573396371E+03 -0.26881566195E+03  0.40490298628E+03  0.53587696441E+03  0.10100000352E+00 0.  1.
       -3    1    3    3    0  502  0.22573396371E+03  0.26881566195E+03  0.13421902054E+02  0.35128028715E+03  0.10100000352E+00 0. -1.
</event>
<event>
 5   0  0.2460312E-02  0.8013410E+03  0.7818609E-02  0.9558078E-01
        2   -1    0    0  501    0  0.00000000000E+00  0.00000000000E+00  0.14177499423E+04  0.14177499423E+04  0.25500000920E-02 0. -1.
       -2   -1    0    0    0  501  0.00000000000E+00  0.00000000000E+00 -0.11323355418E+03  0.11323355421E+03  0.25500000920E-02 0.  1.
    10030    2    1    2    0    0  0.00000000000E+00  0.00000000000E+00  0.13045163881E+04  0.15309834965E+04  0.80134103832E+03 0.  0.
        2    1    3    3  502    0 -0.37456232106E+03  0.10908912204E+03  0.47778728362E+03  0.61682903410E+03  0.25500000920E-02 0.  1.
       -2    1    3    3    0  502  0.37456232106E+03 -0.10908912204E+03  0.82672910447E+03  0.91415446238E+03  0.25500000920E-02 0. -1.
</event>
<event>
 5   0  0.9919125E-03  0.7948554E+03  0.7818609E-02  0.9567494E-01
       -3   -1    0    0    0  501  0.00000000000E+00  0.00000000000E+00  0.50906304725E+03  0.50906305727E+03  0.10100000352E+00 0. -1.
        3   -1    0    0  501    0  0.00000000000E+00  0.00000000000E+00 -0.31027350225E+03  0.31027351869E+03  0.10100000352E+00 0.  1.
    10030    2    1    2    0    0  0.00000000000E+00  0.00000000000E+00  0.19878954499E+03  0.81933657596E+03  0.79485542177E+03 0.  0.
        3    1    3    3  502    0 -0.16438429086E+03  0.28368255992E+03 -0.13213570476E+03  0.35349376877E+03  0.10100000352E+00 0. -1.
       -3    1    3    3    0  502  0.16438429086E+03 -0.28368255992E+03  0.33092524976E+03  0.46584280719E+03  0.10100000352E+00 0.  1.
</event>
<event>
 5   0  0.1471290E-02  0.8194517E+03  0.7818609E-02  0.9532281E-01
       -1   -1    0    0    0  501  0.00000000000E+00  0.00000000000E+00  0.23954725334E+03  0.23954725340E+03  0.50400001928E-02 0.  1.
        1   -1    0    0  501    0  0.00000000000E+00  0.00000000000E+00 -0.70080237675E+03  0.70080237677E+03  0.50400001928E-02 0. -1.
    10030    2    1    2    0    0  0.00000000000E+00  0.00000000000E+00 -0.46125512341E+03  0.94034963016E+03  0.81945173017E+03 0.  0.
        2    1    3    3  502    0  0.38543687397E+03 -0.12589612114E+03 -0.29816531504E+03  0.50330306201E+03  0.25500000920E-02 0.  1.
       -2    1    3    3    0  502 -0.38543687397E+03  0.12589612114E+03 -0.16308980836E+03  0.43704656815E+03  0.25500000920E-02 0. -1.
</event>
<event>
 5   0  0.1471290E-02  0.8231058E+03  0.7818609E-02  0.9527162E-01
        1   -1    0    0  501    0  0.00000000000E+00  0.00000000000E+00  0.47946065825E+03  0.47946065828E+03  0.50400001928E-02 0. -1.
       -1   -1    0    0    0  501  0.00000000000E+00  0.00000000000E+00 -0.35326320371E+03  0.35326320374E+03  0.50400001928E-02 0.  1.
    10030    2    1    2    0    0  0.00000000000E+00  0.00000000000E+00  0.12619745455E+03  0.83272386202E+03  0.82310584547E+03 0.  0.
        2    1    3    3  502    0  0.38258235389E+03 -0.15151297886E+03  0.70278693467E+02  0.41745003896E+03  0.25500000920E-02 0. -1.
       -2    1    3    3    0  502 -0.38258235389E+03  0.15151297886E+03  0.55918761079E+02  0.41527382306E+03  0.25500000920E-02 0.  1.
</event>
<event>
 5   0  0.1498375E-02  0.8012377E+03  0.7818609E-02  0.9558227E-01
        1   -1    0    0  501    0  0.00000000000E+00  0.00000000000E+00  0.30665064604E+03  0.30665064608E+03  0.50400001928E-02 0.  1.
       -1   -1    0    0    0  501  0.00000000000E+00  0.00000000000E+00 -0.52338211237E+03  0.52338211239E+03  0.50400001928E-02 0. -1.
    10030    2    1    2    0    0  0.00000000000E+00  0.00000000000E+00 -0.21673146632E+03  0.83003275847E+03  0.80123769984E+03 0.  0.
        4    1    3    3  502    0  0.20175179506E+02  0.39710602585E+03 -0.15904859516E+03  0.42825027981E+03  0.12699999809E+01 0. -1.
       -4    1    3    3    0  502 -0.20175179506E+02 -0.39710602585E+03 -0.57682871164E+02  0.40178247866E+03  0.12699999809E+01 0.  1.
</event>
<event>
 5   0  0.2460312E-02  0.8765161E+03  0.7818609E-02  0.9455423E-01
        2   -1    0    0  501    0  0.00000000000E+00  0.00000000000E+00  0.72639866148E+03  0.72639866149E+03  0.25500000920E-02 0. -1.
       -2   -1    0    0    0  501  0.00000000000E+00  0.00000000000E+00 -0.26441417936E+03  0.26441417938E+03  0.25500000920E-02 0.  1.
    10030    2    1    2    0    0  0.00000000000E+00  0.00000000000E+00  0.46198448212E+03  0.99081284087E+03  0.87651607167E+03 0.  0.
        2    1    3    3  502    0 -0.26435070414E+03  0.32211248336E+03  0.38446178618E+03  0.56696438315E+03  0.25500000920E-02 0. -1.
       -2    1    3    3    0  502  0.26435070414E+03 -0.32211248336E+03  0.77522695937E+02  0.42384845772E+03  0.25500000920E-02 0.  1.
</event>
<event>
 5   0  0.1523811E-02  0.7962519E+03  0.7818609E-02  0.9565458E-01
       -1   -1    0    0    0  501  0.00000000000E+00  0.00000000000E+00  0.12557728740E+03  0.12557728751E+03  0.50400001928E-02 0. -1.
        1   -1    0    0  501    0  0.00000000000E+00  0.00000000000E+00 -0.12622050030E+04  0.12622050030E+04  0.50400001928E-02 0.  1.
    10030    2    1    2    0    0  0.00000000000E+00  0.00000000000E+00 -0.11366277156E+04  0.13877822906E+04  0.79625192121E+03 0.  0.
        1    1    3    3  502    0 -0.33309868211E+03 -0.11308416598E+03 -0.24336110061E+03  0.42774687133E+03  0.50400001928E-02 0. -1.
       -1    1    3    3    0  502  0.33309868211E+03  0.11308416598E+03 -0.89326661502E+03  0.96003541922E+03  0.50400001928E-02 0.  1.
</event>
<event>
 5   0  0.2460312E-02  0.7877045E+03  0.7818609E-02  0.9577987E-01
       -2   -1    0    0    0  501  0.00000000000E+00  0.00000000000E+00  0.11545770768E+03  0.11545770771E+03  0.25500000920E-02 0.  1.
        2   -1    0    0  501    0  0.00000000000E+00  0.00000000000E+00 -0.13435188901E+04  0.13435188901E+04  0.25500000920E-02 0. -1.
    10030    2    1    2    0    0  0.00000000000E+00  0.00000000000E+00 -0.12280611824E+04  0.14589765978E+04  0.78770454182E+03 0.  0.
        2    1    3    3  502    0 -0.68142825901E+02  0.58390231540E+02 -0.13243312542E+04  0.13273681232E+04  0.25500000920E-02 0. -1.
       -2    1    3    3    0  502  0.68142825901E+02 -0.58390231540E+02  0.96270071736E+02  0.13160847457E+03  0.25500000920E-02 0.  1.
</event>
<event>
 5   0  0.2460312E-02  0.7979379E+03  0.7818609E-02  0.9563007E-01
       -2   -1    0    0    0  501  0.00000000000E+00  0.00000000000E+00  0.10671914450E+03  0.10671914453E+03  0.25500000920E-02 0.  1.
        2   -1    0    0  501    0  0.00000000000E+00  0.00000000000E+00 -0.14915433151E+04  0.14915433151E+04  0.25500000920E-02 0. -1.
    10030    2    1    2    0    0  0.00000000000E+00  0.00000000000E+00 -0.13848241706E+04  0.15982624596E+04  0.79793790886E+03 0.  0.
        2    1    3    3  502    0 -0.38765642487E+03  0.94329421056E+02 -0.69075652871E+03  0.79769676280E+03  0.25500000920E-02 0.  1.
       -2    1    3    3    0  502  0.38765642487E+03 -0.94329421056E+02 -0.69406764184E+03  0.80056569679E+03  0.25500000920E-02 0. -1.
</event>
<event>
 5   0  0.2460312E-02  0.8486532E+03  0.7818609E-02  0.9492146E-01
       -2   -1    0    0    0  501  0.00000000000E+00  0.00000000000E+00  0.30451714457E+03  0.30451714458E+03  0.25500000920E-02 0.  1.
        2   -1    0    0  501    0  0.00000000000E+00  0.00000000000E+00 -0.59127399812E+03  0.59127399813E+03  0.25500000920E-02 0. -1.
    10030    2    1    2    0    0  0.00000000000E+00  0.00000000000E+00 -0.28675685355E+03  0.89579114270E+03  0.84865321438E+03 0.  0.
        2    1    3    3  502    0  0.23873586057E+03  0.17361988814E+03 -0.46512801532E+03  0.55089268222E+03  0.25500000920E-02 0. -1.
       -2    1    3    3    0  502 -0.23873586057E+03 -0.17361988814E+03  0.17837116177E+03  0.34489846048E+03  0.25500000920E-02 0.  1.
</event>
<event>
 5   0  0.2571778E-02  0.7911926E+03  0.7818609E-02  0.9572854E-01
        2   -1    0    0  501    0  0.00000000000E+00  0.00000000000E+00  0.82088047686E+02  0.82088047725E+02  0.25500000920E-02 0. -1.
       -2   -1    0    0    0  501  0.00000000000E+00  0.00000000000E+00 -0.19064459817E+04  0.19064459817E+04  0.25500000920E-02 0.  1.
    10030    2    1    2    0    0  0.00000000000E+00  0.00000000000E+00 -0.18243579340E+04  0.19885340294E+04  0.79119259020E+03 0.  0.
        1    1    3    3  502    0 -0.25450595622E+03  0.29173622393E+03 -0.11165663590E+04  0.11817799035E+04  0.50400001928E-02 0.  1.
       -1    1    3    3    0  502  0.25450595622E+03 -0.29173622393E+03 -0.70779157498E+03  0.80675412595E+03  0.50400001928E-02 0. -1.
</event>
<event>
 5   0  0.1471290E-02  0.7934283E+03  0.7818609E-02  0.9569578E-01
        1   -1    0    0  501    0  0.00000000000E+00  0.00000000000E+00  0.26248888910E+04  0.26248888910E+04  0.50400001928E-02 0.  1.
       -1   -1    0    0    0  501  0.00000000000E+00  0.00000000000E+00 -0.59957634441E+02  0.59957634653E+02  0.50400001928E-02 0. -1.
    10030    2    1    2    0    0  0.00000000000E+00  0.00000000000E+00  0.25649312566E+04  0.26848465257E+04  0.79342833039E+03 0.  0.
        2    1    3    3  502    0  0.31885596865E+03  0.12549662996E+03  0.60600263729E+03  0.69617363444E+03  0.25500000920E-02 0. -1.
       -2    1    3    3    0  502 -0.31885596865E+03 -0.12549662996E+03  0.19589286193E+04  0.19886728912E+04  0.25500000920E-02 0.  1.
</event>
<event>
 5   0  0.2422031E-02  0.8001448E+03  0.7818609E-02  0.9559808E-01
       -2   -1    0    0    0  501  0.00000000000E+00  0.00000000000E+00  0.75374698426E+02  0.75374698469E+02  0.25500000920E-02 0.  1.
        2   -1    0    0  501    0  0.00000000000E+00  0.00000000000E+00 -0.21234967666E+04  0.21234967666E+04  0.25500000920E-02 0. -1.
    10030    2    1    2    0    0  0.00000000000E+00  0.00000000000E+00 -0.20481220681E+04  0.21988714650E+04  0.80014480799E+03 0.  0.
        4    1    3    3  502    0 -0.28445553678E+03  0.12926949386E+03 -0.33741871449E+03  0.45986797696E+03  0.12699999809E+01 0.  1.
       -4    1    3    3    0  502  0.28445553678E+03 -0.12926949386E+03 -0.17107033536E+04  0.17390034881E+04  0.12699999809E+01 0. -1.
</event>
<event>
 5   0  0.2454354E-02  0.8121342E+03  0.7818609E-02  0.9542618E-01
       -2   -1    0    0    0  501  0.00000000000E+00  0.00000000000E+00  0.22272549432E+03  0.22272549433E+03  0.25500000920E-02 0.  1.
        2   -1    0    0  501    0  0.00000000000E+00  0.00000000000E+00 -0.74033052018E+03  0.74033052018E+03  0.25500000920E-02 0. -1.
    10030    2    1    2    0    0  0.00000000000E+00  0.00000000000E+00 -0.51760502586E+03  0.96305601451E+03  0.81213417875E+03 0.  0.
        5    1    3    3  502    0  0.70696291189E+02  0.98053276368E+02  0.20086058856E+03  0.23447702793E+03  0.46999998093E+01 0.  1.
       -5    1    3    3    0  502 -0.70696291189E+02 -0.98053276368E+02 -0.71846561441E+03  0.72857898658E+03  0.46999998093E+01 0. -1.
</event>
<event>
 5   0  0.1624094E-02  0.8188058E+03  0.7818609E-02  0.9533188E-01
       -1   -1    0    0    0  501  0.00000000000E+00  0.00000000000E+00  0.29545046886E+03  0.29545046891E+03  0.50400001928E-02 0. -1.
        1   -1    0    0  501    0  0.00000000000E+00  0.00000000000E+00 -0.56730563871E+03  0.56730563873E+03  0.50400001928E-02 0.  1.
    10030    2    1    2    0    0  0.00000000000E+00  0.00000000000E+00 -0.27185516985E+03  0.86275610764E+03  0.81880575712E+03 0.  0.
        3    1    3    3  502    0 -0.27338622537E+03 -0.29502475563E+03 -0.21638783186E+03  0.45673114481E+03  0.10100000352E+00 0.  1.
       -3    1    3    3    0  502  0.27338622537E+03  0.29502475563E+03 -0.55467337986E+02  0.40602496283E+03  0.10100000352E+00 0. -1.
</event>
<event>
 5   0  0.2454354E-02  0.7987878E+03  0.7818609E-02  0.9561773E-01
       -2   -1    0    0    0  501  0.00000000000E+00  0.00000000000E+00  0.22327768446E+03  0.22327768447E+03  0.25500000920E-02 0.  1.
        2   -1    0    0  501    0  0.00000000000E+00  0.00000000000E+00 -0.71442646897E+03  0.71442646898E+03  0.25500000920E-02 0. -1.
    10030    2    1    2    0    0  0.00000000000E+00  0.00000000000E+00 -0.49114878451E+03  0.93770415345E+03  0.79878780090E+03 0.  0.
        5    1    3    3  502    0 -0.28490861475E+03  0.32485757454E+02  0.80732505752E+02  0.29793970981E+03  0.46999998093E+01 0.  1.
       -5    1    3    3    0  502  0.28490861475E+03 -0.32485757454E+02 -0.57188129027E+03  0.63976444364E+03  0.46999998093E+01 0. -1.
</event>
<event>
 5   0  0.1509629E-02  0.7328228E+03  0.7818609E-02  0.9662691E-01
       -1   -1    0    0    0  501  0.00000000000E+00  0.00000000000E+00  0.19324052838E+03  0.19324052844E+03  0.50400001928E-02 0.  1.
        1   -1    0    0  501    0  0.00000000000E+00  0.00000000000E+00 -0.69476796993E+03  0.69476796995E+03  0.50400001928E-02 0. -1.
    10030    2    1    2    0    0  0.00000000000E+00  0.00000000000E+00 -0.50152744156E+03  0.88800849840E+03  0.73282284257E+03 0.  0.
        5    1    3    3  502    0 -0.47379375650E+01 -0.33675785784E+03 -0.75971460740E+02  0.34528546989E+03  0.46999998093E+01 0.  1.
       -5    1    3    3    0  502  0.47379375650E+01  0.33675785784E+03 -0.42555598082E+03  0.54272302851E+03  0.46999998093E+01 0. -1.
</event>
<event>
 5   0  0.2454354E-02  0.8640221E+03  0.7818609E-02  0.9471708E-01
       -2   -1    0    0    0  501  0.00000000000E+00  0.00000000000E+00  0.81505592884E+02  0.81505592924E+02  0.25500000920E-02 0. -1.
        2   -1    0    0  501    0  0.00000000000E+00  0.00000000000E+00 -0.22898252472E+04  0.22898252472E+04  0.25500000920E-02 0.  1.
    10030    2    1    2    0    0  0.00000000000E+00  0.00000000000E+00 -0.22083196543E+04  0.23713308401E+04  0.86402213958E+03 0.  0.
        5    1    3    3  502    0  0.15319795030E+03 -0.27333614312E+03 -0.19203007678E+04  0.19457028005E+04  0.46999998093E+01 0.  1.
       -5    1    3    3    0  502 -0.15319795030E+03  0.27333614312E+03 -0.28801888650E+03  0.42562803959E+03  0.46999998093E+01 0. -1.
</event>
<event>
 5   0  0.2460312E-02  0.8084943E+03  0.7818609E-02  0.9547803E-01
        2   -1    0    0  501    0  0.00000000000E+00  0.00000000000E+00  0.16487870575E+04  0.16487870575E+04  0.25500000920E-02 0.  1.
       -2   -1    0    0    0  501  0.00000000000E+00  0.00000000000E+00 -0.99112721705E+02  0.99112721738E+02  0.25500000920E-02 0. -1.
    10030    2    1    2    0    0  0.00000000000E+00  0.00000000000E+00  0.15496743358E+04  0.17478997793E+04  0.80849433595E+03 0.  0.
        2    1    3    3  502    0  0.10529160402E+03 -0.38330525772E+03  0.93380119917E+03  0.10148861621E+04  0.25500000920E-02 0.  1.
       -2    1    3    3    0  502 -0.10529160402E+03  0.38330525772E+03  0.61587313666E+03  0.73301361716E+03  0.25500000920E-02 0. -1.
</event>
<event>
 5   0  0.1498375E-02  0.7596010E+03  0.7818609E-02  0.9620407E-01
       -1   -1    0    0    0  501  0.00000000000E+00  0.00000000000E+00  0.24970586900E+03  0.24970586905E+03  0.50400001928E-02 0. -1.
        1   -1    0    0  501    0  0.00000000000E+00  0.00000000000E+00 -0.57767337066E+03  0.57767337068E+03  0.50400001928E-02 0.  1.
    10030    2    1    2    0    0  0.00000000000E+00  0.00000000000E+00 -0.32796750166E+03  0.82737923973E+03  0.75960102962E+03 0.  0.
        4    1    3    3  502    0  0.51308432677E+01 -0.36382804573E+03 -0.45414586720E+02  0.36668960989E+03  0.12699999809E+01 0. -1.
       -4    1    3    3    0  502 -0.51308432677E+01  0.36382804573E+03 -0.28255291493E+03  0.46068962985E+03  0.12699999809E+01 0.  1.
</event>
<event>
 5   0  0.1523811E-02  0.8033202E+03  0.7818609E-02  0.9555224E-01
       -1   -1    0    0    0  501  0.00000000000E+00  0.00000000000E+00  0.34811581904E+03  0.34811581907E+03  0.50400001928E-02 0.  1.
        1   -1    0    0  501    0  0.00000000000E+00  0.00000000000E+00 -0.46344007257E+03  0.46344007260E+03  0.50400001928E-02 0. -1.
    10030    2    1    2    0    0  0.00000000000E+00  0.00000000000E+00 -0.11532425353E+03  0.81155589167E+03  0.80332016148E+03 0.  0.
        1    1    3    3  502    0  0.21370807630E+03 -0.99949497240E+02 -0.38606364983E+03  0.45244467686E+03  0.50400001928E-02 0. -1.
       -1    1    3    3    0  502 -0.21370807630E+03  0.99949497240E+02  0.27073939629E+03  0.35911121481E+03  0.50400001928E-02 0.  1.
</event>
<event>
 5   0  0.2422031E-02  0.8013357E+03  0.7818609E-02  0.9558086E-01
        2   -1    0    0  501    0  0.00000000000E+00  0.00000000000E+00  0.10673217742E+04  0.10673217742E+04  0.25500000920E-02 0.  1.
       -2   -1    0    0    0  501  0.00000000000E+00  0.00000000000E+00 -0.15040891414E+03  0.15040891417E+03  0.25500000920E-02 0. -1.
    10030    2    1    2    0    0  0.00000000000E+00  0.00000000000E+00  0.91691286003E+03  0.12177306883E+04  0.80133565779E+03 0.  0.
        4    1    3    3  502    0 -0.87292563142E+02  0.15037696104E+03  0.10069970345E+04  0.10218991450E+04  0.12699999809E+01 0.  1.
       -4    1    3    3    0  502  0.87292563142E+02 -0.15037696104E+03 -0.90084174502E+02  0.19583154339E+03  0.12699999809E+01 0. -1.
</event>
<event>
 5   0  0.2422031E-02  0.6932804E+03  0.7818609E-02  0.9728793E-01
       -2   -1    0    0    0  501  0.00000000000E+00  0.00000000000E+00  0.12082735252E+03  0.12082735255E+03  0.25500000920E-02 0.  1.
        2   -1    0    0  501    0  0.00000000000E+00  0.00000000000E+00 -0.99447198295E+03  0.99447198296E+03  0.25500000920E-02 0. -1.
    10030    2    1    2    0    0  0.00000000000E+00  0.00000000000E+00 -0.87364463043E+03  0.11152993355E+04  0.69328036717E+03 0.  0.
        4    1    3    3  502    0  0.58985692120E+02 -0.31521885730E+03 -0.22513206122E+03  0.39182687218E+03  0.12699999809E+01 0. -1.
       -4    1    3    3    0  502 -0.58985692120E+02  0.31521885730E+03 -0.64851256920E+03  0.72347246333E+03  0.12699999809E+01 0.  1.
</event>
<event>
 5   0  0.2571778E-02  0.7638194E+03  0.7818609E-02  0.9613916E-01
       -2   -1    0    0    0  501  0.00000000000E+00  0.00000000000E+00  0.18345192533E+03  0.18345192535E+03  0.25500000920E-02 0. -1.
        2   -1    0    0  501    0  0.00000000000E+00  0.00000000000E+00 -0.79505857585E+03  0.79505857586E+03  0.25500000920E-02 0.  1.
    10030    2    1    2    0    0  0.00000000000E+00  0.00000000000E+00 -0.61160665052E+03  0.97851050121E+03  0.76381941977E+03 0.  0.
        1    1    3    3  502    0 -0.25779800012E+03  0.13727186734E+03 -0.62104076612E+03  0.68629076027E+03  0.50400001928E-02 0.  1.
       -1    1    3    3    0  502  0.25779800012E+03 -0.13727186734E+03  0.94341155960E+01  0.29221974094E+03  0.50400001928E-02 0. -1.
</event>
<event>
 5   0  0.2454354E-02  0.7974583E+03  0.7818609E-02  0.9563703E-01
        2   -1    0    0  501    0  0.00000000000E+00  0.00000000000E+00  0.55379689775E+03  0.55379689776E+03  0.25500000920E-02 0.  1.
       -2   -1    0    0    0  501  0.00000000000E+00  0.00000000000E+00 -0.28708165417E+03  0.28708165418E+03  0.25500000920E-02 0. -1.
    10030    2    1    2    0    0  0.00000000000E+00  0.00000000000E+00  0.26671524358E+03  0.84087855194E+03  0.79745828603E+03 0.  0.
        5    1    3    3  502    0  0.15777590397E+03  0.21350967673E+03  0.44701518448E+03  0.51992719018E+03  0.46999998093E+01 0.  1.
       -5    1    3    3    0  502 -0.15777590397E+03 -0.21350967673E+03 -0.18029994090E+03  0.32095136176E+03  0.46999998093E+01 0. -1.
</event>
<event>
 5   0  0.1624094E-02  0.8405110E+03  0.7818609E-02  0.9503162E-01
        1   -1    0    0  501    0  0.00000000000E+00  0.00000000000E+00  0.82031464874E+03  0.82031464875E+03  0.50400001928E-02 0.  1.
       -1   -1    0    0    0  501  0.00000000000E+00  0.00000000000E+00 -0.21530112406E+03  0.21530112411E+03  0.50400001928E-02 0. -1.
    10030    2    1    2    0    0  0.00000000000E+00  0.00000000000E+00  0.60501352468E+03  0.10356157729E+04  0.84051095410E+03 0.  0.
        3    1    3    3  502    0 -0.28243549862E+03 -0.30572900651E+03  0.37408280502E+03  0.55962307987E+03  0.10100000352E+00 0.  1.
       -3    1    3    3    0  502  0.28243549862E+03  0.30572900651E+03  0.23093071966E+03  0.47599269300E+03  0.10100000352E+00 0. -1.
</event>
<event>
 5   0  0.1523811E-02  0.7996794E+03  0.7818609E-02  0.9560481E-01
       -1   -1    0    0    0  501  0.00000000000E+00  0.00000000000E+00  0.10271359016E+03  0.10271359028E+03  0.50400001928E-02 0.  1.
        1   -1    0    0  501    0  0.00000000000E+00  0.00000000000E+00 -0.15564814391E+04  0.15564814391E+04  0.50400001928E-02 0. -1.
    10030    2    1    2    0    0  0.00000000000E+00  0.00000000000E+00 -0.14537678490E+04  0.16591950294E+04  0.79967942762E+03 0.  0.
        1    1    3    3  502    0  0.30502532045E+02  0.46474266602E+02  0.94656560801E+02  0.10977306794E+03  0.50400001928E-02 0.  1.
       -1    1    3    3    0  502 -0.30502532045E+02 -0.46474266602E+02 -0.15484244098E+04  0.15494219615E+04  0.50400001928E-02 0. -1.
</event>
<event>
 5   0  0.2460312E-02  0.8098420E+03  0.7818609E-02  0.9545880E-01
       -2   -1    0    0    0  501  0.00000000000E+00  0.00000000000E+00  0.86885954690E+02  0.86885954727E+02  0.25500000920E-02 0.  1.
        2   -1    0    0  501    0  0.00000000000E+00  0.00000000000E+00 -0.18870829064E+04  0.18870829064E+04  0.25500000920E-02 0. -1.
    10030    2    1    2    0    0  0.00000000000E+00  0.00000000000E+00 -0.18001969517E+04  0.19739688611E+04  0.80984195973E+03 0.  0.
        2    1    3    3  502    0 -0.36220425294E+03 -0.17956431734E+03 -0.95598710752E+03  0.10379530889E+04  0.25500000920E-02 0.  1.
       -2    1    3    3    0  502  0.36220425294E+03  0.17956431734E+03 -0.84420984414E+03  0.93601577223E+03  0.25500000920E-02 0. -1.
</event>
<event>
 5   0  0.1509629E-02  0.7994574E+03  0.7818609E-02  0.9560803E-01
       -1   -1    0    0    0  501  0.00000000000E+00  0.00000000000E+00  0.61042996664E+03  0.61042996666E+03  0.50400001928E-02 0.  1.
        1   -1    0    0  501    0  0.00000000000E+00  0.00000000000E+00 -0.26175493041E+03  0.26175493046E+03  0.50400001928E-02 0. -1.
    10030    2    1    2    0    0  0.00000000000E+00  0.00000000000E+00  0.34867503623E+03  0.87218489712E+03  0.79945744969E+03 0.  0.
        5    1    3    3  502    0  0.31408050563E+03 -0.13748546240E+03  0.39848400148E+03  0.52569991994E+03  0.46999998093E+01 0.  1.
       -5    1    3    3    0  502 -0.31408050563E+03  0.13748546240E+03 -0.49808965253E+02  0.34648497718E+03  0.46999998093E+01 0. -1.
</event>
<event>
 5   0  0.1523811E-02  0.7949232E+03  0.7818609E-02  0.9567395E-01
        1   -1    0    0  501    0  0.00000000000E+00  0.00000000000E+00  0.79791357089E+03  0.79791357090E+03  0.50400001928E-02 0.  1.
       -1   -1    0    0    0  501  0.00000000000E+00  0.00000000000E+00 -0.19798599291E+03  0.19798599297E+03  0.50400001928E-02 0. -1.
    10030    2    1    2    0    0  0.00000000000E+00  0.00000000000E+00  0.59992757798E+03  0.99589956388E+03  0.79492316768E+03 0.  0.
        1    1    3    3  502    0  0.30496279307E+03 -0.22399155614E+03  0.45238263825E+03  0.58976654177E+03  0.50400001928E-02 0.  1.
       -1    1    3    3    0  502 -0.30496279307E+03  0.22399155614E+03  0.14754493973E+03  0.40613302210E+03  0.50400001928E-02 0. -1.
</event>
<event>
 5   0  0.1471290E-02  0.7970508E+03  0.7818609E-02  0.9564296E-01
        1   -1    0    0  501    0  0.00000000000E+00  0.00000000000E+00  0.45960112031E+03  0.45960112034E+03  0.50400001928E-02 0.  1.
       -1   -1    0    0    0  501  0.00000000000E+00  0.00000000000E+00 -0.34556597495E+03  0.34556597499E+03  0.50400001928E-02 0. -1.
    10030    2    1    2    0    0  0.00000000000E+00  0.00000000000E+00  0.11403514536E+03  0.80516709532E+03  0.79705083716E+03 0.  0.
        2    1    3    3  502    0  0.38156253322E+02  0.27881908862E+03  0.34207271412E+03  0.44295567002E+03  0.25500000920E-02 0.  1.
       -2    1    3    3    0  502 -0.38156253322E+02 -0.27881908862E+03 -0.22803756876E+03  0.36221142530E+03  0.25500000920E-02 0. -1.
</event>
<event>
 5   0  0.2460312E-02  0.8093531E+03  0.7818609E-02  0.9546577E-01
        2   -1    0    0  501    0  0.00000000000E+00  0.00000000000E+00  0.23593987917E+03  0.23593987919E+03  0.25500000920E-02 0. -1.
       -2   -1    0    0    0  501  0.00000000000E+00  0.00000000000E+00 -0.69408825658E+03  0.69408825659E+03  0.25500000920E-02 0.  1.
    10030    2    1    2    0    0  0.00000000000E+00  0.00000000000E+00 -0.45814837741E+03  0.93002813577E+03  0.80935307352E+03 0.  0.
        2    1    3    3  502    0 -0.98514222495E+02 -0.13002386883E+03 -0.65463231457E+03  0.67465155880E+03  0.25500000920E-02 0.  1.
       -2    1    3    3    0  502  0.98514222495E+02  0.13002386883E+03  0.19648393716E+03  0.25537657698E+03  0.25500000920E-02 0. -1.
</event>
<event>
 5   0  0.2464780E-02  0.8013774E+03  0.7818609E-02  0.9558026E-01
       -2   -1    0    0    0  501  0.00000000000E+00  0.00000000000E+00  0.18958708094E+03  0.18958708096E+03  0.25500000920E-02 0.  1.
        2   -1    0    0  501    0  0.00000000000E+00  0.00000000000E+00 -0.84684793378E+03  0.84684793379E+03  0.25500000920E-02 0. -1.
    10030    2    1    2    0    0  0.00000000000E+00  0.00000000000E+00 -0.65726085284E+03  0.10364350148E+04  0.80137738371E+03 0.  0.
        3    1    3    3  502    0  0.25860351964E+03  0.25274034327E+03 -0.55188390421E+03  0.65979490405E+03  0.10100000352E+00 0.  1.
       -3    1    3    3    0  502 -0.25860351964E+03 -0.25274034327E+03 -0.10537694863E+03  0.37664011070E+03  0.10100000352E+00 0. -1.
</event>
<event>
 5   0  0.1509629E-02  0.8025020E+03  0.7818609E-02  0.9556403E-01
        1   -1    0    0  501    0  0.00000000000E+00  0.00000000000E+00  0.29420613957E+03  0.29420613961E+03  0.50400001928E-02 0.  1.
       -1   -1    0    0    0  501  0.00000000000E+00  0.00000000000E+00 -0.54724344143E+03  0.54724344145E+03  0.50400001928E-02 0. -1.
    10030    2    1    2    0    0  0.00000000000E+00  0.00000000000E+00 -0.25303730186E+03  0.84144958107E+03  0.80250203822E+03 0.  0.
        5    1    3    3  502    0  0.21355192143E+03  0.33761047935E+03 -0.16568147033E+03  0.43250167459E+03  0.46999998093E+01 0. -1.
       -5    1    3    3    0  502 -0.21355192143E+03 -0.33761047935E+03 -0.87355831536E+02  0.40894790648E+03  0.46999998093E+01 0.  1.
</event>
<event>
 5   0  0.1523811E-02  0.7892647E+03  0.7818609E-02  0.9575687E-01
       -1   -1    0    0    0  501  0.00000000000E+00  0.00000000000E+00  0.24780267325E+03  0.24780267330E+03  0.50400001928E-02 0.  1.
        1   -1    0    0  501    0  0.00000000000E+00  0.00000000000E+00 -0.62846244621E+03  0.62846244623E+03  0.50400001928E-02 0. -1.
    10030    2    1    2    0    0  0.00000000000E+00  0.00000000000E+00 -0.38065977296E+03  0.87626511953E+03  0.78926465584E+03 0.  0.
        1    1    3    3  502    0 -0.18973467957E+03 -0.22883132510E+02 -0.57365958724E+03  0.60465544606E+03  0.50400001928E-02 0. -1.
       -1    1    3    3    0  502  0.18973467957E+03  0.22883132510E+02  0.19299981428E+03  0.27160967347E+03  0.50400001928E-02 0.  1.
</event>
<event>
 5   0  0.1624094E-02  0.7783519E+03  0.7818609E-02  0.9591891E-01
        1   -1    0    0  501    0  0.00000000000E+00  0.00000000000E+00  0.10173963445E+04  0.10173963445E+04  0.50400001928E-02 0. -1.
       -1   -1    0    0    0  501  0.00000000000E+00  0.00000000000E+00 -0.14886817406E+03  0.14886817414E+03  0.50400001928E-02 0.  1.
    10030    2    1    2    0    0  0.00000000000E+00  0.00000000000E+00  0.86852817039E+03  0.11662645186E+04  0.77835194135E+03 0.  0.
        3    1    3    3  502    0  0.40336471485E+02 -0.28579501802E+03  0.43098462537E+02  0.29182753628E+03  0.10100000352E+00 0.  1.
       -3    1    3    3    0  502 -0.40336471485E+02  0.28579501802E+03  0.82542970785E+03  0.87443698233E+03  0.10100000352E+00 0. -1.
</event>
<event>
 5   0  0.2454354E-02  0.8101427E+03  0.7818609E-02  0.9545451E-01
       -2   -1    0    0    0  501  0.00000000000E+00  0.00000000000E+00  0.11969652945E+04  0.11969652945E+04  0.25500000920E-02 0. -1.
        2   -1    0    0  501    0  0.00000000000E+00  0.00000000000E+00 -0.13708234732E+03  0.13708234734E+03  0.25500000920E-02 0.  1.
    10030    2    1    2    0    0  0.00000000000E+00  0.00000000000E+00  0.10598829471E+04  0.13340476418E+04  0.81014273370E+03 0.  0.
        5    1    3    3  502    0 -0.12776101484E+03  0.28316775593E+03  0.95793273978E+03  0.10070571378E+04  0.46999998093E+01 0. -1.
       -5    1    3    3    0  502  0.12776101484E+03 -0.28316775593E+03  0.10195020736E+03  0.32699050397E+03  0.46999998093E+01 0.  1.
</event>
<event>
 5   0  0.1509629E-02  0.8049641E+03  0.7818609E-02  0.9552859E-01
        1   -1    0    0  501    0  0.00000000000E+00  0.00000000000E+00  0.46498421421E+03  0.46498421424E+03  0.50400001928E-02 0.  1.
       -1   -1    0    0    0  501  0.00000000000E+00  0.00000000000E+00 -0.34838130536E+03  0.34838130540E+03  0.50400001928E-02 0. -1.
    10030    2    1    2    0    0  0.00000000000E+00  0.00000000000E+00  0.11660290885E+03  0.81336551964E+03  0.80496411733E+03 0.  0.
        5    1    3    3  502    0  0.31788539785E+02 -0.23287889856E+03 -0.27179862147E+03  0.35936008861E+03  0.46999998093E+01 0. -1.
       -5    1    3    3    0  502 -0.31788539785E+02  0.23287889856E+03  0.38840153032E+03  0.45400543103E+03  0.46999998093E+01 0.  1.
</event>
<event>
 5   0  0.2460312E-02  0.7861631E+03  0.7818609E-02  0.9580264E-01
        2   -1    0    0  501    0  0.00000000000E+00  0.00000000000E+00  0.77028203238E+03  0.77028203239E+03  0.25500000920E-02 0. -1.
       -2   -1    0    0    0  501  0.00000000000E+00  0.00000000000E+00 -0.20059291951E+03  0.20059291952E+03  0.25500000920E-02 0.  1.
    10030    2    1    2    0    0  0.00000000000E+00  0.00000000000E+00  0.56968911288E+03  0.97087495191E+03  0.78616314268E+03 0.  0.
        2    1    3    3  502    0 -0.24551662122E+03 -0.10053516066E+03 -0.73350287537E+02  0.27525623428E+03  0.25500000920E-02 0.  1.
       -2    1    3    3    0  502  0.24551662122E+03  0.10053516066E+03  0.64303940042E+03  0.69561871763E+03  0.25500000920E-02 0. -1.
</event>
<event>
 5   0  0.2460312E-02  0.8326368E+03  0.7818609E-02  0.9513942E-01
        2   -1    0    0  501    0  0.00000000000E+00  0.00000000000E+00  0.32842883543E+03  0.32842883544E+03  0.25500000920E-02 0.  1.
       -2   -1    0    0    0  501  0.00000000000E+00  0.00000000000E+00 -0.52772776409E+03  0.52772776410E+03  0.25500000920E-02 0. -1.
    10030    2    1    2    0    0  0.00000000000E+00  0.00000000000E+00 -0.19929892866E+03  0.85615659954E+03  0.83263681156E+03 0.  0.
        2    1    3    3  502    0  0.18599633415E+03 -0.15179745322E+03 -0.44938042768E+03  0.50948981532E+03  0.25500000920E-02 0. -1.
       -2    1    3    3    0  502 -0.18599633415E+03  0.15179745322E+03  0.25008149902E+03  0.34666678422E+03  0.25500000920E-02 0.  1.
</event>
<event>
 5   0  0.2454354E-02  0.8033907E+03  0.7818609E-02  0.9555122E-01
        2   -1    0    0  501    0  0.00000000000E+00  0.00000000000E+00  0.80464901465E+03  0.80464901466E+03  0.25500000920E-02 0. -1.
       -2   -1    0    0    0  501  0.00000000000E+00  0.00000000000E+00 -0.20053357838E+03  0.20053357840E+03  0.25500000920E-02 0.  1.
    10030    2    1    2    0    0  0.00000000000E+00  0.00000000000E+00  0.60411543627E+03  0.10051825931E+04  0.80339068020E+03 0.  0.
        5    1    3    3  502    0 -0.19531140482E+03  0.33966982428E+03  0.41266417754E+03  0.56906585541E+03  0.46999998093E+01 0. -1.
       -5    1    3    3    0  502  0.19531140482E+03 -0.33966982428E+03  0.19145125874E+03  0.43611673764E+03  0.46999998093E+01 0.  1.
</event>
<event>
 5   0  0.2571778E-02  0.8476880E+03  0.7818609E-02  0.9493445E-01
        2   -1    0    0  501    0  0.00000000000E+00  0.00000000000E+00  0.46777278272E+03  0.46777278272E+03  0.25500000920E-02 0.  1.
       -2   -1    0    0    0  501  0.00000000000E+00  0.00000000000E+00 -0.38404058282E+03  0.38404058283E+03  0.25500000920E-02 0. -1.
    10030    2    1    2    0    0  0.00000000000E+00  0.00000000000E+00  0.83732199896E+02  0.85181336555E+03  0.84768799003E+03 0.  0.
        1    1    3    3  502    0  0.56982018323E+01 -0.35671256386E+03 -0.18808683919E+03  0.40330259338E+03  0.50400001928E-02 0.  1.
       -1    1    3    3    0  502 -0.56982018323E+01  0.35671256386E+03  0.27181903909E+03  0.44851077218E+03  0.50400001928E-02 0. -1.
</event>
<event>
 5   0  0.2460312E-02  0.7117934E+03  0.7818609E-02  0.9697274E-01
        2   -1    0    0  501    0  0.00000000000E+00  0.00000000000E+00  0.36143487765E+03  0.36143487766E+03  0.25500000920E-02 0. -1.
       -2   -1    0    0    0  501  0.00000000000E+00  0.00000000000E+00 -0.35044335107E+03  0.35044335108E+03  0.25500000920E-02 0.  1.
    10030    2    1    2    0    0  0.00000000000E+00  0.00000000000E+00  0.10991526587E+02  0.71187822874E+03  0.71179336812E+03 0.  0.
        2    1    3    3  502    0  0.35045339618E+03 -0.68412259457E+01  0.67131549323E+02  0.35689078188E+03  0.25500000920E-02 0.  1.
       -2    1    3    3    0  502 -0.35045339618E+03  0.68412259457E+01 -0.56140022736E+02  0.35498744686E+03  0.25500000920E-02 0. -1.
</event>
<event>
 5   0  0.2571778E-02  0.8024406E+03  0.7818609E-02  0.9556491E-01
       -2   -1    0    0    0  501  0.00000000000E+00  0.00000000000E+00  0.60826277537E+03  0.60826277537E+03  0.25500000920E-02 0. -1.
        2   -1    0    0  501    0  0.00000000000E+00  0.00000000000E+00 -0.26465161162E+03  0.26465161164E+03  0.25500000920E-02 0.  1.
    10030    2    1    2    0    0  0.00000000000E+00  0.00000000000E+00  0.34361116374E+03  0.87291438701E+03  0.80244058671E+03 0.  0.
        1    1    3    3  502    0 -0.20582819095E+03 -0.31157986663E+03  0.33142491147E+03  0.49928922425E+03  0.50400001928E-02 0. -1.
       -1    1    3    3    0  502  0.20582819095E+03  0.31157986663E+03  0.12186252272E+02  0.37362516276E+03  0.50400001928E-02 0.  1.
</event>
<event>
 5   0  0.1471290E-02  0.7981840E+03  0.7818609E-02  0.9562649E-01
        1   -1    0    0  501    0  0.00000000000E+00  0.00000000000E+00  0.47803051761E+03  0.47803051764E+03  0.50400001928E-02 0.  1.
       -1   -1    0    0    0  501  0.00000000000E+00  0.00000000000E+00 -0.33318886101E+03  0.33318886105E+03  0.50400001928E-02 0. -1.
    10030    2    1    2    0    0  0.00000000000E+00  0.00000000000E+00  0.14484165660E+03  0.81121937869E+03  0.79818404824E+03 0.  0.
        2    1    3    3  502    0  0.12707105169E+03 -0.10258872302E+03  0.44251466954E+03  0.47168923142E+03  0.25500000920E-02 0.  1.
       -2    1    3    3    0  502 -0.12707105169E+03  0.10258872302E+03 -0.29767301294E+03  0.33953014727E+03  0.25500000920E-02 0. -1.
</event>
<event>
 5   0  0.1498375E-02  0.8146868E+03  0.7818609E-02  0.9538999E-01
       -1   -1    0    0    0  501  0.00000000000E+00  0.00000000000E+00  0.27660698351E+03  0.27660698355E+03  0.50400001928E-02 0. -1.
        1   -1    0    0  501    0  0.00000000000E+00  0.00000000000E+00 -0.59987153605E+03  0.59987153607E+03  0.50400001928E-02 0.  1.
    10030    2    1    2    0    0  0.00000000000E+00  0.00000000000E+00 -0.32326455254E+03  0.87647851962E+03  0.81468682598E+03 0.  0.
        4    1    3    3  502    0 -0.14819037312E+03 -0.28614272699E+03 -0.42970825683E+03  0.53711157666E+03  0.12699999809E+01 0.  1.
       -4    1    3    3    0  502  0.14819037312E+03  0.28614272699E+03  0.10644370429E+03  0.33936694296E+03  0.12699999809E+01 0. -1.
</event>
<event>
 5   0  0.1498375E-02  0.8106749E+03  0.7818609E-02  0.9544693E-01
        1   -1    0    0  501    0  0.00000000000E+00  0.00000000000E+00  0.89562211046E+03  0.89562211047E+03  0.50400001928E-02 0.  1.
       -1   -1    0    0    0  501  0.00000000000E+00  0.00000000000E+00 -0.18344615472E+03  0.18344615479E+03  0.50400001928E-02 0. -1.
    10030    2    1    2    0    0  0.00000000000E+00  0.00000000000E+00  0.71217595574E+03  0.10790682653E+04  0.81067486033E+03 0.  0.
        4    1    3    3  502    0  0.13675387782E+03 -0.38150346097E+03  0.36552880848E+03  0.54576500122E+03  0.12699999809E+01 0.  1.
       -4    1    3    3    0  502 -0.13675387782E+03  0.38150346097E+03  0.34664714726E+03  0.53330326404E+03  0.12699999809E+01 0. -1.
</event>
<event>
 5   0  0.2422031E-02  0.8045650E+03  0.7818609E-02  0.9553433E-01
        2   -1    0    0  501    0  0.00000000000E+00  0.00000000000E+00  0.41854609549E+03  0.41854609550E+03  0.25500000920E-02 0. -1.
       -2   -1    0    0    0  501  0.00000000000E+00  0.00000000000E+00 -0.38665083010E+03  0.38665083011E+03  0.25500000920E-02 0.  1.
    10030    2    1    2    0    0  0.00000000000E+00  0.00000000000E+00  0.31895265392E+02  0.80519692561E+03  0.80456496385E+03 0.  0.
        4    1    3    3  502    0 -0.20104472303E+03 -0.30312141020E+03  0.18791977389E+03  0.40941058157E+03  0.12699999809E+01 0.  1.
       -4    1    3    3    0  502  0.20104472303E+03  0.30312141020E+03 -0.15602450850E+03  0.39578634404E+03  0.12699999809E+01 0. -1.
</event>
<event>
 5   0  0.1509629E-02  0.7993188E+03  0.7818609E-02  0.9561004E-01
       -1   -1    0    0    0  501  0.00000000000E+00  0.00000000000E+00  0.23507331863E+03  0.23507331868E+03  0.50400001928E-02 0. -1.
        1   -1    0    0  501    0  0.00000000000E+00  0.00000000000E+00 -0.67948003987E+03  0.67948003989E+03  0.50400001928E-02 0.  1.
    10030    2    1    2    0    0  0.00000000000E+00  0.00000000000E+00 -0.44440672124E+03  0.91455335857E+03  0.79931877983E+03 0.  0.
        5    1    3    3  502    0  0.60150204301E+02 -0.34311190924E+02  0.22812477934E+03  0.23844980572E+03  0.46999998093E+01 0. -1.
       -5    1    3    3    0  502 -0.60150204301E+02  0.34311190924E+02 -0.67253150058E+03  0.67610355285E+03  0.46999998093E+01 0.  1.
</event>
<event>
 5   0  0.1471290E-02  0.8121040E+03  0.7818609E-02  0.9542660E-01
        1   -1    0    0  501    0  0.00000000000E+00  0.00000000000E+00  0.17462049671E+03  0.17462049679E+03  0.50400001928E-02 0. -1.
       -1   -1    0    0    0  501  0.00000000000E+00  0.00000000000E+00 -0.94420883555E+03  0.94420883556E+03  0.50400001928E-02 0.  1.
    10030    2    1    2    0    0  0.00000000000E+00  0.00000000000E+00 -0.76958833883E+03  0.11188293323E+04  0.81210397342E+03 0.  0.
        2    1    3    3  502    0 -0.82682277717E+02  0.31490825155E+03 -0.71907877530E+03  0.78935280517E+03  0.25500000920E-02 0.  1.
       -2    1    3    3    0  502  0.82682277717E+02 -0.31490825155E+03 -0.50509563532E+02  0.32947652717E+03  0.25500000920E-02 0. -1.
</event>
<event>
 5   0  0.1498375E-02  0.8282113E+03  0.7818609E-02  0.9520057E-01
        1   -1    0    0  501    0  0.00000000000E+00  0.00000000000E+00  0.42315065047E+03  0.42315065050E+03  0.50400001928E-02 0.  1.
       -1   -1    0    0    0  501  0.00000000000E+00  0.00000000000E+00 -0.40525398900E+03  0.40525398903E+03  0.50400001928E-02 0. -1.
    10030    2    1    2    0    0  0.00000000000E+00  0.00000000000E+00  0.17896661474E+02  0.82840463953E+03  0.82821129931E+03 0.  0.
        4    1    3    3  502    0  0.12757450185E+03  0.14680194706E+03  0.37462335085E+03  0.42210227799E+03  0.12699999809E+01 0.  1.
       -4    1    3    3    0  502 -0.12757450185E+03 -0.14680194706E+03 -0.35672668938E+03  0.40630236154E+03  0.12699999809E+01 0. -1.
</event>
<event>
 5   0  0.1498375E-02  0.8068745E+03  0.7818609E-02  0.9550120E-01
       -1   -1    0    0    0  501  0.00000000000E+00  0.00000000000E+00  0.10269619131E+03  0.10269619143E+03  0.50400001928E-02 0. -1.
        1   -1    0    0  501    0  0.00000000000E+00  0.00000000000E+00 -0.15848845724E+04  0.15848845724E+04  0.50400001928E-02 0.  1.
    10030    2    1    2    0    0  0.00000000000E+00  0.00000000000E+00 -0.14821883811E+04  0.16875807638E+04  0.80687448679E+03 0.  0.
        4    1    3    3  502    0  0.39212430104E+03 -0.84902002234E+02 -0.82958676153E+03  0.92151268317E+03  0.12699999809E+01 0.  1.
       -4    1    3    3    0  502 -0.39212430104E+03  0.84902002234E+02 -0.65260161955E+03  0.76606808065E+03  0.12699999809E+01 0. -1.
</event>
<event>
 5   0  0.2464780E-02  0.7863094E+03  0.7818609E-02  0.9580048E-01
        2   -1    0    0  501    0  0.00000000000E+00  0.00000000000E+00  0.68247429342E+03  0.68247429343E+03  0.25500000920E-02 0.  1.
       -2   -1    0    0    0  501  0.00000000000E+00  0.00000000000E+00 -0.22648561704E+03  0.22648561706E+03  0.25500000920E-02 0. -1.
    10030    2    1    2    0    0  0.00000000000E+00  0.00000000000E+00  0.45598867638E+03  0.90895991048E+03  0.78630938306E+03 0.  0.
        3    1    3    3  502    0  0.22979079070E+03  0.18882949686E+03 -0.69230812184E+02  0.30537403611E+03  0.10100000352E+00 0. -1.
       -3    1    3    3    0  502 -0.22979079070E+03 -0.18882949686E+03  0.52521948856E+03  0.60358587437E+03  0.10100000352E+00 0.  1.
</event>
<event>
 5   0  0.1471290E-02  0.8026551E+03  0.7818609E-02  0.9556182E-01
        1   -1    0    0  501    0  0.00000000000E+00  0.00000000000E+00  0.28039324581E+03  0.28039324585E+03  0.50400001928E-02 0.  1.
       -1   -1    0    0    0  501  0.00000000000E+00  0.00000000000E+00 -0.57442117667E+03  0.57442117670E+03  0.50400001928E-02 0. -1.
    10030    2    1    2    0    0  0.00000000000E+00  0.00000000000E+00 -0.29402793086E+03  0.85481442255E+03  0.80265513944E+03 0.  0.
        2    1    3    3  502    0 -0.68749707989E+02 -0.17505853834E+03  0.23055503481E+03  0.29753594452E+03  0.25500000920E-02 0.  1.
       -2    1    3    3    0  502  0.68749707989E+02  0.17505853834E+03 -0.52458296568E+03  0.55727847803E+03  0.25500000920E-02 0. -1.
</event>
<event>
 5   0  0.2464780E-02  0.8531287E+03  0.7818609E-02  0.9486147E-01
       -2   -1    0    0    0  501  0.00000000000E+00  0.00000000000E+00  0.92184080704E+02  0.92184080739E+02  0.25500000920E-02 0. -1.
        2   -1    0    0  501    0  0.00000000000E+00  0.00000000000E+00 -0.19738454910E+04  0.19738454910E+04  0.25500000920E-02 0.  1.
    10030    2    1    2    0    0  0.00000000000E+00  0.00000000000E+00 -0.18816614103E+04  0.20660295718E+04  0.85312867044E+03 0.  0.
        3    1    3    3  502    0 -0.34750611166E+03 -0.21420463776E+03 -0.12405068000E+04  0.13059484123E+04  0.10100000352E+00 0.  1.
       -3    1    3    3    0  502  0.34750611166E+03  0.21420463776E+03 -0.64115461033E+03  0.76008115950E+03  0.10100000352E+00 0. -1.
</event>
<event>
 5   0  0.1509629E-02  0.7990296E+03  0.7818609E-02  0.9561423E-01
        1   -1    0    0  501    0  0.00000000000E+00  0.00000000000E+00  0.18903978872E+03  0.18903978879E+03  0.50400001928E-02 0. -1.
       -1   -1    0    0    0  501  0.00000000000E+00  0.00000000000E+00 -0.84433049367E+03  0.84433049368E+03  0.50400001928E-02 0.  1.
    10030    2    1    2    0    0  0.00000000000E+00  0.00000000000E+00 -0.65529070495E+03  0.10333702825E+04  0.79902955684E+03 0.  0.
        5    1    3    3  502    0 -0.24954881341E+03 -0.18452953557E+03 -0.23542663342E+01  0.31040842826E+03  0.46999998093E+01 0.  1.
       -5    1    3    3    0  502  0.24954881341E+03  0.18452953557E+03 -0.65293643861E+03  0.72296185420E+03  0.46999998093E+01 0. -1.
</event>
<event>
 5   0  0.2464780E-02  0.7862941E+03  0.7818609E-02  0.9580070E-01
       -2   -1    0    0    0  501  0.00000000000E+00  0.00000000000E+00  0.15657757330E+03  0.15657757332E+03  0.25500000920E-02 0.  1.
        2   -1    0    0  501    0  0.00000000000E+00  0.00000000000E+00 -0.98714391248E+03  0.98714391249E+03  0.25500000920E-02 0. -1.
    10030    2    1    2    0    0  0.00000000000E+00  0.00000000000E+00 -0.83056633919E+03  0.11437214858E+04  0.78629408831E+03 0.  0.
        3    1    3    3  502    0 -0.16402206200E+03 -0.27070736310E+03 -0.76087438325E+02  0.32553804959E+03  0.10100000352E+00 0.  1.
       -3    1    3    3    0  502  0.16402206200E+03  0.27070736310E+03 -0.75447890086E+03  0.81818343622E+03  0.10100000352E+00 0. -1.
</event>
<event>
 5   0  0.1523811E-02  0.7927192E+03  0.7818609E-02  0.9570616E-01
       -1   -1    0    0    0  501  0.00000000000E+00  0.00000000000E+00  0.10183537512E+03  0.10183537525E+03  0.50400001928E-02 0.  1.
        1   -1    0    0  501    0  0.00000000000E+00  0.00000000000E+00 -0.15426950654E+04  0.15426950654E+04  0.50400001928E-02 0. -1.
    10030    2    1    2    0    0  0.00000000000E+00  0.00000000000E+00 -0.14408596902E+04  0.16445304406E+04  0.79271919566E+03 0.  0.
        1    1    3    3  502    0 -0.86080569210E+02 -0.35714256267E+03 -0.10291136637E+04  0.10927193635E+04  0.50400001928E-02 0.  1.
       -1    1    3    3    0  502  0.86080569210E+02  0.35714256267E+03 -0.41174602651E+03  0.55181107713E+03  0.50400001928E-02 0. -1.
</event>
<event>
 5   0  0.1509629E-02  0.7933733E+03  0.7818609E-02  0.9569659E-01
       -1   -1    0    0    0  501  0.00000000000E+00  0.00000000000E+00  0.41971075787E+03  0.41971075790E+03  0.50400001928E-02 0.  1.
        1   -1    0    0  501    0  0.00000000000E+00  0.00000000000E+00 -0.37492557300E+03  0.37492557303E+03  0.50400001928E-02 0. -1.
    10030    2    1    2    0    0  0.00000000000E+00  0.00000000000E+00  0.44785184877E+02  0.79463633093E+03  0.79337329528E+03 0.  0.
        5    1    3    3  502    0  0.20645541979E+03 -0.82159775299E+02  0.35149465083E+03  0.41586614264E+03  0.46999998093E+01 0.  1.
       -5    1    3    3    0  502 -0.20645541979E+03  0.82159775299E+02 -0.30670946595E+03  0.37877018829E+03  0.46999998093E+01 0. -1.
</event>
<event>
 5   0  0.2454354E-02  0.7956892E+03  0.7818609E-02  0.9566278E-01
        2   -1    0    0  501    0  0.00000000000E+00  0.00000000000E+00  0.16837335082E+03  0.16837335084E+03  0.25500000920E-02 0. -1.
       -2   -1    0    0    0  501  0.00000000000E+00  0.00000000000E+00 -0.94005572627E+03  0.94005572627E+03  0.25500000920E-02 0.  1.
    10030    2    1    2    0    0  0.00000000000E+00  0.00000000000E+00 -0.77168237545E+03  0.11084290771E+04  0.79568921723E+03 0.  0.
        5    1    3    3  502    0 -0.16632772798E+02 -0.60976505997E+02  0.16129566772E+03  0.17330079584E+03  0.46999998093E+01 0. -1.
       -5    1    3    3    0  502  0.16632772798E+02  0.60976505997E+02 -0.93297804317E+03  0.93512828128E+03  0.46999998093E+01 0.  1.
</event>
<event>
 5   0  0.1523811E-02  0.8086763E+03  0.7818609E-02  0.9547543E-01
       -1   -1    0    0    0  501  0.00000000000E+00  0.00000000000E+00  0.21284615946E+03  0.21284615952E+03  0.50400001928E-02 0. -1.
        1   -1    0    0  501    0  0.00000000000E+00  0.00000000000E+00 -0.76811033251E+03  0.76811033253E+03  0.50400001928E-02 0.  1.
    10030    2    1    2    0    0  0.00000000000E+00  0.00000000000E+00 -0.55526417305E+03  0.98095649205E+03  0.80867628717E+03 0.  0.
        1    1    3    3  502    0 -0.14770251267E+03  0.26317430096E+03 -0.60405608184E+03  0.67524846906E+03  0.50400001928E-02 0.  1.
       -1    1    3    3    0  502  0.14770251267E+03 -0.26317430096E+03  0.48791908788E+02  0.30570802299E+03  0.50400001928E-02 0. -1.
</event>
<event>
 5   0  0.1471290E-02  0.8151090E+03  0.7818609E-02  0.9538401E-01
       -1   -1    0    0    0  501  0.00000000000E+00  0.00000000000E+00  0.24041732374E+03  0.24041732379E+03  0.50400001928E-02 0.  1.
        1   -1    0    0  501    0  0.00000000000E+00  0.00000000000E+00 -0.69088470085E+03  0.69088470087E+03  0.50400001928E-02 0. -1.
    10030    2    1    2    0    0  0.00000000000E+00  0.00000000000E+00 -0.45046737711E+03  0.93130202466E+03  0.81510895180E+03 0.  0.
        2    1    3    3  502    0 -0.33360994443E+03 -0.19378729436E+03 -0.37530194040E+03  0.53823847591E+03  0.25500000920E-02 0.  1.
       -2    1    3    3    0  502  0.33360994443E+03  0.19378729436E+03 -0.75165436713E+02  0.39306354875E+03  0.25500000920E-02 0. -1.
</event>
<event>
 5   0  0.2460312E-02  0.8089773E+03  0.7818609E-02  0.9547113E-01
       -2   -1    0    0    0  501  0.00000000000E+00  0.00000000000E+00  0.38090106519E+03  0.38090106520E+03  0.25500000920E-02 0.  1.
        2   -1    0    0  501    0  0.00000000000E+00  0.00000000000E+00 -0.42953694829E+03  0.42953694830E+03  0.25500000920E-02 0. -1.
    10030    2    1    2    0    0  0.00000000000E+00  0.00000000000E+00 -0.48635883101E+02  0.81043801350E+03  0.80897733256E+03 0.  0.
        2    1    3    3  502    0  0.10682021721E+03 -0.11110472542E+03  0.35033091306E+03  0.38273563653E+03  0.25500000920E-02 0.  1.
       -2    1    3    3    0  502 -0.10682021721E+03  0.11110472542E+03 -0.39896679617E+03  0.42770237697E+03  0.25500000920E-02 0. -1.
</event>
<event>
 5   0  0.2460312E-02  0.8008238E+03  0.7818609E-02  0.9558826E-01
        2   -1    0    0  501    0  0.00000000000E+00  0.00000000000E+00  0.10462534562E+04  0.10462534562E+04  0.25500000920E-02 0. -1.
       -2   -1    0    0    0  501  0.00000000000E+00  0.00000000000E+00 -0.15324171262E+03  0.15324171264E+03  0.25500000920E-02 0.  1.
    10030    2    1    2    0    0  0.00000000000E+00  0.00000000000E+00  0.89301174360E+03  0.11994951689E+04  0.80082375459E+03 0.  0.
        2    1    3    3  502    0  0.25427891342E+03 -0.28300533596E+03  0.63346371386E+03  0.73893576364E+03  0.25500000920E-02 0. -1.
       -2    1    3    3    0  502 -0.25427891342E+03  0.28300533596E+03  0.25954802973E+03  0.46055940522E+03  0.25500000920E-02 0.  1.
</event>
<event>
 5   0  0.2422031E-02  0.8118068E+03  0.7818609E-02  0.9543083E-01
        2   -1    0    0  501    0  0.00000000000E+00  0.00000000000E+00  0.46212711974E+03  0.46212711975E+03  0.25500000920E-02 0. -1.
       -2   -1    0    0    0  501  0.00000000000E+00  0.00000000000E+00 -0.35652000953E+03  0.35652000954E+03  0.25500000920E-02 0.  1.
    10030    2    1    2    0    0  0.00000000000E+00  0.00000000000E+00  0.10560711022E+03  0.81864712928E+03  0.81180678770E+03 0.  0.
        4    1    3    3  502    0 -0.22273494969E+03  0.39043763365E+02  0.39272045332E+03  0.45317352154E+03  0.12699999809E+01 0. -1.
       -4    1    3    3    0  502  0.22273494969E+03 -0.39043763365E+02 -0.28711334310E+03  0.36547360774E+03  0.12699999809E+01 0.  1.
</event>
<event>
 5   0  0.2571778E-02  0.7200842E+03  0.7818609E-02  0.9683489E-01
       -2   -1    0    0    0  501  0.00000000000E+00  0.00000000000E+00  0.11635056330E+03  0.11635056333E+03  0.25500000920E-02 0. -1.
        2   -1    0    0  501    0  0.00000000000E+00  0.00000000000E+00 -0.11141358080E+04  0.11141358080E+04  0.25500000920E-02 0.  1.
    10030    2    1    2    0    0  0.00000000000E+00  0.00000000000E+00 -0.99778524474E+03  0.12304863714E+04  0.72008424195E+03 0.  0.
        1    1    3    3  502    0  0.13120697851E+03  0.13970231510E+03 -0.10197243504E+04  0.10375787965E+04  0.50400001928E-02 0.  1.
       -1    1    3    3    0  502 -0.13120697851E+03 -0.13970231510E+03  0.21939105700E+02  0.19290757486E+03  0.50400001928E-02 0. -1.
</event>
<event>
 5   0  0.2454354E-02  0.7813675E+03  0.7818609E-02  0.9587386E-01
        2   -1    0    0  501    0  0.00000000000E+00  0.00000000000E+00  0.96407284658E+02  0.96407284691E+02  0.25500000920E-02 0.  1.
       -2   -1    0    0    0  501  0.00000000000E+00  0.00000000000E+00 -0.15832182921E+04  0.15832182921E+04  0.25500000920E-02 0. -1.
    10030    2    1    2    0    0  0.00000000000E+00  0.00000000000E+00 -0.14868110075E+04  0.16796255768E+04  0.78136745925E+03 0.  0.
        5    1    3    3  502    0 -0.12297366560E+03 -0.42653197883E+01 -0.15404134642E+04  0.15453272941E+04  0.46999998093E+01 0. -1.
       -5    1    3    3    0  502  0.12297366560E+03  0.42653197883E+01  0.53602456667E+02  0.13429828273E+03  0.46999998093E+01 0.  1.
</event>
<event>
 5   0  0.2460312E-02  0.7874848E+03  0.7818609E-02  0.9578311E-01
       -2   -1    0    0    0  501  0.00000000000E+00  0.00000000000E+00  0.23005870378E+03  0.23005870379E+03  0.25500000920E-02 0. -1.
        2   -1    0    0  501    0  0.00000000000E+00  0.00000000000E+00 -0.67388484561E+03  0.67388484561E+03  0.25500000920E-02 0.  1.
    10030    2    1    2    0    0  0.00000000000E+00  0.00000000000E+00 -0.44382614183E+03  0.90394354941E+03  0.78748479118E+03 0.  0.
        2    1    3    3  502    0 -0.21699651495E+03 -0.31544869688E+03 -0.32735451252E+03  0.50374233963E+03  0.25500000920E-02 0.  1.
       -2    1    3    3    0  502  0.21699651495E+03  0.31544869688E+03 -0.11647162932E+03  0.40020120978E+03  0.25500000920E-02 0. -1.
</event>
<event>
 5   0  0.2464780E-02  0.8138960E+03  0.7818609E-02  0.9540118E-01
        2   -1    0    0  501    0  0.00000000000E+00  0.00000000000E+00  0.95475771135E+03  0.95475771135E+03  0.25500000920E-02 0. -1.
       -2   -1    0    0    0  501  0.00000000000E+00  0.00000000000E+00 -0.17345412334E+03  0.17345412336E+03  0.25500000920E-02 0.  1.
    10030    2    1    2    0    0  0.00000000000E+00  0.00000000000E+00  0.78130358801E+03  0.11282118347E+04  0.81389596838E+03 0.  0.
        3    1    3    3  502    0  0.27545580668E+03  0.22339909933E+03  0.66727714129E+03  0.75567311221E+03  0.10100000352E+00 0.  1.
       -3    1    3    3    0  502 -0.27545580668E+03 -0.22339909933E+03  0.11402644671E+03  0.37253872251E+03  0.10100000352E+00 0. -1.
</event>
<event>
 5   0  0.9919125E-03  0.7971544E+03  0.7818609E-02  0.9564145E-01
       -3   -1    0    0    0  501  0.00000000000E+00  0.00000000000E+00  0.11051678701E+03  0.11051683316E+03  0.10100000352E+00 0. -1.
        3   -1    0    0  501    0  0.00000000000E+00  0.00000000000E+00 -0.14374625479E+04  0.14374625515E+04  0.10100000352E+00 0.  1.
    10030    2    1    2    0    0  0.00000000000E+00  0.00000000000E+00 -0.13269457609E+04  0.15479793847E+04  0.79715439084E+03 0.  0.
        2    1    3    3  502    0  0.27631708629E+02 -0.42129797359E+01 -0.14355570634E+04  0.14358291482E+04  0.25500000920E-02 0.  1.
       -2    1    3    3    0  502 -0.27631708629E+02  0.42129797359E+01  0.10861130244E+03  0.11215023648E+03  0.25500000920E-02 0. -1.
</event>
<event>
 5   0  0.9919125E-03  0.7896511E+03  0.7818609E-02  0.9575119E-01
       -3   -1    0    0    0  501  0.00000000000E+00  0.00000000000E+00  0.19567047158E+03  0.19567049765E+03  0.10100000352E+00 0.  1.
        3   -1    0    0  501    0  0.00000000000E+00  0.00000000000E+00 -0.79668226036E+03  0.79668226676E+03  0.10100000352E+00 0. -1.
    10030    2    1    2    0    0  0.00000000000E+00  0.00000000000E+00 -0.60101178877E+03  0.99235276441E+03  0.78965108673E+03 0.  0.
        2    1    3    3  502    0  0.26494144455E+03  0.12487597906E+03  0.32220667006E+02  0.29466277433E+03  0.25500000920E-02 0.  1.
       -2    1    3    3    0  502 -0.26494144455E+03 -0.12487597906E+03 -0.63323245578E+03  0.69768999007E+03  0.25500000920E-02 0. -1.
</event>
<event>
 5   0  0.1624094E-02  0.8194215E+03  0.7818609E-02  0.9532323E-01
       -1   -1    0    0    0  501  0.00000000000E+00  0.00000000000E+00  0.10041762506E+03  0.10041762519E+03  0.50400001928E-02 0. -1.
        1   -1    0    0  501    0  0.00000000000E+00  0.00000000000E+00 -0.16716479010E+04  0.16716479010E+04  0.50400001928E-02 0.  1.
    10030    2    1    2    0    0  0.00000000000E+00  0.00000000000E+00 -0.15712302759E+04  0.17720655262E+04  0.81942153320E+03 0.  0.
        3    1    3    3  502    0  0.16097013227E+03  0.33261854803E+03 -0.40291514027E+03  0.54670568173E+03  0.10100000352E+00 0. -1.
       -3    1    3    3    0  502 -0.16097013227E+03 -0.33261854803E+03 -0.11683151356E+04  0.12253598444E+04  0.10100000352E+00 0.  1.
</event>
<event>
 5   0  0.2454354E-02  0.6741546E+03  0.7818609E-02  0.9762482E-01
       -2   -1    0    0    0  501  0.00000000000E+00  0.00000000000E+00  0.14666816426E+03  0.14666816428E+03  0.25500000920E-02 0. -1.
        2   -1    0    0  501    0  0.00000000000E+00  0.00000000000E+00 -0.77468138279E+03  0.77468138279E+03  0.25500000920E-02 0.  1.
    10030    2    1    2    0    0  0.00000000000E+00  0.00000000000E+00 -0.62801321853E+03  0.92134954707E+03  0.67415457074E+03 0.  0.
        5    1    3    3  502    0 -0.88453460377E+02 -0.16707506419E+03  0.67344218782E+02  0.20073720514E+03  0.46999998093E+01 0. -1.
       -5    1    3    3    0  502  0.88453460377E+02  0.16707506419E+03 -0.69535743731E+03  0.72061234193E+03  0.46999998093E+01 0.  1.
</event>
<event>
 5   0  0.1498375E-02  0.8030763E+03  0.7818609E-02  0.9555575E-01
       -1   -1    0    0    0  501  0.00000000000E+00  0.00000000000E+00  0.11426874936E+03  0.11426874947E+03  0.50400001928E-02 0.  1.
        1   -1    0    0  501    0  0.00000000000E+00  0.00000000000E+00 -0.14109970476E+04  0.14109970476E+04  0.50400001928E-02 0. -1.
    10030    2    1    2    0    0  0.00000000000E+00  0.00000000000E+00 -0.12967282982E+04  0.15252657971E+04  0.80307625558E+03 0.  0.
        4    1    3    3  502    0  0.11173471294E+03  0.32114241167E+03 -0.24272618949E+03  0.41777351593E+03  0.12699999809E+01 0.  1.
       -4    1    3    3    0  502 -0.11173471294E+03 -0.32114241167E+03 -0.10540021088E+04  0.11074922812E+04  0.12699999809E+01 0. -1.
</event>
<event>
 5   0  0.2571778E-02  0.7981741E+03  0.7818609E-02  0.9562664E-01
       -2   -1    0    0    0  501  0.00000000000E+00  0.00000000000E+00  0.53883706950E+03  0.53883706950E+03  0.25500000920E-02 0.  1.
        2   -1    0    0  501    0  0.00000000000E+00  0.00000000000E+00 -0.29558185406E+03  0.29558185407E+03  0.25500000920E-02 0. -1.
    10030    2    1    2    0    0  0.00000000000E+00  0.00000000000E+00  0.24325521544E+03  0.83441892358E+03  0.79817406635E+03 0.  0.
        1    1    3    3  502    0  0.37177014831E+03  0.37207813204E+02  0.26825725099E+03  0.45995588623E+03  0.50400001928E-02 0. -1.
       -1    1    3    3    0  502 -0.37177014831E+03 -0.37207813204E+02 -0.25002035558E+02  0.37446303735E+03  0.50400001928E-02 0.  1.
</event>
<event>
 5   0  0.9919125E-03  0.8008834E+03  0.7818609E-02  0.9558739E-01
        3   -1    0    0  501    0  0.00000000000E+00  0.00000000000E+00  0.43550680700E+03  0.43550681871E+03  0.10100000352E+00 0.  1.
       -3   -1    0    0    0  501  0.00000000000E+00  0.00000000000E+00 -0.36819987634E+03  0.36819989019E+03  0.10100000352E+00 0. -1.
    10030    2    1    2    0    0  0.00000000000E+00  0.00000000000E+00  0.67306930657E+02  0.80370670891E+03  0.80088341912E+03 0.  0.
        4    1    3    3  502    0 -0.39927605747E+03  0.24398931505E+02  0.52028445797E+02  0.40339217890E+03  0.12699999809E+01 0. -1.
       -4    1    3    3    0  502  0.39927605747E+03 -0.24398931505E+02  0.15278484860E+02  0.40031453000E+03  0.12699999809E+01 0.  1.
</event>
<event>
 5   0  0.2460312E-02  0.8018442E+03  0.7818609E-02  0.9557351E-01
       -2   -1    0    0    0  501  0.00000000000E+00  0.00000000000E+00  0.99963281769E+02  0.99963281802E+02  0.25500000920E-02 0. -1.
        2   -1    0    0  501    0  0.00000000000E+00  0.00000000000E+00 -0.16079758530E+04  0.16079758530E+04  0.25500000920E-02 0.  1.
    10030    2    1    2    0    0  0.00000000000E+00  0.00000000000E+00 -0.15080125713E+04  0.17079391348E+04  0.80184423252E+03 0.  0.
        2    1    3    3  502    0 -0.12727775943E+03 -0.89855868036E+01 -0.15635744868E+04  0.15687719861E+04  0.25500000920E-02 0.  1.
       -2    1    3    3    0  502  0.12727775943E+03  0.89855868036E+01  0.55561915502E+02  0.13916714870E+03  0.25500000920E-02 0. -1.
</event>
<event>
 5   0  0.1509629E-02  0.7988619E+03  0.7818609E-02  0.9561666E-01
        1   -1    0    0  501    0  0.00000000000E+00  0.00000000000E+00  0.98397243845E+03  0.98397243846E+03  0.50400001928E-02 0.  1.
       -1   -1    0    0    0  501  0.00000000000E+00  0.00000000000E+00 -0.16214384687E+03  0.16214384695E+03  0.50400001928E-02 0. -1.
    10030    2    1    2    0    0  0.00000000000E+00  0.00000000000E+00  0.82182859158E+03  0.11461162854E+04  0.79886188152E+03 0.  0.
        5    1    3    3  502    0 -0.22911909949E+03 -0.14565656456E+03  0.83118581407E+03  0.87441600171E+03  0.46999998093E+01 0.  1.
       -5    1    3    3    0  502  0.22911909949E+03  0.14565656456E+03 -0.93572224834E+01  0.27170028370E+03  0.46999998093E+01 0. -1.
</event>
<event>
 5   0  0.2422031E-02  0.8048647E+03  0.7818609E-02  0.9553002E-01
        2   -1    0    0  501    0  0.00000000000E+00  0.00000000000E+00  0.33680732470E+03  0.33680732471E+03  0.25500000920E-02 0.  1.
       -2   -1    0    0    0  501  0.00000000000E+00  0.00000000000E+00 -0.48084406895E+03  0.48084406895E+03  0.25500000920E-02 0. -1.
    10030    2    1    2    0    0  0.00000000000E+00  0.00000000000E+00 -0.14403674425E+03  0.81765139366E+03  0.80486472022E+03 0.  0.
        4    1    3    3  502    0  0.12699511176E+03  0.37748854891E+03 -0.13440995137E+02  0.39850675806E+03  0.12699999809E+01 0. -1.
       -4    1    3    3    0  502 -0.12699511176E+03 -0.37748854891E+03 -0.13059574911E+03  0.41914463560E+03  0.12699999809E+01 0.  1.
</event>
<event>
 5   0  0.2454354E-02  0.8017723E+03  0.7818609E-02  0.9557455E-01
       -2   -1    0    0    0  501  0.00000000000E+00  0.00000000000E+00  0.13105865877E+03  0.13105865879E+03  0.25500000920E-02 0. -1.
        2   -1    0    0  501    0  0.00000000000E+00  0.00000000000E+00 -0.12262424687E+04  0.12262424687E+04  0.25500000920E-02 0.  1.
    10030    2    1    2    0    0  0.00000000000E+00  0.00000000000E+00 -0.10951838099E+04  0.13573011275E+04  0.80177227013E+03 0.  0.
        5    1    3    3  502    0 -0.18074713979E+02  0.46706037083E+01  0.13027571614E+03  0.13169040223E+03  0.46999998093E+01 0. -1.
       -5    1    3    3    0  502  0.18074713979E+02 -0.46706037083E+01 -0.12254595261E+04  0.12256107253E+04  0.46999998093E+01 0.  1.
</event>
<event>
 5   0  0.1498375E-02  0.7921206E+03  0.7818609E-02  0.9571493E-01
        1   -1    0    0  501    0  0.00000000000E+00  0.00000000000E+00  0.14274664722E+04  0.14274664722E+04  0.50400001928E-02 0.  1.
       -1   -1    0    0    0  501  0.00000000000E+00  0.00000000000E+00 -0.10988962684E+03  0.10988962696E+03  0.50400001928E-02 0. -1.
    10030    2    1    2    0    0  0.00000000000E+00  0.00000000000E+00  0.13175768454E+04  0.15373560992E+04  0.79212059196E+03 0.  0.
        4    1    3    3  502    0 -0.79107342488E+02  0.14315163264E+03  0.13588584544E+04  0.13686666042E+04  0.12699999809E+01 0.  1.
       -4    1    3    3    0  502  0.79107342488E+02 -0.14315163264E+03 -0.41281609015E+02  0.16868949495E+03  0.12699999809E+01 0. -1.
</event>
<event>
 5   0  0.2571778E-02  0.7573662E+03  0.7818609E-02  0.9623864E-01
        2   -1    0    0  501    0  0.00000000000E+00  0.00000000000E+00  0.12521070799E+04  0.12521070799E+04  0.25500000920E-02 0.  1.
       -2   -1    0    0    0  501  0.00000000000E+00  0.00000000000E+00 -0.11452766580E+03  0.11452766583E+03  0.25500000920E-02 0. -1.
    10030    2    1    2    0    0  0.00000000000E+00  0.00000000000E+00  0.11375794141E+04  0.13666347457E+04  0.75736622901E+03 0.  0.
        1    1    3    3  502    0 -0.30735189164E+03 -0.42714590020E+02  0.96044906879E+03  0.10093325197E+04  0.50400001928E-02 0.  1.
       -1    1    3    3    0  502  0.30735189164E+03  0.42714590020E+02  0.17713034533E+03  0.35730222608E+03  0.50400001928E-02 0. -1.
</event>
<event>
 5   0  0.1509629E-02  0.7884741E+03  0.7818609E-02  0.9576852E-01
        1   -1    0    0  501    0  0.00000000000E+00  0.00000000000E+00  0.11534113785E+04  0.11534113785E+04  0.50400001928E-02 0. -1.
       -1   -1    0    0    0  501  0.00000000000E+00  0.00000000000E+00 -0.13475058258E+03  0.13475058267E+03  0.50400001928E-02 0.  1.
    10030    2    1    2    0    0  0.00000000000E+00  0.00000000000E+00  0.10186607959E+04  0.12881619612E+04  0.78847410933E+03 0.  0.
        5    1    3    3  502    0 -0.13177668927E+03 -0.32876366781E+03  0.79206718462E+03  0.86766535027E+03  0.46999998093E+01 0. -1.
       -5    1    3    3    0  502  0.13177668927E+03  0.32876366781E+03  0.22659361130E+03  0.42049661091E+03  0.46999998093E+01 0.  1.
</event>
<event>
 5   0  0.1523811E-02  0.7855843E+03  0.7818609E-02  0.9581121E-01
        1   -1    0    0  501    0  0.00000000000E+00  0.00000000000E+00  0.48862716005E+03  0.48862716008E+03  0.50400001928E-02 0. -1.
       -1   -1    0    0    0  501  0.00000000000E+00  0.00000000000E+00 -0.31575341091E+03  0.31575341095E+03  0.50400001928E-02 0.  1.
    10030    2    1    2    0    0  0.00000000000E+00  0.00000000000E+00  0.17287374914E+03  0.80438057103E+03  0.78558434932E+03 0.  0.
        1    1    3    3  502    0  0.16187008431E+03 -0.56565599732E+02 -0.27540791694E+03  0.32442427777E+03  0.50400001928E-02 0.  1.
       -1    1    3    3    0  502 -0.16187008431E+03  0.56565599732E+02  0.44828166608E+03  0.47995629326E+03  0.50400001928E-02 0. -1.
</event>
<event>
 5   0  0.1624094E-02  0.7825150E+03  0.7818609E-02  0.9585676E-01
        1   -1    0    0  501    0  0.00000000000E+00  0.00000000000E+00  0.30665944136E+03  0.30665944140E+03  0.50400001928E-02 0.  1.
       -1   -1    0    0    0  501  0.00000000000E+00  0.00000000000E+00 -0.49919364081E+03  0.49919364084E+03  0.50400001928E-02 0. -1.
    10030    2    1    2    0    0  0.00000000000E+00  0.00000000000E+00 -0.19253419945E+03  0.80585308224E+03  0.78251503001E+03 0.  0.
        3    1    3    3  502    0 -0.12846719923E+03  0.17511404387E+03 -0.43141709606E+03  0.48300048718E+03  0.10100000352E+00 0. -1.
       -3    1    3    3    0  502  0.12846719923E+03 -0.17511404387E+03  0.23888289661E+03  0.32285259506E+03  0.10100000352E+00 0.  1.
</event>
<event>
 5   0  0.1498375E-02  0.8041790E+03  0.7818609E-02  0.9553988E-01
        1   -1    0    0  501    0  0.00000000000E+00  0.00000000000E+00  0.52088122183E+03  0.52088122185E+03  0.50400001928E-02 0. -1.
       -1   -1    0    0    0  501  0.00000000000E+00  0.00000000000E+00 -0.31038929546E+03  0.31038929550E+03  0.50400001928E-02 0.  1.
    10030    2    1    2    0    0  0.00000000000E+00  0.00000000000E+00  0.21049192637E+03  0.83127051735E+03  0.80417897383E+03 0.  0.
        4    1    3    3  502    0  0.15441779014E+03 -0.36841407195E+03  0.15262183738E+03  0.42763164110E+03  0.12699999809E+01 0. -1.
       -4    1    3    3    0  502 -0.15441779014E+03  0.36841407195E+03  0.57870088987E+02  0.40363887625E+03  0.12699999809E+01 0.  1.
</event>
<event>
 5   0  0.2464780E-02  0.7826520E+03  0.7818609E-02  0.9585473E-01
       -2   -1    0    0    0  501  0.00000000000E+00  0.00000000000E+00  0.15035553298E+03  0.15035553300E+03  0.25500000920E-02 0.  1.
        2   -1    0    0  501    0  0.00000000000E+00  0.00000000000E+00 -0.10184928362E+04  0.10184928362E+04  0.25500000920E-02 0. -1.
    10030    2    1    2    0    0  0.00000000000E+00  0.00000000000E+00 -0.86813730318E+03  0.11688483692E+04  0.78265198710E+03 0.  0.
        3    1    3    3  502    0  0.18877316750E+03  0.40418407798E+01 -0.94596206747E+03  0.96462214807E+03  0.10100000352E+00 0. -1.
       -3    1    3    3    0  502 -0.18877316750E+03 -0.40418407798E+01  0.77824764287E+02  0.20422622109E+03  0.10100000352E+00 0.  1.
</event>
<event>
 5   0  0.1509629E-02  0.8054341E+03  0.7818609E-02  0.9552185E-01
        1   -1    0    0  501    0  0.00000000000E+00  0.00000000000E+00  0.71394235288E+03  0.71394235290E+03  0.50400001928E-02 0.  1.
       -1   -1    0    0    0  501  0.00000000000E+00  0.00000000000E+00 -0.22716265398E+03  0.22716265404E+03  0.50400001928E-02 0. -1.
    10030    2    1    2    0    0  0.00000000000E+00  0.00000000000E+00  0.48677969890E+03  0.94110500693E+03  0.80543414306E+03 0.  0.
        5    1    3    3  502    0  0.19001630734E+03  0.16084263754E+03  0.61322123192E+03  0.66184508790E+03  0.46999998093E+01 0.  1.
       -5    1    3    3    0  502 -0.19001630734E+03 -0.16084263754E+03 -0.12644153302E+03  0.27925991903E+03  0.46999998093E+01 0. -1.
</event>
<event>
 5   0  0.2464780E-02  0.8056740E+03  0.7818609E-02  0.9551840E-01
        2   -1    0    0  501    0  0.00000000000E+00  0.00000000000E+00  0.11033024525E+04  0.11033024526E+04  0.25500000920E-02 0. -1.
       -2   -1    0    0    0  501  0.00000000000E+00  0.00000000000E+00 -0.14708354104E+03  0.14708354107E+03  0.25500000920E-02 0.  1.
    10030    2    1    2    0    0  0.00000000000E+00  0.00000000000E+00  0.95621891150E+03  0.12503859936E+04  0.80567395782E+03 0.  0.
        3    1    3    3  502    0 -0.25158914216E+03 -0.27729660823E+03  0.24745901960E+03  0.44880561714E+03  0.10100000352E+00 0.  1.
       -3    1    3    3    0  502  0.25158914216E+03  0.27729660823E+03  0.70875989190E+03  0.80158037648E+03  0.10100000352E+00 0. -1.
</event>
<event>
 5   0  0.2454354E-02  0.8220740E+03  0.7818609E-02  0.9528604E-01
       -2   -1    0    0    0  501  0.00000000000E+00  0.00000000000E+00  0.14978263973E+03  0.14978263975E+03  0.25500000920E-02 0.  1.
        2   -1    0    0  501    0  0.00000000000E+00  0.00000000000E+00 -0.11279773937E+04  0.11279773937E+04  0.25500000920E-02 0. -1.
    10030    2    1    2    0    0  0.00000000000E+00  0.00000000000E+00 -0.97819475397E+03  0.12777600335E+04  0.82207403948E+03 0.  0.
        5    1    3    3  502    0 -0.33569169627E+03  0.23341892224E+03 -0.55423092733E+03  0.68874328963E+03  0.46999998093E+01 0.  1.
       -5    1    3    3    0  502  0.33569169627E+03 -0.23341892224E+03 -0.42396382665E+03  0.58901674383E+03  0.46999998093E+01 0. -1.
</event>
<event>
 5   0  0.1471290E-02  0.8042870E+03  0.7818609E-02  0.9553833E-01
       -1   -1    0    0    0  501  0.00000000000E+00  0.00000000000E+00  0.86729951478E+02  0.86729951624E+02  0.50400001928E-02 0.  1.
        1   -1    0    0  501    0  0.00000000000E+00  0.00000000000E+00 -0.18646312886E+04  0.18646312886E+04  0.50400001928E-02 0. -1.
    10030    2    1    2    0    0  0.00000000000E+00  0.00000000000E+00 -0.17779013371E+04  0.19513612402E+04  0.80428696702E+03 0.  0.
        2    1    3    3  502    0 -0.12611289694E+03  0.16805457856E+03 -0.17208670230E+04  0.17336464792E+04  0.25500000920E-02 0. -1.
       -2    1    3    3    0  502  0.12611289694E+03 -0.16805457856E+03 -0.57034314093E+02  0.21771476096E+03  0.25500000920E-02 0.  1.
</event>
<event>
 5   0  0.1498375E-02  0.7935110E+03  0.7818609E-02  0.9569458E-01
        1   -1    0    0  501    0  0.00000000000E+00  0.00000000000E+00  0.14375707699E+04  0.14375707699E+04  0.50400001928E-02 0.  1.
       -1   -1    0    0    0  501  0.00000000000E+00  0.00000000000E+00 -0.10950063302E+03  0.10950063313E+03  0.50400001928E-02 0. -1.
    10030    2    1    2    0    0  0.00000000000E+00  0.00000000000E+00  0.13280701368E+04  0.15470714030E+04  0.79351095620E+03 0.  0.
        4    1    3    3  502    0 -0.23529794253E+02  0.11367216420E+03 -0.75647853846E+02  0.13856126018E+03  0.12699999809E+01 0. -1.
       -4    1    3    3    0  502  0.23529794253E+02 -0.11367216420E+03  0.14037179907E+04  0.14085101428E+04  0.12699999809E+01 0.  1.
</event>
<event>
 5   0  0.2460312E-02  0.8022547E+03  0.7818609E-02  0.9556759E-01
       -2   -1    0    0    0  501  0.00000000000E+00  0.00000000000E+00  0.79062897230E+02  0.79062897271E+02  0.25500000920E-02 0. -1.
        2   -1    0    0  501    0  0.00000000000E+00  0.00000000000E+00 -0.20351285482E+04  0.20351285482E+04  0.25500000920E-02 0.  1.
    10030    2    1    2    0    0  0.00000000000E+00  0.00000000000E+00 -0.19560656510E+04  0.21141914455E+04  0.80225472090E+03 0.  0.
        2    1    3    3  502    0  0.22494949160E+03  0.21585221960E+03 -0.16432009326E+04  0.16725142030E+04  0.25500000920E-02 0.  1.
       -2    1    3    3    0  502 -0.22494949160E+03 -0.21585221960E+03 -0.31286471839E+03  0.44167724245E+03  0.25500000920E-02 0. -1.
</event>
<event>
 5   0  0.2464780E-02  0.7878457E+03  0.7818609E-02  0.9577779E-01
        2   -1    0    0  501    0  0.00000000000E+00  0.00000000000E+00  0.54540102024E+03  0.54540102025E+03  0.25500000920E-02 0. -1.
       -2   -1    0    0    0  501  0.00000000000E+00  0.00000000000E+00 -0.28451578224E+03  0.28451578226E+03  0.25500000920E-02 0.  1.
    10030    2    1    2    0    0  0.00000000000E+00  0.00000000000E+00  0.26088523800E+03  0.82991680251E+03  0.78784566488E+03 0.  0.
        3    1    3    3  502    0 -0.60004140816E+02  0.34540552751E+03  0.31967303973E+03  0.47444318720E+03  0.10100000352E+00 0. -1.
       -3    1    3    3    0  502  0.60004140816E+02 -0.34540552751E+03 -0.58787801731E+02  0.35547361531E+03  0.10100000352E+00 0.  1.
</event>
<event>
 5   0  0.1523811E-02  0.8034361E+03  0.7818609E-02  0.9555057E-01
       -1   -1    0    0    0  501  0.00000000000E+00  0.00000000000E+00  0.22015887192E+03  0.22015887198E+03  0.50400001928E-02 0.  1.
        1   -1    0    0  501    0  0.00000000000E+00  0.00000000000E+00 -0.73300427015E+03  0.73300427017E+03  0.50400001928E-02 0. -1.
    10030    2    1    2    0    0  0.00000000000E+00  0.00000000000E+00 -0.51284539823E+03  0.95316314214E+03  0.80343610390E+03 0.  0.
        1    1    3    3  502    0  0.14818680614E+03  0.28636265229E+03 -0.54068984664E+03  0.62953030779E+03  0.50400001928E-02 0. -1.
       -1    1    3    3    0  502 -0.14818680614E+03 -0.28636265229E+03  0.27844448402E+02  0.32363283436E+03  0.50400001928E-02 0.  1.
</event>
<event>
 5   0  0.2454354E-02  0.7993755E+03  0.7818609E-02  0.9560922E-01
        2   -1    0    0  501    0  0.00000000000E+00  0.00000000000E+00  0.87064744503E+03  0.87064744503E+03  0.25500000920E-02 0. -1.
       -2   -1    0    0    0  501  0.00000000000E+00  0.00000000000E+00 -0.18348446554E+03  0.18348446555E+03  0.25500000920E-02 0.  1.
    10030    2    1    2    0    0  0.00000000000E+00  0.00000000000E+00  0.68716297949E+03  0.10541319106E+04  0.79937545905E+03 0.  0.
        5    1    3    3  502    0 -0.24910209900E+03  0.50000571819E+02  0.75040730958E+03  0.79226582230E+03  0.46999998093E+01 0. -1.
       -5    1    3    3    0  502  0.24910209900E+03 -0.50000571819E+02 -0.63244330089E+02  0.26186608829E+03  0.46999998093E+01 0.  1.
</event>
<event>
 5   0  0.1498375E-02  0.8257934E+03  0.7818609E-02  0.9523415E-01
       -1   -1    0    0    0  501  0.00000000000E+00  0.00000000000E+00  0.24545186015E+03  0.24545186020E+03  0.50400001928E-02 0.  1.
        1   -1    0    0  501    0  0.00000000000E+00  0.00000000000E+00 -0.69457084281E+03  0.69457084282E+03  0.50400001928E-02 0. -1.
    10030    2    1    2    0    0  0.00000000000E+00  0.00000000000E+00 -0.44911898266E+03  0.94002270302E+03  0.82579344973E+03 0.  0.
        4    1    3    3  502    0 -0.37173962387E+03  0.17951479918E+03 -0.21529898000E+03  0.46558691430E+03  0.12699999809E+01 0. -1.
       -4    1    3    3    0  502  0.37173962387E+03 -0.17951479918E+03 -0.23382000266E+03  0.47443578872E+03  0.12699999809E+01 0.  1.
</event>
<event>
 5   0  0.1509629E-02  0.8008470E+03  0.7818609E-02  0.9558792E-01
       -1   -1    0    0    0  501  0.00000000000E+00  0.00000000000E+00  0.42940435290E+03  0.42940435293E+03  0.50400001928E-02 0.  1.
        1   -1    0    0  501    0  0.00000000000E+00  0.00000000000E+00 -0.37339859520E+03  0.37339859523E+03  0.50400001928E-02 0. -1.
    10030    2    1    2    0    0  0.00000000000E+00  0.00000000000E+00  0.56005757704E+02  0.80280294816E+03  0.80084700704E+03 0.  0.
        5    1    3    3  502    0 -0.17698385156E+02  0.18551187170E+03  0.38325379887E+03  0.42618476243E+03  0.46999998093E+01 0.  1.
       -5    1    3    3    0  502  0.17698385156E+02 -0.18551187170E+03 -0.32724804117E+03  0.37661818573E+03  0.46999998093E+01 0. -1.
</event>
<event>
 5   0  0.2460312E-02  0.7998596E+03  0.7818609E-02  0.9560220E-01
       -2   -1    0    0    0  501  0.00000000000E+00  0.00000000000E+00  0.25259614236E+03  0.25259614238E+03  0.25500000920E-02 0.  1.
        2   -1    0    0  501    0  0.00000000000E+00  0.00000000000E+00 -0.63319981031E+03  0.63319981031E+03  0.25500000920E-02 0. -1.
    10030    2    1    2    0    0  0.00000000000E+00  0.00000000000E+00 -0.38060366795E+03  0.88579595269E+03  0.79985956127E+03 0.  0.
        2    1    3    3  502    0 -0.96003974483E+02 -0.25932456810E+03  0.12966542344E+03  0.30541630077E+03  0.25500000920E-02 0.  1.
       -2    1    3    3    0  502  0.96003974483E+02  0.25932456810E+03 -0.51026909138E+03  0.58037965192E+03  0.25500000920E-02 0. -1.
</event>
<event>
 5   0  0.1523811E-02  0.8142145E+03  0.7818609E-02  0.9539667E-01
        1   -1    0    0  501    0  0.00000000000E+00  0.00000000000E+00  0.50340297578E+03  0.50340297581E+03  0.50400001928E-02 0.  1.
       -1   -1    0    0    0  501  0.00000000000E+00  0.00000000000E+00 -0.32923188008E+03  0.32923188012E+03  0.50400001928E-02 0. -1.
    10030    2    1    2    0    0  0.00000000000E+00  0.00000000000E+00  0.17417109570E+03  0.83263485592E+03  0.81421448815E+03 0.  0.
        1    1    3    3  502    0  0.71126020424E+02 -0.52012583027E+02 -0.31936334185E+03  0.33129618730E+03  0.50400001928E-02 0. -1.
       -1    1    3    3    0  502 -0.71126020424E+02  0.52012583027E+02  0.49353443756E+03  0.50133866862E+03  0.50400001928E-02 0.  1.
</event>
<event>
 5   0  0.1471290E-02  0.8050655E+03  0.7818609E-02  0.9552714E-01
       -1   -1    0    0    0  501  0.00000000000E+00  0.00000000000E+00  0.18879412969E+03  0.18879412976E+03  0.50400001928E-02 0.  1.
        1   -1    0    0  501    0  0.00000000000E+00  0.00000000000E+00 -0.85825031739E+03  0.85825031740E+03  0.50400001928E-02 0. -1.
    10030    2    1    2    0    0  0.00000000000E+00  0.00000000000E+00 -0.66945618770E+03  0.10470444472E+04  0.80506551726E+03 0.  0.
        2    1    3    3  502    0  0.21669896950E+03  0.19862637012E+02 -0.77515828282E+03  0.80512317763E+03  0.25500000920E-02 0. -1.
       -2    1    3    3    0  502 -0.21669896950E+03 -0.19862637012E+02  0.10570209512E+03  0.24192126953E+03  0.25500000920E-02 0.  1.
</event>
<event>
 5   0  0.2454354E-02  0.8044137E+03  0.7818609E-02  0.9553650E-01
       -2   -1    0    0    0  501  0.00000000000E+00  0.00000000000E+00  0.14021207999E+03  0.14021208002E+03  0.25500000920E-02 0. -1.
        2   -1    0    0  501    0  0.00000000000E+00  0.00000000000E+00 -0.11537547425E+04  0.11537547425E+04  0.25500000920E-02 0.  1.
    10030    2    1    2    0    0  0.00000000000E+00  0.00000000000E+00 -0.10135426625E+04  0.12939668225E+04  0.80441370515E+03 0.  0.
        5    1    3    3  502    0 -0.28296481196E+03  0.28484772043E+03 -0.54418443114E+03  0.67628846932E+03  0.46999998093E+01 0.  1.
       -5    1    3    3    0  502  0.28296481196E+03 -0.28484772043E+03 -0.46935823133E+03  0.61767835316E+03  0.46999998093E+01 0. -1.
</event>
<event>
 5   0  0.2422031E-02  0.8009207E+03  0.7818609E-02  0.9558685E-01
       -2   -1    0    0    0  501  0.00000000000E+00  0.00000000000E+00  0.18393928036E+03  0.18393928038E+03  0.25500000920E-02 0. -1.
        2   -1    0    0  501    0  0.00000000000E+00  0.00000000000E+00 -0.87185556094E+03  0.87185556094E+03  0.25500000920E-02 0.  1.
    10030    2    1    2    0    0  0.00000000000E+00  0.00000000000E+00 -0.68791628058E+03  0.10557948413E+04  0.80092068139E+03 0.  0.
        4    1    3    3  502    0 -0.24494116974E+03 -0.31657936599E+03 -0.32791039279E+03  0.51744131088E+03  0.12699999809E+01 0.  1.
       -4    1    3    3    0  502  0.24494116974E+03  0.31657936599E+03 -0.36000588779E+03  0.53835353045E+03  0.12699999809E+01 0. -1.
</event>
<event>
 5   0  0.1471290E-02  0.7959329E+03  0.7818609E-02  0.9565923E-01
        1   -1    0    0  501    0  0.00000000000E+00  0.00000000000E+00  0.63118253107E+03  0.63118253109E+03  0.50400001928E-02 0. -1.
       -1   -1    0    0    0  501  0.00000000000E+00  0.00000000000E+00 -0.25092152851E+03  0.25092152856E+03  0.50400001928E-02 0.  1.
    10030    2    1    2    0    0  0.00000000000E+00  0.00000000000E+00  0.38026100257E+03  0.88210405965E+03  0.79593287530E+03 0.  0.
        2    1    3    3  502    0  0.15636490696E+03 -0.41309781299E+02  0.59311957693E+03  0.61477419815E+03  0.25500000920E-02 0. -1.
       -2    1    3    3    0  502 -0.15636490696E+03  0.41309781299E+02 -0.21285857437E+03  0.26732986150E+03  0.25500000920E-02 0.  1.
</event>
<event>
 5   0  0.1624094E-02  0.7764061E+03  0.7818609E-02  0.9594811E-01
       -1   -1    0    0    0  501  0.00000000000E+00  0.00000000000E+00  0.93718875809E+02  0.93718875945E+02  0.50400001928E-02 0. -1.
        1   -1    0    0  501    0  0.00000000000E+00  0.00000000000E+00 -0.16080176176E+04  0.16080176176E+04  0.50400001928E-02 0.  1.
    10030    2    1    2    0    0  0.00000000000E+00  0.00000000000E+00 -0.15142987418E+04  0.17017364935E+04  0.77640608839E+03 0.  0.
        3    1    3    3  502    0  0.21153651727E+03  0.19907210719E+02 -0.45037656849E+02  0.21719207148E+03  0.10100000352E+00 0. -1.
       -3    1    3    3    0  502 -0.21153651727E+03 -0.19907210719E+02 -0.14692610849E+04  0.14845444220E+04  0.10100000352E+00 0.  1.
</event>
<event>
 5   0  0.1471290E-02  0.8329782E+03  0.7818609E-02  0.9513472E-01
        1   -1    0    0  501    0  0.00000000000E+00  0.00000000000E+00  0.96035978556E+03  0.96035978557E+03  0.50400001928E-02 0. -1.
       -1   -1    0    0    0  501  0.00000000000E+00  0.00000000000E+00 -0.18062312062E+03  0.18062312069E+03  0.50400001928E-02 0.  1.
    10030    2    1    2    0    0  0.00000000000E+00  0.00000000000E+00  0.77973666494E+03  0.11409829063E+04  0.83297822644E+03 0.  0.
        2    1    3    3  502    0  0.27856502916E+02 -0.19233336299E+03 -0.11470876016E+03  0.22566835609E+03  0.25500000920E-02 0.  1.
       -2    1    3    3    0  502 -0.27856502916E+02  0.19233336299E+03  0.89444542510E+03  0.91531455018E+03  0.25500000920E-02 0. -1.
</event>
<event>
 5   0  0.2464780E-02  0.8026749E+03  0.7818609E-02  0.9556153E-01
       -2   -1    0    0    0  501  0.00000000000E+00  0.00000000000E+00  0.28446550619E+03  0.28446550620E+03  0.25500000920E-02 0.  1.
        2   -1    0    0  501    0  0.00000000000E+00  0.00000000000E+00 -0.56622597217E+03  0.56622597218E+03  0.25500000920E-02 0. -1.
    10030    2    1    2    0    0  0.00000000000E+00  0.00000000000E+00 -0.28176046599E+03  0.85069147838E+03  0.80267492249E+03 0.  0.
        3    1    3    3  502    0 -0.11276527864E+02  0.10167355066E+03  0.27041632677E+03  0.28911878349E+03  0.10100000352E+00 0.  1.
       -3    1    3    3    0  502  0.11276527864E+02 -0.10167355066E+03 -0.55217679275E+03  0.56157269489E+03  0.10100000352E+00 0. -1.
</event>
<event>
 5   0  0.1509629E-02  0.8133190E+03  0.7818609E-02  0.9540936E-01
        1   -1    0    0  501    0  0.00000000000E+00  0.00000000000E+00  0.95018822412E+03  0.95018822414E+03  0.50400001928E-02 0.  1.
       -1   -1    0    0    0  501  0.00000000000E+00  0.00000000000E+00 -0.17404127341E+03  0.17404127348E+03  0.50400001928E-02 0. -1.
    10030    2    1    2    0    0  0.00000000000E+00  0.00000000000E+00  0.77614695071E+03  0.11242294976E+04  0.81331904823E+03 0.  0.
        5    1    3    3  502    0 -0.81677127869E+02  0.67318231459E+02 -0.15462867723E+03  0.18744336564E+03  0.46999998093E+01 0. -1.
       -5    1    3    3    0  502  0.81677127869E+02 -0.67318231459E+02  0.93077562794E+03  0.93678613198E+03  0.46999998093E+01 0.  1.
</event>
<event>
 5   0  0.1498375E-02  0.8039885E+03  0.7818609E-02  0.9554262E-01
       -1   -1    0    0    0  501  0.00000000000E+00  0.00000000000E+00  0.24288573140E+03  0.24288573145E+03  0.50400001928E-02 0.  1.
        1   -1    0    0  501    0  0.00000000000E+00  0.00000000000E+00 -0.66533085034E+03  0.66533085036E+03  0.50400001928E-02 0. -1.
    10030    2    1    2    0    0  0.00000000000E+00  0.00000000000E+00 -0.42244511894E+03  0.90821658181E+03  0.80398848310E+03 0.  0.
        4    1    3    3  502    0  0.12327599969E+03 -0.26578975247E+03 -0.52214338762E+03  0.59872906624E+03  0.12699999809E+01 0. -1.
       -4    1    3    3    0  502 -0.12327599969E+03  0.26578975247E+03  0.99698268685E+02  0.30948751557E+03  0.12699999809E+01 0.  1.
</event>
<event>
 5   0  0.1523811E-02  0.6705878E+03  0.7818609E-02  0.9768896E-01
        1   -1    0    0  501    0  0.00000000000E+00  0.00000000000E+00  0.48613478523E+03  0.48613478526E+03  0.50400001928E-02 0.  1.
       -1   -1    0    0    0  501  0.00000000000E+00  0.00000000000E+00 -0.23125686634E+03  0.23125686639E+03  0.50400001928E-02 0. -1.
    10030    2    1    2    0    0  0.00000000000E+00  0.00000000000E+00  0.25487791889E+03  0.71739165165E+03  0.67058782297E+03 0.  0.
        1    1    3    3  502    0 -0.53211546151E+02 -0.15725741866E+03  0.43907940299E+03  0.46941675143E+03  0.50400001928E-02 0.  1.
       -1    1    3    3    0  502  0.53211546151E+02  0.15725741866E+03 -0.18420148410E+03  0.24797490021E+03  0.50400001928E-02 0. -1.
</event>
<event>
 5   0  0.2571778E-02  0.8067842E+03  0.7818609E-02  0.9550249E-01
       -2   -1    0    0    0  501  0.00000000000E+00  0.00000000000E+00  0.52344336940E+03  0.52344336941E+03  0.25500000920E-02 0. -1.
        2   -1    0    0  501    0  0.00000000000E+00  0.00000000000E+00 -0.31087447922E+03  0.31087447923E+03  0.25500000920E-02 0.  1.
    10030    2    1    2    0    0  0.00000000000E+00  0.00000000000E+00  0.21256889018E+03  0.83431784864E+03  0.80678419635E+03 0.  0.
        1    1    3    3  502    0  0.31203531141E+03 -0.24301284992E+03  0.18839121158E+03  0.43807822295E+03  0.50400001928E-02 0. -1.
       -1    1    3    3    0  502 -0.31203531141E+03  0.24301284992E+03  0.24177678602E+02  0.39623962569E+03  0.50400001928E-02 0.  1.
</event>
<event>
 5   0  0.1523811E-02  0.7980079E+03  0.7818609E-02  0.9562905E-01
       -1   -1    0    0    0  501  0.00000000000E+00  0.00000000000E+00  0.24558590795E+03  0.24558590800E+03  0.50400001928E-02 0. -1.
        1   -1    0    0  501    0  0.00000000000E+00  0.00000000000E+00 -0.64826253976E+03  0.64826253978E+03  0.50400001928E-02 0.  1.
    10030    2    1    2    0    0  0.00000000000E+00  0.00000000000E+00 -0.40267663181E+03  0.89384844778E+03  0.79800788079E+03 0.  0.
        1    1    3    3  502    0  0.15196537519E+03  0.36455289522E+03 -0.13785863623E+03  0.41832677690E+03  0.50400001928E-02 0.  1.
       -1    1    3    3    0  502 -0.15196537519E+03 -0.36455289522E+03 -0.26481799558E+03  0.47552167088E+03  0.50400001928E-02 0. -1.
</event>
<event>
 5   0  0.2464780E-02  0.8009290E+03  0.7818609E-02  0.9558673E-01
       -2   -1    0    0    0  501  0.00000000000E+00  0.00000000000E+00  0.10452242796E+03  0.10452242799E+03  0.25500000920E-02 0.  1.
        2   -1    0    0  501    0  0.00000000000E+00  0.00000000000E+00 -0.15343293917E+04  0.15343293917E+04  0.25500000920E-02 0. -1.
    10030    2    1    2    0    0  0.00000000000E+00  0.00000000000E+00 -0.14298069638E+04  0.16388518197E+04  0.80092904391E+03 0.  0.
        3    1    3    3  502    0  0.15206152826E+03 -0.33518510381E+03 -0.10377869803E+04  0.11011237845E+04  0.10100000352E+00 0. -1.
       -3    1    3    3    0  502 -0.15206152826E+03  0.33518510381E+03 -0.39201998349E+03  0.53772803521E+03  0.10100000352E+00 0.  1.
</event>
<event>
 5   0  0.2464780E-02  0.8078455E+03  0.7818609E-02  0.9548730E-01
        2   -1    0    0  501    0  0.00000000000E+00  0.00000000000E+00  0.12919687450E+04  0.12919687450E+04  0.25500000920E-02 0.  1.
       -2   -1    0    0    0  501  0.00000000000E+00  0.00000000000E+00 -0.12628291377E+03  0.12628291379E+03  0.25500000920E-02 0. -1.
    10030    2    1    2    0    0  0.00000000000E+00  0.00000000000E+00  0.11656858312E+04  0.14182516587E+04  0.80784547441E+03 0.  0.
        3    1    3    3  502    0  0.97447268003E+02 -0.26964597105E+03  0.10823363715E+04  0.11196682326E+04  0.10100000352E+00 0.  1.
       -3    1    3    3    0  502 -0.97447268003E+02  0.26964597105E+03  0.83349459635E+02  0.29858342614E+03  0.10100000352E+00 0. -1.
</event>
<event>
 5   0  0.2422031E-02  0.7899646E+03  0.7818609E-02  0.9574658E-01
       -2   -1    0    0    0  501  0.00000000000E+00  0.00000000000E+00  0.22397785742E+03  0.22397785744E+03  0.25500000920E-02 0.  1.
        2   -1    0    0  501    0  0.00000000000E+00  0.00000000000E+00 -0.69654661001E+03  0.69654661001E+03  0.25500000920E-02 0. -1.
    10030    2    1    2    0    0  0.00000000000E+00  0.00000000000E+00 -0.47256875259E+03  0.92052446745E+03  0.78996460000E+03 0.  0.
        4    1    3    3  502    0 -0.29753300313E+03  0.43659314316E+01  0.66382723256E+02  0.30488231853E+03  0.12699999809E+01 0.  1.
       -4    1    3    3    0  502  0.29753300313E+03 -0.43659314316E+01 -0.53895147584E+03  0.61564214891E+03  0.12699999809E+01 0. -1.
</event>
<event>
 5   0  0.1624094E-02  0.8162325E+03  0.7818609E-02  0.9536814E-01
       -1   -1    0    0    0  501  0.00000000000E+00  0.00000000000E+00  0.16463600545E+03  0.16463600553E+03  0.50400001928E-02 0.  1.
        1   -1    0    0  501    0  0.00000000000E+00  0.00000000000E+00 -0.10116795037E+04  0.10116795037E+04  0.50400001928E-02 0. -1.
    10030    2    1    2    0    0  0.00000000000E+00  0.00000000000E+00 -0.84704349822E+03  0.11763155092E+04  0.81623249710E+03 0.  0.
        3    1    3    3  502    0 -0.34610352344E+02  0.37600062243E+03 -0.64671211039E+03  0.74887309238E+03  0.10100000352E+00 0. -1.
       -3    1    3    3    0  502  0.34610352344E+02 -0.37600062243E+03 -0.20033138782E+03  0.42744241683E+03  0.10100000352E+00 0.  1.
</event>
<event>
 5   0  0.2422031E-02  0.8146434E+03  0.7818609E-02  0.9539060E-01
       -2   -1    0    0    0  501  0.00000000000E+00  0.00000000000E+00  0.22986752033E+03  0.22986752034E+03  0.25500000920E-02 0.  1.
        2   -1    0    0  501    0  0.00000000000E+00  0.00000000000E+00 -0.72176774301E+03  0.72176774301E+03  0.25500000920E-02 0. -1.
    10030    2    1    2    0    0  0.00000000000E+00  0.00000000000E+00 -0.49190022268E+03  0.95163526335E+03  0.81464338540E+03 0.  0.
        4    1    3    3  502    0  0.63858017337E+02 -0.10604958023E+03 -0.69925857869E+03  0.71013275704E+03  0.12699999809E+01 0. -1.
       -4    1    3    3    0  502 -0.63858017337E+02  0.10604958023E+03  0.20735835602E+03  0.24150250631E+03  0.12699999809E+01 0.  1.
</event>
<event>
 5   0  0.1509629E-02  0.8035518E+03  0.7818609E-02  0.9554890E-01
       -1   -1    0    0    0  501  0.00000000000E+00  0.00000000000E+00  0.30124691334E+03  0.30124691339E+03  0.50400001928E-02 0.  1.
        1   -1    0    0  501    0  0.00000000000E+00  0.00000000000E+00 -0.53585239700E+03  0.53585239703E+03  0.50400001928E-02 0. -1.
    10030    2    1    2    0    0  0.00000000000E+00  0.00000000000E+00 -0.23460548366E+03  0.83709931041E+03  0.80355181695E+03 0.  0.
        5    1    3    3  502    0 -0.12278591590E+02 -0.11420600638E+03  0.28374764720E+03  0.30615125836E+03  0.46999998093E+01 0.  1.
       -5    1    3    3    0  502  0.12278591590E+02  0.11420600638E+03 -0.51835313086E+03  0.53094805205E+03  0.46999998093E+01 0. -1.
</event>
<event>
 5   0  0.2571778E-02  0.7968221E+03  0.7818609E-02  0.9564628E-01
        2   -1    0    0  501    0  0.00000000000E+00  0.00000000000E+00  0.11902991483E+04  0.11902991483E+04  0.25500000920E-02 0. -1.
       -2   -1    0    0    0  501  0.00000000000E+00  0.00000000000E+00 -0.13335417839E+03  0.13335417841E+03  0.25500000920E-02 0.  1.
    10030    2    1    2    0    0  0.00000000000E+00  0.00000000000E+00  0.10569449699E+04  0.13236533267E+04  0.79682210053E+03 0.  0.
        1    1    3    3  502    0 -0.30830844525E+03  0.17182848900E+03  0.22148372970E+03  0.41669433593E+03  0.50400001928E-02 0. -1.
       -1    1    3    3    0  502  0.30830844525E+03 -0.17182848900E+03  0.83546124019E+03  0.90695899077E+03  0.50400001928E-02 0.  1.
</event>
<event>
 5   0  0.1471290E-02  0.8041806E+03  0.7818609E-02  0.9553986E-01
        1   -1    0    0  501    0  0.00000000000E+00  0.00000000000E+00  0.34212111516E+03  0.34212111519E+03  0.50400001928E-02 0. -1.
       -1   -1    0    0    0  501  0.00000000000E+00  0.00000000000E+00 -0.47257122732E+03  0.47257122735E+03  0.50400001928E-02 0.  1.
    10030    2    1    2    0    0  0.00000000000E+00  0.00000000000E+00 -0.13045011216E+03  0.81469234254E+03  0.80418056507E+03 0.  0.
        2    1    3    3  502    0  0.11041998876E+03 -0.27560313388E+03 -0.33992798469E+03  0.45133213502E+03  0.25500000920E-02 0.  1.
       -2    1    3    3    0  502 -0.11041998876E+03  0.27560313388E+03  0.20947787253E+03  0.36336020752E+03  0.25500000920E-02 0. -1.
</event>
<event>
 5   0  0.2454354E-02  0.7854780E+03  0.7818609E-02  0.9581278E-01
       -2   -1    0    0    0  501  0.00000000000E+00  0.00000000000E+00  0.14989960116E+03  0.14989960118E+03  0.25500000920E-02 0.  1.
        2   -1    0    0  501    0  0.00000000000E+00  0.00000000000E+00 -0.10289814218E+04  0.10289814218E+04  0.25500000920E-02 0. -1.
    10030    2    1    2    0    0  0.00000000000E+00  0.00000000000E+00 -0.87908182061E+03  0.11788810229E+04  0.78547795573E+03 0.  0.
        5    1    3    3  502    0 -0.49117630243E+02  0.17051784908E+03  0.86254193640E+02  0.19735945474E+03  0.46999998093E+01 0.  1.
       -5    1    3    3    0  502  0.49117630243E+02 -0.17051784908E+03 -0.96533601425E+03  0.98152156821E+03  0.46999998093E+01 0. -1.
</event>
<event>
 5   0  0.1624094E-02  0.8085728E+03  0.7818609E-02  0.9547691E-01
       -1   -1    0    0    0  501  0.00000000000E+00  0.00000000000E+00  0.14667434593E+03  0.14667434602E+03  0.50400001928E-02 0. -1.
        1   -1    0    0  501    0  0.00000000000E+00  0.00000000000E+00 -0.11143564495E+04  0.11143564495E+04  0.50400001928E-02 0.  1.
    10030    2    1    2    0    0  0.00000000000E+00  0.00000000000E+00 -0.96768210356E+03  0.12610307955E+04  0.80857282523E+03 0.  0.
        3    1    3    3  502    0  0.58282305740E+02 -0.62851353028E+02 -0.11000223634E+04  0.11033568461E+04  0.10100000352E+00 0.  1.
       -3    1    3    3    0  502 -0.58282305740E+02  0.62851353028E+02  0.13234025984E+03  0.15767394939E+03  0.10100000352E+00 0. -1.
</event>
<event>
 5   0  0.1523811E-02  0.8156546E+03  0.7818609E-02  0.9537630E-01
       -1   -1    0    0    0  501  0.00000000000E+00  0.00000000000E+00  0.17502947941E+03  0.17502947948E+03  0.50400001928E-02 0. -1.
        1   -1    0    0  501    0  0.00000000000E+00  0.00000000000E+00 -0.95025778485E+03  0.95025778487E+03  0.50400001928E-02 0.  1.
    10030    2    1    2    0    0  0.00000000000E+00  0.00000000000E+00 -0.77522830544E+03  0.11252872643E+04  0.81565464612E+03 0.  0.
        1    1    3    3  502    0 -0.35007857238E+03  0.20920830350E+03 -0.38752351769E+03  0.56258119226E+03  0.50400001928E-02 0. -1.
       -1    1    3    3    0  502  0.35007857238E+03 -0.20920830350E+03 -0.38770478775E+03  0.56270607209E+03  0.50400001928E-02 0.  1.
</event>
<event>
 5   0  0.1509629E-02  0.6925703E+03  0.7818609E-02  0.9730023E-01
        1   -1    0    0  501    0  0.00000000000E+00  0.00000000000E+00  0.40814773243E+03  0.40814773246E+03  0.50400001928E-02 0.  1.
       -1   -1    0    0    0  501  0.00000000000E+00  0.00000000000E+00 -0.29379899061E+03  0.29379899065E+03  0.50400001928E-02 0. -1.
    10030    2    1    2    0    0  0.00000000000E+00  0.00000000000E+00  0.11434874182E+03  0.70194672311E+03  0.69257026166E+03 0.  0.
        5    1    3    3  502    0 -0.18396965955E+03 -0.24685304982E+03 -0.10343245402E+03  0.32481013897E+03  0.46999998093E+01 0.  1.
       -5    1    3    3    0  502  0.18396965955E+03  0.24685304982E+03  0.21778119584E+03  0.37713658414E+03  0.46999998093E+01 0. -1.
</event>
<event>
 5   0  0.1523811E-02  0.7936076E+03  0.7818609E-02  0.9569316E-01
        1   -1    0    0  501    0  0.00000000000E+00  0.00000000000E+00  0.96652226857E+03  0.96652226858E+03  0.50400001928E-02 0. -1.
       -1   -1    0    0    0  501  0.00000000000E+00  0.00000000000E+00 -0.16290701897E+03  0.16290701905E+03  0.50400001928E-02 0.  1.
    10030    2    1    2    0    0  0.00000000000E+00  0.00000000000E+00  0.80361524960E+03  0.11294292876E+04  0.79360761487E+03 0.  0.
        1    1    3    3  502    0 -0.35165701046E+03  0.70450344865E+01  0.66322354940E+03  0.75071816418E+03  0.50400001928E-02 0.  1.
       -1    1    3    3    0  502  0.35165701046E+03 -0.70450344865E+01  0.14039170020E+03  0.37871112346E+03  0.50400001928E-02 0. -1.
</event>
<event>
 5   0  0.1471290E-02  0.8089422E+03  0.7818609E-02  0.9547163E-01
        1   -1    0    0  501    0  0.00000000000E+00  0.00000000000E+00  0.15111013903E+04  0.15111013903E+04  0.50400001928E-02 0.  1.
       -1   -1    0    0    0  501  0.00000000000E+00  0.00000000000E+00 -0.10826332280E+03  0.10826332292E+03  0.50400001928E-02 0. -1.
    10030    2    1    2    0    0  0.00000000000E+00  0.00000000000E+00  0.14028380675E+04  0.16193647132E+04  0.80894216778E+03 0.  0.
        2    1    3    3  502    0  0.84510831120E+02  0.12539565633E+03  0.14523873789E+04  0.14602380798E+04  0.25500000920E-02 0.  1.
       -2    1    3    3    0  502 -0.84510831120E+02 -0.12539565633E+03 -0.49549311422E+02  0.15912663344E+03  0.25500000920E-02 0. -1.
</event>
<event>
 5   0  0.1509629E-02  0.8137914E+03  0.7818609E-02  0.9540266E-01
       -1   -1    0    0    0  501  0.00000000000E+00  0.00000000000E+00  0.18454109239E+03  0.18454109246E+03  0.50400001928E-02 0.  1.
        1   -1    0    0  501    0  0.00000000000E+00  0.00000000000E+00 -0.89716671600E+03  0.89716671601E+03  0.50400001928E-02 0. -1.
    10030    2    1    2    0    0  0.00000000000E+00  0.00000000000E+00 -0.71262562361E+03  0.10817078085E+04  0.81379143734E+03 0.  0.
        5    1    3    3  502    0 -0.16156093311E+03  0.34692779557E+03 -0.53992425846E+03  0.66181653449E+03  0.46999998093E+01 0. -1.
       -5    1    3    3    0  502  0.16156093311E+03 -0.34692779557E+03 -0.17270136515E+03  0.41989127399E+03  0.46999998093E+01 0.  1.
</event>
<event>
 5   0  0.2454354E-02  0.8027304E+03  0.7818609E-02  0.9556073E-01
       -2   -1    0    0    0  501  0.00000000000E+00  0.00000000000E+00  0.26392749680E+03  0.26392749681E+03  0.25500000920E-02 0.  1.
        2   -1    0    0  501    0  0.00000000000E+00  0.00000000000E+00 -0.61037229717E+03  0.61037229717E+03  0.25500000920E-02 0. -1.
    10030    2    1    2    0    0  0.00000000000E+00  0.00000000000E+00 -0.34644480037E+03  0.87429979398E+03  0.80273042178E+03 0.  0.
        5    1    3    3  502    0  0.27464690299E+03  0.51912746191E+02 -0.48690368486E+03  0.56144736429E+03  0.46999998093E+01 0. -1.
       -5    1    3    3    0  502 -0.27464690299E+03 -0.51912746191E+02  0.14045888449E+03  0.31285242970E+03  0.46999998093E+01 0.  1.
</event>
<event>
 5   0  0.1509629E-02  0.7986549E+03  0.7818609E-02  0.9561966E-01
       -1   -1    0    0    0  501  0.00000000000E+00  0.00000000000E+00  0.19469200591E+03  0.19469200598E+03  0.50400001928E-02 0. -1.
        1   -1    0    0  501    0  0.00000000000E+00  0.00000000000E+00 -0.81904952677E+03  0.81904952679E+03  0.50400001928E-02 0.  1.
    10030    2    1    2    0    0  0.00000000000E+00  0.00000000000E+00 -0.62435752086E+03  0.10137415328E+04  0.79865485749E+03 0.  0.
        5    1    3    3  502    0 -0.33703110994E+03  0.11028965889E+03 -0.54514673526E+03  0.65035438869E+03  0.46999998093E+01 0.  1.
       -5    1    3    3    0  502  0.33703110994E+03 -0.11028965889E+03 -0.79210785595E+02  0.36338714407E+03  0.46999998093E+01 0. -1.
</event>
<event>
 5   0  0.2571778E-02  0.7878338E+03  0.7818609E-02  0.9577796E-01
       -2   -1    0    0    0  501  0.00000000000E+00  0.00000000000E+00  0.19645485378E+03  0.19645485379E+03  0.25500000920E-02 0. -1.
        2   -1    0    0  501    0  0.00000000000E+00  0.00000000000E+00 -0.78985337980E+03  0.78985337981E+03  0.25500000920E-02 0.  1.
    10030    2    1    2    0    0  0.00000000000E+00  0.00000000000E+00 -0.59339852603E+03  0.98630823360E+03  0.78783381558E+03 0.  0.
        1    1    3    3  502    0  0.30062195290E+03 -0.98618011155E+02 -0.29063373413E+01  0.31639772046E+03  0.50400001928E-02 0. -1.
       -1    1    3    3    0  502 -0.30062195290E+03  0.98618011155E+02 -0.59049218868E+03  0.66991051314E+03  0.50400001928E-02 0.  1.
</event>
<event>
 5   0  0.1523811E-02  0.8305801E+03  0.7818609E-02  0.9516779E-01
       -1   -1    0    0    0  501  0.00000000000E+00  0.00000000000E+00  0.16198595598E+03  0.16198595606E+03  0.50400001928E-02 0. -1.
        1   -1    0    0  501    0  0.00000000000E+00  0.00000000000E+00 -0.10646962019E+04  0.10646962019E+04  0.50400001928E-02 0.  1.
    10030    2    1    2    0    0  0.00000000000E+00  0.00000000000E+00 -0.90271024589E+03  0.12266821579E+04  0.83058011569E+03 0.  0.
        1    1    3    3  502    0  0.36357393453E+03 -0.58379890037E+02 -0.73494883490E+03  0.82203650002E+03  0.50400001928E-02 0.  1.
       -1    1    3    3    0  502 -0.36357393453E+03  0.58379890037E+02 -0.16776141099E+03  0.40464565792E+03  0.50400001928E-02 0. -1.
</event>
<event>
 5   0  0.2422031E-02  0.8044484E+03  0.7818609E-02  0.9553600E-01
       -2   -1    0    0    0  501  0.00000000000E+00  0.00000000000E+00  0.14261991001E+03  0.14261991003E+03  0.25500000920E-02 0. -1.
        2   -1    0    0  501    0  0.00000000000E+00  0.00000000000E+00 -0.11343739394E+04  0.11343739394E+04  0.25500000920E-02 0.  1.
    10030    2    1    2    0    0  0.00000000000E+00  0.00000000000E+00 -0.99175402939E+03  0.12769938494E+04  0.80444840522E+03 0.  0.
        4    1    3    3  502    0  0.17138419624E+03  0.65138091811E+00 -0.10735081032E+04  0.10871035956E+04  0.12699999809E+01 0.  1.
       -4    1    3    3    0  502 -0.17138419624E+03 -0.65138091811E+00  0.81754073808E+02  0.18989025384E+03  0.12699999809E+01 0. -1.
</event>
<event>
 5   0  0.2464780E-02  0.7969822E+03  0.7818609E-02  0.9564396E-01
        2   -1    0    0  501    0  0.00000000000E+00  0.00000000000E+00  0.67660913047E+03  0.67660913047E+03  0.25500000920E-02 0. -1.
       -2   -1    0    0    0  501  0.00000000000E+00  0.00000000000E+00 -0.23469258277E+03  0.23469258279E+03  0.25500000920E-02 0.  1.
    10030    2    1    2    0    0  0.00000000000E+00  0.00000000000E+00  0.44191654770E+03  0.91130171326E+03  0.79698216885E+03 0.  0.
        3    1    3    3  502    0 -0.15323669453E+03 -0.77080789911E+02 -0.19031838812E+03  0.25621091269E+03  0.10100000352E+00 0.  1.
       -3    1    3    3    0  502  0.15323669453E+03  0.77080789911E+02  0.63223493582E+03  0.65509080057E+03  0.10100000352E+00 0. -1.
</event>
<event>
 5   0  0.1523811E-02  0.8054438E+03  0.7818609E-02  0.9552171E-01
       -1   -1    0    0    0  501  0.00000000000E+00  0.00000000000E+00  0.33265528775E+03  0.33265528779E+03  0.50400001928E-02 0.  1.
        1   -1    0    0  501    0  0.00000000000E+00  0.00000000000E+00 -0.48754651327E+03  0.48754651330E+03  0.50400001928E-02 0. -1.
    10030    2    1    2    0    0  0.00000000000E+00  0.00000000000E+00 -0.15489122553E+03  0.82020180109E+03  0.80544379243E+03 0.  0.
        1    1    3    3  502    0 -0.97096202905E+02  0.76607201964E+02 -0.46772850109E+03  0.48380397556E+03  0.50400001928E-02 0. -1.
       -1    1    3    3    0  502  0.97096202905E+02 -0.76607201964E+02  0.31283727556E+03  0.33639782553E+03  0.50400001928E-02 0.  1.
</event>
<event>
 5   0  0.1509629E-02  0.7967058E+03  0.7818609E-02  0.9564798E-01
       -1   -1    0    0    0  501  0.00000000000E+00  0.00000000000E+00  0.18454036012E+03  0.18454036019E+03  0.50400001928E-02 0. -1.
        1   -1    0    0  501    0  0.00000000000E+00  0.00000000000E+00 -0.85989328192E+03  0.85989328194E+03  0.50400001928E-02 0.  1.
    10030    2    1    2    0    0  0.00000000000E+00  0.00000000000E+00 -0.67535292180E+03  0.10444336421E+04  0.79670575737E+03 0.  0.
        5    1    3    3  502    0  0.38281547568E+02  0.18460775397E+03 -0.79766039237E+03  0.81965217700E+03  0.46999998093E+01 0.  1.
       -5    1    3    3    0  502 -0.38281547568E+02 -0.18460775397E+03  0.12230747056E+03  0.22478146513E+03  0.46999998093E+01 0. -1.
</event>
<event>
 5   0  0.9919125E-03  0.8747969E+03  0.7818609E-02  0.9457647E-01
       -3   -1    0    0    0  501  0.00000000000E+00  0.00000000000E+00  0.37076188157E+03  0.37076189533E+03  0.10100000352E+00 0. -1.
        3   -1    0    0  501    0  0.00000000000E+00  0.00000000000E+00 -0.51601153240E+03  0.51601154228E+03  0.10100000352E+00 0.  1.
    10030    2    1    2    0    0  0.00000000000E+00  0.00000000000E+00 -0.14524965083E+03  0.88677343761E+03  0.87479692991E+03 0.  0.
        2    1    3    3  502    0 -0.50970105958E+01  0.18517860341E+03 -0.47428215615E+03  0.50917645107E+03  0.25500000920E-02 0.  1.
       -2    1    3    3    0  502  0.50970105958E+01 -0.18517860341E+03  0.32903250532E+03  0.37759698654E+03  0.25500000920E-02 0. -1.
</event>
<event>
 5   0  0.1471290E-02  0.7947670E+03  0.7818609E-02  0.9567623E-01
       -1   -1    0    0    0  501  0.00000000000E+00  0.00000000000E+00  0.60302815130E+03  0.60302815132E+03  0.50400001928E-02 0.  1.
        1   -1    0    0  501    0  0.00000000000E+00  0.00000000000E+00 -0.26186777021E+03  0.26186777026E+03  0.50400001928E-02 0. -1.
    10030    2    1    2    0    0  0.00000000000E+00  0.00000000000E+00  0.34116038109E+03  0.86489592158E+03  0.79476697814E+03 0.  0.
        2    1    3    3  502    0 -0.12413251621E+03 -0.16365936158E+02  0.58100177473E+03  0.59433979144E+03  0.25500000920E-02 0.  1.
       -2    1    3    3    0  502  0.12413251621E+03  0.16365936158E+02 -0.23984139364E+03  0.27055613014E+03  0.25500000920E-02 0. -1.
</event>
<event>
 5   0  0.2464780E-02  0.8391412E+03  0.7818609E-02  0.9505028E-01
        2   -1    0    0  501    0  0.00000000000E+00  0.00000000000E+00  0.37014918995E+03  0.37014918996E+03  0.25500000920E-02 0. -1.
       -2   -1    0    0    0  501  0.00000000000E+00  0.00000000000E+00 -0.47559058917E+03  0.47559058917E+03  0.25500000920E-02 0.  1.
    10030    2    1    2    0    0  0.00000000000E+00  0.00000000000E+00 -0.10544139922E+03  0.84573977913E+03  0.83914115936E+03 0.  0.
        3    1    3    3  502    0  0.43972269283E+02 -0.33929194714E+03 -0.29750267199E+03  0.45338773241E+03  0.10100000352E+00 0.  1.
       -3    1    3    3    0  502 -0.43972269283E+02  0.33929194714E+03  0.19206127277E+03  0.39235204671E+03  0.10100000352E+00 0. -1.
</event>
<event>
 5   0  0.2460312E-02  0.8226808E+03  0.7818609E-02  0.9527756E-01
        2   -1    0    0  501    0  0.00000000000E+00  0.00000000000E+00  0.18275732812E+03  0.18275732814E+03  0.25500000920E-02 0. -1.
       -2   -1    0    0    0  501  0.00000000000E+00  0.00000000000E+00 -0.92582289391E+03  0.92582289391E+03  0.25500000920E-02 0.  1.
    10030    2    1    2    0    0  0.00000000000E+00  0.00000000000E+00 -0.74306556579E+03  0.11085802221E+04  0.82268078478E+03 0.  0.
        2    1    3    3  502    0  0.26782700972E+03 -0.30960956036E+03 -0.31743802774E+03  0.51803116553E+03  0.25500000920E-02 0.  1.
       -2    1    3    3    0  502 -0.26782700972E+03  0.30960956036E+03 -0.42562753805E+03  0.59054905652E+03  0.25500000920E-02 0. -1.
</event>
<event>
 5   0  0.2464780E-02  0.8263577E+03  0.7818609E-02  0.9522630E-01
       -2   -1    0    0    0  501  0.00000000000E+00  0.00000000000E+00  0.13525396923E+03  0.13525396925E+03  0.25500000920E-02 0. -1.
        2   -1    0    0  501    0  0.00000000000E+00  0.00000000000E+00 -0.12621942132E+04  0.12621942132E+04  0.25500000920E-02 0.  1.
    10030    2    1    2    0    0  0.00000000000E+00  0.00000000000E+00 -0.11269402440E+04  0.13974481824E+04  0.82635773679E+03 0.  0.
        3    1    3    3  502    0 -0.23403186850E+03  0.25564762370E+03 -0.94383514493E+03  0.10054607968E+04  0.10100000352E+00 0.  1.
       -3    1    3    3    0  502  0.23403186850E+03 -0.25564762370E+03 -0.18310509902E+03  0.39198738560E+03  0.10100000352E+00 0. -1.
</event>
<event>
 5   0  0.2460312E-02  0.8044389E+03  0.7818609E-02  0.9553614E-01
        2   -1    0    0  501    0  0.00000000000E+00  0.00000000000E+00  0.65314432092E+03  0.65314432092E+03  0.25500000920E-02 0.  1.
       -2   -1    0    0    0  501  0.00000000000E+00  0.00000000000E+00 -0.24769483317E+03  0.24769483318E+03  0.25500000920E-02 0. -1.
    10030    2    1    2    0    0  0.00000000000E+00  0.00000000000E+00  0.40544948775E+03  0.90083915410E+03  0.80443886931E+03 0.  0.
        2    1    3    3  502    0  0.32630074505E+02  0.39853508634E+03  0.15409838919E+03  0.42853383806E+03  0.25500000920E-02 0.  1.
       -2    1    3    3    0  502 -0.32630074505E+02 -0.39853508634E+03  0.25135109856E+03  0.47230531604E+03  0.25500000920E-02 0. -1.
</event>
<event>
 5   0  0.2464780E-02  0.6258813E+03  0.7818609E-02  0.9853119E-01
        2   -1    0    0  501    0  0.00000000000E+00  0.00000000000E+00  0.23322049194E+04  0.23322049194E+04  0.25500000920E-02 0.  1.
       -2   -1    0    0    0  501  0.00000000000E+00  0.00000000000E+00 -0.41991093744E+02  0.41991093821E+02  0.25500000920E-02 0. -1.
    10030    2    1    2    0    0  0.00000000000E+00  0.00000000000E+00  0.22902138256E+04  0.23741960132E+04  0.62588125229E+03 0.  0.
        3    1    3    3  502    0 -0.10470206390E+03  0.29454129146E+03  0.10895201054E+04  0.11334774655E+04  0.10100000352E+00 0. -1.
       -3    1    3    3    0  502  0.10470206390E+03 -0.29454129146E+03  0.12006937202E+04  0.12407185477E+04  0.10100000352E+00 0.  1.
</event>
<event>
 5   0  0.2454354E-02  0.7897986E+03  0.7818609E-02  0.9574902E-01
        2   -1    0    0  501    0  0.00000000000E+00  0.00000000000E+00  0.17766445787E+04  0.17766445787E+04  0.25500000920E-02 0. -1.
       -2   -1    0    0    0  501  0.00000000000E+00  0.00000000000E+00 -0.87775266484E+02  0.87775266521E+02  0.25500000920E-02 0.  1.
    10030    2    1    2    0    0  0.00000000000E+00  0.00000000000E+00  0.16888693123E+04  0.18644198453E+04  0.78979858542E+03 0.  0.
        5    1    3    3  502    0 -0.17765724730E+03  0.13667478667E+03  0.77026571424E+02  0.23705964973E+03  0.46999998093E+01 0.  1.
       -5    1    3    3    0  502  0.17765724730E+03 -0.13667478667E+03  0.16118427408E+04  0.16273601955E+04  0.46999998093E+01 0. -1.
</event>
<event>
 5   0  0.2422031E-02  0.7950754E+03  0.7818609E-02  0.9567173E-01
       -2   -1    0    0    0  501  0.00000000000E+00  0.00000000000E+00  0.17981633127E+03  0.17981633128E+03  0.25500000920E-02 0. -1.
        2   -1    0    0  501    0  0.00000000000E+00  0.00000000000E+00 -0.87887590894E+03  0.87887590894E+03  0.25500000920E-02 0.  1.
    10030    2    1    2    0    0  0.00000000000E+00  0.00000000000E+00 -0.69905957767E+03  0.10586922402E+04  0.79507544697E+03 0.  0.
        4    1    3    3  502    0 -0.12086531608E+03  0.21455952311E+03 -0.76507616211E+03  0.80373338883E+03  0.12699999809E+01 0.  1.
       -4    1    3    3    0  502  0.12086531608E+03 -0.21455952311E+03  0.66016584434E+02  0.25495885140E+03  0.12699999809E+01 0. -1.
</event>
<event>
 5   0  0.2422031E-02  0.8426760E+03  0.7818609E-02  0.9500220E-01
       -2   -1    0    0    0  501  0.00000000000E+00  0.00000000000E+00  0.15818887022E+03  0.15818887024E+03  0.25500000920E-02 0.  1.
        2   -1    0    0  501    0  0.00000000000E+00  0.00000000000E+00 -0.11222389224E+04  0.11222389224E+04  0.25500000920E-02 0. -1.
    10030    2    1    2    0    0  0.00000000000E+00  0.00000000000E+00 -0.96405005214E+03  0.12804277926E+04  0.84267599292E+03 0.  0.
        4    1    3    3  502    0  0.20755766973E+03  0.36270622731E+03 -0.56368338389E+03  0.70169549219E+03  0.12699999809E+01 0. -1.
       -4    1    3    3    0  502 -0.20755766973E+03 -0.36270622731E+03 -0.40036666825E+03  0.57873230041E+03  0.12699999809E+01 0.  1.
</event>
<event>
 5   0  0.1523811E-02  0.7940478E+03  0.7818609E-02  0.9568673E-01
        1   -1    0    0  501    0  0.00000000000E+00  0.00000000000E+00  0.45592310533E+03  0.45592310535E+03  0.50400001928E-02 0.  1.
       -1   -1    0    0    0  501  0.00000000000E+00  0.00000000000E+00 -0.34573369046E+03  0.34573369050E+03  0.50400001928E-02 0. -1.
    10030    2    1    2    0    0  0.00000000000E+00  0.00000000000E+00  0.11018941487E+03  0.80165679585E+03  0.79404780157E+03 0.  0.
        1    1    3    3  502    0 -0.30993656181E+03  0.17496653564E+03 -0.12252875765E+03  0.37641367858E+03  0.50400001928E-02 0. -1.
       -1    1    3    3    0  502  0.30993656181E+03 -0.17496653564E+03  0.23271817252E+03  0.42524311727E+03  0.50400001928E-02 0.  1.
</event>
<event>
 5   0  0.2460312E-02  0.8214622E+03  0.7818609E-02  0.9529461E-01
        2   -1    0    0  501    0  0.00000000000E+00  0.00000000000E+00  0.74300696725E+03  0.74300696726E+03  0.25500000920E-02 0. -1.
       -2   -1    0    0    0  501  0.00000000000E+00  0.00000000000E+00 -0.22705038961E+03  0.22705038963E+03  0.25500000920E-02 0.  1.
    10030    2    1    2    0    0  0.00000000000E+00  0.00000000000E+00  0.51595657764E+03  0.97005735688E+03  0.82146216324E+03 0.  0.
        2    1    3    3  502    0 -0.45185175049E+02 -0.32339935720E+03 -0.36229956531E+02  0.32854444758E+03  0.25500000920E-02 0.  1.
       -2    1    3    3    0  502  0.45185175049E+02  0.32339935720E+03  0.55218653417E+03  0.64151290930E+03  0.25500000920E-02 0. -1.
</event>
<event>
 5   0  0.1509629E-02  0.8212260E+03  0.7818609E-02  0.9529792E-01
        1   -1    0    0  501    0  0.00000000000E+00  0.00000000000E+00  0.14477088488E+04  0.14477088488E+04  0.50400001928E-02 0.  1.
       -1   -1    0    0    0  501  0.00000000000E+00  0.00000000000E+00 -0.11646196957E+03  0.11646196968E+03  0.50400001928E-02 0. -1.
    10030    2    1    2    0    0  0.00000000000E+00  0.00000000000E+00  0.13312468792E+04  0.15641708185E+04  0.82122597131E+03 0.  0.
        5    1    3    3  502    0  0.36729301374E+03 -0.18319967979E+03  0.64522885217E+03  0.76472782236E+03  0.46999998093E+01 0.  1.
       -5    1    3    3    0  502 -0.36729301374E+03  0.18319967979E+03  0.68601802705E+03  0.79944299612E+03  0.46999998093E+01 0. -1.
</event>
<event>
 5   0  0.1498375E-02  0.7635421E+03  0.7818609E-02  0.9614341E-01
        1   -1    0    0  501    0  0.00000000000E+00  0.00000000000E+00  0.11229372029E+04  0.11229372029E+04  0.50400001928E-02 0. -1.
       -1   -1    0    0    0  501  0.00000000000E+00  0.00000000000E+00 -0.12979277971E+03  0.12979277981E+03  0.50400001928E-02 0.  1.
    10030    2    1    2    0    0  0.00000000000E+00  0.00000000000E+00  0.99314442322E+03  0.12527299827E+04  0.76354211691E+03 0.  0.
        4    1    3    3  502    0  0.13339817267E+03  0.29022470606E+03  0.15350843823E+03  0.35438948346E+03  0.12699999809E+01 0.  1.
       -4    1    3    3    0  502 -0.13339817267E+03 -0.29022470606E+03  0.83963598499E+03  0.89834049929E+03  0.12699999809E+01 0. -1.
</event>
<event>
 5   0  0.1509629E-02  0.8147309E+03  0.7818609E-02  0.9538936E-01
       -1   -1    0    0    0  501  0.00000000000E+00  0.00000000000E+00  0.31758503032E+03  0.31758503036E+03  0.50400001928E-02 0.  1.
        1   -1    0    0  501    0  0.00000000000E+00  0.00000000000E+00 -0.52252657369E+03  0.52252657371E+03  0.50400001928E-02 0. -1.
    10030    2    1    2    0    0  0.00000000000E+00  0.00000000000E+00 -0.20494154336E+03  0.84011160408E+03  0.81473091945E+03 0.  0.
        5    1    3    3  502    0  0.61642843364E+02  0.18194529240E+03  0.26791330777E+03  0.32970222936E+03  0.46999998093E+01 0.  1.
       -5    1    3    3    0  502 -0.61642843364E+02 -0.18194529240E+03 -0.47285485113E+03  0.51040937472E+03  0.46999998093E+01 0. -1.
</event>
<event>
 5   0  0.2571778E-02  0.7872876E+03  0.7818609E-02  0.9578602E-01
       -2   -1    0    0    0  501  0.00000000000E+00  0.00000000000E+00  0.60163274014E+03  0.60163274015E+03  0.25500000920E-02 0.  1.
        2   -1    0    0  501    0  0.00000000000E+00  0.00000000000E+00 -0.25755816673E+03  0.25755816675E+03  0.25500000920E-02 0. -1.
    10030    2    1    2    0    0  0.00000000000E+00  0.00000000000E+00  0.34407457341E+03  0.85919090689E+03  0.78728756018E+03 0.  0.
        1    1    3    3  502    0  0.25637646186E+03 -0.50396091338E+02  0.49335353820E+03  0.55827087503E+03  0.50400001928E-02 0.  1.
       -1    1    3    3    0  502 -0.25637646186E+03  0.50396091338E+02 -0.14927896480E+03  0.30092003186E+03  0.50400001928E-02 0. -1.
</event>
<event>
 5   0  0.2464780E-02  0.7994498E+03  0.7818609E-02  0.9560814E-01
       -2   -1    0    0    0  501  0.00000000000E+00  0.00000000000E+00  0.23506341321E+03  0.23506341323E+03  0.25500000920E-02 0.  1.
        2   -1    0    0  501    0  0.00000000000E+00  0.00000000000E+00 -0.67973145513E+03  0.67973145513E+03  0.25500000920E-02 0. -1.
    10030    2    1    2    0    0  0.00000000000E+00  0.00000000000E+00 -0.44466804191E+03  0.91479486836E+03  0.79944980060E+03 0.  0.
        3    1    3    3  502    0  0.19645915351E+03 -0.22525441213E+03 -0.52604133750E+03  0.60502499795E+03  0.10100000352E+00 0. -1.
       -3    1    3    3    0  502 -0.19645915351E+03  0.22525441213E+03  0.81373295585E+02  0.30976987041E+03  0.10100000352E+00 0.  1.
</event>
<event>
 5   0  0.2454354E-02  0.8206641E+03  0.7818609E-02  0.9530579E-01
       -2   -1    0    0    0  501  0.00000000000E+00  0.00000000000E+00  0.11339656557E+03  0.11339656560E+03  0.25500000920E-02 0.  1.
        2   -1    0    0  501    0  0.00000000000E+00  0.00000000000E+00 -0.14848102070E+04  0.14848102070E+04  0.25500000920E-02 0. -1.
    10030    2    1    2    0    0  0.00000000000E+00  0.00000000000E+00 -0.13714136415E+04  0.15982067726E+04  0.82066406776E+03 0.  0.
        5    1    3    3  502    0 -0.30295491154E+03  0.25374550701E+03 -0.47076359266E+03  0.61466162311E+03  0.46999998093E+01 0. -1.
       -5    1    3    3    0  502  0.30295491154E+03 -0.25374550701E+03 -0.90065004880E+03  0.98354514952E+03  0.46999998093E+01 0.  1.
</event>
<event>
 5   0  0.1509629E-02  0.8153403E+03  0.7818609E-02  0.9538074E-01
       -1   -1    0    0    0  501  0.00000000000E+00  0.00000000000E+00  0.24274643267E+03  0.24274643272E+03  0.50400001928E-02 0. -1.
        1   -1    0    0  501    0  0.00000000000E+00  0.00000000000E+00 -0.68464431808E+03  0.68464431809E+03  0.50400001928E-02 0.  1.
    10030    2    1    2    0    0  0.00000000000E+00  0.00000000000E+00 -0.44189788541E+03  0.92739075081E+03  0.81534033604E+03 0.  0.
        5    1    3    3  502    0  0.14096566419E+03 -0.38092986062E+03 -0.26025194792E+03  0.48242309604E+03  0.46999998093E+01 0. -1.
       -5    1    3    3    0  502 -0.14096566419E+03  0.38092986062E+03 -0.18164593748E+03  0.44496765478E+03  0.46999998093E+01 0.  1.
</event>
<event>
 5   0  0.2464780E-02  0.8060367E+03  0.7818609E-02  0.9551320E-01
        2   -1    0    0  501    0  0.00000000000E+00  0.00000000000E+00  0.13517399913E+04  0.13517399913E+04  0.25500000920E-02 0. -1.
       -2   -1    0    0    0  501  0.00000000000E+00  0.00000000000E+00 -0.12015903645E+03  0.12015903648E+03  0.25500000920E-02 0.  1.
    10030    2    1    2    0    0  0.00000000000E+00  0.00000000000E+00  0.12315809548E+04  0.14718990278E+04  0.80603666148E+03 0.  0.
        3    1    3    3  502    0 -0.21361117812E+03 -0.21071386099E+03  0.12446011362E+03  0.32483903201E+03  0.10100000352E+00 0.  1.
       -3    1    3    3    0  502  0.21361117812E+03  0.21071386099E+03  0.11071208412E+04  0.11470599957E+04  0.10100000352E+00 0. -1.
</event>
<event>
 5   0  0.2422031E-02  0.8031433E+03  0.7818609E-02  0.9555478E-01
        2   -1    0    0  501    0  0.00000000000E+00  0.00000000000E+00  0.14715171850E+03  0.14715171852E+03  0.25500000920E-02 0.  1.
       -2   -1    0    0    0  501  0.00000000000E+00  0.00000000000E+00 -0.10958742863E+04  0.10958742863E+04  0.25500000920E-02 0. -1.
    10030    2    1    2    0    0  0.00000000000E+00  0.00000000000E+00 -0.94872256776E+03  0.12430260048E+04  0.80314328609E+03 0.  0.
        4    1    3    3  502    0  0.33872241115E+03  0.14536811277E+03 -0.72099230841E+03  0.80975075284E+03  0.12699999809E+01 0.  1.
       -4    1    3    3    0  502 -0.33872241115E+03 -0.14536811277E+03 -0.22773025935E+03  0.43327525195E+03  0.12699999809E+01 0. -1.
</event>
<event>
 5   0  0.2454354E-02  0.7940138E+03  0.7818609E-02  0.9568723E-01
        2   -1    0    0  501    0  0.00000000000E+00  0.00000000000E+00  0.33429600265E+04  0.33429600265E+04  0.25500000920E-02 0.  1.
       -2   -1    0    0    0  501  0.00000000000E+00  0.00000000000E+00 -0.47148179724E+02  0.47148179793E+02  0.25500000920E-02 0. -1.
    10030    2    1    2    0    0  0.00000000000E+00  0.00000000000E+00  0.32958118468E+04  0.33901082063E+04  0.79401380405E+03 0.  0.
        5    1    3    3  502    0  0.12462816150E+03  0.23217719311E+03  0.38023529741E+03  0.46264392251E+03  0.46999998093E+01 0. -1.
       -5    1    3    3    0  502 -0.12462816150E+03 -0.23217719311E+03  0.29155765493E+04  0.29274642838E+04  0.46999998093E+01 0.  1.
</event>
<event>
 5   0  0.1509629E-02  0.8023925E+03  0.7818609E-02  0.9556561E-01
       -1   -1    0    0    0  501  0.00000000000E+00  0.00000000000E+00  0.14661261689E+03  0.14661261698E+03  0.50400001928E-02 0.  1.
        1   -1    0    0  501    0  0.00000000000E+00  0.00000000000E+00 -0.10978482914E+04  0.10978482914E+04  0.50400001928E-02 0. -1.
    10030    2    1    2    0    0  0.00000000000E+00  0.00000000000E+00 -0.95123567449E+03  0.12444609084E+04  0.80239245013E+03 0.  0.
        5    1    3    3  502    0  0.12528636220E+02  0.34312065316E+03 -0.79740502926E+03  0.86819676343E+03  0.46999998093E+01 0. -1.
       -5    1    3    3    0  502 -0.12528636220E+02 -0.34312065316E+03 -0.15383064523E+03  0.37626414493E+03  0.46999998093E+01 0.  1.
</event>
<event>
 5   0  0.2464780E-02  0.7968511E+03  0.7818609E-02  0.9564586E-01
        2   -1    0    0  501    0  0.00000000000E+00  0.00000000000E+00  0.24714883670E+03  0.24714883671E+03  0.25500000920E-02 0.  1.
       -2   -1    0    0    0  501  0.00000000000E+00  0.00000000000E+00 -0.64229681841E+03  0.64229681841E+03  0.25500000920E-02 0. -1.
    10030    2    1    2    0    0  0.00000000000E+00  0.00000000000E+00 -0.39514798171E+03  0.88944565512E+03  0.79685108142E+03 0.  0.
        3    1    3    3  502    0  0.37904687185E+02 -0.37951291351E+03 -0.32618473612E+03  0.50185985007E+03  0.10100000352E+00 0. -1.
       -3    1    3    3    0  502 -0.37904687185E+02  0.37951291351E+03 -0.68963245590E+02  0.38758580505E+03  0.10100000352E+00 0.  1.
</event>
<event>
 5   0  0.2571778E-02  0.7885307E+03  0.7818609E-02  0.9576768E-01
       -2   -1    0    0    0  501  0.00000000000E+00  0.00000000000E+00  0.32252389873E+03  0.32252389874E+03  0.25500000920E-02 0.  1.
        2   -1    0    0  501    0  0.00000000000E+00  0.00000000000E+00 -0.48196483791E+03  0.48196483792E+03  0.25500000920E-02 0. -1.
    10030    2    1    2    0    0  0.00000000000E+00  0.00000000000E+00 -0.15944093918E+03  0.80448873666E+03  0.78853073138E+03 0.  0.
        1    1    3    3  502    0  0.29069047116E+03 -0.20833009759E+02  0.19119098085E+03  0.34855265815E+03  0.50400001928E-02 0.  1.
       -1    1    3    3    0  502 -0.29069047116E+03  0.20833009759E+02 -0.35063192003E+03  0.45593607851E+03  0.50400001928E-02 0. -1.
</event>
<event>
 5   0  0.2422031E-02  0.7821935E+03  0.7818609E-02  0.9586155E-01
       -2   -1    0    0    0  501  0.00000000000E+00  0.00000000000E+00  0.90212180804E+02  0.90212180840E+02  0.25500000920E-02 0.  1.
        2   -1    0    0  501    0  0.00000000000E+00  0.00000000000E+00 -0.16955212615E+04  0.16955212615E+04  0.25500000920E-02 0. -1.
    10030    2    1    2    0    0  0.00000000000E+00  0.00000000000E+00 -0.16053090807E+04  0.17857334423E+04  0.78219350709E+03 0.  0.
        4    1    3    3  502    0 -0.13038586788E+03 -0.29270269183E+03 -0.29073838049E+03  0.43267280841E+03  0.12699999809E+01 0.  1.
       -4    1    3    3    0  502  0.13038586788E+03  0.29270269183E+03 -0.13145707002E+04  0.13530606339E+04  0.12699999809E+01 0. -1.
</event>
<event>
 5   0  0.2571778E-02  0.8042882E+03  0.7818609E-02  0.9553831E-01
        2   -1    0    0  501    0  0.00000000000E+00  0.00000000000E+00  0.46862522122E+03  0.46862522123E+03  0.25500000920E-02 0. -1.
       -2   -1    0    0    0  501  0.00000000000E+00  0.00000000000E+00 -0.34509426428E+03  0.34509426429E+03  0.25500000920E-02 0.  1.
    10030    2    1    2    0    0  0.00000000000E+00  0.00000000000E+00  0.12353095695E+03  0.81371948552E+03  0.80428819697E+03 0.  0.
        1    1    3    3  502    0 -0.30440604790E+03 -0.11694985289E+03  0.29985363574E+03  0.44300396497E+03  0.50400001928E-02 0. -1.
       -1    1    3    3    0  502  0.30440604790E+03  0.11694985289E+03 -0.17632267879E+03  0.37071552054E+03  0.50400001928E-02 0.  1.
</event>
<event>
 5   0  0.2464780E-02  0.6890302E+03  0.7818609E-02  0.9736178E-01
       -2   -1    0    0    0  501  0.00000000000E+00  0.00000000000E+00  0.11211243561E+03  0.11211243563E+03  0.25500000920E-02 0.  1.
        2   -1    0    0  501    0  0.00000000000E+00  0.00000000000E+00 -0.10586750828E+04  0.10586750828E+04  0.25500000920E-02 0. -1.
    10030    2    1    2    0    0  0.00000000000E+00  0.00000000000E+00 -0.94656264722E+03  0.11707875185E+04  0.68903016500E+03 0.  0.
        3    1    3    3  502    0  0.68467849987E+02 -0.33222300109E+03 -0.57566549369E+03  0.66816969383E+03  0.10100000352E+00 0. -1.
       -3    1    3    3    0  502 -0.68467849987E+02  0.33222300109E+03 -0.37089715353E+03  0.50261782463E+03  0.10100000352E+00 0.  1.
</event>
<event>
 5   0  0.2460312E-02  0.7992251E+03  0.7818609E-02  0.9561139E-01
       -2   -1    0    0    0  501  0.00000000000E+00  0.00000000000E+00  0.19306416462E+03  0.19306416464E+03  0.25500000920E-02 0.  1.
        2   -1    0    0  501    0  0.00000000000E+00  0.00000000000E+00 -0.82713522346E+03  0.82713522347E+03  0.25500000920E-02 0. -1.
    10030    2    1    2    0    0  0.00000000000E+00  0.00000000000E+00 -0.63407105884E+03  0.10201993881E+04  0.79922505206E+03 0.  0.
        2    1    3    3  502    0  0.36848761390E+03 -0.13372880582E+03 -0.21796464372E+03  0.44852547422E+03  0.25500000920E-02 0.  1.
       -2    1    3    3    0  502 -0.36848761390E+03  0.13372880582E+03 -0.41610641512E+03  0.57167391389E+03  0.25500000920E-02 0. -1.
</event>
<event>
 5   0  0.2571778E-02  0.7954334E+03  0.7818609E-02  0.9566651E-01
       -2   -1    0    0    0  501  0.00000000000E+00  0.00000000000E+00  0.39647856106E+03  0.39647856107E+03  0.25500000920E-02 0.  1.
        2   -1    0    0  501    0  0.00000000000E+00  0.00000000000E+00 -0.39895871821E+03  0.39895871822E+03  0.25500000920E-02 0. -1.
    10030    2    1    2    0    0  0.00000000000E+00  0.00000000000E+00 -0.24801571516E+01  0.79543727929E+03  0.79543341274E+03 0.  0.
        1    1    3    3  502    0 -0.34533035095E+03 -0.17577931108E+03  0.88354782052E+02  0.39743928471E+03  0.50400001928E-02 0.  1.
       -1    1    3    3    0  502  0.34533035095E+03  0.17577931108E+03 -0.90834939204E+02  0.39799799459E+03  0.50400001928E-02 0. -1.
</event>
<event>
 5   0  0.2460312E-02  0.8006844E+03  0.7818609E-02  0.9559027E-01
        2   -1    0    0  501    0  0.00000000000E+00  0.00000000000E+00  0.26855453093E+03  0.26855453094E+03  0.25500000920E-02 0.  1.
       -2   -1    0    0    0  501  0.00000000000E+00  0.00000000000E+00 -0.59680196236E+03  0.59680196237E+03  0.25500000920E-02 0. -1.
    10030    2    1    2    0    0  0.00000000000E+00  0.00000000000E+00 -0.32824743143E+03  0.86535649331E+03  0.80068438493E+03 0.  0.
        2    1    3    3  502    0  0.10460224568E+03  0.29386804733E+03  0.10709127451E+03  0.32980084919E+03  0.25500000920E-02 0.  1.
       -2    1    3    3    0  502 -0.10460224568E+03 -0.29386804733E+03 -0.43533870595E+03  0.53555564412E+03  0.25500000920E-02 0. -1.
</event>
<event>
 5   0  0.1498375E-02  0.7945409E+03  0.7818609E-02  0.9567953E-01
        1   -1    0    0  501    0  0.00000000000E+00  0.00000000000E+00  0.21178107466E+03  0.21178107472E+03  0.50400001928E-02 0. -1.
       -1   -1    0    0    0  501  0.00000000000E+00  0.00000000000E+00 -0.74522150755E+03  0.74522150756E+03  0.50400001928E-02 0.  1.
    10030    2    1    2    0    0  0.00000000000E+00  0.00000000000E+00 -0.53344043289E+03  0.95700258228E+03  0.79454090332E+03 0.  0.
        4    1    3    3  502    0 -0.21507570974E+03 -0.33268911983E+03 -0.23093730010E+03  0.45855562460E+03  0.12699999809E+01 0.  1.
       -4    1    3    3    0  502  0.21507570974E+03  0.33268911983E+03 -0.30250313279E+03  0.49844695768E+03  0.12699999809E+01 0. -1.
</event>
<event>
 5   0  0.1471290E-02  0.7894068E+03  0.7818609E-02  0.9575478E-01
        1   -1    0    0  501    0  0.00000000000E+00  0.00000000000E+00  0.46838913704E+03  0.46838913706E+03  0.50400001928E-02 0.  1.
       -1   -1    0    0    0  501  0.00000000000E+00  0.00000000000E+00 -0.33260968133E+03  0.33260968137E+03  0.50400001928E-02 0. -1.
    10030    2    1    2    0    0  0.00000000000E+00  0.00000000000E+00  0.13577945571E+03  0.80099881843E+03  0.78940676874E+03 0.  0.
        2    1    3    3  502    0 -0.75141984758E+02 -0.36558651789E+02 -0.32353119471E+03  0.33414859995E+03  0.25500000920E-02 0. -1.
       -2    1    3    3    0  502  0.75141984758E+02  0.36558651789E+02  0.45931065042E+03  0.46685021847E+03  0.25500000920E-02 0.  1.
</event>
<event>
 5   0  0.1498375E-02  0.7987582E+03  0.7818609E-02  0.9561816E-01
       -1   -1    0    0    0  501  0.00000000000E+00  0.00000000000E+00  0.41451422172E+03  0.41451422175E+03  0.50400001928E-02 0.  1.
        1   -1    0    0  501    0  0.00000000000E+00  0.00000000000E+00 -0.38479664413E+03  0.38479664416E+03  0.50400001928E-02 0. -1.
    10030    2    1    2    0    0  0.00000000000E+00  0.00000000000E+00  0.29717577590E+02  0.79931086591E+03  0.79875823998E+03 0.  0.
        4    1    3    3  502    0  0.21447390275E+03 -0.10887796333E+03  0.33390314908E+03  0.41151718279E+03  0.12699999809E+01 0.  1.
       -4    1    3    3    0  502 -0.21447390275E+03  0.10887796333E+03 -0.30418557149E+03  0.38779368312E+03  0.12699999809E+01 0. -1.
</event>
<event>
 5   0  0.1509629E-02  0.7964120E+03  0.7818609E-02  0.9565225E-01
       -1   -1    0    0    0  501  0.00000000000E+00  0.00000000000E+00  0.15579691433E+03  0.15579691441E+03  0.50400001928E-02 0.  1.
        1   -1    0    0  501    0  0.00000000000E+00  0.00000000000E+00 -0.10177865278E+04  0.10177865278E+04  0.50400001928E-02 0. -1.
    10030    2    1    2    0    0  0.00000000000E+00  0.00000000000E+00 -0.86198961349E+03  0.11735834422E+04  0.79641195505E+03 0.  0.
        5    1    3    3  502    0  0.22301887960E+03  0.17737781482E+03 -0.21173993095E+02  0.28578092629E+03  0.46999998093E+01 0.  1.
       -5    1    3    3    0  502 -0.22301887960E+03 -0.17737781482E+03 -0.84081562040E+03  0.88780251596E+03  0.46999998093E+01 0. -1.
</event>
<event>
 5   0  0.2464780E-02  0.8108835E+03  0.7818609E-02  0.9544396E-01
        2   -1    0    0  501    0  0.00000000000E+00  0.00000000000E+00  0.70323637256E+03  0.70323637256E+03  0.25500000920E-02 0.  1.
       -2   -1    0    0    0  501  0.00000000000E+00  0.00000000000E+00 -0.23375215360E+03  0.23375215361E+03  0.25500000920E-02 0. -1.
    10030    2    1    2    0    0  0.00000000000E+00  0.00000000000E+00  0.46948421896E+03  0.93698852617E+03  0.81088350972E+03 0.  0.
        3    1    3    3  502    0 -0.31752104159E+03 -0.70787237728E+02  0.51434956905E+03  0.60859340636E+03  0.10100000352E+00 0.  1.
       -3    1    3    3    0  502  0.31752104159E+03  0.70787237728E+02 -0.44865350095E+02  0.32839511982E+03  0.10100000352E+00 0. -1.
</event>
<event>
 5   0  0.9919125E-03  0.8045593E+03  0.7818609E-02  0.9553441E-01
       -3   -1    0    0    0  501  0.00000000000E+00  0.00000000000E+00  0.32846445753E+03  0.32846447306E+03  0.10100000352E+00 0. -1.
        3   -1    0    0  501    0  0.00000000000E+00  0.00000000000E+00 -0.49268314733E+03  0.49268315768E+03  0.10100000352E+00 0.  1.
    10030    2    1    2    0    0  0.00000000000E+00  0.00000000000E+00 -0.16421868979E+03  0.82114763074E+03  0.80455929141E+03 0.  0.
        4    1    3    3  502    0 -0.35815869778E+03 -0.12988060119E+03  0.49707231302E+02  0.38421223966E+03  0.12699999809E+01 0. -1.
       -4    1    3    3    0  502  0.35815869778E+03  0.12988060119E+03 -0.21392592110E+03  0.43693539108E+03  0.12699999809E+01 0.  1.
</event>
<event>
 5   0  0.2464780E-02  0.7945056E+03  0.7818609E-02  0.9568004E-01
       -2   -1    0    0    0  501  0.00000000000E+00  0.00000000000E+00  0.15166602613E+03  0.15166602615E+03  0.25500000920E-02 0. -1.
        2   -1    0    0  501    0  0.00000000000E+00  0.00000000000E+00 -0.10405083913E+04  0.10405083913E+04  0.25500000920E-02 0.  1.
    10030    2    1    2    0    0  0.00000000000E+00  0.00000000000E+00 -0.88884236515E+03  0.11921744174E+04  0.79450556416E+03 0.  0.
        3    1    3    3  502    0 -0.12384998950E+02 -0.39698571388E+03 -0.45591929188E+03  0.60465978544E+03  0.10100000352E+00 0. -1.
       -3    1    3    3    0  502  0.12384998950E+02  0.39698571388E+03 -0.43292307327E+03  0.58751463199E+03  0.10100000352E+00 0.  1.
</event>
<event>
 5   0  0.1624094E-02  0.7985341E+03  0.7818609E-02  0.9562141E-01
        1   -1    0    0  501    0  0.00000000000E+00  0.00000000000E+00  0.18195852224E+04  0.18195852224E+04  0.50400001928E-02 0.  1.
       -1   -1    0    0    0  501  0.00000000000E+00  0.00000000000E+00 -0.87610180622E+02  0.87610180767E+02  0.50400001928E-02 0. -1.
    10030    2    1    2    0    0  0.00000000000E+00  0.00000000000E+00  0.17319750418E+04  0.19071954032E+04  0.79853413237E+03 0.  0.
        3    1    3    3  502    0 -0.22368844310E+03  0.20377751113E+03  0.14881219989E+04  0.15185746236E+04  0.10100000352E+00 0.  1.
       -3    1    3    3    0  502  0.22368844310E+03 -0.20377751113E+03  0.24385304297E+03  0.38862077966E+03  0.10100000352E+00 0. -1.
</event>
<event>
 5   0  0.1471290E-02  0.7924325E+03  0.7818609E-02  0.9571036E-01
        1   -1    0    0  501    0  0.00000000000E+00  0.00000000000E+00  0.23125690612E+03  0.23125690618E+03  0.50400001928E-02 0. -1.
       -1   -1    0    0    0  501  0.00000000000E+00  0.00000000000E+00 -0.67884377569E+03  0.67884377571E+03  0.50400001928E-02 0.  1.
    10030    2    1    2    0    0  0.00000000000E+00  0.00000000000E+00 -0.44758686957E+03  0.91010068189E+03  0.79243248632E+03 0.  0.
        2    1    3    3  502    0  0.14468184092E+03 -0.32793376821E+01 -0.64740364689E+03  0.66338154268E+03  0.25500000920E-02 0.  1.
       -2    1    3    3    0  502 -0.14468184092E+03  0.32793376821E+01  0.19981677732E+03  0.24671913921E+03  0.25500000920E-02 0. -1.
</event>
<event>
 5   0  0.1509629E-02  0.8205025E+03  0.7818609E-02  0.9530806E-01
       -1   -1    0    0    0  501  0.00000000000E+00  0.00000000000E+00  0.10898887472E+04  0.10898887472E+04  0.50400001928E-02 0. -1.
        1   -1    0    0  501    0  0.00000000000E+00  0.00000000000E+00 -0.15442500985E+03  0.15442500994E+03  0.50400001928E-02 0.  1.
    10030    2    1    2    0    0  0.00000000000E+00  0.00000000000E+00  0.93546373731E+03  0.12443137571E+04  0.82050248160E+03 0.  0.
        5    1    3    3  502    0  0.12555955046E+03  0.14762850323E+03  0.10160450538E+04  0.10343737318E+04  0.46999998093E+01 0. -1.
       -5    1    3    3    0  502 -0.12555955046E+03 -0.14762850323E+03 -0.80581316467E+02  0.20994002534E+03  0.46999998093E+01 0.  1.
</event>
<event>
 5   0  0.2422031E-02  0.7959841E+03  0.7818609E-02  0.9565848E-01
        2   -1    0    0  501    0  0.00000000000E+00  0.00000000000E+00  0.94606509486E+03  0.94606509486E+03  0.25500000920E-02 0. -1.
       -2   -1    0    0    0  501  0.00000000000E+00  0.00000000000E+00 -0.16742787302E+03  0.16742787304E+03  0.25500000920E-02 0.  1.
    10030    2    1    2    0    0  0.00000000000E+00  0.00000000000E+00  0.77863722184E+03  0.11134929679E+04  0.79598408673E+03 0.  0.
        4    1    3    3  502    0 -0.33651442342E+03 -0.20865398341E+03  0.33305595423E+03  0.51740344366E+03  0.12699999809E+01 0.  1.
       -4    1    3    3    0  502  0.33651442342E+03  0.20865398341E+03  0.44558126760E+03  0.59608952424E+03  0.12699999809E+01 0. -1.
</event>
<event>
 5   0  0.2422031E-02  0.8102007E+03  0.7818609E-02  0.9545368E-01
        2   -1    0    0  501    0  0.00000000000E+00  0.00000000000E+00  0.18205357244E+04  0.18205357244E+04  0.25500000920E-02 0. -1.
       -2   -1    0    0    0  501  0.00000000000E+00  0.00000000000E+00 -0.90141749777E+02  0.90141749813E+02  0.25500000920E-02 0.  1.
    10030    2    1    2    0    0  0.00000000000E+00  0.00000000000E+00  0.17303939747E+04  0.19106774742E+04  0.81020065606E+03 0.  0.
        4    1    3    3  502    0  0.34071418179E+03  0.15521613330E+03  0.50041446030E+03  0.62497555687E+03  0.12699999809E+01 0.  1.
       -4    1    3    3    0  502 -0.34071418179E+03 -0.15521613330E+03  0.12299795144E+04  0.12857019174E+04  0.12699999809E+01 0. -1.
</event>
<event>
 5   0  0.2464780E-02  0.7909766E+03  0.7818609E-02  0.9573171E-01
       -2   -1    0    0    0  501  0.00000000000E+00  0.00000000000E+00  0.13311309768E+03  0.13311309770E+03  0.25500000920E-02 0. -1.
        2   -1    0    0  501    0  0.00000000000E+00  0.00000000000E+00 -0.11750233672E+04  0.11750233672E+04  0.25500000920E-02 0.  1.
    10030    2    1    2    0    0  0.00000000000E+00  0.00000000000E+00 -0.10419102696E+04  0.13081364650E+04  0.79097661224E+03 0.  0.
        3    1    3    3  502    0  0.11365701048E+03  0.24229059705E+03 -0.10025229763E+04  0.10376294992E+04  0.10100000352E+00 0.  1.
       -3    1    3    3    0  502 -0.11365701048E+03 -0.24229059705E+03 -0.39387293301E+02  0.27050696576E+03  0.10100000352E+00 0. -1.
</event>
<event>
 5   0  0.1498375E-02  0.8050230E+03  0.7818609E-02  0.9552775E-01
        1   -1    0    0  501    0  0.00000000000E+00  0.00000000000E+00  0.18521301054E+03  0.18521301061E+03  0.50400001928E-02 0. -1.
       -1   -1    0    0    0  501  0.00000000000E+00  0.00000000000E+00 -0.87475234065E+03  0.87475234067E+03  0.50400001928E-02 0.  1.
    10030    2    1    2    0    0  0.00000000000E+00  0.00000000000E+00 -0.68953933011E+03  0.10599653513E+04  0.80502301714E+03 0.  0.
        4    1    3    3  502    0 -0.31731439564E+03 -0.16272928015E+01 -0.18711966993E+02  0.31787233974E+03  0.12699999809E+01 0.  1.
       -4    1    3    3    0  502  0.31731439564E+03  0.16272928015E+01 -0.67082736312E+03  0.74209301154E+03  0.12699999809E+01 0. -1.
</event>
<event>
 5   0  0.2422031E-02  0.8052567E+03  0.7818609E-02  0.9552439E-01
        2   -1    0    0  501    0  0.00000000000E+00  0.00000000000E+00  0.35769862028E+03  0.35769862029E+03  0.25500000920E-02 0. -1.
       -2   -1    0    0    0  501  0.00000000000E+00  0.00000000000E+00 -0.45320160488E+03  0.45320160489E+03  0.25500000920E-02 0.  1.
    10030    2    1    2    0    0  0.00000000000E+00  0.00000000000E+00 -0.95502984601E+02  0.81090022517E+03  0.80525670138E+03 0.  0.
        4    1    3    3  502    0 -0.35691552728E+03 -0.12808298308E+03 -0.18402927355E+03  0.42150009561E+03  0.12699999809E+01 0.  1.
       -4    1    3    3    0  502  0.35691552728E+03  0.12808298308E+03  0.88526288952E+02  0.38940012957E+03  0.12699999809E+01 0. -1.
</event>
<event>
 5   0  0.1498375E-02  0.7983806E+03  0.7818609E-02  0.9562364E-01
        1   -1    0    0  501    0  0.00000000000E+00  0.00000000000E+00  0.13201710780E+04  0.13201710780E+04  0.50400001928E-02 0. -1.
       -1   -1    0    0    0  501  0.00000000000E+00  0.00000000000E+00 -0.12070624372E+03  0.12070624383E+03  0.50400001928E-02 0.  1.
    10030    2    1    2    0    0  0.00000000000E+00  0.00000000000E+00  0.11994648343E+04  0.14408773219E+04  0.79838059090E+03 0.  0.
        4    1    3    3  502    0 -0.12839836731E+03 -0.81219297088E+02 -0.66483301862E+02  0.16584437667E+03  0.12699999809E+01 0.  1.
       -4    1    3    3    0  502  0.12839836731E+03  0.81219297088E+02  0.12659481362E+04  0.12750329452E+04  0.12699999809E+01 0. -1.
</event>
<event>
 5   0  0.2571778E-02  0.8105763E+03  0.7818609E-02  0.9544833E-01
       -2   -1    0    0    0  501  0.00000000000E+00  0.00000000000E+00  0.11599919775E+04  0.11599919775E+04  0.25500000920E-02 0. -1.
        2   -1    0    0  501    0  0.00000000000E+00  0.00000000000E+00 -0.14160310740E+03  0.14160310743E+03  0.25500000920E-02 0.  1.
    10030    2    1    2    0    0  0.00000000000E+00  0.00000000000E+00  0.10183888701E+04  0.13015950850E+04  0.81057626069E+03 0.  0.
        1    1    3    3  502    0 -0.29765625681E+03  0.26421657157E+03  0.38638935838E+03  0.55471288087E+03  0.50400001928E-02 0.  1.
       -1    1    3    3    0  502  0.29765625681E+03 -0.26421657157E+03  0.63199951175E+03  0.74688220409E+03  0.50400001928E-02 0. -1.
</event>
<event>
 5   0  0.2454354E-02  0.8268116E+03  0.7818609E-02  0.9521999E-01
        2   -1    0    0  501    0  0.00000000000E+00  0.00000000000E+00  0.25976011600E+03  0.25976011601E+03  0.25500000920E-02 0.  1.
       -2   -1    0    0    0  501  0.00000000000E+00  0.00000000000E+00 -0.65793152059E+03  0.65793152059E+03  0.25500000920E-02 0. -1.
    10030    2    1    2    0    0  0.00000000000E+00  0.00000000000E+00 -0.39817140459E+03  0.91769163660E+03  0.82681163058E+03 0.  0.
        5    1    3    3  502    0  0.28681947117E+03 -0.22880025681E+03 -0.41045790746E+03  0.55055676397E+03  0.46999998093E+01 0. -1.
       -5    1    3    3    0  502 -0.28681947117E+03  0.22880025681E+03  0.12286502867E+02  0.36713487264E+03  0.46999998093E+01 0.  1.
</event>
<event>
 5   0  0.1498375E-02  0.8017889E+03  0.7818609E-02  0.9557431E-01
        1   -1    0    0  501    0  0.00000000000E+00  0.00000000000E+00  0.85163447198E+03  0.85163447199E+03  0.50400001928E-02 0. -1.
       -1   -1    0    0    0  501  0.00000000000E+00  0.00000000000E+00 -0.18871517650E+03  0.18871517657E+03  0.50400001928E-02 0.  1.
    10030    2    1    2    0    0  0.00000000000E+00  0.00000000000E+00  0.66291929548E+03  0.10403496486E+04  0.80178887430E+03 0.  0.
        4    1    3    3  502    0  0.20351615825E+03 -0.34404562703E+03  0.37099759862E+03  0.54536872960E+03  0.12699999809E+01 0. -1.
       -4    1    3    3    0  502 -0.20351615825E+03  0.34404562703E+03  0.29192169686E+03  0.49498091897E+03  0.12699999809E+01 0.  1.
</event>
<event>
 5   0  0.1498375E-02  0.8032052E+03  0.7818609E-02  0.9555389E-01
       -1   -1    0    0    0  501  0.00000000000E+00  0.00000000000E+00  0.22226065161E+03  0.22226065166E+03  0.50400001928E-02 0.  1.
        1   -1    0    0  501    0  0.00000000000E+00  0.00000000000E+00 -0.72565543376E+03  0.72565543378E+03  0.50400001928E-02 0. -1.
    10030    2    1    2    0    0  0.00000000000E+00  0.00000000000E+00 -0.50339478215E+03  0.94791608544E+03  0.80320520313E+03 0.  0.
        4    1    3    3  502    0 -0.14735452654E+03 -0.30040613053E+03  0.10410810910E+02  0.33476439123E+03  0.12699999809E+01 0.  1.
       -4    1    3    3    0  502  0.14735452654E+03  0.30040613053E+03 -0.51380559306E+03  0.61315169421E+03  0.12699999809E+01 0. -1.
</event>
<event>
 5   0  0.1498375E-02  0.7993994E+03  0.7818609E-02  0.9560887E-01
       -1   -1    0    0    0  501  0.00000000000E+00  0.00000000000E+00  0.16406453929E+03  0.16406453937E+03  0.50400001928E-02 0. -1.
        1   -1    0    0  501    0  0.00000000000E+00  0.00000000000E+00 -0.97376223184E+03  0.97376223185E+03  0.50400001928E-02 0.  1.
    10030    2    1    2    0    0  0.00000000000E+00  0.00000000000E+00 -0.80969769255E+03  0.11378267712E+04  0.79939940454E+03 0.  0.
        4    1    3    3  502    0  0.59571194184E+02 -0.26030980608E+02  0.15648608151E+03  0.16945750421E+03  0.12699999809E+01 0. -1.
       -4    1    3    3    0  502 -0.59571194184E+02  0.26030980608E+02 -0.96618377406E+03  0.96836926701E+03  0.12699999809E+01 0.  1.
</event>
<event>
 5   0  0.2422031E-02  0.7951709E+03  0.7818609E-02  0.9567034E-01
       -2   -1    0    0    0  501  0.00000000000E+00  0.00000000000E+00  0.18112901355E+03  0.18112901357E+03  0.25500000920E-02 0.  1.
        2   -1    0    0  501    0  0.00000000000E+00  0.00000000000E+00 -0.87271592132E+03  0.87271592132E+03  0.25500000920E-02 0. -1.
    10030    2    1    2    0    0  0.00000000000E+00  0.00000000000E+00 -0.69158690776E+03  0.10538449349E+04  0.79517085951E+03 0.  0.
        4    1    3    3  502    0  0.23494852038E+03 -0.70072692722E+02  0.69011685130E+02  0.25470613475E+03  0.12699999809E+01 0.  1.
       -4    1    3    3    0  502 -0.23494852038E+03  0.70072692722E+02 -0.76059859289E+03  0.79913880015E+03  0.12699999809E+01 0. -1.
</event>
<event>
 5   0  0.1523811E-02  0.8019648E+03  0.7818609E-02  0.9557177E-01
       -1   -1    0    0    0  501  0.00000000000E+00  0.00000000000E+00  0.10139623594E+03  0.10139623607E+03  0.50400001928E-02 0. -1.
        1   -1    0    0  501    0  0.00000000000E+00  0.00000000000E+00 -0.15857283709E+04  0.15857283710E+04  0.50400001928E-02 0.  1.
    10030    2    1    2    0    0  0.00000000000E+00  0.00000000000E+00 -0.14843321350E+04  0.16871246070E+04  0.80196480759E+03 0.  0.
        1    1    3    3  502    0 -0.24987045033E+03  0.38678273238E+02 -0.13968840972E+04  0.14195831895E+04  0.50400001928E-02 0.  1.
       -1    1    3    3    0  502  0.24987045033E+03 -0.38678273238E+02 -0.87448037815E+02  0.26754141757E+03  0.50400001928E-02 0. -1.
</event>
<event>
 5   0  0.2571778E-02  0.7916102E+03  0.7818609E-02  0.9572241E-01
        2   -1    0    0  501    0  0.00000000000E+00  0.00000000000E+00  0.40451342015E+03  0.40451342016E+03  0.25500000920E-02 0. -1.
       -2   -1    0    0    0  501  0.00000000000E+00  0.00000000000E+00 -0.38728428592E+03  0.38728428593E+03  0.25500000920E-02 0.  1.
    10030    2    1    2    0    0  0.00000000000E+00  0.00000000000E+00  0.17229134228E+02  0.79179770609E+03  0.79161023510E+03 0.  0.
        1    1    3    3  502    0 -0.27342124500E+03 -0.20358558368E+03 -0.19256840363E+03  0.39152120913E+03  0.50400001928E-02 0.  1.
       -1    1    3    3    0  502  0.27342124500E+03  0.20358558368E+03  0.20979753786E+03  0.40027649696E+03  0.50400001928E-02 0. -1.
</event>
<event>
 5   0  0.9919125E-03  0.7978421E+03  0.7818609E-02  0.9563146E-01
       -3   -1    0    0    0  501  0.00000000000E+00  0.00000000000E+00  0.15149645963E+04  0.15149645997E+04  0.10100000352E+00 0. -1.
        3   -1    0    0  501    0  0.00000000000E+00  0.00000000000E+00 -0.10504401063E+03  0.10504405919E+03  0.10100000352E+00 0.  1.
    10030    2    1    2    0    0  0.00000000000E+00  0.00000000000E+00  0.14099205857E+04  0.16200086589E+04  0.79784208769E+03 0.  0.
        2    1    3    3  502    0 -0.28771779647E+03  0.20620107945E+01  0.14389782303E+03  0.32170229370E+03  0.25500000920E-02 0.  1.
       -2    1    3    3    0  502  0.28771779647E+03 -0.20620107945E+01  0.12660227626E+04  0.12983063652E+04  0.25500000920E-02 0. -1.
</event>
<event>
 5   0  0.1509629E-02  0.7885847E+03  0.7818609E-02  0.9576689E-01
        1   -1    0    0  501    0  0.00000000000E+00  0.00000000000E+00  0.25882235510E+03  0.25882235515E+03  0.50400001928E-02 0. -1.
       -1   -1    0    0    0  501  0.00000000000E+00  0.00000000000E+00 -0.60066850872E+03  0.60066850874E+03  0.50400001928E-02 0.  1.
    10030    2    1    2    0    0  0.00000000000E+00  0.00000000000E+00 -0.34184615361E+03  0.85949086389E+03  0.78858465136E+03 0.  0.
        5    1    3    3  502    0  0.26261028587E+02  0.37982805153E+03 -0.59317840605E+02  0.38535657068E+03  0.46999998093E+01 0.  1.
       -5    1    3    3    0  502 -0.26261028587E+02 -0.37982805153E+03 -0.28252831301E+03  0.47413429321E+03  0.46999998093E+01 0. -1.
</event>
<event>
 5   0  0.2464780E-02  0.8094755E+03  0.7818609E-02  0.9546402E-01
        2   -1    0    0  501    0  0.00000000000E+00  0.00000000000E+00  0.89785678781E+03  0.89785678781E+03  0.25500000920E-02 0. -1.
       -2   -1    0    0    0  501  0.00000000000E+00  0.00000000000E+00 -0.18244854313E+03  0.18244854315E+03  0.25500000920E-02 0.  1.
    10030    2    1    2    0    0  0.00000000000E+00  0.00000000000E+00  0.71540824468E+03  0.10803053310E+04  0.80947554105E+03 0.  0.
        3    1    3    3  502    0 -0.40003860823E+03  0.53929206290E+02  0.39714537551E+03  0.56627176060E+03  0.10100000352E+00 0. -1.
       -3    1    3    3    0  502  0.40003860823E+03 -0.53929206290E+02  0.31826286917E+03  0.51403357036E+03  0.10100000352E+00 0.  1.
</event>
<event>
 5   0  0.1523811E-02  0.8026716E+03  0.7818609E-02  0.9556158E-01
        1   -1    0    0  501    0  0.00000000000E+00  0.00000000000E+00  0.47803460282E+03  0.47803460284E+03  0.50400001928E-02 0. -1.
       -1   -1    0    0    0  501  0.00000000000E+00  0.00000000000E+00 -0.33694299836E+03  0.33694299840E+03  0.50400001928E-02 0.  1.
    10030    2    1    2    0    0  0.00000000000E+00  0.00000000000E+00  0.14109160446E+03  0.81497760124E+03  0.80267157024E+03 0.  0.
        1    1    3    3  502    0 -0.67654692482E+02  0.35670749552E+03 -0.10311153128E+03  0.37742467153E+03  0.50400001928E-02 0.  1.
       -1    1    3    3    0  502  0.67654692482E+02 -0.35670749552E+03  0.24420313573E+03  0.43755292971E+03  0.50400001928E-02 0. -1.
</event>
<event>
 5   0  0.1509629E-02  0.7987023E+03  0.7818609E-02  0.9561897E-01
        1   -1    0    0  501    0  0.00000000000E+00  0.00000000000E+00  0.65713147622E+03  0.65713147624E+03  0.50400001928E-02 0.  1.
       -1   -1    0    0    0  501  0.00000000000E+00  0.00000000000E+00 -0.24269322376E+03  0.24269322381E+03  0.50400001928E-02 0. -1.
    10030    2    1    2    0    0  0.00000000000E+00  0.00000000000E+00  0.41443825246E+03  0.89982470005E+03  0.79870233862E+03 0.  0.
        5    1    3    3  502    0 -0.18197626237E+03  0.34592962534E+03  0.29927481999E+03  0.49231105374E+03  0.46999998093E+01 0.  1.
       -5    1    3    3    0  502  0.18197626237E+03 -0.34592962534E+03  0.11516343247E+03  0.40751364631E+03  0.46999998093E+01 0. -1.
</event>
<event>
 5   0  0.9919125E-03  0.8041560E+03  0.7818609E-02  0.9554021E-01
       -3   -1    0    0    0  501  0.00000000000E+00  0.00000000000E+00  0.20578743402E+03  0.20578745881E+03  0.10100000352E+00 0.  1.
        3   -1    0    0  501    0  0.00000000000E+00  0.00000000000E+00 -0.78560039505E+03  0.78560040154E+03  0.10100000352E+00 0. -1.
    10030    2    1    2    0    0  0.00000000000E+00  0.00000000000E+00 -0.57981296103E+03  0.99138786035E+03  0.80415596738E+03 0.  0.
        4    1    3    3  502    0 -0.23188368696E+03 -0.23643885748E+03 -0.88003111892E+01  0.33128905201E+03  0.12699999809E+01 0.  1.
       -4    1    3    3    0  502  0.23188368696E+03  0.23643885748E+03 -0.57101264984E+03  0.66009880834E+03  0.12699999809E+01 0. -1.
</event>
<event>
 5   0  0.2454354E-02  0.8021034E+03  0.7818609E-02  0.9556977E-01
       -2   -1    0    0    0  501  0.00000000000E+00  0.00000000000E+00  0.70285215060E+03  0.70285215060E+03  0.25500000920E-02 0.  1.
        2   -1    0    0  501    0  0.00000000000E+00  0.00000000000E+00 -0.22884255024E+03  0.22884255026E+03  0.25500000920E-02 0. -1.
    10030    2    1    2    0    0  0.00000000000E+00  0.00000000000E+00  0.47400960035E+03  0.93169470086E+03  0.80210343122E+03 0.  0.
        5    1    3    3  502    0 -0.11190984285E+03  0.11594946814E+03  0.66355723432E+03  0.68286044351E+03  0.46999998093E+01 0.  1.
       -5    1    3    3    0  502  0.11190984285E+03 -0.11594946814E+03 -0.18954763397E+03  0.24883425735E+03  0.46999998093E+01 0. -1.
</event>
<event>
 5   0  0.1523811E-02  0.7995419E+03  0.7818609E-02  0.9560680E-01
       -1   -1    0    0    0  501  0.00000000000E+00  0.00000000000E+00  0.21848898474E+03  0.21848898480E+03  0.50400001928E-02 0. -1.
        1   -1    0    0  501    0  0.00000000000E+00  0.00000000000E+00 -0.73146399782E+03  0.73146399784E+03  0.50400001928E-02 0.  1.
    10030    2    1    2    0    0  0.00000000000E+00  0.00000000000E+00 -0.51297501308E+03  0.94995298264E+03  0.79954193460E+03 0.  0.
        1    1    3    3  502    0 -0.11412906827E+03  0.25125426808E+02 -0.71071693976E+03  0.72026057770E+03  0.50400001928E-02 0.  1.
       -1    1    3    3    0  502  0.11412906827E+03 -0.25125426808E+02  0.19774192668E+03  0.22969240494E+03  0.50400001928E-02 0. -1.
</event>
<event>
 5   0  0.1509629E-02  0.7888918E+03  0.7818609E-02  0.9576236E-01
       -1   -1    0    0    0  501  0.00000000000E+00  0.00000000000E+00  0.14380291702E+03  0.14380291711E+03  0.50400001928E-02 0. -1.
        1   -1    0    0  501    0  0.00000000000E+00  0.00000000000E+00 -0.10819500553E+04  0.10819500553E+04  0.50400001928E-02 0.  1.
    10030    2    1    2    0    0  0.00000000000E+00  0.00000000000E+00 -0.93814713830E+03  0.12257529724E+04  0.78889181536E+03 0.  0.
        5    1    3    3  502    0  0.37862308516E+02  0.25140571783E+03 -0.93759791412E+03  0.97146813017E+03  0.46999998093E+01 0.  1.
       -5    1    3    3    0  502 -0.37862308516E+02 -0.25140571783E+03 -0.54922417479E+00  0.25428484227E+03  0.46999998093E+01 0. -1.
</event>
<event>
 5   0  0.1523811E-02  0.7912299E+03  0.7818609E-02  0.9572799E-01
        1   -1    0    0  501    0  0.00000000000E+00  0.00000000000E+00  0.46062207407E+03  0.46062207409E+03  0.50400001928E-02 0. -1.
       -1   -1    0    0    0  501  0.00000000000E+00  0.00000000000E+00 -0.33978220049E+03  0.33978220053E+03  0.50400001928E-02 0.  1.
    10030    2    1    2    0    0  0.00000000000E+00  0.00000000000E+00  0.12083987358E+03  0.80040427462E+03  0.79122988302E+03 0.  0.
        1    1    3    3  502    0  0.29499897613E+03 -0.24245783628E+03 -0.44225083834E+02  0.38440350721E+03  0.50400001928E-02 0.  1.
       -1    1    3    3    0  502 -0.29499897613E+03  0.24245783628E+03  0.16506495741E+03  0.41600076741E+03  0.50400001928E-02 0. -1.
</event>
<event>
 5   0  0.2422031E-02  0.8295652E+03  0.7818609E-02  0.9518182E-01
        2   -1    0    0  501    0  0.00000000000E+00  0.00000000000E+00  0.45837443070E+03  0.45837443070E+03  0.25500000920E-02 0. -1.
       -2   -1    0    0    0  501  0.00000000000E+00  0.00000000000E+00 -0.37533641369E+03  0.37533641370E+03  0.25500000920E-02 0.  1.
    10030    2    1    2    0    0  0.00000000000E+00  0.00000000000E+00  0.83038017002E+02  0.83371084441E+03  0.82956522336E+03 0.  0.
        4    1    3    3  502    0 -0.30977583926E+03  0.13406322933E+02 -0.23536131946E+03  0.38927800308E+03  0.12699999809E+01 0.  1.
       -4    1    3    3    0  502  0.30977583926E+03 -0.13406322933E+02  0.31839933647E+03  0.44443284132E+03  0.12699999809E+01 0. -1.
</event>
<event>
 5   0  0.1471290E-02  0.7769993E+03  0.7818609E-02  0.9593920E-01
        1   -1    0    0  501    0  0.00000000000E+00  0.00000000000E+00  0.24732836101E+03  0.24732836106E+03  0.50400001928E-02 0.  1.
       -1   -1    0    0    0  501  0.00000000000E+00  0.00000000000E+00 -0.61024939434E+03  0.61024939436E+03  0.50400001928E-02 0. -1.
    10030    2    1    2    0    0  0.00000000000E+00  0.00000000000E+00 -0.36292103333E+03  0.85757775541E+03  0.77699931155E+03 0.  0.
        2    1    3    3  502    0 -0.11853779739E+03 -0.11935801197E+03  0.20504802507E+03  0.26522110969E+03  0.25500000920E-02 0.  1.
       -2    1    3    3    0  502  0.11853779739E+03  0.11935801197E+03 -0.56796905840E+03  0.59235664573E+03  0.25500000920E-02 0. -1.
</event>
<event>
 5   0  0.1509629E-02  0.8141752E+03  0.7818609E-02  0.9539723E-01
       -1   -1    0    0    0  501  0.00000000000E+00  0.00000000000E+00  0.20582937500E+03  0.20582937506E+03  0.50400001928E-02 0. -1.
        1   -1    0    0  501    0  0.00000000000E+00  0.00000000000E+00 -0.80513437853E+03  0.80513437855E+03  0.50400001928E-02 0.  1.
    10030    2    1    2    0    0  0.00000000000E+00  0.00000000000E+00 -0.59930500353E+03  0.10109637536E+04  0.81417518008E+03 0.  0.
        5    1    3    3  502    0 -0.63818026334E+02 -0.40201975799E+03 -0.29671680761E+03  0.50374158078E+03  0.46999998093E+01 0.  1.
       -5    1    3    3    0  502  0.63818026334E+02  0.40201975799E+03 -0.30258819592E+03  0.50722217283E+03  0.46999998093E+01 0. -1.
</event>
<event>
 5   0  0.2571778E-02  0.8010309E+03  0.7818609E-02  0.9558526E-01
       -2   -1    0    0    0  501  0.00000000000E+00  0.00000000000E+00  0.13146970195E+03  0.13146970198E+03  0.25500000920E-02 0.  1.
        2   -1    0    0  501    0  0.00000000000E+00  0.00000000000E+00 -0.12201490393E+04  0.12201490393E+04  0.25500000920E-02 0. -1.
    10030    2    1    2    0    0  0.00000000000E+00  0.00000000000E+00 -0.10886793374E+04  0.13516187413E+04  0.80103091216E+03 0.  0.
        1    1    3    3  502    0  0.16005740578E+03 -0.34955284449E+03 -0.35488210542E+03  0.52320825013E+03  0.50400001928E-02 0.  1.
       -1    1    3    3    0  502 -0.16005740578E+03  0.34955284449E+03 -0.73379723197E+03  0.82841049119E+03  0.50400001928E-02 0. -1.
</event>
<event>
 5   0  0.2422031E-02  0.7858306E+03  0.7818609E-02  0.9580756E-01
       -2   -1    0    0    0  501  0.00000000000E+00  0.00000000000E+00  0.97638891701E+03  0.97638891701E+03  0.25500000920E-02 0.  1.
        2   -1    0    0  501    0  0.00000000000E+00  0.00000000000E+00 -0.15811571827E+03  0.15811571829E+03  0.25500000920E-02 0. -1.
    10030    2    1    2    0    0  0.00000000000E+00  0.00000000000E+00  0.81827319874E+03  0.11345046353E+04  0.78583060499E+03 0.  0.
        4    1    3    3  502    0  0.38906477579E+03 -0.54547828942E+02  0.40072381714E+03  0.56118451148E+03  0.12699999809E+01 0.  1.
       -4    1    3    3    0  502 -0.38906477579E+03  0.54547828942E+02  0.41754938160E+03  0.57332012382E+03  0.12699999809E+01 0. -1.
</event>
<event>
 5   0  0.2422031E-02  0.8087862E+03  0.7818609E-02  0.9547386E-01
        2   -1    0    0  501    0  0.00000000000E+00  0.00000000000E+00  0.10222386034E+04  0.10222386034E+04  0.25500000920E-02 0.  1.
       -2   -1    0    0    0  501  0.00000000000E+00  0.00000000000E+00 -0.15997614625E+03  0.15997614627E+03  0.25500000920E-02 0. -1.
    10030    2    1    2    0    0  0.00000000000E+00  0.00000000000E+00  0.86226245719E+03  0.11822147497E+04  0.80878623217E+03 0.  0.
        4    1    3    3  502    0 -0.14217465799E+03  0.37732125851E+03  0.38614426689E+03  0.55829559666E+03  0.12699999809E+01 0.  1.
       -4    1    3    3    0  502  0.14217465799E+03 -0.37732125851E+03  0.47611819030E+03  0.62391915304E+03  0.12699999809E+01 0. -1.
</event>
<event>
 5   0  0.2460312E-02  0.8109063E+03  0.7818609E-02  0.9544364E-01
       -2   -1    0    0    0  501  0.00000000000E+00  0.00000000000E+00  0.51399865764E+03  0.51399865765E+03  0.25500000920E-02 0. -1.
        2   -1    0    0  501    0  0.00000000000E+00  0.00000000000E+00 -0.31983009993E+03  0.31983009994E+03  0.25500000920E-02 0.  1.
    10030    2    1    2    0    0  0.00000000000E+00  0.00000000000E+00  0.19416855771E+03  0.83382875759E+03  0.81090626350E+03 0.  0.
        2    1    3    3  502    0  0.20590802763E+02 -0.26919234716E+03  0.40813100852E+03  0.48934591144E+03  0.25500000920E-02 0. -1.
       -2    1    3    3    0  502 -0.20590802763E+02  0.26919234716E+03 -0.21396245081E+03  0.34448284614E+03  0.25500000920E-02 0.  1.
</event>
<event>
 5   0  0.2464780E-02  0.7597551E+03  0.7818609E-02  0.9620169E-01
        2   -1    0    0  501    0  0.00000000000E+00  0.00000000000E+00  0.55061304247E+03  0.55061304248E+03  0.25500000920E-02 0.  1.
       -2   -1    0    0    0  501  0.00000000000E+00  0.00000000000E+00 -0.26208414190E+03  0.26208414191E+03  0.25500000920E-02 0. -1.
    10030    2    1    2    0    0  0.00000000000E+00  0.00000000000E+00  0.28852890057E+03  0.81269718439E+03  0.75975508359E+03 0.  0.
        3    1    3    3  502    0 -0.11624921390E+03 -0.30656768624E+03  0.34949120715E+03  0.47920949496E+03  0.10100000352E+00 0.  1.
       -3    1    3    3    0  502  0.11624921390E+03  0.30656768624E+03 -0.60962306577E+02  0.33348768943E+03  0.10100000352E+00 0. -1.
</event>
<event>
 5   0  0.1624094E-02  0.7863739E+03  0.7818609E-02  0.9579952E-01
       -1   -1    0    0    0  501  0.00000000000E+00  0.00000000000E+00  0.16639280273E+03  0.16639280280E+03  0.50400001928E-02 0.  1.
        1   -1    0    0  501    0  0.00000000000E+00  0.00000000000E+00 -0.92910260747E+03  0.92910260748E+03  0.50400001928E-02 0. -1.
    10030    2    1    2    0    0  0.00000000000E+00  0.00000000000E+00 -0.76270980474E+03  0.10954954103E+04  0.78637392359E+03 0.  0.
        3    1    3    3  502    0 -0.14164374082E+03  0.26170789857E+03 -0.73936195131E+03  0.79700067675E+03  0.10100000352E+00 0. -1.
       -3    1    3    3    0  502  0.14164374082E+03 -0.26170789857E+03 -0.23347853429E+02  0.29849473354E+03  0.10100000352E+00 0.  1.
</event>
<event>
 5   0  0.1498375E-02  0.8004907E+03  0.7818609E-02  0.9559307E-01
       -1   -1    0    0    0  501  0.00000000000E+00  0.00000000000E+00  0.10733338987E+03  0.10733338999E+03  0.50400001928E-02 0.  1.
        1   -1    0    0  501    0  0.00000000000E+00  0.00000000000E+00 -0.14925117164E+04  0.14925117164E+04  0.50400001928E-02 0. -1.
    10030    2    1    2    0    0  0.00000000000E+00  0.00000000000E+00 -0.13851783265E+04  0.15998451064E+04  0.80049070461E+03 0.  0.
        4    1    3    3  502    0 -0.25762745430E+03 -0.27239719548E+03 -0.41262668512E+03  0.55752536398E+03  0.12699999809E+01 0.  1.
       -4    1    3    3    0  502  0.25762745430E+03  0.27239719548E+03 -0.97255164138E+03  0.10423197424E+04  0.12699999809E+01 0. -1.
</event>
<event>
 5   0  0.2464780E-02  0.8004844E+03  0.7818609E-02  0.9559316E-01
       -2   -1    0    0    0  501  0.00000000000E+00  0.00000000000E+00  0.91606155479E+02  0.91606155515E+02  0.25500000920E-02 0. -1.
        2   -1    0    0  501    0  0.00000000000E+00  0.00000000000E+00 -0.17487234459E+04  0.17487234459E+04  0.25500000920E-02 0.  1.
    10030    2    1    2    0    0  0.00000000000E+00  0.00000000000E+00 -0.16571172904E+04  0.18403296014E+04  0.80048443309E+03 0.  0.
        3    1    3    3  502    0 -0.19561577491E+03  0.24019007798E+03 -0.24587154600E+03  0.39548657662E+03  0.10100000352E+00 0. -1.
       -3    1    3    3    0  502  0.19561577491E+03 -0.24019007798E+03 -0.14112457444E+04  0.14448430248E+04  0.10100000352E+00 0.  1.
</event>
<event>
 5   0  0.2460312E-02  0.7950816E+03  0.7818609E-02  0.9567164E-01
        2   -1    0    0  501    0  0.00000000000E+00  0.00000000000E+00  0.53880865298E+03  0.53880865299E+03  0.25500000920E-02 0. -1.
       -2   -1    0    0    0  501  0.00000000000E+00  0.00000000000E+00 -0.29331136056E+03  0.29331136057E+03  0.25500000920E-02 0.  1.
    10030    2    1    2    0    0  0.00000000000E+00  0.00000000000E+00  0.24549729242E+03  0.83212001356E+03  0.79508162875E+03 0.  0.
        2    1    3    3  502    0 -0.22589210442E+02 -0.52878366065E+02  0.53443336460E+03  0.53751782783E+03  0.25500000920E-02 0. -1.
       -2    1    3    3    0  502  0.22589210442E+02  0.52878366065E+02 -0.28893607218E+03  0.29460218573E+03  0.25500000920E-02 0.  1.
</event>
<event>
 5   0  0.1523811E-02  0.8018049E+03  0.7818609E-02  0.9557408E-01
        1   -1    0    0  501    0  0.00000000000E+00  0.00000000000E+00  0.75430249928E+03  0.75430249930E+03  0.50400001928E-02 0. -1.
       -1   -1    0    0    0  501  0.00000000000E+00  0.00000000000E+00 -0.21307469900E+03  0.21307469906E+03  0.50400001928E-02 0.  1.
    10030    2    1    2    0    0  0.00000000000E+00  0.00000000000E+00  0.54122780028E+03  0.96737719836E+03  0.80180490900E+03 0.  0.
        1    1    3    3  502    0 -0.91798601899E+02  0.13288325434E+03  0.71331509702E+03  0.73137088420E+03  0.50400001928E-02 0. -1.
       -1    1    3    3    0  502  0.91798601899E+02 -0.13288325434E+03 -0.17208729674E+03  0.23600631415E+03  0.50400001928E-02 0.  1.
</event>
<event>
 5   0  0.2571778E-02  0.7896329E+03  0.7818609E-02  0.9575145E-01
        2   -1    0    0  501    0  0.00000000000E+00  0.00000000000E+00  0.47605108709E+03  0.47605108710E+03  0.25500000920E-02 0. -1.
       -2   -1    0    0    0  501  0.00000000000E+00  0.00000000000E+00 -0.32744390650E+03  0.32744390651E+03  0.25500000920E-02 0.  1.
    10030    2    1    2    0    0  0.00000000000E+00  0.00000000000E+00  0.14860718059E+03  0.80349499360E+03  0.78963289611E+03 0.  0.
        1    1    3    3  502    0  0.50481175480E+02 -0.12838925125E+03 -0.30212012534E+03  0.33212756446E+03  0.50400001928E-02 0.  1.
       -1    1    3    3    0  502 -0.50481175480E+02  0.12838925125E+03  0.45072730593E+03  0.47136742914E+03  0.50400001928E-02 0. -1.
</event>
<event>
 5   0  0.1471290E-02  0.7878018E+03  0.7818609E-02  0.9577843E-01
       -1   -1    0    0    0  501  0.00000000000E+00  0.00000000000E+00  0.12576883496E+03  0.12576883506E+03  0.50400001928E-02 0. -1.
        1   -1    0    0  501    0  0.00000000000E+00  0.00000000000E+00 -0.12336754137E+04  0.12336754137E+04  0.50400001928E-02 0.  1.
    10030    2    1    2    0    0  0.00000000000E+00  0.00000000000E+00 -0.11079065787E+04  0.13594442488E+04  0.78780180140E+03 0.  0.
        2    1    3    3  502    0 -0.13127192922E+03 -0.26190043523E+03 -0.10083307870E+04  0.10500262537E+04  0.25500000920E-02 0.  1.
       -2    1    3    3    0  502  0.13127192922E+03  0.26190043523E+03 -0.99575791718E+02  0.30941799508E+03  0.25500000920E-02 0. -1.
</event>
<event>
 5   0  0.2454354E-02  0.7665928E+03  0.7818609E-02  0.9609673E-01
        2   -1    0    0  501    0  0.00000000000E+00  0.00000000000E+00  0.63117495574E+03  0.63117495574E+03  0.25500000920E-02 0.  1.
       -2   -1    0    0    0  501  0.00000000000E+00  0.00000000000E+00 -0.23276609130E+03  0.23276609132E+03  0.25500000920E-02 0. -1.
    10030    2    1    2    0    0  0.00000000000E+00  0.00000000000E+00  0.39840886443E+03  0.86394104706E+03  0.76659279251E+03 0.  0.
        5    1    3    3  502    0 -0.32161495516E+03  0.15519138496E+03  0.42340415676E+02  0.35963223735E+03  0.46999998093E+01 0. -1.
       -5    1    3    3    0  502  0.32161495516E+03 -0.15519138496E+03  0.35606844876E+03  0.50430880970E+03  0.46999998093E+01 0.  1.
</event>
<event>
 5   0  0.9919125E-03  0.8066248E+03  0.7818609E-02  0.9550477E-01
       -4   -1    0    0    0  501  0.00000000000E+00  0.00000000000E+00  0.91346427740E+03  0.91346516024E+03  0.12699999809E+01 0.  1.
        4   -1    0    0  501    0  0.00000000000E+00  0.00000000000E+00 -0.17806710773E+03  0.17807163658E+03  0.12699999809E+01 0. -1.
    10030    2    1    2    0    0  0.00000000000E+00  0.00000000000E+00  0.73539716967E+03  0.10915367968E+04  0.80662480849E+03 0.  0.
        5    1    3    3  502    0 -0.23473882675E+02  0.55147376706E+02 -0.17197222850E+03  0.18217791770E+03  0.46999998093E+01 0. -1.
       -5    1    3    3    0  502  0.23473882675E+02 -0.55147376706E+02  0.90736939816E+03  0.90935887913E+03  0.46999998093E+01 0.  1.
</event>
<event>
 5   0  0.1523811E-02  0.7881914E+03  0.7818609E-02  0.9577269E-01
       -1   -1    0    0    0  501  0.00000000000E+00  0.00000000000E+00  0.61639214004E+03  0.61639214006E+03  0.50400001928E-02 0. -1.
        1   -1    0    0  501    0  0.00000000000E+00  0.00000000000E+00 -0.25196851420E+03  0.25196851425E+03  0.50400001928E-02 0.  1.
    10030    2    1    2    0    0  0.00000000000E+00  0.00000000000E+00  0.36442362584E+03  0.86836065432E+03  0.78819137708E+03 0.  0.
        1    1    3    3  502    0  0.49174549269E+02 -0.27369705660E+03 -0.12544672696E+03  0.30506572476E+03  0.50400001928E-02 0.  1.
       -1    1    3    3    0  502 -0.49174549269E+02  0.27369705660E+03  0.48987035280E+03  0.56329492956E+03  0.50400001928E-02 0. -1.
</event>
<event>
 5   0  0.1509629E-02  0.7929640E+03  0.7818609E-02  0.9570258E-01
       -1   -1    0    0    0  501  0.00000000000E+00  0.00000000000E+00  0.26969049238E+03  0.26969049243E+03  0.50400001928E-02 0.  1.
        1   -1    0    0  501    0  0.00000000000E+00  0.00000000000E+00 -0.58288288528E+03  0.58288288530E+03  0.50400001928E-02 0. -1.
    10030    2    1    2    0    0  0.00000000000E+00  0.00000000000E+00 -0.31319239290E+03  0.85257337773E+03  0.79296399000E+03 0.  0.
        5    1    3    3  502    0  0.17223651553E+03  0.10143615976E+03  0.21151695082E+03  0.29106051307E+03  0.46999998093E+01 0.  1.
       -5    1    3    3    0  502 -0.17223651553E+03 -0.10143615976E+03 -0.52470934372E+03  0.56151286466E+03  0.46999998093E+01 0. -1.
</event>
<event>
 5   0  0.2571778E-02  0.8005426E+03  0.7818609E-02  0.9559232E-01
       -2   -1    0    0    0  501  0.00000000000E+00  0.00000000000E+00  0.24655966790E+03  0.24655966791E+03  0.25500000920E-02 0. -1.
        2   -1    0    0  501    0  0.00000000000E+00  0.00000000000E+00 -0.64981078390E+03  0.64981078390E+03  0.25500000920E-02 0.  1.
    10030    2    1    2    0    0  0.00000000000E+00  0.00000000000E+00 -0.40325111600E+03  0.89637045181E+03  0.80054264367E+03 0.  0.
        1    1    3    3  502    0  0.36286908503E+02 -0.27134471564E+03  0.12534405804E+03  0.30109106155E+03  0.50400001928E-02 0. -1.
       -1    1    3    3    0  502 -0.36286908503E+02  0.27134471564E+03 -0.52859517403E+03  0.59527939026E+03  0.50400001928E-02 0.  1.
</event>
<event>
 5   0  0.1624094E-02  0.7585175E+03  0.7818609E-02  0.9622082E-01
        1   -1    0    0  501    0  0.00000000000E+00  0.00000000000E+00  0.33403985477E+03  0.33403985481E+03  0.50400001928E-02 0.  1.
       -1   -1    0    0    0  501  0.00000000000E+00  0.00000000000E+00 -0.43059889359E+03  0.43059889362E+03  0.50400001928E-02 0. -1.
    10030    2    1    2    0    0  0.00000000000E+00  0.00000000000E+00 -0.96559038823E+02  0.76463874843E+03  0.75851748011E+03 0.  0.
        3    1    3    3  502    0 -0.23144229105E+03  0.22189291511E+03  0.15592666465E+03  0.35653209507E+03  0.10100000352E+00 0.  1.
       -3    1    3    3    0  502  0.23144229105E+03 -0.22189291511E+03 -0.25248570347E+03  0.40810665337E+03  0.10100000352E+00 0. -1.
</event>
<event>
 5   0  0.2460312E-02  0.7927910E+03  0.7818609E-02  0.9570511E-01
       -2   -1    0    0    0  501  0.00000000000E+00  0.00000000000E+00  0.28632545952E+03  0.28632545953E+03  0.25500000920E-02 0.  1.
        2   -1    0    0  501    0  0.00000000000E+00  0.00000000000E+00 -0.54877902006E+03  0.54877902007E+03  0.25500000920E-02 0. -1.
    10030    2    1    2    0    0  0.00000000000E+00  0.00000000000E+00 -0.26245356055E+03  0.83510447960E+03  0.79279103199E+03 0.  0.
        2    1    3    3  502    0 -0.38398815968E+03 -0.60437965401E+01 -0.27770929406E+02  0.38503851597E+03  0.25500000920E-02 0. -1.
       -2    1    3    3    0  502  0.38398815968E+03  0.60437965401E+01 -0.23468263114E+03  0.45006596363E+03  0.25500000920E-02 0.  1.
</event>
<event>
 5   0  0.1498375E-02  0.8108611E+03  0.7818609E-02  0.9544428E-01
       -1   -1    0    0    0  501  0.00000000000E+00  0.00000000000E+00  0.32213332954E+03  0.32213332958E+03  0.50400001928E-02 0.  1.
        1   -1    0    0  501    0  0.00000000000E+00  0.00000000000E+00 -0.51026680242E+03  0.51026680245E+03  0.50400001928E-02 0. -1.
    10030    2    1    2    0    0  0.00000000000E+00  0.00000000000E+00 -0.18813347288E+03  0.83240013203E+03  0.81086113249E+03 0.  0.
        4    1    3    3  502    0  0.37078482600E+03 -0.15939756261E+03 -0.13360422534E+03  0.42513606303E+03  0.12699999809E+01 0. -1.
       -4    1    3    3    0  502 -0.37078482600E+03  0.15939756261E+03 -0.54529247547E+02  0.40726406900E+03  0.12699999809E+01 0.  1.
</event>
<event>
 5   0  0.1509629E-02  0.8135793E+03  0.7818609E-02  0.9540567E-01
        1   -1    0    0  501    0  0.00000000000E+00  0.00000000000E+00  0.50299867043E+03  0.50299867046E+03  0.50400001928E-02 0. -1.
       -1   -1    0    0    0  501  0.00000000000E+00  0.00000000000E+00 -0.32898259171E+03  0.32898259175E+03  0.50400001928E-02 0.  1.
    10030    2    1    2    0    0  0.00000000000E+00  0.00000000000E+00  0.17401607872E+03  0.83198126221E+03  0.81357926781E+03 0.  0.
        5    1    3    3  502    0  0.94481331603E+02 -0.18132028414E+03 -0.27258738328E+03  0.34077813748E+03  0.46999998093E+01 0.  1.
       -5    1    3    3    0  502 -0.94481331603E+02  0.18132028414E+03  0.44660346201E+03  0.49120312472E+03  0.46999998093E+01 0. -1.
</event>
<event>
 5   0  0.2454354E-02  0.7841241E+03  0.7818609E-02  0.9583285E-01
        2   -1    0    0  501    0  0.00000000000E+00  0.00000000000E+00  0.99694234024E+03  0.99694234024E+03  0.25500000920E-02 0. -1.
       -2   -1    0    0    0  501  0.00000000000E+00  0.00000000000E+00 -0.15418408018E+03  0.15418408020E+03  0.25500000920E-02 0.  1.
    10030    2    1    2    0    0  0.00000000000E+00  0.00000000000E+00  0.84275826006E+03  0.11511264204E+04  0.78412406604E+03 0.  0.
        5    1    3    3  502    0 -0.42603316070E+02 -0.35611312496E+02 -0.14834066209E+03  0.15846214104E+03  0.46999998093E+01 0.  1.
       -5    1    3    3    0  502  0.42603316070E+02  0.35611312496E+02  0.99109892215E+03  0.99266427940E+03  0.46999998093E+01 0. -1.
</event>
<event>
 5   0  0.1509629E-02  0.8039110E+03  0.7818609E-02  0.9554373E-01
        1   -1    0    0  501    0  0.00000000000E+00  0.00000000000E+00  0.14917101400E+04  0.14917101400E+04  0.50400001928E-02 0. -1.
       -1   -1    0    0    0  501  0.00000000000E+00  0.00000000000E+00 -0.10831074283E+03  0.10831074295E+03  0.50400001928E-02 0.  1.
    10030    2    1    2    0    0  0.00000000000E+00  0.00000000000E+00  0.13833993972E+04  0.16000208830E+04  0.80391102358E+03 0.  0.
        5    1    3    3  502    0  0.31728813524E+03  0.17558508648E+03  0.34671611945E+03  0.50173303742E+03  0.46999998093E+01 0.  1.
       -5    1    3    3    0  502 -0.31728813524E+03 -0.17558508648E+03  0.10366832777E+04  0.10982878456E+04  0.46999998093E+01 0. -1.
</event>
<event>
 5   0  0.9919125E-03  0.8087885E+03  0.7818609E-02  0.9547383E-01
       -4   -1    0    0    0  501  0.00000000000E+00  0.00000000000E+00  0.52102835021E+03  0.52102989801E+03  0.12699999809E+01 0. -1.
        4   -1    0    0  501    0  0.00000000000E+00  0.00000000000E+00 -0.31386582027E+03  0.31386838967E+03  0.12699999809E+01 0.  1.
    10030    2    1    2    0    0  0.00000000000E+00  0.00000000000E+00  0.20716252994E+03  0.83489828768E+03  0.80878849952E+03 0.  0.
        3    1    3    3  502    0  0.77882372966E+02 -0.39556213173E+03  0.13621894805E+03  0.42554750157E+03  0.10100000352E+00 0. -1.
       -3    1    3    3    0  502 -0.77882372966E+02  0.39556213173E+03  0.70943581893E+02  0.40935078612E+03  0.10100000352E+00 0.  1.
</event>
<event>
 5   0  0.2571778E-02  0.8324490E+03  0.7818609E-02  0.9514201E-01
        2   -1    0    0  501    0  0.00000000000E+00  0.00000000000E+00  0.77766372315E+03  0.77766372315E+03  0.25500000920E-02 0.  1.
       -2   -1    0    0    0  501  0.00000000000E+00  0.00000000000E+00 -0.22277345619E+03  0.22277345621E+03  0.25500000920E-02 0. -1.
    10030    2    1    2    0    0  0.00000000000E+00  0.00000000000E+00  0.55489026695E+03  0.10004371794E+04  0.83244900233E+03 0.  0.
        1    1    3    3  502    0  0.41120952416E+03 -0.16322048533E+02  0.20255502585E+03  0.45868095726E+03  0.50400001928E-02 0.  1.
       -1    1    3    3    0  502 -0.41120952416E+03  0.16322048533E+02  0.35233524110E+03  0.54175622210E+03  0.50400001928E-02 0. -1.
</event>
<event>
 5   0  0.1498375E-02  0.8562239E+03  0.7818609E-02  0.9482021E-01
       -1   -1    0    0    0  501  0.00000000000E+00  0.00000000000E+00  0.23785220223E+03  0.23785220228E+03  0.50400001928E-02 0. -1.
        1   -1    0    0  501    0  0.00000000000E+00  0.00000000000E+00 -0.77056189369E+03  0.77056189370E+03  0.50400001928E-02 0.  1.
    10030    2    1    2    0    0  0.00000000000E+00  0.00000000000E+00 -0.53270969146E+03  0.10084140960E+04  0.85622390390E+03 0.  0.
        4    1    3    3  502    0  0.29511566234E+03  0.11862033581E+03  0.71134970259E+02  0.32592305092E+03  0.12699999809E+01 0. -1.
       -4    1    3    3    0  502 -0.29511566234E+03 -0.11862033581E+03 -0.60384466172E+03  0.68249104507E+03  0.12699999809E+01 0.  1.
</event>
<event>
 5   0  0.2571778E-02  0.8072070E+03  0.7818609E-02  0.9549643E-01
        2   -1    0    0  501    0  0.00000000000E+00  0.00000000000E+00  0.91483580227E+03  0.91483580227E+03  0.25500000920E-02 0.  1.
       -2   -1    0    0    0  501  0.00000000000E+00  0.00000000000E+00 -0.17806015510E+03  0.17806015512E+03  0.25500000920E-02 0. -1.
    10030    2    1    2    0    0  0.00000000000E+00  0.00000000000E+00  0.73677564717E+03  0.10928959574E+04  0.80720704868E+03 0.  0.
        1    1    3    3  502    0  0.14938736118E+02  0.22314322942E+03 -0.86497443041E+02  0.23978714384E+03  0.50400001928E-02 0. -1.
       -1    1    3    3    0  502 -0.14938736118E+02 -0.22314322942E+03  0.82327309021E+03  0.85310881355E+03  0.50400001928E-02 0.  1.
</event>
<event>
 5   0  0.2571778E-02  0.8002557E+03  0.7818609E-02  0.9559647E-01
       -2   -1    0    0    0  501  0.00000000000E+00  0.00000000000E+00  0.10170795498E+04  0.10170795498E+04  0.25500000920E-02 0. -1.
        2   -1    0    0  501    0  0.00000000000E+00  0.00000000000E+00 -0.15741373722E+03  0.15741373724E+03  0.25500000920E-02 0.  1.
    10030    2    1    2    0    0  0.00000000000E+00  0.00000000000E+00  0.85966581256E+03  0.11744932870E+04  0.80025569162E+03 0.  0.
        1    1    3    3  502    0 -0.31627650916E+03  0.14783800984E+03  0.14292607429E+03  0.37724629904E+03  0.50400001928E-02 0.  1.
       -1    1    3    3    0  502  0.31627650916E+03 -0.14783800984E+03  0.71673973827E+03  0.79724698798E+03  0.50400001928E-02 0. -1.
</event>
<event>
 5   0  0.1498375E-02  0.8267633E+03  0.7818609E-02  0.9522066E-01
       -1   -1    0    0    0  501  0.00000000000E+00  0.00000000000E+00  0.21141841677E+03  0.21141841683E+03  0.50400001928E-02 0.  1.
        1   -1    0    0  501    0  0.00000000000E+00  0.00000000000E+00 -0.80827581216E+03  0.80827581218E+03  0.50400001928E-02 0. -1.
    10030    2    1    2    0    0  0.00000000000E+00  0.00000000000E+00 -0.59685739539E+03  0.10196942290E+04  0.82676330969E+03 0.  0.
        4    1    3    3  502    0 -0.21868266122E+03 -0.54623861002E+01  0.13418050448E+03  0.25662806679E+03  0.12699999809E+01 0.  1.
       -4    1    3    3    0  502  0.21868266122E+03  0.54623861002E+01 -0.73103789988E+03  0.76306616223E+03  0.12699999809E+01 0. -1.
</event>
<event>
 5   0  0.1624094E-02  0.7972882E+03  0.7818609E-02  0.9563951E-01
       -1   -1    0    0    0  501  0.00000000000E+00  0.00000000000E+00  0.12020243555E+03  0.12020243566E+03  0.50400001928E-02 0. -1.
        1   -1    0    0  501    0  0.00000000000E+00  0.00000000000E+00 -0.13220790252E+04  0.13220790252E+04  0.50400001928E-02 0.  1.
    10030    2    1    2    0    0  0.00000000000E+00  0.00000000000E+00 -0.12018765896E+04  0.14422814609E+04  0.79728820110E+03 0.  0.
        3    1    3    3  502    0  0.33083878658E+03  0.11342528227E+03 -0.25487107739E+03  0.43275729186E+03  0.10100000352E+00 0. -1.
       -3    1    3    3    0  502 -0.33083878658E+03 -0.11342528227E+03 -0.94700551225E+03  0.10095241690E+04  0.10100000352E+00 0.  1.
</event>
<event>
 5   0  0.9919125E-03  0.7886303E+03  0.7818609E-02  0.9576622E-01
       -3   -1    0    0    0  501  0.00000000000E+00  0.00000000000E+00  0.29635513387E+03  0.29635515109E+03  0.10100000352E+00 0.  1.
        3   -1    0    0  501    0  0.00000000000E+00  0.00000000000E+00 -0.52465573782E+03  0.52465574754E+03  0.10100000352E+00 0. -1.
    10030    2    1    2    0    0  0.00000000000E+00  0.00000000000E+00 -0.22830060394E+03  0.82101089863E+03  0.78863028721E+03 0.  0.
        3    1    3    3  502    0  0.14845948522E+03 -0.65163180554E+02  0.26004928527E+03  0.30645081142E+03  0.10100000352E+00 0.  1.
       -3    1    3    3    0  502 -0.14845948522E+03  0.65163180554E+02 -0.48834988921E+03  0.51456008721E+03  0.10100000352E+00 0. -1.
</event>
<event>
 5   0  0.2422031E-02  0.7836290E+03  0.7818609E-02  0.9584021E-01
        2   -1    0    0  501    0  0.00000000000E+00  0.00000000000E+00  0.16679686870E+04  0.16679686870E+04  0.25500000920E-02 0. -1.
       -2   -1    0    0    0  501  0.00000000000E+00  0.00000000000E+00 -0.92039248326E+02  0.92039248361E+02  0.25500000920E-02 0.  1.
    10030    2    1    2    0    0  0.00000000000E+00  0.00000000000E+00  0.15759294387E+04  0.17600079354E+04  0.78362895356E+03 0.  0.
        4    1    3    3  502    0  0.17877440643E+03  0.21753346890E+03  0.13999078465E+04  0.14279442181E+04  0.12699999809E+01 0. -1.
       -4    1    3    3    0  502 -0.17877440643E+03 -0.21753346890E+03  0.17602159216E+03  0.33206371722E+03  0.12699999809E+01 0.  1.
</event>
<event>
 5   0  0.1498375E-02  0.7941988E+03  0.7818609E-02  0.9568452E-01
        1   -1    0    0  501    0  0.00000000000E+00  0.00000000000E+00  0.27549048276E+03  0.27549048280E+03  0.50400001928E-02 0.  1.
       -1   -1    0    0    0  501  0.00000000000E+00  0.00000000000E+00 -0.57238980670E+03  0.57238980672E+03  0.50400001928E-02 0. -1.
    10030    2    1    2    0    0  0.00000000000E+00  0.00000000000E+00 -0.29689932394E+03  0.84788028952E+03  0.79419882700E+03 0.  0.
        4    1    3    3  502    0 -0.35509836270E+03  0.15777729419E+03 -0.23582154489E+03  0.45453485641E+03  0.12699999809E+01 0. -1.
       -4    1    3    3    0  502  0.35509836270E+03 -0.15777729419E+03 -0.61077779049E+02  0.39334543311E+03  0.12699999809E+01 0.  1.
</event>
<event>
 5   0  0.1523811E-02  0.7977699E+03  0.7818609E-02  0.9563251E-01
       -1   -1    0    0    0  501  0.00000000000E+00  0.00000000000E+00  0.14172616204E+03  0.14172616213E+03  0.50400001928E-02 0. -1.
        1   -1    0    0  501    0  0.00000000000E+00  0.00000000000E+00 -0.11226522939E+04  0.11226522939E+04  0.50400001928E-02 0.  1.
    10030    2    1    2    0    0  0.00000000000E+00  0.00000000000E+00 -0.98092613186E+03  0.12643784560E+04  0.79776989409E+03 0.  0.
        1    1    3    3  502    0  0.37728272979E+03  0.98571228970E+02 -0.62354349556E+03  0.73543526993E+03  0.50400001928E-02 0.  1.
       -1    1    3    3    0  502 -0.37728272979E+03 -0.98571228970E+02 -0.35738263630E+03  0.52894318611E+03  0.50400001928E-02 0. -1.
</event>
<event>
 5   0  0.1509629E-02  0.7959259E+03  0.7818609E-02  0.9565933E-01
       -1   -1    0    0    0  501  0.00000000000E+00  0.00000000000E+00  0.24041285656E+03  0.24041285661E+03  0.50400001928E-02 0. -1.
        1   -1    0    0  501    0  0.00000000000E+00  0.00000000000E+00 -0.65876051775E+03  0.65876051777E+03  0.50400001928E-02 0.  1.
    10030    2    1    2    0    0  0.00000000000E+00  0.00000000000E+00 -0.41834766119E+03  0.89917337438E+03  0.79592587065E+03 0.  0.
        5    1    3    3  502    0  0.39395105313E+03  0.56073752751E+02 -0.20547671348E+03  0.44786657365E+03  0.46999998093E+01 0. -1.
       -5    1    3    3    0  502 -0.39395105313E+03 -0.56073752751E+02 -0.21287094771E+03  0.45130680073E+03  0.46999998093E+01 0.  1.
</event>
<event>
 5   0  0.2422031E-02  0.7669311E+03  0.7818609E-02  0.9609156E-01
        2   -1    0    0  501    0  0.00000000000E+00  0.00000000000E+00  0.89813256650E+03  0.89813256650E+03  0.25500000920E-02 0.  1.
       -2   -1    0    0    0  501  0.00000000000E+00  0.00000000000E+00 -0.16372398820E+03  0.16372398822E+03  0.25500000920E-02 0. -1.
    10030    2    1    2    0    0  0.00000000000E+00  0.00000000000E+00  0.73440857830E+03  0.10618565547E+04  0.76693114614E+03 0.  0.
        4    1    3    3  502    0 -0.14850908276E+03  0.31145973819E+03  0.13559831467E+03  0.37074335060E+03  0.12699999809E+01 0. -1.
       -4    1    3    3    0  502  0.14850908276E+03 -0.31145973819E+03  0.59881026363E+03  0.69111320412E+03  0.12699999809E+01 0.  1.
</event>
<event>
 5   0  0.2460312E-02  0.8002818E+03  0.7818609E-02  0.9559609E-01
        2   -1    0    0  501    0  0.00000000000E+00  0.00000000000E+00  0.31690516093E+03  0.31690516094E+03  0.25500000920E-02 0.  1.
       -2   -1    0    0    0  501  0.00000000000E+00  0.00000000000E+00 -0.50523862915E+03  0.50523862915E+03  0.25500000920E-02 0. -1.
    10030    2    1    2    0    0  0.00000000000E+00  0.00000000000E+00 -0.18833346822E+03  0.82214379009E+03  0.80028177309E+03 0.  0.
        2    1    3    3  502    0  0.22190691175E+03 -0.13735917816E+03  0.21743845964E+03  0.33969060194E+03  0.25500000920E-02 0.  1.
       -2    1    3    3    0  502 -0.22190691175E+03  0.13735917816E+03 -0.40577192786E+03  0.48245318815E+03  0.25500000920E-02 0. -1.
</event>
<event>
 5   0  0.1509629E-02  0.7922547E+03  0.7818609E-02  0.9571296E-01
        1   -1    0    0  501    0  0.00000000000E+00  0.00000000000E+00  0.95831957365E+03  0.95831957367E+03  0.50400001928E-02 0. -1.
       -1   -1    0    0    0  501  0.00000000000E+00  0.00000000000E+00 -0.16374168837E+03  0.16374168845E+03  0.50400001928E-02 0.  1.
    10030    2    1    2    0    0  0.00000000000E+00  0.00000000000E+00  0.79457788528E+03  0.11220612621E+04  0.79225466876E+03 0.  0.
        5    1    3    3  502    0  0.18656722775E+03  0.28864766341E+02  0.89046306719E+03  0.91026758111E+03  0.46999998093E+01 0. -1.
       -5    1    3    3    0  502 -0.18656722775E+03 -0.28864766341E+02 -0.95885181903E+02  0.21179368100E+03  0.46999998093E+01 0.  1.
</event>
<event>
 5   0  0.1523811E-02  0.7970691E+03  0.7818609E-02  0.9564269E-01
       -1   -1    0    0    0  501  0.00000000000E+00  0.00000000000E+00  0.19058153475E+03  0.19058153482E+03  0.50400001928E-02 0.  1.
        1   -1    0    0  501    0  0.00000000000E+00  0.00000000000E+00 -0.83339552462E+03  0.83339552464E+03  0.50400001928E-02 0. -1.
    10030    2    1    2    0    0  0.00000000000E+00  0.00000000000E+00 -0.64281398987E+03  0.10239770595E+04  0.79706912669E+03 0.  0.
        1    1    3    3  502    0  0.24301753009E+03  0.18988612300E+02  0.83647087177E+02  0.25771092826E+03  0.50400001928E-02 0.  1.
       -1    1    3    3    0  502 -0.24301753009E+03 -0.18988612300E+02 -0.72646107705E+03  0.76626613120E+03  0.50400001928E-02 0. -1.
</event>
<event>
 5   0  0.2464780E-02  0.8998993E+03  0.7818609E-02  0.9425707E-01
       -2   -1    0    0    0  501  0.00000000000E+00  0.00000000000E+00  0.52558414049E+03  0.52558414049E+03  0.25500000920E-02 0.  1.
        2   -1    0    0  501    0  0.00000000000E+00  0.00000000000E+00 -0.38519936030E+03  0.38519936031E+03  0.25500000920E-02 0. -1.
    10030    2    1    2    0    0  0.00000000000E+00  0.00000000000E+00  0.14038478019E+03  0.91078350080E+03  0.89989927149E+03 0.  0.
        3    1    3    3  502    0  0.27987579252E+02 -0.38755316824E+03  0.29981507928E+03  0.49078493739E+03  0.10100000352E+00 0.  1.
       -3    1    3    3    0  502 -0.27987579252E+02  0.38755316824E+03 -0.15943029909E+03  0.41999856342E+03  0.10100000352E+00 0. -1.
</event>
<event>
 5   0  0.2422031E-02  0.8099412E+03  0.7818609E-02  0.9545738E-01
       -2   -1    0    0    0  501  0.00000000000E+00  0.00000000000E+00  0.15737107222E+03  0.15737107224E+03  0.25500000920E-02 0.  1.
        2   -1    0    0  501    0  0.00000000000E+00  0.00000000000E+00 -0.10421305810E+04  0.10421305810E+04  0.25500000920E-02 0. -1.
    10030    2    1    2    0    0  0.00000000000E+00  0.00000000000E+00 -0.88475950875E+03  0.11995016532E+04  0.80994124957E+03 0.  0.
        4    1    3    3  502    0 -0.13721271783E+03 -0.23632690490E+03  0.23532688170E+00  0.27327532672E+03  0.12699999809E+01 0.  1.
       -4    1    3    3    0  502  0.13721271783E+03  0.23632690490E+03 -0.88499483564E+03  0.92622632651E+03  0.12699999809E+01 0. -1.
</event>
<event>
 5   0  0.2422031E-02  0.7991447E+03  0.7818609E-02  0.9561256E-01
       -2   -1    0    0    0  501  0.00000000000E+00  0.00000000000E+00  0.29635857403E+03  0.29635857404E+03  0.25500000920E-02 0.  1.
        2   -1    0    0  501    0  0.00000000000E+00  0.00000000000E+00 -0.53873267256E+03  0.53873267256E+03  0.25500000920E-02 0. -1.
    10030    2    1    2    0    0  0.00000000000E+00  0.00000000000E+00 -0.24237409853E+03  0.83509124660E+03  0.79914465932E+03 0.  0.
        4    1    3    3  502    0 -0.43716145852E+02 -0.24320044723E+03  0.20694187099E+03  0.32231057974E+03  0.12699999809E+01 0.  1.
       -4    1    3    3    0  502  0.43716145852E+02  0.24320044723E+03 -0.44931596953E+03  0.51278066687E+03  0.12699999809E+01 0. -1.
</event>
<event>
 5   0  0.1624094E-02  0.8258188E+03  0.7818609E-02  0.9523379E-01
       -1   -1    0    0    0  501  0.00000000000E+00  0.00000000000E+00  0.13129485572E+03  0.13129485581E+03  0.50400001928E-02 0. -1.
        1   -1    0    0  501    0  0.00000000000E+00  0.00000000000E+00 -0.12985593558E+04  0.12985593558E+04  0.50400001928E-02 0.  1.
    10030    2    1    2    0    0  0.00000000000E+00  0.00000000000E+00 -0.11672645001E+04  0.14298542117E+04  0.82581877756E+03 0.  0.
        3    1    3    3  502    0  0.16396451871E+03  0.34055910869E+03 -0.87143292922E+03  0.94987379701E+03  0.10100000352E+00 0. -1.
       -3    1    3    3    0  502 -0.16396451871E+03 -0.34055910869E+03 -0.29583157090E+03  0.47998041465E+03  0.10100000352E+00 0.  1.
</event>
<event>
 5   0  0.1624094E-02  0.7964478E+03  0.7818609E-02  0.9565173E-01
       -1   -1    0    0    0  501  0.00000000000E+00  0.00000000000E+00  0.18205750108E+03  0.18205750115E+03  0.50400001928E-02 0.  1.
        1   -1    0    0  501    0  0.00000000000E+00  0.00000000000E+00 -0.87105607875E+03  0.87105607877E+03  0.50400001928E-02 0. -1.
    10030    2    1    2    0    0  0.00000000000E+00  0.00000000000E+00 -0.68899857767E+03  0.10531135799E+04  0.79644784649E+03 0.  0.
        3    1    3    3  502    0  0.36128514331E+03 -0.11794989874E+03 -0.50174939090E+03  0.62943752261E+03  0.10100000352E+00 0. -1.
       -3    1    3    3    0  502 -0.36128514331E+03  0.11794989874E+03 -0.18724918677E+03  0.42367605731E+03  0.10100000352E+00 0.  1.
</event>
<event>
 5   0  0.1523811E-02  0.8271585E+03  0.7818609E-02  0.9521517E-01
       -1   -1    0    0    0  501  0.00000000000E+00  0.00000000000E+00  0.19504132625E+03  0.19504132631E+03  0.50400001928E-02 0.  1.
        1   -1    0    0  501    0  0.00000000000E+00  0.00000000000E+00 -0.87698222754E+03  0.87698222755E+03  0.50400001928E-02 0. -1.
    10030    2    1    2    0    0  0.00000000000E+00  0.00000000000E+00 -0.68194090129E+03  0.10720235539E+04  0.82715845349E+03 0.  0.
        1    1    3    3  502    0 -0.12159825753E+02 -0.30267552556E+03 -0.70590738322E+03  0.76815725528E+03  0.50400001928E-02 0. -1.
       -1    1    3    3    0  502  0.12159825753E+02  0.30267552556E+03  0.23966481924E+02  0.30386629858E+03  0.50400001928E-02 0.  1.
</event>
<event>
 5   0  0.9919125E-03  0.7993301E+03  0.7818609E-02  0.9560987E-01
        4   -1    0    0  501    0  0.00000000000E+00  0.00000000000E+00  0.24141286819E+03  0.24141620871E+03  0.12699999809E+01 0. -1.
       -4   -1    0    0    0  501  0.00000000000E+00  0.00000000000E+00 -0.66164689496E+03  0.66164811381E+03  0.12699999809E+01 0.  1.
    10030    2    1    2    0    0  0.00000000000E+00  0.00000000000E+00 -0.42023402677E+03  0.90306432252E+03  0.79933005282E+03 0.  0.
        1    1    3    3  502    0 -0.20002234795E+03  0.24490348906E+02  0.17981699435E+03  0.27007937417E+03  0.50400001928E-02 0. -1.
       -1    1    3    3    0  502  0.20002234795E+03 -0.24490348906E+02 -0.60005102112E+03  0.63298494835E+03  0.50400001928E-02 0.  1.
</event>
<event>
 5   0  0.2464780E-02  0.8132620E+03  0.7818609E-02  0.9541017E-01
       -2   -1    0    0    0  501  0.00000000000E+00  0.00000000000E+00  0.11851622051E+03  0.11851622054E+03  0.25500000920E-02 0.  1.
        2   -1    0    0  501    0  0.00000000000E+00  0.00000000000E+00 -0.13951574007E+04  0.13951574007E+04  0.25500000920E-02 0. -1.
    10030    2    1    2    0    0  0.00000000000E+00  0.00000000000E+00 -0.12766411802E+04  0.15136736212E+04  0.81326202954E+03 0.  0.
        3    1    3    3  502    0 -0.34356806093E+03 -0.18314872000E+03 -0.85669937916E+03  0.94101875783E+03  0.10100000352E+00 0. -1.
       -3    1    3    3    0  502  0.34356806093E+03  0.18314872000E+03 -0.41994180102E+03  0.57265486340E+03  0.10100000352E+00 0.  1.
</event>
<event>
 5   0  0.2464780E-02  0.7964696E+03  0.7818609E-02  0.9565141E-01
       -2   -1    0    0    0  501  0.00000000000E+00  0.00000000000E+00  0.32749419915E+03  0.32749419916E+03  0.25500000920E-02 0. -1.
        2   -1    0    0  501    0  0.00000000000E+00  0.00000000000E+00 -0.48425573232E+03  0.48425573233E+03  0.25500000920E-02 0.  1.
    10030    2    1    2    0    0  0.00000000000E+00  0.00000000000E+00 -0.15676153317E+03  0.81174993149E+03  0.79646956815E+03 0.  0.
        3    1    3    3  502    0  0.13772266171E+03 -0.32894864656E+03  0.10226584812E+03  0.37098929568E+03  0.10100000352E+00 0. -1.
       -3    1    3    3    0  502 -0.13772266171E+03  0.32894864656E+03 -0.25902738128E+03  0.44076063581E+03  0.10100000352E+00 0.  1.
</event>
<event>
 5   0  0.9919125E-03  0.7897914E+03  0.7818609E-02  0.9574912E-01
        3   -1    0    0  501    0  0.00000000000E+00  0.00000000000E+00  0.86236334063E+03  0.86236334654E+03  0.10100000352E+00 0. -1.
       -3   -1    0    0    0  501  0.00000000000E+00  0.00000000000E+00 -0.18083166836E+03  0.18083169657E+03  0.10100000352E+00 0.  1.
    10030    2    1    2    0    0  0.00000000000E+00  0.00000000000E+00  0.68153167227E+03  0.10431950431E+04  0.78979141402E+03 0.  0.
        5    1    3    3  502    0 -0.28993884184E+03 -0.98984519481E+02  0.11723172459E+02  0.30663005377E+03  0.46999998093E+01 0.  1.
       -5    1    3    3    0  502  0.28993884184E+03  0.98984519481E+02  0.66980849981E+03  0.73656498934E+03  0.46999998093E+01 0. -1.
</event>
<event>
 5   0  0.1624094E-02  0.8634386E+03  0.7818609E-02  0.9472476E-01
       -1   -1    0    0    0  501  0.00000000000E+00  0.00000000000E+00  0.24857183930E+03  0.24857183935E+03  0.50400001928E-02 0. -1.
        1   -1    0    0  501    0  0.00000000000E+00  0.00000000000E+00 -0.74980962587E+03  0.74980962589E+03  0.50400001928E-02 0.  1.
    10030    2    1    2    0    0  0.00000000000E+00  0.00000000000E+00 -0.50123778657E+03  0.99838146523E+03  0.86343860895E+03 0.  0.
        3    1    3    3  502    0 -0.20840419166E+01 -0.22919071203E+03 -0.67365001804E+03  0.71157366640E+03  0.10100000352E+00 0.  1.
       -3    1    3    3    0  502  0.20840419166E+01  0.22919071203E+03  0.17241223147E+03  0.28680779883E+03  0.10100000352E+00 0. -1.
</event>
<event>
 5   0  0.2460312E-02  0.8114931E+03  0.7818609E-02  0.9543529E-01
       -2   -1    0    0    0  501  0.00000000000E+00  0.00000000000E+00  0.25097685802E+03  0.25097685803E+03  0.25500000920E-02 0.  1.
        2   -1    0    0  501    0  0.00000000000E+00  0.00000000000E+00 -0.65595791884E+03  0.65595791885E+03  0.25500000920E-02 0. -1.
    10030    2    1    2    0    0  0.00000000000E+00  0.00000000000E+00 -0.40498106082E+03  0.90693477688E+03  0.81149308678E+03 0.  0.
        2    1    3    3  502    0  0.18198380375E+03 -0.29069261533E+03  0.39827736157E+02  0.34526301570E+03  0.25500000920E-02 0.  1.
       -2    1    3    3    0  502 -0.18198380375E+03  0.29069261533E+03 -0.44480879698E+03  0.56167176118E+03  0.25500000920E-02 0. -1.
</event>
<event>
 5   0  0.2571778E-02  0.8227612E+03  0.7818609E-02  0.9527643E-01
       -2   -1    0    0    0  501  0.00000000000E+00  0.00000000000E+00  0.19598159263E+03  0.19598159264E+03  0.25500000920E-02 0.  1.
        2   -1    0    0  501    0  0.00000000000E+00  0.00000000000E+00 -0.86351982653E+03  0.86351982653E+03  0.25500000920E-02 0. -1.
    10030    2    1    2    0    0  0.00000000000E+00  0.00000000000E+00 -0.66753823390E+03  0.10595014192E+04  0.82276118256E+03 0.  0.
        1    1    3    3  502    0 -0.13415077309E+03  0.21401035017E+03  0.84373602079E+02  0.26630014017E+03  0.50400001928E-02 0.  1.
       -1    1    3    3    0  502  0.13415077309E+03 -0.21401035017E+03 -0.75191183598E+03  0.79320127900E+03  0.50400001928E-02 0. -1.
</event>
<event>
 5   0  0.2422031E-02  0.8032694E+03  0.7818609E-02  0.9555297E-01
        2   -1    0    0  501    0  0.00000000000E+00  0.00000000000E+00  0.96356866391E+03  0.96356866391E+03  0.25500000920E-02 0. -1.
       -2   -1    0    0    0  501  0.00000000000E+00  0.00000000000E+00 -0.16740938843E+03  0.16740938845E+03  0.25500000920E-02 0.  1.
    10030    2    1    2    0    0  0.00000000000E+00  0.00000000000E+00  0.79615927548E+03  0.11309780524E+04  0.80326942117E+03 0.  0.
        4    1    3    3  502    0  0.33480316559E+03  0.18645024550E+03  0.56734049261E+03  0.68464129381E+03  0.12699999809E+01 0.  1.
       -4    1    3    3    0  502 -0.33480316559E+03 -0.18645024550E+03  0.22881878288E+03  0.44633675855E+03  0.12699999809E+01 0. -1.
</event>
<event>
 5   0  0.9919125E-03  0.7914863E+03  0.7818609E-02  0.9572423E-01
       -3   -1    0    0    0  501  0.00000000000E+00  0.00000000000E+00  0.19979425463E+03  0.19979428016E+03  0.10100000352E+00 0.  1.
        3   -1    0    0  501    0  0.00000000000E+00  0.00000000000E+00 -0.78386956219E+03  0.78386956869E+03  0.10100000352E+00 0. -1.
    10030    2    1    2    0    0  0.00000000000E+00  0.00000000000E+00 -0.58407530755E+03  0.98366384885E+03  0.79148632499E+03 0.  0.
        5    1    3    3  502    0 -0.34076565673E+03  0.19797482728E+03 -0.33641984379E+03  0.51818497309E+03  0.46999998093E+01 0.  1.
       -5    1    3    3    0  502  0.34076565673E+03 -0.19797482728E+03 -0.24765546376E+03  0.46547887576E+03  0.46999998093E+01 0. -1.
</event>
<event>
 5   0  0.1509629E-02  0.8018125E+03  0.7818609E-02  0.9557397E-01
        1   -1    0    0  501    0  0.00000000000E+00  0.00000000000E+00  0.77066034894E+03  0.77066034896E+03  0.50400001928E-02 0.  1.
       -1   -1    0    0    0  501  0.00000000000E+00  0.00000000000E+00 -0.20855596750E+03  0.20855596757E+03  0.50400001928E-02 0. -1.
    10030    2    1    2    0    0  0.00000000000E+00  0.00000000000E+00  0.56210438144E+03  0.97921631652E+03  0.80181248364E+03 0.  0.
        5    1    3    3  502    0 -0.27751022459E+03 -0.32085463465E+02  0.63217547554E+03  0.69116519269E+03  0.46999998093E+01 0.  1.
       -5    1    3    3    0  502  0.27751022459E+03  0.32085463465E+02 -0.70071094101E+02  0.28805112383E+03  0.46999998093E+01 0. -1.
</event>
<event>
 5   0  0.2571778E-02  0.8012026E+03  0.7818609E-02  0.9558278E-01
       -2   -1    0    0    0  501  0.00000000000E+00  0.00000000000E+00  0.65485836443E+02  0.65485836493E+02  0.25500000920E-02 0.  1.
        2   -1    0    0  501    0  0.00000000000E+00  0.00000000000E+00 -0.24506278562E+04  0.24506278562E+04  0.25500000920E-02 0. -1.
    10030    2    1    2    0    0  0.00000000000E+00  0.00000000000E+00 -0.23851420197E+04  0.25161136927E+04  0.80120263364E+03 0.  0.
        1    1    3    3  502    0 -0.87872585809E+02  0.18247151442E+03 -0.10712965331E+03  0.22911614425E+03  0.50400001928E-02 0.  1.
       -1    1    3    3    0  502  0.87872585809E+02 -0.18247151442E+03 -0.22780123664E+04  0.22869975484E+04  0.50400001928E-02 0. -1.
</event>
<event>
 5   0  0.2464780E-02  0.6117529E+03  0.7818609E-02  0.9881318E-01
        2   -1    0    0  501    0  0.00000000000E+00  0.00000000000E+00  0.91577808600E+03  0.91577808600E+03  0.25500000920E-02 0.  1.
       -2   -1    0    0    0  501  0.00000000000E+00  0.00000000000E+00 -0.10216492210E+03  0.10216492213E+03  0.25500000920E-02 0. -1.
    10030    2    1    2    0    0  0.00000000000E+00  0.00000000000E+00  0.81361316389E+03  0.10179430081E+04  0.61175288094E+03 0.  0.
        3    1    3    3  502    0 -0.27567198637E+03 -0.11535346295E+03  0.51539843405E+03  0.59576591167E+03  0.10100000352E+00 0.  1.
       -3    1    3    3    0  502  0.27567198637E+03  0.11535346295E+03  0.29821472984E+03  0.42217709646E+03  0.10100000352E+00 0. -1.
</event>
<event>
 5   0  0.1498375E-02  0.8078904E+03  0.7818609E-02  0.9548666E-01
        1   -1    0    0  501    0  0.00000000000E+00  0.00000000000E+00  0.41727398487E+03  0.41727398490E+03  0.50400001928E-02 0. -1.
       -1   -1    0    0    0  501  0.00000000000E+00  0.00000000000E+00 -0.39104212586E+03  0.39104212589E+03  0.50400001928E-02 0.  1.
    10030    2    1    2    0    0  0.00000000000E+00  0.00000000000E+00  0.26231859013E+02  0.80831611080E+03  0.80789035428E+03 0.  0.
        4    1    3    3  502    0 -0.34474700198E+03 -0.61505079970E+02  0.21455937019E+03  0.41069539378E+03  0.12699999809E+01 0. -1.
       -4    1    3    3    0  502  0.34474700198E+03  0.61505079970E+02 -0.18832751117E+03  0.39762071702E+03  0.12699999809E+01 0.  1.
</event>
<event>
 5   0  0.2454354E-02  0.7992366E+03  0.7818609E-02  0.9561123E-01
       -2   -1    0    0    0  501  0.00000000000E+00  0.00000000000E+00  0.77679761087E+02  0.77679761129E+02  0.25500000920E-02 0.  1.
        2   -1    0    0  501    0  0.00000000000E+00  0.00000000000E+00 -0.20558093717E+04  0.20558093717E+04  0.25500000920E-02 0. -1.
    10030    2    1    2    0    0  0.00000000000E+00  0.00000000000E+00 -0.19781296106E+04  0.21334891328E+04  0.79923658795E+03 0.  0.
        5    1    3    3  502    0  0.30941443578E+03 -0.14769517244E+03 -0.15369217445E+04  0.15747068602E+04  0.46999998093E+01 0. -1.
       -5    1    3    3    0  502 -0.30941443578E+03  0.14769517244E+03 -0.44120786616E+03  0.55878227261E+03  0.46999998093E+01 0.  1.
</event>
<event>
 5   0  0.2460312E-02  0.7856119E+03  0.7818609E-02  0.9581080E-01
        2   -1    0    0  501    0  0.00000000000E+00  0.00000000000E+00  0.35601456569E+03  0.35601456570E+03  0.25500000920E-02 0.  1.
       -2   -1    0    0    0  501  0.00000000000E+00  0.00000000000E+00 -0.43339942196E+03  0.43339942196E+03  0.25500000920E-02 0. -1.
    10030    2    1    2    0    0  0.00000000000E+00  0.00000000000E+00 -0.77384856269E+02  0.78941398766E+03  0.78561188123E+03 0.  0.
        2    1    3    3  502    0 -0.15884214335E+03  0.23345989931E+03  0.23568981540E+03  0.36780978804E+03  0.25500000920E-02 0.  1.
       -2    1    3    3    0  502  0.15884214335E+03 -0.23345989931E+03 -0.31307467166E+03  0.42160419962E+03  0.25500000920E-02 0. -1.
</event>
<event>
 5   0  0.2460312E-02  0.7979405E+03  0.7818609E-02  0.9563003E-01
        2   -1    0    0  501    0  0.00000000000E+00  0.00000000000E+00  0.65445985608E+03  0.65445985608E+03  0.25500000920E-02 0.  1.
       -2   -1    0    0    0  501  0.00000000000E+00  0.00000000000E+00 -0.24321929840E+03  0.24321929842E+03  0.25500000920E-02 0. -1.
    10030    2    1    2    0    0  0.00000000000E+00  0.00000000000E+00  0.41124055767E+03  0.89767915450E+03  0.79794051667E+03 0.  0.
        2    1    3    3  502    0  0.24796663411E+03  0.83653678622E+02  0.54441358339E+03  0.60404597455E+03  0.25500000920E-02 0.  1.
       -2    1    3    3    0  502 -0.24796663411E+03 -0.83653678622E+02 -0.13317302572E+03  0.29363317995E+03  0.25500000920E-02 0. -1.
</event>
<event>
 5   0  0.1624094E-02  0.8093682E+03  0.7818609E-02  0.9546555E-01
        1   -1    0    0  501    0  0.00000000000E+00  0.00000000000E+00  0.84687314669E+03  0.84687314670E+03  0.50400001928E-02 0. -1.
       -1   -1    0    0    0  501  0.00000000000E+00  0.00000000000E+00 -0.19338105214E+03  0.19338105221E+03  0.50400001928E-02 0.  1.
    10030    2    1    2    0    0  0.00000000000E+00  0.00000000000E+00  0.65349209455E+03  0.10402541989E+04  0.80936819849E+03 0.  0.
        3    1    3    3  502    0 -0.12112130332E+03 -0.10597991495E+03  0.80397156472E+03  0.81992219117E+03  0.10100000352E+00 0. -1.
       -3    1    3    3    0  502  0.12112130332E+03  0.10597991495E+03 -0.15047947017E+03  0.22033200774E+03  0.10100000352E+00 0.  1.
</event>
<event>
 5   0  0.1471290E-02  0.7968633E+03  0.7818609E-02  0.9564568E-01
        1   -1    0    0  501    0  0.00000000000E+00  0.00000000000E+00  0.28552509764E+03  0.28552509768E+03  0.50400001928E-02 0.  1.
       -1   -1    0    0    0  501  0.00000000000E+00  0.00000000000E+00 -0.55598543181E+03  0.55598543183E+03  0.50400001928E-02 0. -1.
    10030    2    1    2    0    0  0.00000000000E+00  0.00000000000E+00 -0.27046033417E+03  0.84151052952E+03  0.79686333767E+03 0.  0.
        2    1    3    3  502    0  0.13283609792E+02  0.22848610963E+03  0.20918000921E+03  0.31006230477E+03  0.25500000920E-02 0.  1.
       -2    1    3    3    0  502 -0.13283609792E+02 -0.22848610963E+03 -0.47964034338E+03  0.53144822474E+03  0.25500000920E-02 0. -1.
</event>
<event>
 5   0  0.2571778E-02  0.8055907E+03  0.7818609E-02  0.9551960E-01
       -2   -1    0    0    0  501  0.00000000000E+00  0.00000000000E+00  0.34920301268E+03  0.34920301269E+03  0.25500000920E-02 0.  1.
        2   -1    0    0  501    0  0.00000000000E+00  0.00000000000E+00 -0.46461256044E+03  0.46461256045E+03  0.25500000920E-02 0. -1.
    10030    2    1    2    0    0  0.00000000000E+00  0.00000000000E+00 -0.11540954776E+03  0.81381557314E+03  0.80559072945E+03 0.  0.
        1    1    3    3  502    0 -0.58039190114E+02 -0.35859926814E+03 -0.23349903646E+03  0.43183768102E+03  0.50400001928E-02 0. -1.
       -1    1    3    3    0  502  0.58039190114E+02  0.35859926814E+03  0.11808948870E+03  0.38197789212E+03  0.50400001928E-02 0.  1.
</event>
<event>
 5   0  0.9919125E-03  0.7972926E+03  0.7818609E-02  0.9563944E-01
       -4   -1    0    0    0  501  0.00000000000E+00  0.00000000000E+00  0.40286908472E+03  0.40287108648E+03  0.12699999809E+01 0.  1.
        4   -1    0    0  501    0  0.00000000000E+00  0.00000000000E+00 -0.39446379281E+03  0.39446583722E+03  0.12699999809E+01 0. -1.
    10030    2    1    2    0    0  0.00000000000E+00  0.00000000000E+00  0.84052919127E+01  0.79733692371E+03  0.79729261942E+03 0.  0.
        4    1    3    3  502    0 -0.38100355060E+03 -0.47888936883E+02 -0.10285568015E+03  0.39753988439E+03  0.12699999809E+01 0. -1.
       -4    1    3    3    0  502  0.38100355060E+03  0.47888936883E+02  0.11126097206E+03  0.39979703932E+03  0.12699999809E+01 0.  1.
</event>
<event>
 5   0  0.1509629E-02  0.6784205E+03  0.7818609E-02  0.9754865E-01
       -1   -1    0    0    0  501  0.00000000000E+00  0.00000000000E+00  0.76364634204E+02  0.76364634370E+02  0.50400001928E-02 0. -1.
        1   -1    0    0  501    0  0.00000000000E+00  0.00000000000E+00 -0.15067656503E+04  0.15067656503E+04  0.50400001928E-02 0.  1.
    10030    2    1    2    0    0  0.00000000000E+00  0.00000000000E+00 -0.14304010161E+04  0.15831302847E+04  0.67842054171E+03 0.  0.
        5    1    3    3  502    0 -0.29628047581E+03  0.10098641203E+03 -0.41039576723E+03  0.51616581785E+03  0.46999998093E+01 0. -1.
       -5    1    3    3    0  502  0.29628047581E+03 -0.10098641203E+03 -0.10200052488E+04  0.10669644668E+04  0.46999998093E+01 0.  1.
</event>
<event>
 5   0  0.2454354E-02  0.8524298E+03  0.7818609E-02  0.9487082E-01
        2   -1    0    0  501    0  0.00000000000E+00  0.00000000000E+00  0.16712306648E+03  0.16712306650E+03  0.25500000920E-02 0. -1.
       -2   -1    0    0    0  501  0.00000000000E+00  0.00000000000E+00 -0.10869782405E+04  0.10869782405E+04  0.25500000920E-02 0.  1.
    10030    2    1    2    0    0  0.00000000000E+00  0.00000000000E+00 -0.91985517400E+03  0.12541013070E+04  0.85242979010E+03 0.  0.
        5    1    3    3  502    0 -0.99699484898E+02  0.37203814327E+03 -0.72833604125E+03  0.82392223318E+03  0.46999998093E+01 0. -1.
       -5    1    3    3    0  502  0.99699484898E+02 -0.37203814327E+03 -0.19151913275E+03  0.43017907381E+03  0.46999998093E+01 0.  1.
</event>
<event>
 5   0  0.9919125E-03  0.8051888E+03  0.7818609E-02  0.9552537E-01
        4   -1    0    0  501    0  0.00000000000E+00  0.00000000000E+00  0.36407003502E+03  0.36407225011E+03  0.12699999809E+01 0.  1.
       -4   -1    0    0    0  501  0.00000000000E+00  0.00000000000E+00 -0.44519072360E+03  0.44519253507E+03  0.12699999809E+01 0. -1.
    10030    2    1    2    0    0  0.00000000000E+00  0.00000000000E+00 -0.81120688577E+02  0.80926478518E+03  0.80518875204E+03 0.  0.
        1    1    3    3  502    0  0.28979506484E+03 -0.26511559025E+03  0.48288381543E+02  0.39572619779E+03  0.50400001928E-02 0.  1.
       -1    1    3    3    0  502 -0.28979506484E+03  0.26511559025E+03 -0.12940907012E+03  0.41353858739E+03  0.50400001928E-02 0. -1.
</event>
<event>
 5   0  0.1624094E-02  0.7706658E+03  0.7818609E-02  0.9603475E-01
       -1   -1    0    0    0  501  0.00000000000E+00  0.00000000000E+00  0.28341685301E+03  0.28341685306E+03  0.50400001928E-02 0. -1.
        1   -1    0    0  501    0  0.00000000000E+00  0.00000000000E+00 -0.52389767284E+03  0.52389767286E+03  0.50400001928E-02 0.  1.
    10030    2    1    2    0    0  0.00000000000E+00  0.00000000000E+00 -0.24048081982E+03  0.80731452592E+03  0.77066576352E+03 0.  0.
        3    1    3    3  502    0 -0.13437479766E+03 -0.18636214360E+03  0.20381480911E+03  0.30712850963E+03  0.10100000352E+00 0. -1.
       -3    1    3    3    0  502  0.13437479766E+03  0.18636214360E+03 -0.44429562893E+03  0.50018601630E+03  0.10100000352E+00 0.  1.
</event>
<event>
 5   0  0.1624094E-02  0.8112297E+03  0.7818609E-02  0.9543903E-01
       -1   -1    0    0    0  501  0.00000000000E+00  0.00000000000E+00  0.23814252354E+03  0.23814252359E+03  0.50400001928E-02 0.  1.
        1   -1    0    0  501    0  0.00000000000E+00  0.00000000000E+00 -0.69086107730E+03  0.69086107732E+03  0.50400001928E-02 0. -1.
    10030    2    1    2    0    0  0.00000000000E+00  0.00000000000E+00 -0.45271855376E+03  0.92900360091E+03  0.81122968485E+03 0.  0.
        3    1    3    3  502    0 -0.11308159522E+03  0.17207777992E+02 -0.67200898627E+03  0.68167414696E+03  0.10100000352E+00 0. -1.
       -3    1    3    3    0  502  0.11308159522E+03 -0.17207777992E+02  0.21929043251E+03  0.24732945395E+03  0.10100000352E+00 0.  1.
</event>
<event>
 5   0  0.2460312E-02  0.7985739E+03  0.7818609E-02  0.9562084E-01
        2   -1    0    0  501    0  0.00000000000E+00  0.00000000000E+00  0.20858262437E+04  0.20858262437E+04  0.25500000920E-02 0. -1.
       -2   -1    0    0    0  501  0.00000000000E+00  0.00000000000E+00 -0.76434968810E+02  0.76434968852E+02  0.25500000920E-02 0.  1.
    10030    2    1    2    0    0  0.00000000000E+00  0.00000000000E+00  0.20093912749E+04  0.21622612125E+04  0.79857388870E+03 0.  0.
        2    1    3    3  502    0 -0.10266931102E+03 -0.63704657303E+02 -0.25746255051E+02  0.12354003579E+03  0.25500000920E-02 0.  1.
       -2    1    3    3    0  502  0.10266931102E+03  0.63704657303E+02  0.20351375299E+04  0.20387211768E+04  0.25500000920E-02 0. -1.
</event>
<event>
 5   0  0.2571778E-02  0.7902149E+03  0.7818609E-02  0.9574290E-01
        2   -1    0    0  501    0  0.00000000000E+00  0.00000000000E+00  0.26218704682E+03  0.26218704683E+03  0.25500000920E-02 0. -1.
       -2   -1    0    0    0  501  0.00000000000E+00  0.00000000000E+00 -0.59541426092E+03  0.59541426093E+03  0.25500000920E-02 0.  1.
    10030    2    1    2    0    0  0.00000000000E+00  0.00000000000E+00 -0.33322721410E+03  0.85760130776E+03  0.79021492447E+03 0.  0.
        1    1    3    3  502    0  0.37221241206E+03  0.59916934813E+02 -0.38303924567E+02  0.37894499525E+03  0.50400001928E-02 0. -1.
       -1    1    3    3    0  502 -0.37221241206E+03 -0.59916934813E+02 -0.29492328954E+03  0.47865631251E+03  0.50400001928E-02 0.  1.
</event>
<event>
 5   0  0.1523811E-02  0.5752045E+03  0.7818609E-02  0.9958227E-01
       -1   -1    0    0    0  501  0.00000000000E+00  0.00000000000E+00  0.10025293822E+03  0.10025293835E+03  0.50400001928E-02 0.  1.
        1   -1    0    0  501    0  0.00000000000E+00  0.00000000000E+00 -0.82506364035E+03  0.82506364037E+03  0.50400001928E-02 0. -1.
    10030    2    1    2    0    0  0.00000000000E+00  0.00000000000E+00 -0.72481070213E+03  0.92531657871E+03  0.57520450009E+03 0.  0.
        1    1    3    3  502    0  0.86488389771E+02  0.10650353842E+02  0.78504553178E+02  0.11728868870E+03  0.50400001928E-02 0.  1.
       -1    1    3    3    0  502 -0.86488389771E+02 -0.10650353842E+02 -0.80331525531E+03  0.80802789001E+03  0.50400001928E-02 0. -1.
</event>
<event>
 5   0  0.2571778E-02  0.7979294E+03  0.7818609E-02  0.9563019E-01
        2   -1    0    0  501    0  0.00000000000E+00  0.00000000000E+00  0.43871543392E+03  0.43871543393E+03  0.25500000920E-02 0.  1.
       -2   -1    0    0    0  501  0.00000000000E+00  0.00000000000E+00 -0.36281564050E+03  0.36281564051E+03  0.25500000920E-02 0. -1.
    10030    2    1    2    0    0  0.00000000000E+00  0.00000000000E+00  0.75899793422E+02  0.80153107443E+03  0.79792937322E+03 0.  0.
        1    1    3    3  502    0  0.34218910132E+03 -0.20468829948E+03  0.51506744968E+02  0.40204928281E+03  0.50400001928E-02 0. -1.
       -1    1    3    3    0  502 -0.34218910132E+03  0.20468829948E+03  0.24393048454E+02  0.39948179163E+03  0.50400001928E-02 0.  1.
</event>
<event>
 5   0  0.2571778E-02  0.7982356E+03  0.7818609E-02  0.9562574E-01
       -2   -1    0    0    0  501  0.00000000000E+00  0.00000000000E+00  0.17791696619E+03  0.17791696621E+03  0.25500000920E-02 0.  1.
        2   -1    0    0  501    0  0.00000000000E+00  0.00000000000E+00 -0.89533352803E+03  0.89533352804E+03  0.25500000920E-02 0. -1.
    10030    2    1    2    0    0  0.00000000000E+00  0.00000000000E+00 -0.71741656184E+03  0.10732504942E+04  0.79823561696E+03 0.  0.
        1    1    3    3  502    0  0.39081673259E+03 -0.10193659640E+02 -0.46671832616E+03  0.60882479020E+03  0.50400001928E-02 0.  1.
       -1    1    3    3    0  502 -0.39081673259E+03  0.10193659640E+02 -0.25069823569E+03  0.46442570404E+03  0.50400001928E-02 0. -1.
</event>
<event>
 5   0  0.2454354E-02  0.8424855E+03  0.7818609E-02  0.9500479E-01
       -2   -1    0    0    0  501  0.00000000000E+00  0.00000000000E+00  0.39929773242E+03  0.39929773243E+03  0.25500000920E-02 0.  1.
        2   -1    0    0  501    0  0.00000000000E+00  0.00000000000E+00 -0.44439381762E+03  0.44439381763E+03  0.25500000920E-02 0. -1.
    10030    2    1    2    0    0  0.00000000000E+00  0.00000000000E+00 -0.45096085196E+02  0.84369155006E+03  0.84248547450E+03 0.  0.
        5    1    3    3  502    0  0.36351971090E+03  0.19724352332E+03 -0.10248565752E+03  0.42611851368E+03  0.46999998093E+01 0. -1.
       -5    1    3    3    0  502 -0.36351971090E+03 -0.19724352332E+03  0.57389572324E+02  0.41757303638E+03  0.46999998093E+01 0.  1.
</event>
<event>
 5   0  0.2464780E-02  0.8133569E+03  0.7818609E-02  0.9540882E-01
        2   -1    0    0  501    0  0.00000000000E+00  0.00000000000E+00  0.31227714988E+03  0.31227714989E+03  0.25500000920E-02 0.  1.
       -2   -1    0    0    0  501  0.00000000000E+00  0.00000000000E+00 -0.52961724512E+03  0.52961724513E+03  0.25500000920E-02 0. -1.
    10030    2    1    2    0    0  0.00000000000E+00  0.00000000000E+00 -0.21734009525E+03  0.84189439502E+03  0.81335690527E+03 0.  0.
        3    1    3    3  502    0  0.14930522206E+03  0.21578077093E+03  0.21293031392E+03  0.33792413235E+03  0.10100000352E+00 0.  1.
       -3    1    3    3    0  502 -0.14930522206E+03 -0.21578077093E+03 -0.43027040917E+03  0.50397026266E+03  0.10100000352E+00 0. -1.
</event>
<event>
 5   0  0.1498375E-02  0.8023115E+03  0.7818609E-02  0.9556677E-01
        1   -1    0    0  501    0  0.00000000000E+00  0.00000000000E+00  0.93233791468E+03  0.93233791470E+03  0.50400001928E-02 0. -1.
       -1   -1    0    0    0  501  0.00000000000E+00  0.00000000000E+00 -0.17260473627E+03  0.17260473634E+03  0.50400001928E-02 0.  1.
    10030    2    1    2    0    0  0.00000000000E+00  0.00000000000E+00  0.75973317841E+03  0.11049426510E+04  0.80231151039E+03 0.  0.
        4    1    3    3  502    0 -0.10167921813E+03 -0.13348737335E+03  0.88167904145E+03  0.89750603746E+03  0.12699999809E+01 0. -1.
       -4    1    3    3    0  502  0.10167921813E+03  0.13348737335E+03 -0.12194586303E+03  0.20743661358E+03  0.12699999809E+01 0.  1.
</event>
<event>
 5   0  0.1523811E-02  0.8063856E+03  0.7818609E-02  0.9550820E-01
       -1   -1    0    0    0  501  0.00000000000E+00  0.00000000000E+00  0.18251234659E+03  0.18251234666E+03  0.50400001928E-02 0. -1.
        1   -1    0    0  501    0  0.00000000000E+00  0.00000000000E+00 -0.89070365951E+03  0.89070365953E+03  0.50400001928E-02 0.  1.
    10030    2    1    2    0    0  0.00000000000E+00  0.00000000000E+00 -0.70819131293E+03  0.10732160062E+04  0.80638555309E+03 0.  0.
        1    1    3    3  502    0  0.31494498181E+03  0.35571571713E+02 -0.68577677607E+03  0.75547697841E+03  0.50400001928E-02 0.  1.
       -1    1    3    3    0  502 -0.31494498181E+03 -0.35571571713E+02 -0.22414536855E+02  0.31773902778E+03  0.50400001928E-02 0. -1.
</event>
<event>
 5   0  0.1523811E-02  0.8042949E+03  0.7818609E-02  0.9553821E-01
        1   -1    0    0  501    0  0.00000000000E+00  0.00000000000E+00  0.99025287505E+03  0.99025287507E+03  0.50400001928E-02 0. -1.
       -1   -1    0    0    0  501  0.00000000000E+00  0.00000000000E+00 -0.16331441304E+03  0.16331441312E+03  0.50400001928E-02 0.  1.
    10030    2    1    2    0    0  0.00000000000E+00  0.00000000000E+00  0.82693846201E+03  0.11535672882E+04  0.80429488897E+03 0.  0.
        1    1    3    3  502    0  0.10642377096E+03 -0.36753593142E+03  0.23598067965E+03  0.44955039885E+03  0.50400001928E-02 0.  1.
       -1    1    3    3    0  502 -0.10642377096E+03  0.36753593142E+03  0.59095778236E+03  0.70401688934E+03  0.50400001928E-02 0. -1.
</event>
<event>
 5   0  0.2454354E-02  0.8022075E+03  0.7818609E-02  0.9556827E-01
        2   -1    0    0  501    0  0.00000000000E+00  0.00000000000E+00  0.42323242529E+03  0.42323242530E+03  0.25500000920E-02 0.  1.
       -2   -1    0    0    0  501  0.00000000000E+00  0.00000000000E+00 -0.38013208562E+03  0.38013208563E+03  0.25500000920E-02 0. -1.
    10030    2    1    2    0    0  0.00000000000E+00  0.00000000000E+00  0.43100339669E+02  0.80336451093E+03  0.80220751564E+03 0.  0.
        5    1    3    3  502    0 -0.33246520818E+03 -0.18275182238E+02 -0.20236801548E+03  0.38966909119E+03  0.46999998093E+01 0. -1.
       -5    1    3    3    0  502  0.33246520818E+03  0.18275182238E+02  0.24546835515E+03  0.41369541974E+03  0.46999998093E+01 0.  1.
</event>
<event>
 5   0  0.2571778E-02  0.8004198E+03  0.7818609E-02  0.9559410E-01
        2   -1    0    0  501    0  0.00000000000E+00  0.00000000000E+00  0.67968395455E+03  0.67968395455E+03  0.25500000920E-02 0.  1.
       -2   -1    0    0    0  501  0.00000000000E+00  0.00000000000E+00 -0.23565065288E+03  0.23565065289E+03  0.25500000920E-02 0. -1.
    10030    2    1    2    0    0  0.00000000000E+00  0.00000000000E+00  0.44403330167E+03  0.91533460745E+03  0.80041980898E+03 0.  0.
        1    1    3    3  502    0 -0.17943578365E+01 -0.34770851709E+03  0.44861500633E+03  0.56759127593E+03  0.50400001928E-02 0.  1.
       -1    1    3    3    0  502  0.17943578365E+01  0.34770851709E+03 -0.45817046662E+01  0.34774333152E+03  0.50400001928E-02 0. -1.
</event>
<event>
 5   0  0.1624094E-02  0.8020687E+03  0.7818609E-02  0.9557028E-01
       -1   -1    0    0    0  501  0.00000000000E+00  0.00000000000E+00  0.20234316284E+03  0.20234316291E+03  0.50400001928E-02 0.  1.
        1   -1    0    0  501    0  0.00000000000E+00  0.00000000000E+00 -0.79483056506E+03  0.79483056508E+03  0.50400001928E-02 0. -1.
    10030    2    1    2    0    0  0.00000000000E+00  0.00000000000E+00 -0.59248740221E+03  0.99717372798E+03  0.80206865167E+03 0.  0.
        3    1    3    3  502    0 -0.27731264197E+03 -0.81835559806E+01  0.63783047107E+02  0.28467096670E+03  0.10100000352E+00 0.  1.
       -3    1    3    3    0  502  0.27731264197E+03  0.81835559806E+01 -0.65627044932E+03  0.71250276128E+03  0.10100000352E+00 0. -1.
</event>
<event>
 5   0  0.1624094E-02  0.7840151E+03  0.7818609E-02  0.9583447E-01
        1   -1    0    0  501    0  0.00000000000E+00  0.00000000000E+00  0.13134416273E+04  0.13134416273E+04  0.50400001928E-02 0.  1.
       -1   -1    0    0    0  501  0.00000000000E+00  0.00000000000E+00 -0.11699790794E+03  0.11699790805E+03  0.50400001928E-02 0. -1.
    10030    2    1    2    0    0  0.00000000000E+00  0.00000000000E+00  0.11964437194E+04  0.14304395354E+04  0.78401510873E+03 0.  0.
        3    1    3    3  502    0 -0.28105693396E+03 -0.19884243143E+03  0.94023067395E+03  0.10012817002E+04  0.10100000352E+00 0.  1.
       -3    1    3    3    0  502  0.28105693396E+03  0.19884243143E+03  0.25621304543E+03  0.42915783520E+03  0.10100000352E+00 0. -1.
</event>
<event>
 5   0  0.2571778E-02  0.8105999E+03  0.7818609E-02  0.9544800E-01
       -2   -1    0    0    0  501  0.00000000000E+00  0.00000000000E+00  0.21420783050E+03  0.21420783052E+03  0.25500000920E-02 0.  1.
        2   -1    0    0  501    0  0.00000000000E+00  0.00000000000E+00 -0.76686298358E+03  0.76686298358E+03  0.25500000920E-02 0. -1.
    10030    2    1    2    0    0  0.00000000000E+00  0.00000000000E+00 -0.55265515307E+03  0.98107081410E+03  0.81059991615E+03 0.  0.
        1    1    3    3  502    0 -0.15207755102E+03  0.20558561767E+03 -0.65689982134E+03  0.70491872086E+03  0.50400001928E-02 0. -1.
       -1    1    3    3    0  502  0.15207755102E+03 -0.20558561767E+03  0.10424466826E+03  0.27615209325E+03  0.50400001928E-02 0.  1.
</event>
<event>
 5   0  0.1523811E-02  0.8039154E+03  0.7818609E-02  0.9554367E-01
        1   -1    0    0  501    0  0.00000000000E+00  0.00000000000E+00  0.14340472986E+03  0.14340472995E+03  0.50400001928E-02 0. -1.
       -1   -1    0    0    0  501  0.00000000000E+00  0.00000000000E+00 -0.11266711633E+04  0.11266711633E+04  0.50400001928E-02 0.  1.
    10030    2    1    2    0    0  0.00000000000E+00  0.00000000000E+00 -0.98326643344E+03  0.12700758933E+04  0.80391535345E+03 0.  0.
        1    1    3    3  502    0 -0.24103823768E+03  0.73164504947E+02 -0.98650487301E+03  0.10181573264E+04  0.50400001928E-02 0.  1.
       -1    1    3    3    0  502  0.24103823768E+03 -0.73164504947E+02  0.32384395772E+01  0.25191856685E+03  0.50400001928E-02 0. -1.
</event>
<event>
 5   0  0.1471290E-02  0.8771398E+03  0.7818609E-02  0.9454618E-01
       -1   -1    0    0    0  501  0.00000000000E+00  0.00000000000E+00  0.20503235515E+03  0.20503235522E+03  0.50400001928E-02 0. -1.
        1   -1    0    0  501    0  0.00000000000E+00  0.00000000000E+00 -0.93811312160E+03  0.93811312161E+03  0.50400001928E-02 0.  1.
    10030    2    1    2    0    0  0.00000000000E+00  0.00000000000E+00 -0.73308076644E+03  0.11431454768E+04  0.87713976712E+03 0.  0.
        2    1    3    3  502    0 -0.10170357756E+03  0.30245635397E+03 -0.75864789585E+03  0.82302496537E+03  0.25500000920E-02 0.  1.
       -2    1    3    3    0  502  0.10170357756E+03 -0.30245635397E+03  0.25567129400E+02  0.32012051146E+03  0.25500000920E-02 0. -1.
</event>
<event>
 5   0  0.1498375E-02  0.7910592E+03  0.7818609E-02  0.9573049E-01
       -1   -1    0    0    0  501  0.00000000000E+00  0.00000000000E+00  0.34946332178E+03  0.34946332181E+03  0.50400001928E-02 0. -1.
        1   -1    0    0  501    0  0.00000000000E+00  0.00000000000E+00 -0.44766837436E+03  0.44766837439E+03  0.50400001928E-02 0.  1.
    10030    2    1    2    0    0  0.00000000000E+00  0.00000000000E+00 -0.98205052589E+02  0.79713169620E+03  0.79105923213E+03 0.  0.
        4    1    3    3  502    0 -0.11880850666E+03 -0.16559767058E+03  0.29247451788E+03  0.35648423004E+03  0.12699999809E+01 0. -1.
       -4    1    3    3    0  502  0.11880850666E+03  0.16559767058E+03 -0.39067957047E+03  0.44064746617E+03  0.12699999809E+01 0.  1.
</event>
<event>
 5   0  0.1471290E-02  0.8311164E+03  0.7818609E-02  0.9516038E-01
       -1   -1    0    0    0  501  0.00000000000E+00  0.00000000000E+00  0.18322462273E+03  0.18322462280E+03  0.50400001928E-02 0.  1.
        1   -1    0    0  501    0  0.00000000000E+00  0.00000000000E+00 -0.94249668865E+03  0.94249668866E+03  0.50400001928E-02 0. -1.
    10030    2    1    2    0    0  0.00000000000E+00  0.00000000000E+00 -0.75927206592E+03  0.11257213115E+04  0.83111635827E+03 0.  0.
        2    1    3    3  502    0 -0.99364599519E+02  0.26339743279E+03 -0.79366303036E+03  0.84211195040E+03  0.25500000920E-02 0. -1.
       -2    1    3    3    0  502  0.99364599519E+02 -0.26339743279E+03  0.34390964442E+02  0.28360936106E+03  0.25500000920E-02 0.  1.
</event>
<event>
 5   0  0.1498375E-02  0.8291215E+03  0.7818609E-02  0.9518796E-01
       -1   -1    0    0    0  501  0.00000000000E+00  0.00000000000E+00  0.21435699918E+03  0.21435699924E+03  0.50400001928E-02 0. -1.
        1   -1    0    0  501    0  0.00000000000E+00  0.00000000000E+00 -0.80174947464E+03  0.80174947466E+03  0.50400001928E-02 0.  1.
    10030    2    1    2    0    0  0.00000000000E+00  0.00000000000E+00 -0.58739247546E+03  0.10161064739E+04  0.82912149053E+03 0.  0.
        4    1    3    3  502    0 -0.46629260317E+02  0.19886511534E+03  0.14840534549E+03  0.25248243798E+03  0.12699999809E+01 0. -1.
       -4    1    3    3    0  502  0.46629260317E+02 -0.19886511534E+03 -0.73579782095E+03  0.76362403592E+03  0.12699999809E+01 0.  1.
</event>
<event>
 5   0  0.1624094E-02  0.7990516E+03  0.7818609E-02  0.9561391E-01
        1   -1    0    0  501    0  0.00000000000E+00  0.00000000000E+00  0.92140695855E+03  0.92140695856E+03  0.50400001928E-02 0.  1.
       -1   -1    0    0    0  501  0.00000000000E+00  0.00000000000E+00 -0.17323599232E+03  0.17323599239E+03  0.50400001928E-02 0. -1.
    10030    2    1    2    0    0  0.00000000000E+00  0.00000000000E+00  0.74817096623E+03  0.10946429510E+04  0.79905155989E+03 0.  0.
        3    1    3    3  502    0  0.65411796557E+02 -0.27694433338E+03  0.75826163336E+03  0.80989973562E+03  0.10100000352E+00 0.  1.
       -3    1    3    3    0  502 -0.65411796557E+02  0.27694433338E+03 -0.10090667134E+02  0.28474321534E+03  0.10100000352E+00 0. -1.
</event>
<event>
 5   0  0.1498375E-02  0.8589468E+03  0.7818609E-02  0.9478407E-01
       -1   -1    0    0    0  501  0.00000000000E+00  0.00000000000E+00  0.18365846465E+03  0.18365846472E+03  0.50400001928E-02 0.  1.
        1   -1    0    0  501    0  0.00000000000E+00  0.00000000000E+00 -0.10042957324E+04  0.10042957324E+04  0.50400001928E-02 0. -1.
    10030    2    1    2    0    0  0.00000000000E+00  0.00000000000E+00 -0.82063726772E+03  0.11879541971E+04  0.85894682562E+03 0.  0.
        4    1    3    3  502    0  0.31429384237E+03  0.30692636396E+02 -0.77550884809E+01  0.31588670688E+03  0.12699999809E+01 0.  1.
       -4    1    3    3    0  502 -0.31429384237E+03 -0.30692636396E+02 -0.81288217924E+03  0.87206749023E+03  0.12699999809E+01 0. -1.
</event>
<event>
 5   0  0.2464780E-02  0.7801220E+03  0.7818609E-02  0.9589244E-01
       -2   -1    0    0    0  501  0.00000000000E+00  0.00000000000E+00  0.79061386477E+03  0.79061386478E+03  0.25500000920E-02 0.  1.
        2   -1    0    0  501    0  0.00000000000E+00  0.00000000000E+00 -0.19244235976E+03  0.19244235977E+03  0.25500000920E-02 0. -1.
    10030    2    1    2    0    0  0.00000000000E+00  0.00000000000E+00  0.59817150502E+03  0.98305622455E+03  0.78012203610E+03 0.  0.
        3    1    3    3  502    0  0.30839388425E+03 -0.12597747915E+03  0.43398693348E+02  0.33594727247E+03  0.10100000352E+00 0. -1.
       -3    1    3    3    0  502 -0.30839388425E+03  0.12597747915E+03  0.55477281167E+03  0.64710895208E+03  0.10100000352E+00 0.  1.
</event>
<event>
 5   0  0.1471290E-02  0.8027783E+03  0.7818609E-02  0.9556004E-01
       -1   -1    0    0    0  501  0.00000000000E+00  0.00000000000E+00  0.58357264060E+03  0.58357264062E+03  0.50400001928E-02 0.  1.
        1   -1    0    0  501    0  0.00000000000E+00  0.00000000000E+00 -0.27608085761E+03  0.27608085766E+03  0.50400001928E-02 0. -1.
    10030    2    1    2    0    0  0.00000000000E+00  0.00000000000E+00  0.30749178299E+03  0.85965349828E+03  0.80277826360E+03 0.  0.
        2    1    3    3  502    0  0.13601484940E+03  0.33541671757E+03  0.33955829802E+03  0.49629049098E+03  0.25500000920E-02 0. -1.
       -2    1    3    3    0  502 -0.13601484940E+03 -0.33541671757E+03 -0.32066515026E+02  0.36336300730E+03  0.25500000920E-02 0.  1.
</event>
<event>
 5   0  0.1624094E-02  0.8039562E+03  0.7818609E-02  0.9554308E-01
        1   -1    0    0  501    0  0.00000000000E+00  0.00000000000E+00  0.70541535459E+03  0.70541535461E+03  0.50400001928E-02 0.  1.
       -1   -1    0    0    0  501  0.00000000000E+00  0.00000000000E+00 -0.22906557775E+03  0.22906557780E+03  0.50400001928E-02 0. -1.
    10030    2    1    2    0    0  0.00000000000E+00  0.00000000000E+00  0.47634977684E+03  0.93448093241E+03  0.80395615748E+03 0.  0.
        3    1    3    3  502    0  0.17381437760E+03  0.14129386779E+03  0.62614838370E+03  0.66500917554E+03  0.10100000352E+00 0.  1.
       -3    1    3    3    0  502 -0.17381437760E+03 -0.14129386779E+03 -0.14979860686E+03  0.26947175687E+03  0.10100000352E+00 0. -1.
</event>
<event>
 5   0  0.9919125E-03  0.8127744E+03  0.7818609E-02  0.9541709E-01
       -4   -1    0    0    0  501  0.00000000000E+00  0.00000000000E+00  0.11008550477E+03  0.11009283020E+03  0.12699999809E+01 0. -1.
        4   -1    0    0  501    0  0.00000000000E+00  0.00000000000E+00 -0.15001450558E+04  0.15001455934E+04  0.12699999809E+01 0.  1.
    10030    2    1    2    0    0  0.00000000000E+00  0.00000000000E+00 -0.13900595511E+04  0.16102384236E+04  0.81277440005E+03 0.  0.
        1    1    3    3  502    0  0.11838765861E+02 -0.40483339132E+03 -0.76134179042E+03  0.86236393302E+03  0.50400001928E-02 0.  1.
       -1    1    3    3    0  502 -0.11838765861E+02  0.40483339132E+03 -0.62871776063E+03  0.74787449059E+03  0.50400001928E-02 0. -1.
</event>
<event>
 5   0  0.2571778E-02  0.7765598E+03  0.7818609E-02  0.9594580E-01
       -2   -1    0    0    0  501  0.00000000000E+00  0.00000000000E+00  0.12124368074E+03  0.12124368077E+03  0.25500000920E-02 0. -1.
        2   -1    0    0  501    0  0.00000000000E+00  0.00000000000E+00 -0.12434568916E+04  0.12434568916E+04  0.25500000920E-02 0.  1.
    10030    2    1    2    0    0  0.00000000000E+00  0.00000000000E+00 -0.11222132108E+04  0.13647005723E+04  0.77655982486E+03 0.  0.
        1    1    3    3  502    0  0.44596465941E+02 -0.15571333132E+03 -0.11812500144E+04  0.11923032680E+04  0.50400001928E-02 0.  1.
       -1    1    3    3    0  502 -0.44596465941E+02  0.15571333132E+03  0.59036803613E+02  0.17239730430E+03  0.50400001928E-02 0. -1.
</event>
<event>
 5   0  0.9919125E-03  0.7748458E+03  0.7818609E-02  0.9597158E-01
       -3   -1    0    0    0  501  0.00000000000E+00  0.00000000000E+00  0.41367934393E+03  0.41367935625E+03  0.10100000352E+00 0.  1.
        3   -1    0    0  501    0  0.00000000000E+00  0.00000000000E+00 -0.36283289583E+03  0.36283290989E+03  0.10100000352E+00 0. -1.
    10030    2    1    2    0    0  0.00000000000E+00  0.00000000000E+00  0.50846448096E+02  0.77651226614E+03  0.77484575122E+03 0.  0.
        3    1    3    3  502    0 -0.49272685817E+02 -0.11002155593E+03  0.39440519483E+03  0.41241727442E+03  0.10100000352E+00 0.  1.
       -3    1    3    3    0  502  0.49272685817E+02  0.11002155593E+03 -0.34355874673E+03  0.36409499172E+03  0.10100000352E+00 0. -1.
</event>
<event>
 5   0  0.1523811E-02  0.8101856E+03  0.7818609E-02  0.9545390E-01
        1   -1    0    0  501    0  0.00000000000E+00  0.00000000000E+00  0.77630416454E+03  0.77630416456E+03  0.50400001928E-02 0. -1.
       -1   -1    0    0    0  501  0.00000000000E+00  0.00000000000E+00 -0.21138646851E+03  0.21138646857E+03  0.50400001928E-02 0.  1.
    10030    2    1    2    0    0  0.00000000000E+00  0.00000000000E+00  0.56491769604E+03  0.98769063313E+03  0.81018564754E+03 0.  0.
        1    1    3    3  502    0  0.73553219601E+00 -0.21774466456E+03  0.69889408485E+03  0.73202883947E+03  0.50400001928E-02 0. -1.
       -1    1    3    3    0  502 -0.73553219601E+00  0.21774466456E+03 -0.13397638882E+03  0.25566179366E+03  0.50400001928E-02 0.  1.
</event>
<event>
 5   0  0.2460312E-02  0.7968248E+03  0.7818609E-02  0.9564624E-01
        2   -1    0    0  501    0  0.00000000000E+00  0.00000000000E+00  0.55684194344E+03  0.55684194344E+03  0.25500000920E-02 0. -1.
       -2   -1    0    0    0  501  0.00000000000E+00  0.00000000000E+00 -0.28505837041E+03  0.28505837042E+03  0.25500000920E-02 0.  1.
    10030    2    1    2    0    0  0.00000000000E+00  0.00000000000E+00  0.27178357303E+03  0.84190031386E+03  0.79682484143E+03 0.  0.
        2    1    3    3  502    0 -0.38105070360E+03  0.42851550325E+02  0.21623178598E+02  0.38406178662E+03  0.25500000920E-02 0.  1.
       -2    1    3    3    0  502  0.38105070360E+03 -0.42851550325E+02  0.25016039443E+03  0.45783852724E+03  0.25500000920E-02 0. -1.
</event>
<event>
 5   0  0.1509629E-02  0.7363502E+03  0.7818609E-02  0.9657011E-01
        1   -1    0    0  501    0  0.00000000000E+00  0.00000000000E+00  0.24151611854E+03  0.24151611860E+03  0.50400001928E-02 0.  1.
       -1   -1    0    0    0  501  0.00000000000E+00  0.00000000000E+00 -0.56125825104E+03  0.56125825106E+03  0.50400001928E-02 0. -1.
    10030    2    1    2    0    0  0.00000000000E+00  0.00000000000E+00 -0.31974213250E+03  0.80277436966E+03  0.73635022733E+03 0.  0.
        5    1    3    3  502    0 -0.24325424110E+02  0.14535086546E+03 -0.52766412437E+03  0.54787783172E+03  0.46999998093E+01 0. -1.
       -5    1    3    3    0  502  0.24325424110E+02 -0.14535086546E+03  0.20792199187E+03  0.25489653793E+03  0.46999998093E+01 0.  1.
</event>
<event>
 5   0  0.1498375E-02  0.8087858E+03  0.7818609E-02  0.9547386E-01
       -1   -1    0    0    0  501  0.00000000000E+00  0.00000000000E+00  0.18033501164E+03  0.18033501171E+03  0.50400001928E-02 0.  1.
        1   -1    0    0  501    0  0.00000000000E+00  0.00000000000E+00 -0.90683242682E+03  0.90683242684E+03  0.50400001928E-02 0. -1.
    10030    2    1    2    0    0  0.00000000000E+00  0.00000000000E+00 -0.72649741518E+03  0.10871674385E+04  0.80878584630E+03 0.  0.
        4    1    3    3  502    0  0.77594405234E+02  0.35430534530E+03 -0.12287091549E+03  0.38295175180E+03  0.12699999809E+01 0.  1.
       -4    1    3    3    0  502 -0.77594405234E+02 -0.35430534530E+03 -0.60362649969E+03  0.70421568675E+03  0.12699999809E+01 0. -1.
</event>
<event>
 5   0  0.1624094E-02  0.7762991E+03  0.7818609E-02  0.9594971E-01
       -1   -1    0    0    0  501  0.00000000000E+00  0.00000000000E+00  0.17262239487E+03  0.17262239495E+03  0.50400001928E-02 0. -1.
        1   -1    0    0  501    0  0.00000000000E+00  0.00000000000E+00 -0.87277248819E+03  0.87277248821E+03  0.50400001928E-02 0.  1.
    10030    2    1    2    0    0  0.00000000000E+00  0.00000000000E+00 -0.70015009332E+03  0.10453948832E+04  0.77629911023E+03 0.  0.
        3    1    3    3  502    0  0.24384754498E+03  0.14513463072E+03  0.65540429369E+01  0.28384617648E+03  0.10100000352E+00 0. -1.
       -3    1    3    3    0  502 -0.24384754498E+03 -0.14513463072E+03 -0.70670413626E+03  0.76154870667E+03  0.10100000352E+00 0.  1.
</event>
<event>
 5   0  0.9919125E-03  0.8003153E+03  0.7818609E-02  0.9559561E-01
       -3   -1    0    0    0  501  0.00000000000E+00  0.00000000000E+00  0.56159784667E+03  0.56159785575E+03  0.10100000352E+00 0. -1.
        3   -1    0    0  501    0  0.00000000000E+00  0.00000000000E+00 -0.28512598974E+03  0.28512600763E+03  0.10100000352E+00 0.  1.
    10030    2    1    2    0    0  0.00000000000E+00  0.00000000000E+00  0.27647185693E+03  0.84672386338E+03  0.80031532107E+03 0.  0.
        4    1    3    3  502    0  0.26890272031E+03  0.29305239884E+03  0.18478930332E+03  0.43856251661E+03  0.12699999809E+01 0. -1.
       -4    1    3    3    0  502 -0.26890272031E+03 -0.29305239884E+03  0.91682553612E+02  0.40816134677E+03  0.12699999809E+01 0.  1.
</event>
<event>
 5   0  0.2464780E-02  0.8019773E+03  0.7818609E-02  0.9557159E-01
        2   -1    0    0  501    0  0.00000000000E+00  0.00000000000E+00  0.18578982575E+04  0.18578982575E+04  0.25500000920E-02 0. -1.
       -2   -1    0    0    0  501  0.00000000000E+00  0.00000000000E+00 -0.86545059250E+02  0.86545059288E+02  0.25500000920E-02 0.  1.
    10030    2    1    2    0    0  0.00000000000E+00  0.00000000000E+00  0.17713531983E+04  0.19444433168E+04  0.80197734336E+03 0.  0.
        3    1    3    3  502    0 -0.18267697673E+03 -0.35190009779E+03  0.74045876994E+03  0.83993080479E+03  0.10100000352E+00 0. -1.
       -3    1    3    3    0  502  0.18267697673E+03  0.35190009779E+03  0.10308944283E+04  0.11045125120E+04  0.10100000352E+00 0.  1.
</event>
<event>
 5   0  0.2422031E-02  0.7842935E+03  0.7818609E-02  0.9583034E-01
        2   -1    0    0  501    0  0.00000000000E+00  0.00000000000E+00  0.36697340489E+03  0.36697340490E+03  0.25500000920E-02 0.  1.
       -2   -1    0    0    0  501  0.00000000000E+00  0.00000000000E+00 -0.41904693143E+03  0.41904693144E+03  0.25500000920E-02 0. -1.
    10030    2    1    2    0    0  0.00000000000E+00  0.00000000000E+00 -0.52073526543E+02  0.78602033634E+03  0.78429351456E+03 0.  0.
        4    1    3    3  502    0 -0.90867375661E+02  0.13147846100E+03 -0.38492295958E+03  0.41678623223E+03  0.12699999809E+01 0. -1.
       -4    1    3    3    0  502  0.90867375661E+02 -0.13147846100E+03  0.33284943304E+03  0.36923410411E+03  0.12699999809E+01 0.  1.
</event>
<event>
 5   0  0.1498375E-02  0.7862555E+03  0.7818609E-02  0.9580128E-01
       -1   -1    0    0    0  501  0.00000000000E+00  0.00000000000E+00  0.21127637220E+03  0.21127637226E+03  0.50400001928E-02 0. -1.
        1   -1    0    0  501    0  0.00000000000E+00  0.00000000000E+00 -0.73150353129E+03  0.73150353131E+03  0.50400001928E-02 0.  1.
    10030    2    1    2    0    0  0.00000000000E+00  0.00000000000E+00 -0.52022715909E+03  0.94277990357E+03  0.78625546072E+03 0.  0.
        4    1    3    3  502    0  0.28333353567E+01 -0.85570542112E+02 -0.72018609886E+03  0.72525855759E+03  0.12699999809E+01 0.  1.
       -4    1    3    3    0  502 -0.28333353567E+01  0.85570542112E+02  0.19995893976E+03  0.21752134598E+03  0.12699999809E+01 0. -1.
</event>
<event>
 5   0  0.1509629E-02  0.8250955E+03  0.7818609E-02  0.9524386E-01
        1   -1    0    0  501    0  0.00000000000E+00  0.00000000000E+00  0.84000293441E+03  0.84000293442E+03  0.50400001928E-02 0. -1.
       -1   -1    0    0    0  501  0.00000000000E+00  0.00000000000E+00 -0.20261315677E+03  0.20261315683E+03  0.50400001928E-02 0.  1.
    10030    2    1    2    0    0  0.00000000000E+00  0.00000000000E+00  0.63738977764E+03  0.10426160913E+04  0.82509550060E+03 0.  0.
        5    1    3    3  502    0 -0.23914319630E+03 -0.27881994667E+03  0.81470205292E+02  0.37628382286E+03  0.46999998093E+01 0.  1.
       -5    1    3    3    0  502  0.23914319630E+03  0.27881994667E+03  0.55591957235E+03  0.66633226840E+03  0.46999998093E+01 0. -1.
</event>
<event>
 5   0  0.2464780E-02  0.8036096E+03  0.7818609E-02  0.9554807E-01
       -2   -1    0    0    0  501  0.00000000000E+00  0.00000000000E+00  0.97644260029E+02  0.97644260063E+02  0.25500000920E-02 0.  1.
        2   -1    0    0  501    0  0.00000000000E+00  0.00000000000E+00 -0.16534214425E+04  0.16534214425E+04  0.25500000920E-02 0. -1.
    10030    2    1    2    0    0  0.00000000000E+00  0.00000000000E+00 -0.15557771825E+04  0.17510657026E+04  0.80360963981E+03 0.  0.
        3    1    3    3  502    0 -0.39663607000E+02  0.32463732134E+03 -0.12865090586E+04  0.13274291545E+04  0.10100000352E+00 0.  1.
       -3    1    3    3    0  502  0.39663607000E+02 -0.32463732134E+03 -0.26926812387E+03  0.42363654807E+03  0.10100000352E+00 0. -1.
</event>
<event>
 5   0  0.1471290E-02  0.7050921E+03  0.7818609E-02  0.9708563E-01
       -1   -1    0    0    0  501  0.00000000000E+00  0.00000000000E+00  0.25962347474E+03  0.25962347479E+03  0.50400001928E-02 0. -1.
        1   -1    0    0  501    0  0.00000000000E+00  0.00000000000E+00 -0.47872683813E+03  0.47872683816E+03  0.50400001928E-02 0.  1.
    10030    2    1    2    0    0  0.00000000000E+00  0.00000000000E+00 -0.21910336339E+03  0.73835031295E+03  0.70509212220E+03 0.  0.
        2    1    3    3  502    0 -0.11792933730E+03 -0.29490652105E+03 -0.26977716714E+03  0.41672161531E+03  0.25500000920E-02 0.  1.
       -2    1    3    3    0  502  0.11792933730E+03  0.29490652105E+03  0.50673803747E+02  0.32162869764E+03  0.25500000920E-02 0. -1.
</event>
<event>
 5   0  0.2464780E-02  0.8128276E+03  0.7818609E-02  0.9541633E-01
        2   -1    0    0  501    0  0.00000000000E+00  0.00000000000E+00  0.66651633947E+03  0.66651633947E+03  0.25500000920E-02 0. -1.
       -2   -1    0    0    0  501  0.00000000000E+00  0.00000000000E+00 -0.24781414605E+03  0.24781414607E+03  0.25500000920E-02 0.  1.
    10030    2    1    2    0    0  0.00000000000E+00  0.00000000000E+00  0.41870219341E+03  0.91433048554E+03  0.81282760166E+03 0.  0.
        3    1    3    3  502    0 -0.37237699468E+03 -0.65953215032E+02  0.37679419031E+03  0.53384297765E+03  0.10100000352E+00 0. -1.
       -3    1    3    3    0  502  0.37237699468E+03  0.65953215032E+02  0.41908003108E+02  0.38048750789E+03  0.10100000352E+00 0.  1.
</event>
<event>
 5   0  0.1509629E-02  0.7979367E+03  0.7818609E-02  0.9563008E-01
       -1   -1    0    0    0  501  0.00000000000E+00  0.00000000000E+00  0.86074070247E+02  0.86074070394E+02  0.50400001928E-02 0.  1.
        1   -1    0    0  501    0  0.00000000000E+00  0.00000000000E+00 -0.18492879640E+04  0.18492879640E+04  0.50400001928E-02 0. -1.
    10030    2    1    2    0    0  0.00000000000E+00  0.00000000000E+00 -0.17632138937E+04  0.19353620344E+04  0.79793669490E+03 0.  0.
        5    1    3    3  502    0 -0.16026068850E+03 -0.36287167957E+03 -0.98434759366E+03  0.10612830062E+04  0.46999998093E+01 0.  1.
       -5    1    3    3    0  502  0.16026068850E+03  0.36287167957E+03 -0.77886630006E+03  0.87407902817E+03  0.46999998093E+01 0. -1.
</event>
<event>
 5   0  0.1471290E-02  0.7901198E+03  0.7818609E-02  0.9574429E-01
        1   -1    0    0  501    0  0.00000000000E+00  0.00000000000E+00  0.12489741830E+03  0.12489741840E+03  0.50400001928E-02 0. -1.
       -1   -1    0    0    0  501  0.00000000000E+00  0.00000000000E+00 -0.12496041277E+04  0.12496041277E+04  0.50400001928E-02 0.  1.
    10030    2    1    2    0    0  0.00000000000E+00  0.00000000000E+00 -0.11247067094E+04  0.13745015461E+04  0.79011981247E+03 0.  0.
        2    1    3    3  502    0  0.98488904381E+02  0.31312991383E+03 -0.94475907659E+03  0.10001600472E+04  0.25500000920E-02 0.  1.
       -2    1    3    3    0  502 -0.98488904381E+02 -0.31312991383E+03 -0.17994763277E+03  0.37434149886E+03  0.25500000920E-02 0. -1.
</event>
<event>
 5   0  0.2454354E-02  0.8260645E+03  0.7818609E-02  0.9523038E-01
       -2   -1    0    0    0  501  0.00000000000E+00  0.00000000000E+00  0.15618279875E+03  0.15618279877E+03  0.25500000920E-02 0.  1.
        2   -1    0    0  501    0  0.00000000000E+00  0.00000000000E+00 -0.10922818755E+04  0.10922818755E+04  0.25500000920E-02 0. -1.
    10030    2    1    2    0    0  0.00000000000E+00  0.00000000000E+00 -0.93609907675E+03  0.12484646743E+04  0.82606450197E+03 0.  0.
        5    1    3    3  502    0  0.20040881863E+03  0.12782154840E+03  0.42397735849E+02  0.24149886299E+03  0.46999998093E+01 0.  1.
       -5    1    3    3    0  502 -0.20040881863E+03 -0.12782154840E+03 -0.97849681259E+03  0.10069658113E+04  0.46999998093E+01 0. -1.
</event>
<event>
 5   0  0.1523811E-02  0.7976688E+03  0.7818609E-02  0.9563397E-01
        1   -1    0    0  501    0  0.00000000000E+00  0.00000000000E+00  0.39100741593E+03  0.39100741596E+03  0.50400001928E-02 0. -1.
       -1   -1    0    0    0  501  0.00000000000E+00  0.00000000000E+00 -0.40681811022E+03  0.40681811026E+03  0.50400001928E-02 0.  1.
    10030    2    1    2    0    0  0.00000000000E+00  0.00000000000E+00 -0.15810694294E+02  0.79782552622E+03  0.79766884873E+03 0.  0.
        1    1    3    3  502    0 -0.20912398782E+03  0.14604749942E+03 -0.31456984874E+03  0.40499000497E+03  0.50400001928E-02 0.  1.
       -1    1    3    3    0  502  0.20912398782E+03 -0.14604749942E+03  0.29875915444E+03  0.39283552125E+03  0.50400001928E-02 0. -1.
</event>
<event>
 5   0  0.1523811E-02  0.5833554E+03  0.7818609E-02  0.9940553E-01
        1   -1    0    0  501    0  0.00000000000E+00  0.00000000000E+00  0.13488909395E+04  0.13488909395E+04  0.50400001928E-02 0.  1.
       -1   -1    0    0    0  501  0.00000000000E+00  0.00000000000E+00 -0.63070979295E+02  0.63070979497E+02  0.50400001928E-02 0. -1.
    10030    2    1    2    0    0  0.00000000000E+00  0.00000000000E+00  0.12858199602E+04  0.14119619190E+04  0.58335537253E+03 0.  0.
        1    1    3    3  502    0  0.21570498988E+03  0.19254651550E+03  0.73580691363E+03  0.79057865988E+03  0.50400001928E-02 0. -1.
       -1    1    3    3    0  502 -0.21570498988E+03 -0.19254651550E+03  0.55001304656E+03  0.62138325911E+03  0.50400001928E-02 0.  1.
</event>
<event>
 5   0  0.2464780E-02  0.8006989E+03  0.7818609E-02  0.9559006E-01
       -2   -1    0    0    0  501  0.00000000000E+00  0.00000000000E+00  0.25626601939E+03  0.25626601940E+03  0.25500000920E-02 0. -1.
        2   -1    0    0  501    0  0.00000000000E+00  0.00000000000E+00 -0.62544260941E+03  0.62544260942E+03  0.25500000920E-02 0.  1.
    10030    2    1    2    0    0  0.00000000000E+00  0.00000000000E+00 -0.36917659002E+03  0.88170862882E+03  0.80069891439E+03 0.  0.
        3    1    3    3  502    0  0.47332001747E+02 -0.26674074078E+03 -0.50918013091E+03  0.57676282569E+03  0.10100000352E+00 0.  1.
       -3    1    3    3    0  502 -0.47332001747E+02  0.26674074078E+03  0.14000354089E+03  0.30494580313E+03  0.10100000352E+00 0. -1.
</event>
<event>
 5   0  0.1471290E-02  0.8160881E+03  0.7818609E-02  0.9537018E-01
       -1   -1    0    0    0  501  0.00000000000E+00  0.00000000000E+00  0.80046837732E+02  0.80046837890E+02  0.50400001928E-02 0.  1.
        1   -1    0    0  501    0  0.00000000000E+00  0.00000000000E+00 -0.20800316180E+04  0.20800316180E+04  0.50400001928E-02 0. -1.
    10030    2    1    2    0    0  0.00000000000E+00  0.00000000000E+00 -0.19999847803E+04  0.21600784559E+04  0.81608811677E+03 0.  0.
        2    1    3    3  502    0  0.36356184014E+03 -0.90732861680E+02 -0.14275276351E+04  0.14758878049E+04  0.25500000920E-02 0. -1.
       -2    1    3    3    0  502 -0.36356184014E+03  0.90732861680E+02 -0.57245714519E+03  0.68419065098E+03  0.25500000920E-02 0.  1.
</event>
<event>
 5   0  0.1523811E-02  0.7864613E+03  0.7818609E-02  0.9579823E-01
        1   -1    0    0  501    0  0.00000000000E+00  0.00000000000E+00  0.41841738351E+03  0.41841738354E+03  0.50400001928E-02 0.  1.
       -1   -1    0    0    0  501  0.00000000000E+00  0.00000000000E+00 -0.36955999498E+03  0.36955999502E+03  0.50400001928E-02 0. -1.
    10030    2    1    2    0    0  0.00000000000E+00  0.00000000000E+00  0.48857388528E+02  0.78797737855E+03  0.78646125442E+03 0.  0.
        1    1    3    3  502    0  0.14148511731E+03  0.21155184189E+03  0.32476998872E+03  0.41261091336E+03  0.50400001928E-02 0.  1.
       -1    1    3    3    0  502 -0.14148511731E+03 -0.21155184189E+03 -0.27591260019E+03  0.37536646520E+03  0.50400001928E-02 0. -1.
</event>
<event>
 5   0  0.2454354E-02  0.8054208E+03  0.7818609E-02  0.9552204E-01
        2   -1    0    0  501    0  0.00000000000E+00  0.00000000000E+00  0.60149005301E+03  0.60149005301E+03  0.25500000920E-02 0. -1.
       -2   -1    0    0    0  501  0.00000000000E+00  0.00000000000E+00 -0.26962320257E+03  0.26962320258E+03  0.25500000920E-02 0.  1.
    10030    2    1    2    0    0  0.00000000000E+00  0.00000000000E+00  0.33186685044E+03  0.87111325559E+03  0.80542082022E+03 0.  0.
        5    1    3    3  502    0  0.38352278241E+03 -0.11044034934E+03  0.10802394900E+03  0.41349493219E+03  0.46999998093E+01 0. -1.
       -5    1    3    3    0  502 -0.38352278241E+03  0.11044034934E+03  0.22384290144E+03  0.45761832340E+03  0.46999998093E+01 0.  1.
</event>
<event>
 5   0  0.1509629E-02  0.8104110E+03  0.7818609E-02  0.9545069E-01
        1   -1    0    0  501    0  0.00000000000E+00  0.00000000000E+00  0.97843810921E+03  0.97843810922E+03  0.50400001928E-02 0. -1.
       -1   -1    0    0    0  501  0.00000000000E+00  0.00000000000E+00 -0.16780977453E+03  0.16780977461E+03  0.50400001928E-02 0.  1.
    10030    2    1    2    0    0  0.00000000000E+00  0.00000000000E+00  0.81062833467E+03  0.11462478838E+04  0.81041095391E+03 0.  0.
        5    1    3    3  502    0  0.15467931909E+03 -0.19669624746E+03  0.85605029220E+03  0.89188524951E+03  0.46999998093E+01 0. -1.
       -5    1    3    3    0  502 -0.15467931909E+03  0.19669624746E+03 -0.45421957524E+02  0.25436263433E+03  0.46999998093E+01 0.  1.
</event>
<event>
 5   0  0.2464780E-02  0.7926016E+03  0.7818609E-02  0.9570788E-01
       -2   -1    0    0    0  501  0.00000000000E+00  0.00000000000E+00  0.15843531902E+03  0.15843531904E+03  0.25500000920E-02 0. -1.
        2   -1    0    0  501    0  0.00000000000E+00  0.00000000000E+00 -0.99128365654E+03  0.99128365654E+03  0.25500000920E-02 0.  1.
    10030    2    1    2    0    0  0.00000000000E+00  0.00000000000E+00 -0.83284833752E+03  0.11497189756E+04  0.79260164617E+03 0.  0.
        3    1    3    3  502    0 -0.23126293864E+03 -0.69257672357E+02 -0.87231472997E+03  0.90510340310E+03  0.10100000352E+00 0.  1.
       -3    1    3    3    0  502  0.23126293864E+03  0.69257672357E+02  0.39466392452E+02  0.24461557249E+03  0.10100000352E+00 0. -1.
</event>
<event>
 5   0  0.1471290E-02  0.7885402E+03  0.7818609E-02  0.9576754E-01
        1   -1    0    0  501    0  0.00000000000E+00  0.00000000000E+00  0.37552269020E+03  0.37552269023E+03  0.50400001928E-02 0. -1.
       -1   -1    0    0    0  501  0.00000000000E+00  0.00000000000E+00 -0.41395349701E+03  0.41395349704E+03  0.50400001928E-02 0.  1.
    10030    2    1    2    0    0  0.00000000000E+00  0.00000000000E+00 -0.38430806812E+02  0.78947618727E+03  0.78854024840E+03 0.  0.
        2    1    3    3  502    0  0.13373555937E+03 -0.33288773203E+03 -0.18296223808E+03  0.40270910412E+03  0.25500000920E-02 0.  1.
       -2    1    3    3    0  502 -0.13373555937E+03  0.33288773203E+03  0.14453143127E+03  0.38676708315E+03  0.25500000920E-02 0. -1.
</event>
<event>
 5   0  0.1471290E-02  0.8189110E+03  0.7818609E-02  0.9533041E-01
       -1   -1    0    0    0  501  0.00000000000E+00  0.00000000000E+00  0.73600946823E+03  0.73600946825E+03  0.50400001928E-02 0.  1.
        1   -1    0    0  501    0  0.00000000000E+00  0.00000000000E+00 -0.22778756490E+03  0.22778756495E+03  0.50400001928E-02 0. -1.
    10030    2    1    2    0    0  0.00000000000E+00  0.00000000000E+00  0.50822190334E+03  0.96379703320E+03  0.81891099527E+03 0.  0.
        2    1    3    3  502    0 -0.36737590416E+03  0.15677262941E+03  0.36010672633E+03  0.53779137836E+03  0.25500000920E-02 0.  1.
       -2    1    3    3    0  502  0.36737590416E+03 -0.15677262941E+03  0.14811517701E+03  0.42600565484E+03  0.25500000920E-02 0. -1.
</event>
<event>
 5   0  0.1498375E-02  0.7956677E+03  0.7818609E-02  0.9566309E-01
        1   -1    0    0  501    0  0.00000000000E+00  0.00000000000E+00  0.45153558416E+03  0.45153558419E+03  0.50400001928E-02 0. -1.
       -1   -1    0    0    0  501  0.00000000000E+00  0.00000000000E+00 -0.35051893629E+03  0.35051893633E+03  0.50400001928E-02 0.  1.
    10030    2    1    2    0    0  0.00000000000E+00  0.00000000000E+00  0.10101664787E+03  0.80205452052E+03  0.79566770120E+03 0.  0.
        4    1    3    3  502    0 -0.18514012761E+03  0.30971568251E+03 -0.11837602920E+03  0.37975672217E+03  0.12699999809E+01 0.  1.
       -4    1    3    3    0  502  0.18514012761E+03 -0.30971568251E+03  0.21939267707E+03  0.42229779835E+03  0.12699999809E+01 0. -1.
</event>
<event>
 5   0  0.1498375E-02  0.7964399E+03  0.7818609E-02  0.9565185E-01
       -1   -1    0    0    0  501  0.00000000000E+00  0.00000000000E+00  0.32562980336E+03  0.32562980339E+03  0.50400001928E-02 0. -1.
        1   -1    0    0  501    0  0.00000000000E+00  0.00000000000E+00 -0.48699209025E+03  0.48699209028E+03  0.50400001928E-02 0.  1.
    10030    2    1    2    0    0  0.00000000000E+00  0.00000000000E+00 -0.16136228690E+03  0.81262189367E+03  0.79643992519E+03 0.  0.
        4    1    3    3  502    0 -0.67363806081E+02  0.24459482081E+03 -0.39385893100E+03  0.46849864372E+03  0.12699999809E+01 0.  1.
       -4    1    3    3    0  502  0.67363806081E+02 -0.24459482081E+03  0.23249664411E+03  0.34412324995E+03  0.12699999809E+01 0. -1.
</event>
<event>
 5   0  0.2460312E-02  0.8104916E+03  0.7818609E-02  0.9544954E-01
        2   -1    0    0  501    0  0.00000000000E+00  0.00000000000E+00  0.36308239548E+03  0.36308239549E+03  0.25500000920E-02 0. -1.
       -2   -1    0    0    0  501  0.00000000000E+00  0.00000000000E+00 -0.45230550994E+03  0.45230550995E+03  0.25500000920E-02 0.  1.
    10030    2    1    2    0    0  0.00000000000E+00  0.00000000000E+00 -0.89223114462E+02  0.81538790543E+03  0.81049162375E+03 0.  0.
        2    1    3    3  502    0  0.11295452998E+03  0.18989965193E+03 -0.38637479533E+03  0.44509109867E+03  0.25500000920E-02 0.  1.
       -2    1    3    3    0  502 -0.11295452998E+03 -0.18989965193E+03  0.29715168087E+03  0.37029680676E+03  0.25500000920E-02 0. -1.
</event>
<event>
 5   0  0.2571778E-02  0.7884109E+03  0.7818609E-02  0.9576945E-01
        2   -1    0    0  501    0  0.00000000000E+00  0.00000000000E+00  0.71716836777E+03  0.71716836778E+03  0.25500000920E-02 0.  1.
       -2   -1    0    0    0  501  0.00000000000E+00  0.00000000000E+00 -0.21668265823E+03  0.21668265825E+03  0.25500000920E-02 0. -1.
    10030    2    1    2    0    0  0.00000000000E+00  0.00000000000E+00  0.50048570954E+03  0.93385102602E+03  0.78841092925E+03 0.  0.
        1    1    3    3  502    0  0.31748939713E+03  0.11032653647E+03  0.49421682718E+03  0.59768029433E+03  0.50400001928E-02 0.  1.
       -1    1    3    3    0  502 -0.31748939713E+03 -0.11032653647E+03  0.62688823608E+01  0.33617073170E+03  0.50400001928E-02 0. -1.
</event>
<event>
 5   0  0.2464780E-02  0.8023442E+03  0.7818609E-02  0.9556630E-01
       -2   -1    0    0    0  501  0.00000000000E+00  0.00000000000E+00  0.28645876652E+03  0.28645876653E+03  0.25500000920E-02 0.  1.
        2   -1    0    0  501    0  0.00000000000E+00  0.00000000000E+00 -0.56182271544E+03  0.56182271545E+03  0.25500000920E-02 0. -1.
    10030    2    1    2    0    0  0.00000000000E+00  0.00000000000E+00 -0.27536394892E+03  0.84828148198E+03  0.80234417073E+03 0.  0.
        3    1    3    3  502    0  0.10901815383E+03  0.31394615134E+03 -0.37525114980E+03  0.50125899437E+03  0.10100000352E+00 0. -1.
       -3    1    3    3    0  502 -0.10901815383E+03 -0.31394615134E+03  0.99887200883E+02  0.34702248761E+03  0.10100000352E+00 0.  1.
</event>
<event>
 5   0  0.2571778E-02  0.8025096E+03  0.7818609E-02  0.9556392E-01
        2   -1    0    0  501    0  0.00000000000E+00  0.00000000000E+00  0.91974499529E+03  0.91974499529E+03  0.25500000920E-02 0.  1.
       -2   -1    0    0    0  501  0.00000000000E+00  0.00000000000E+00 -0.17505440051E+03  0.17505440053E+03  0.25500000920E-02 0. -1.
    10030    2    1    2    0    0  0.00000000000E+00  0.00000000000E+00  0.74469059478E+03  0.10947993958E+04  0.80250958571E+03 0.  0.
        1    1    3    3  502    0 -0.21891759127E+03  0.12101151955E+02 -0.86109782691E+02  0.23555518323E+03  0.50400001928E-02 0. -1.
       -1    1    3    3    0  502  0.21891759127E+03 -0.12101151955E+02  0.83080037747E+03  0.85924421259E+03  0.50400001928E-02 0.  1.
</event>
<event>
 5   0  0.2422031E-02  0.7896507E+03  0.7818609E-02  0.9575119E-01
        2   -1    0    0  501    0  0.00000000000E+00  0.00000000000E+00  0.15945994653E+04  0.15945994653E+04  0.25500000920E-02 0.  1.
       -2   -1    0    0    0  501  0.00000000000E+00  0.00000000000E+00 -0.97759388686E+02  0.97759388719E+02  0.25500000920E-02 0. -1.
    10030    2    1    2    0    0  0.00000000000E+00  0.00000000000E+00  0.14968400766E+04  0.16923588540E+04  0.78965073027E+03 0.  0.
        4    1    3    3  502    0 -0.25489522645E+03  0.29317021528E+03  0.89943556844E+03  0.97974808306E+03  0.12699999809E+01 0.  1.
       -4    1    3    3    0  502  0.25489522645E+03 -0.29317021528E+03  0.59740450814E+03  0.71261077092E+03  0.12699999809E+01 0. -1.
</event>
<event>
 5   0  0.1624094E-02  0.7943754E+03  0.7818609E-02  0.9568194E-01
        1   -1    0    0  501    0  0.00000000000E+00  0.00000000000E+00  0.27437147364E+03  0.27437147368E+03  0.50400001928E-02 0. -1.
       -1   -1    0    0    0  501  0.00000000000E+00  0.00000000000E+00 -0.57497981150E+03  0.57497981152E+03  0.50400001928E-02 0.  1.
    10030    2    1    2    0    0  0.00000000000E+00  0.00000000000E+00 -0.30060833786E+03  0.84935128520E+03  0.79437537278E+03 0.  0.
        3    1    3    3  502    0 -0.12233332274E+03 -0.32198985084E+03 -0.36176699543E+03  0.49951804280E+03  0.10100000352E+00 0.  1.
       -3    1    3    3    0  502  0.12233332274E+03  0.32198985084E+03  0.61158657570E+02  0.34983324241E+03  0.10100000352E+00 0. -1.
</event>
<event>
 5   0  0.1523811E-02  0.7022298E+03  0.7818609E-02  0.9713426E-01
        1   -1    0    0  501    0  0.00000000000E+00  0.00000000000E+00  0.12755287982E+04  0.12755287982E+04  0.50400001928E-02 0. -1.
       -1   -1    0    0    0  501  0.00000000000E+00  0.00000000000E+00 -0.96651426846E+02  0.96651426977E+02  0.50400001928E-02 0.  1.
    10030    2    1    2    0    0  0.00000000000E+00  0.00000000000E+00  0.11788773713E+04  0.13721802252E+04  0.70222981544E+03 0.  0.
        1    1    3    3  502    0 -0.14711686317E+03  0.27187341465E+03  0.91479047925E+03  0.96560869196E+03  0.50400001928E-02 0. -1.
       -1    1    3    3    0  502  0.14711686317E+03 -0.27187341465E+03  0.26408689208E+03  0.40657153321E+03  0.50400001928E-02 0.  1.
</event>
<event>
 5   0  0.1509629E-02  0.8023447E+03  0.7818609E-02  0.9556629E-01
        1   -1    0    0  501    0  0.00000000000E+00  0.00000000000E+00  0.44456369771E+03  0.44456369774E+03  0.50400001928E-02 0. -1.
       -1   -1    0    0    0  501  0.00000000000E+00  0.00000000000E+00 -0.36201621512E+03  0.36201621516E+03  0.50400001928E-02 0.  1.
    10030    2    1    2    0    0  0.00000000000E+00  0.00000000000E+00  0.82547482590E+02  0.80657991290E+03  0.80234473202E+03 0.  0.
        5    1    3    3  502    0 -0.48918508521E+02 -0.38512992712E+03  0.14279739445E+03  0.41368015072E+03  0.46999998093E+01 0.  1.
       -5    1    3    3    0  502  0.48918508521E+02  0.38512992712E+03 -0.60249911855E+02  0.39289976218E+03  0.46999998093E+01 0. -1.
</event>
<event>
 5   0  0.1498375E-02  0.8117454E+03  0.7818609E-02  0.9543170E-01
        1   -1    0    0  501    0  0.00000000000E+00  0.00000000000E+00  0.11399767090E+04  0.11399767090E+04  0.50400001928E-02 0.  1.
       -1   -1    0    0    0  501  0.00000000000E+00  0.00000000000E+00 -0.14450527730E+03  0.14450527738E+03  0.50400001928E-02 0. -1.
    10030    2    1    2    0    0  0.00000000000E+00  0.00000000000E+00  0.99547143168E+03  0.12844819864E+04  0.81174540468E+03 0.  0.
        4    1    3    3  502    0  0.29918925677E+03  0.14588447974E+03  0.86522246865E+03  0.92704262359E+03  0.12699999809E+01 0.  1.
       -4    1    3    3    0  502 -0.29918925677E+03 -0.14588447974E+03  0.13024896303E+03  0.35743936278E+03  0.12699999809E+01 0. -1.
</event>
<event>
 5   0  0.1498375E-02  0.8042552E+03  0.7818609E-02  0.9553878E-01
        1   -1    0    0  501    0  0.00000000000E+00  0.00000000000E+00  0.37697559453E+03  0.37697559456E+03  0.50400001928E-02 0.  1.
       -1   -1    0    0    0  501  0.00000000000E+00  0.00000000000E+00 -0.42895780044E+03  0.42895780046E+03  0.50400001928E-02 0. -1.
    10030    2    1    2    0    0  0.00000000000E+00  0.00000000000E+00 -0.51982205904E+02  0.80593339503E+03  0.80425523778E+03 0.  0.
        4    1    3    3  502    0 -0.25033675541E+03 -0.30509599245E+03 -0.10330747903E+03  0.40795355599E+03  0.12699999809E+01 0.  1.
       -4    1    3    3    0  502  0.25033675541E+03  0.30509599245E+03  0.51325273126E+02  0.39797983904E+03  0.12699999809E+01 0. -1.
</event>
<event>
 5   0  0.1624094E-02  0.8014179E+03  0.7818609E-02  0.9557967E-01
        1   -1    0    0  501    0  0.00000000000E+00  0.00000000000E+00  0.89505239278E+03  0.89505239280E+03  0.50400001928E-02 0. -1.
       -1   -1    0    0    0  501  0.00000000000E+00  0.00000000000E+00 -0.17939472630E+03  0.17939472637E+03  0.50400001928E-02 0.  1.
    10030    2    1    2    0    0  0.00000000000E+00  0.00000000000E+00  0.71565766649E+03  0.10744471192E+04  0.80141794108E+03 0.  0.
        3    1    3    3  502    0 -0.18593165975E+03 -0.17639992120E+03 -0.55136577022E+02  0.26215942978E+03  0.10100000352E+00 0.  1.
       -3    1    3    3    0  502  0.18593165975E+03  0.17639992120E+03  0.77079424351E+03  0.81228768938E+03  0.10100000352E+00 0. -1.
</event>
<event>
 5   0  0.2422031E-02  0.8049676E+03  0.7818609E-02  0.9552854E-01
        2   -1    0    0  501    0  0.00000000000E+00  0.00000000000E+00  0.95401749120E+03  0.95401749120E+03  0.25500000920E-02 0.  1.
       -2   -1    0    0    0  501  0.00000000000E+00  0.00000000000E+00 -0.16980109228E+03  0.16980109229E+03  0.25500000920E-02 0. -1.
    10030    2    1    2    0    0  0.00000000000E+00  0.00000000000E+00  0.78421639892E+03  0.11238185835E+04  0.80496760697E+03 0.  0.
        4    1    3    3  502    0  0.99195220135E+02  0.26274186620E+02 -0.15122849833E+03  0.18276130933E+03  0.12699999809E+01 0. -1.
       -4    1    3    3    0  502 -0.99195220135E+02 -0.26274186620E+02  0.93544489725E+03  0.94105727417E+03  0.12699999809E+01 0.  1.
</event>
<event>
 5   0  0.1471290E-02  0.7961972E+03  0.7818609E-02  0.9565538E-01
        1   -1    0    0  501    0  0.00000000000E+00  0.00000000000E+00  0.22849149786E+04  0.22849149786E+04  0.50400001928E-02 0.  1.
       -1   -1    0    0    0  501  0.00000000000E+00  0.00000000000E+00 -0.69360343532E+02  0.69360343715E+02  0.50400001928E-02 0. -1.
    10030    2    1    2    0    0  0.00000000000E+00  0.00000000000E+00  0.22155546351E+04  0.23542753223E+04  0.79619718181E+03 0.  0.
        2    1    3    3  502    0 -0.51503915400E+01 -0.27335439606E+03  0.19634069378E+04  0.19823511182E+04  0.25500000920E-02 0.  1.
       -2    1    3    3    0  502  0.51503915400E+01  0.27335439606E+03  0.25214769730E+03  0.37192420416E+03  0.25500000920E-02 0. -1.
</event>
<event>
 5   0  0.1624094E-02  0.7667007E+03  0.7818609E-02  0.9609508E-01
       -1   -1    0    0    0  501  0.00000000000E+00  0.00000000000E+00  0.54893845884E+03  0.54893845886E+03  0.50400001928E-02 0. -1.
        1   -1    0    0  501    0  0.00000000000E+00  0.00000000000E+00 -0.26771214846E+03  0.26771214851E+03  0.50400001928E-02 0.  1.
    10030    2    1    2    0    0  0.00000000000E+00  0.00000000000E+00  0.28122631038E+03  0.81665060737E+03  0.76670070879E+03 0.  0.
        3    1    3    3  502    0  0.34743912940E+03  0.14232122547E+03  0.58188199193E+02  0.37994099092E+03  0.10100000352E+00 0.  1.
       -3    1    3    3    0  502 -0.34743912940E+03 -0.14232122547E+03  0.22303811119E+03  0.43670961645E+03  0.10100000352E+00 0. -1.
</event>
<event>
 5   0  0.2454354E-02  0.7799702E+03  0.7818609E-02  0.9589471E-01
       -2   -1    0    0    0  501  0.00000000000E+00  0.00000000000E+00  0.11839117213E+04  0.11839117213E+04  0.25500000920E-02 0. -1.
        2   -1    0    0  501    0  0.00000000000E+00  0.00000000000E+00 -0.12846260749E+03  0.12846260751E+03  0.25500000920E-02 0.  1.
    10030    2    1    2    0    0  0.00000000000E+00  0.00000000000E+00  0.10554491138E+04  0.13123743288E+04  0.77997022193E+03 0.  0.
        5    1    3    3  502    0  0.36011132684E+03  0.20705646636E+02  0.27839703935E+03  0.45567081653E+03  0.46999998093E+01 0.  1.
       -5    1    3    3    0  502 -0.36011132684E+03 -0.20705646636E+02  0.77705207450E+03  0.85670351231E+03  0.46999998093E+01 0. -1.
</event>
<event>
 5   0  0.1471290E-02  0.8073027E+03  0.7818609E-02  0.9549506E-01
        1   -1    0    0  501    0  0.00000000000E+00  0.00000000000E+00  0.94658690785E+03  0.94658690786E+03  0.50400001928E-02 0. -1.
       -1   -1    0    0    0  501  0.00000000000E+00  0.00000000000E+00 -0.17212833098E+03  0.17212833105E+03  0.50400001928E-02 0.  1.
    10030    2    1    2    0    0  0.00000000000E+00  0.00000000000E+00  0.77445857686E+03  0.11187152389E+04  0.80730273039E+03 0.  0.
        2    1    3    3  502    0  0.30071043191E+03  0.13829179280E+03  0.67056228318E+02  0.33770981860E+03  0.25500000920E-02 0.  1.
       -2    1    3    3    0  502 -0.30071043191E+03 -0.13829179280E+03  0.70740234855E+03  0.78100542031E+03  0.25500000920E-02 0. -1.
</event>
<event>
 5   0  0.1624094E-02  0.7951214E+03  0.7818609E-02  0.9567106E-01
        1   -1    0    0  501    0  0.00000000000E+00  0.00000000000E+00  0.13469733508E+04  0.13469733508E+04  0.50400001928E-02 0. -1.
       -1   -1    0    0    0  501  0.00000000000E+00  0.00000000000E+00 -0.11734047713E+03  0.11734047724E+03  0.50400001928E-02 0.  1.
    10030    2    1    2    0    0  0.00000000000E+00  0.00000000000E+00  0.12296328736E+04  0.14643138280E+04  0.79512136368E+03 0.  0.
        3    1    3    3  502    0  0.33442651195E+03 -0.66633401081E+02  0.99121726275E+03  0.10482331679E+04  0.10100000352E+00 0. -1.
       -3    1    3    3    0  502 -0.33442651195E+03  0.66633401081E+02  0.23841561089E+03  0.41608066015E+03  0.10100000352E+00 0.  1.
</event>
<event>
 5   0  0.1509629E-02  0.7943351E+03  0.7818609E-02  0.9568253E-01
       -1   -1    0    0    0  501  0.00000000000E+00  0.00000000000E+00  0.14140017381E+03  0.14140017390E+03  0.50400001928E-02 0.  1.
        1   -1    0    0  501    0  0.00000000000E+00  0.00000000000E+00 -0.11155718191E+04  0.11155718192E+04  0.50400001928E-02 0. -1.
    10030    2    1    2    0    0  0.00000000000E+00  0.00000000000E+00 -0.97417164533E+03  0.12569719931E+04  0.79433506580E+03 0.  0.
        5    1    3    3  502    0  0.11941232319E+02  0.41659654460E+02  0.13760323545E+03  0.14434285657E+03  0.46999998093E+01 0.  1.
       -5    1    3    3    0  502 -0.11941232319E+02 -0.41659654460E+02 -0.11117748808E+04  0.11126291365E+04  0.46999998093E+01 0. -1.
</event>
<event>
 5   0  0.2460312E-02  0.7894817E+03  0.7818609E-02  0.9575368E-01
        2   -1    0    0  501    0  0.00000000000E+00  0.00000000000E+00  0.14684257900E+04  0.14684257900E+04  0.25500000920E-02 0.  1.
       -2   -1    0    0    0  501  0.00000000000E+00  0.00000000000E+00 -0.10611387199E+03  0.10611387202E+03  0.25500000920E-02 0. -1.
    10030    2    1    2    0    0  0.00000000000E+00  0.00000000000E+00  0.13623119181E+04  0.15745396621E+04  0.78948171943E+03 0.  0.
        2    1    3    3  502    0 -0.22123420978E+03  0.61382347488E+02  0.13215653060E+04  0.13413602149E+04  0.25500000920E-02 0.  1.
       -2    1    3    3    0  502  0.22123420978E+03 -0.61382347488E+02  0.40746612046E+02  0.23317944712E+03  0.25500000920E-02 0. -1.
</event>
<event>
 5   0  0.2460312E-02  0.7864728E+03  0.7818609E-02  0.9579806E-01
        2   -1    0    0  501    0  0.00000000000E+00  0.00000000000E+00  0.81126289890E+03  0.81126289891E+03  0.25500000920E-02 0. -1.
       -2   -1    0    0    0  501  0.00000000000E+00  0.00000000000E+00 -0.19061006496E+03  0.19061006498E+03  0.25500000920E-02 0.  1.
    10030    2    1    2    0    0  0.00000000000E+00  0.00000000000E+00  0.62065283394E+03  0.10018729639E+04  0.78647281929E+03 0.  0.
        2    1    3    3  502    0 -0.38544093163E+03 -0.51022368357E+02  0.23532001299E+03  0.45447057371E+03  0.25500000920E-02 0.  1.
       -2    1    3    3    0  502  0.38544093163E+03  0.51022368357E+02  0.38533282095E+03  0.54740239017E+03  0.25500000920E-02 0. -1.
</event>
<event>
 5   0  0.2464780E-02  0.8231474E+03  0.7818609E-02  0.9527104E-01
       -2   -1    0    0    0  501  0.00000000000E+00  0.00000000000E+00  0.15345858774E+03  0.15345858776E+03  0.25500000920E-02 0.  1.
        2   -1    0    0  501    0  0.00000000000E+00  0.00000000000E+00 -0.11038346473E+04  0.11038346473E+04  0.25500000920E-02 0. -1.
    10030    2    1    2    0    0  0.00000000000E+00  0.00000000000E+00 -0.95037605956E+03  0.12572932351E+04  0.82314738920E+03 0.  0.
        3    1    3    3  502    0  0.41115488270E+02 -0.35943864472E+03 -0.77491423666E+03  0.85520682123E+03  0.10100000352E+00 0. -1.
       -3    1    3    3    0  502 -0.41115488270E+02  0.35943864472E+03 -0.17546182290E+03  0.40208641383E+03  0.10100000352E+00 0.  1.
</event>
<event>
 5   0  0.2422031E-02  0.7948000E+03  0.7818609E-02  0.9567575E-01
        2   -1    0    0  501    0  0.00000000000E+00  0.00000000000E+00  0.27562363717E+03  0.27562363719E+03  0.25500000920E-02 0.  1.
       -2   -1    0    0    0  501  0.00000000000E+00  0.00000000000E+00 -0.57297967014E+03  0.57297967015E+03  0.25500000920E-02 0. -1.
    10030    2    1    2    0    0  0.00000000000E+00  0.00000000000E+00 -0.29735603297E+03  0.84860330733E+03  0.79479995148E+03 0.  0.
        4    1    3    3  502    0  0.20045131928E+03 -0.19266712425E+03 -0.45184259294E+03  0.53053246259E+03  0.12699999809E+01 0. -1.
       -4    1    3    3    0  502 -0.20045131928E+03  0.19266712425E+03  0.15448655997E+03  0.31807084475E+03  0.12699999809E+01 0.  1.
</event>
<event>
 5   0  0.1523811E-02  0.8201864E+03  0.7818609E-02  0.9531249E-01
       -1   -1    0    0    0  501  0.00000000000E+00  0.00000000000E+00  0.14285279107E+03  0.14285279116E+03  0.50400001928E-02 0.  1.
        1   -1    0    0  501    0  0.00000000000E+00  0.00000000000E+00 -0.11772707649E+04  0.11772707649E+04  0.50400001928E-02 0. -1.
    10030    2    1    2    0    0  0.00000000000E+00  0.00000000000E+00 -0.10344179738E+04  0.13201235560E+04  0.82018635607E+03 0.  0.
        1    1    3    3  502    0 -0.62348208442E+02  0.28649647583E+03 -0.55719917719E+02  0.29844972611E+03  0.50400001928E-02 0.  1.
       -1    1    3    3    0  502  0.62348208442E+02 -0.28649647583E+03 -0.97869805608E+03  0.10216738299E+04  0.50400001928E-02 0. -1.
</event>
<event>
 5   0  0.2422031E-02  0.8585650E+03  0.7818609E-02  0.9478913E-01
        2   -1    0    0  501    0  0.00000000000E+00  0.00000000000E+00  0.22646203816E+04  0.22646203816E+04  0.25500000920E-02 0. -1.
       -2   -1    0    0    0  501  0.00000000000E+00  0.00000000000E+00 -0.81374984612E+02  0.81374984652E+02  0.25500000920E-02 0.  1.
    10030    2    1    2    0    0  0.00000000000E+00  0.00000000000E+00  0.21832453970E+04  0.23459953662E+04  0.85856496260E+03 0.  0.
        4    1    3    3  502    0  0.33215930442E+03 -0.25702842753E+03  0.13343110856E+04  0.13988499212E+04  0.12699999809E+01 0. -1.
       -4    1    3    3    0  502 -0.33215930442E+03  0.25702842753E+03  0.84893431138E+03  0.94714544502E+03  0.12699999809E+01 0.  1.
</event>
<event>
 5   0  0.1498375E-02  0.8090868E+03  0.7818609E-02  0.9546957E-01
       -1   -1    0    0    0  501  0.00000000000E+00  0.00000000000E+00  0.47972324407E+03  0.47972324410E+03  0.50400001928E-02 0. -1.
        1   -1    0    0  501    0  0.00000000000E+00  0.00000000000E+00 -0.34114537307E+03  0.34114537311E+03  0.50400001928E-02 0.  1.
    10030    2    1    2    0    0  0.00000000000E+00  0.00000000000E+00  0.13857787100E+03  0.82086861721E+03  0.80908680646E+03 0.  0.
        4    1    3    3  502    0 -0.20969266654E+03  0.54026384776E+02  0.41597214306E+03  0.46896087401E+03  0.12699999809E+01 0. -1.
       -4    1    3    3    0  502  0.20969266654E+03 -0.54026384776E+02 -0.27739427205E+03  0.35190774320E+03  0.12699999809E+01 0.  1.
</event>
<event>
 5   0  0.2571778E-02  0.7885292E+03  0.7818609E-02  0.9576771E-01
       -2   -1    0    0    0  501  0.00000000000E+00  0.00000000000E+00  0.59575913157E+03  0.59575913158E+03  0.25500000920E-02 0. -1.
        2   -1    0    0  501    0  0.00000000000E+00  0.00000000000E+00 -0.26091850781E+03  0.26091850782E+03  0.25500000920E-02 0.  1.
    10030    2    1    2    0    0  0.00000000000E+00  0.00000000000E+00  0.33484062376E+03  0.85667763940E+03  0.78852922237E+03 0.  0.
        1    1    3    3  502    0 -0.33424236841E+03  0.18172825880E+03  0.27980863987E+03  0.47226686932E+03  0.50400001928E-02 0. -1.
       -1    1    3    3    0  502  0.33424236841E+03 -0.18172825880E+03  0.55031983893E+02  0.38441077009E+03  0.50400001928E-02 0.  1.
</event>
<event>
 5   0  0.1624094E-02  0.8022966E+03  0.7818609E-02  0.9556699E-01
        1   -1    0    0  501    0  0.00000000000E+00  0.00000000000E+00  0.14786745125E+04  0.14786745125E+04  0.50400001928E-02 0.  1.
       -1   -1    0    0    0  501  0.00000000000E+00  0.00000000000E+00 -0.10882716307E+03  0.10882716318E+03  0.50400001928E-02 0. -1.
    10030    2    1    2    0    0  0.00000000000E+00  0.00000000000E+00  0.13698473494E+04  0.15875016757E+04  0.80229658455E+03 0.  0.
        3    1    3    3  502    0 -0.24491142213E+03  0.24015031020E+03  0.27334444011E+03  0.43860115061E+03  0.10100000352E+00 0. -1.
       -3    1    3    3    0  502  0.24491142213E+03 -0.24015031020E+03  0.10965029093E+04  0.11489005251E+04  0.10100000352E+00 0.  1.
</event>
<event>
 5   0  0.2464780E-02  0.8043683E+03  0.7818609E-02  0.9553716E-01
       -2   -1    0    0    0  501  0.00000000000E+00  0.00000000000E+00  0.43606635254E+03  0.43606635255E+03  0.25500000920E-02 0. -1.
        2   -1    0    0  501    0  0.00000000000E+00  0.00000000000E+00 -0.37093460610E+03  0.37093460611E+03  0.25500000920E-02 0.  1.
    10030    2    1    2    0    0  0.00000000000E+00  0.00000000000E+00  0.65131746440E+02  0.80700095867E+03  0.80436832539E+03 0.  0.
        3    1    3    3  502    0 -0.19417775421E+03 -0.29481979635E+03  0.22588377752E+03  0.41910285575E+03  0.10100000352E+00 0. -1.
       -3    1    3    3    0  502  0.19417775421E+03  0.29481979635E+03 -0.16075203108E+03  0.38789810292E+03  0.10100000352E+00 0.  1.
</event>
<event>
 5   0  0.1509629E-02  0.8008435E+03  0.7818609E-02  0.9558797E-01
        1   -1    0    0  501    0  0.00000000000E+00  0.00000000000E+00  0.96594001336E+03  0.96594001337E+03  0.50400001928E-02 0.  1.
       -1   -1    0    0    0  501  0.00000000000E+00  0.00000000000E+00 -0.16599124428E+03  0.16599124436E+03  0.50400001928E-02 0. -1.
    10030    2    1    2    0    0  0.00000000000E+00  0.00000000000E+00  0.79994876908E+03  0.11319312577E+04  0.80084351723E+03 0.  0.
        5    1    3    3  502    0 -0.11530081863E+03 -0.35638285476E+03  0.59992502963E+03  0.70727303718E+03  0.46999998093E+01 0.  1.
       -5    1    3    3    0  502  0.11530081863E+03  0.35638285476E+03  0.20002373945E+03  0.42465822056E+03  0.46999998093E+01 0. -1.
</event>
<event>
 5   0  0.2571778E-02  0.8183231E+03  0.7818609E-02  0.9533867E-01
       -2   -1    0    0    0  501  0.00000000000E+00  0.00000000000E+00  0.10138627687E+04  0.10138627687E+04  0.25500000920E-02 0.  1.
        2   -1    0    0  501    0  0.00000000000E+00  0.00000000000E+00 -0.16512410172E+03  0.16512410174E+03  0.25500000920E-02 0. -1.
    10030    2    1    2    0    0  0.00000000000E+00  0.00000000000E+00  0.84873866701E+03  0.11789868705E+04  0.81832311215E+03 0.  0.
        1    1    3    3  502    0 -0.15507104631E+03 -0.13556619336E+03  0.93372159141E+03  0.95617008554E+03  0.50400001928E-02 0.  1.
       -1    1    3    3    0  502  0.15507104631E+03  0.13556619336E+03 -0.84982924398E+02  0.22281678494E+03  0.50400001928E-02 0. -1.
</event>
<event>
 5   0  0.2464780E-02  0.7308109E+03  0.7818609E-02  0.9665945E-01
        2   -1    0    0  501    0  0.00000000000E+00  0.00000000000E+00  0.12899016513E+04  0.12899016513E+04  0.25500000920E-02 0.  1.
       -2   -1    0    0    0  501  0.00000000000E+00  0.00000000000E+00 -0.10351265039E+03  0.10351265042E+03  0.25500000920E-02 0. -1.
    10030    2    1    2    0    0  0.00000000000E+00  0.00000000000E+00  0.11863890009E+04  0.13934143017E+04  0.73081088852E+03 0.  0.
        3    1    3    3  502    0  0.35765732096E+03 -0.58523638277E+02  0.50422530195E+03  0.62095647255E+03  0.10100000352E+00 0. -1.
       -3    1    3    3    0  502 -0.35765732096E+03  0.58523638277E+02  0.68216369897E+03  0.77245782918E+03  0.10100000352E+00 0.  1.
</event>
<event>
 5   0  0.1509629E-02  0.7909428E+03  0.7818609E-02  0.9573220E-01
       -1   -1    0    0    0  501  0.00000000000E+00  0.00000000000E+00  0.15620708693E+03  0.15620708701E+03  0.50400001928E-02 0.  1.
        1   -1    0    0  501    0  0.00000000000E+00  0.00000000000E+00 -0.10012197482E+04  0.10012197482E+04  0.50400001928E-02 0. -1.
    10030    2    1    2    0    0  0.00000000000E+00  0.00000000000E+00 -0.84501266123E+03  0.11574268352E+04  0.79094277994E+03 0.  0.
        5    1    3    3  502    0  0.74449158496E+02 -0.23750166493E+03  0.27163598645E+02  0.25041898717E+03  0.46999998093E+01 0.  1.
       -5    1    3    3    0  502 -0.74449158496E+02  0.23750166493E+03 -0.87217625987E+03  0.90700784800E+03  0.46999998093E+01 0. -1.
</event>
<event>
 5   0  0.1498375E-02  0.8137147E+03  0.7818609E-02  0.9540375E-01
        1   -1    0    0  501    0  0.00000000000E+00  0.00000000000E+00  0.15108939470E+04  0.15108939470E+04  0.50400001928E-02 0.  1.
       -1   -1    0    0    0  501  0.00000000000E+00  0.00000000000E+00 -0.10955958233E+03  0.10955958245E+03  0.50400001928E-02 0. -1.
    10030    2    1    2    0    0  0.00000000000E+00  0.00000000000E+00  0.14013343647E+04  0.16204535295E+04  0.81371471632E+03 0.  0.
        4    1    3    3  502    0 -0.33377623652E+03 -0.14165490528E+03  0.10681845459E+04  0.11280481041E+04  0.12699999809E+01 0.  1.
       -4    1    3    3    0  502  0.33377623652E+03  0.14165490528E+03  0.33314981885E+03  0.49240542539E+03  0.12699999809E+01 0. -1.
</event>
<event>
 5   0  0.1471290E-02  0.8016599E+03  0.7818609E-02  0.9557618E-01
       -1   -1    0    0    0  501  0.00000000000E+00  0.00000000000E+00  0.10822374607E+03  0.10822374619E+03  0.50400001928E-02 0. -1.
        1   -1    0    0  501    0  0.00000000000E+00  0.00000000000E+00 -0.14845601927E+04  0.14845601928E+04  0.50400001928E-02 0.  1.
    10030    2    1    2    0    0  0.00000000000E+00  0.00000000000E+00 -0.13763364467E+04  0.15927839389E+04  0.80165994143E+03 0.  0.
        2    1    3    3  502    0  0.30401833935E+03  0.25276624570E+03 -0.55717509731E+03  0.68319983512E+03  0.25500000920E-02 0. -1.
       -2    1    3    3    0  502 -0.30401833935E+03 -0.25276624570E+03 -0.81916134937E+03  0.90958410383E+03  0.25500000920E-02 0.  1.
</event>
<event>
 5   0  0.2422031E-02  0.7889307E+03  0.7818609E-02  0.9576179E-01
        2   -1    0    0  501    0  0.00000000000E+00  0.00000000000E+00  0.98897506900E+03  0.98897506900E+03  0.25500000920E-02 0.  1.
       -2   -1    0    0    0  501  0.00000000000E+00  0.00000000000E+00 -0.15733755434E+03  0.15733755436E+03  0.25500000920E-02 0. -1.
    10030    2    1    2    0    0  0.00000000000E+00  0.00000000000E+00  0.83163751466E+03  0.11463126234E+04  0.78893071603E+03 0.  0.
        4    1    3    3  502    0  0.20186132946E+03 -0.32995377678E+03  0.30342213106E+03  0.49161376472E+03  0.12699999809E+01 0. -1.
       -4    1    3    3    0  502 -0.20186132946E+03  0.32995377678E+03  0.52821538360E+03  0.65469885865E+03  0.12699999809E+01 0.  1.
</event>
<event>
 5   0  0.2571778E-02  0.6038992E+03  0.7818609E-02  0.9897349E-01
        2   -1    0    0  501    0  0.00000000000E+00  0.00000000000E+00  0.62066231526E+03  0.62066231527E+03  0.25500000920E-02 0. -1.
       -2   -1    0    0    0  501  0.00000000000E+00  0.00000000000E+00 -0.14689722811E+03  0.14689722813E+03  0.25500000920E-02 0.  1.
    10030    2    1    2    0    0  0.00000000000E+00  0.00000000000E+00  0.47376508715E+03  0.76755954340E+03  0.60389924231E+03 0.  0.
        1    1    3    3  502    0 -0.19284408038E+03 -0.31934063846E+01 -0.58402909159E+02  0.20151907355E+03  0.50400001928E-02 0.  1.
       -1    1    3    3    0  502  0.19284408038E+03  0.31934063846E+01  0.53216799631E+03  0.56604046985E+03  0.50400001928E-02 0. -1.
</event>
<event>
 5   0  0.1498375E-02  0.8035590E+03  0.7818609E-02  0.9554880E-01
       -1   -1    0    0    0  501  0.00000000000E+00  0.00000000000E+00  0.32317536747E+03  0.32317536751E+03  0.50400001928E-02 0.  1.
        1   -1    0    0  501    0  0.00000000000E+00  0.00000000000E+00 -0.49950213628E+03  0.49950213631E+03  0.50400001928E-02 0. -1.
    10030    2    1    2    0    0  0.00000000000E+00  0.00000000000E+00 -0.17632676881E+03  0.82267750382E+03  0.80355904941E+03 0.  0.
        4    1    3    3  502    0  0.17913226106E+03  0.34473638752E+03 -0.19303904117E+03  0.43381704456E+03  0.12699999809E+01 0. -1.
       -4    1    3    3    0  502 -0.17913226106E+03 -0.34473638752E+03  0.16712272364E+02  0.38886045926E+03  0.12699999809E+01 0.  1.
</event>
<event>
 5   0  0.2454354E-02  0.7574903E+03  0.7818609E-02  0.9623672E-01
       -2   -1    0    0    0  501  0.00000000000E+00  0.00000000000E+00  0.16881013989E+03  0.16881013991E+03  0.25500000920E-02 0. -1.
        2   -1    0    0  501    0  0.00000000000E+00  0.00000000000E+00 -0.84975872288E+03  0.84975872288E+03  0.25500000920E-02 0.  1.
    10030    2    1    2    0    0  0.00000000000E+00  0.00000000000E+00 -0.68094858299E+03  0.10185688628E+04  0.75749030065E+03 0.  0.
        5    1    3    3  502    0 -0.17147749740E+03 -0.25667120122E+03 -0.45440608600E+02  0.31204419008E+03  0.46999998093E+01 0. -1.
       -5    1    3    3    0  502  0.17147749740E+03  0.25667120122E+03 -0.63550797439E+03  0.70652467272E+03  0.46999998093E+01 0.  1.
</event>
<event>
 5   0  0.1498375E-02  0.6462995E+03  0.7818609E-02  0.9813748E-01
       -1   -1    0    0    0  501  0.00000000000E+00  0.00000000000E+00  0.78885790147E+02  0.78885790308E+02  0.50400001928E-02 0. -1.
        1   -1    0    0  501    0  0.00000000000E+00  0.00000000000E+00 -0.13237586445E+04  0.13237586445E+04  0.50400001928E-02 0.  1.
    10030    2    1    2    0    0  0.00000000000E+00  0.00000000000E+00 -0.12448728543E+04  0.14026444348E+04  0.64629945614E+03 0.  0.
        4    1    3    3  502    0  0.17506959911E+03 -0.16542123844E+01 -0.32969181495E+02  0.17815914453E+03  0.12699999809E+01 0. -1.
       -4    1    3    3    0  502 -0.17506959911E+03  0.16542123844E+01 -0.12119036728E+04  0.12244852903E+04  0.12699999809E+01 0.  1.
</event>
<event>
 5   0  0.1624094E-02  0.7944207E+03  0.7818609E-02  0.9568128E-01
       -1   -1    0    0    0  501  0.00000000000E+00  0.00000000000E+00  0.26203087399E+03  0.26203087404E+03  0.50400001928E-02 0. -1.
        1   -1    0    0  501    0  0.00000000000E+00  0.00000000000E+00 -0.60212775344E+03  0.60212775346E+03  0.50400001928E-02 0.  1.
    10030    2    1    2    0    0  0.00000000000E+00  0.00000000000E+00 -0.34009687944E+03  0.86415862750E+03  0.79442069842E+03 0.  0.
        3    1    3    3  502    0 -0.23695013083E+03  0.14910489689E+03 -0.47656139806E+03  0.55271006061E+03  0.10100000352E+00 0.  1.
       -3    1    3    3    0  502  0.23695013083E+03 -0.14910489689E+03  0.13646451862E+03  0.31144856689E+03  0.10100000352E+00 0. -1.
</event>
<event>
 5   0  0.9919125E-03  0.6770367E+03  0.7818609E-02  0.9757329E-01
        3   -1    0    0  501    0  0.00000000000E+00  0.00000000000E+00  0.13418046389E+03  0.13418050190E+03  0.10100000352E+00 0.  1.
       -3   -1    0    0    0  501  0.00000000000E+00  0.00000000000E+00 -0.85403385327E+03  0.85403385925E+03  0.10100000352E+00 0. -1.
    10030    2    1    2    0    0  0.00000000000E+00  0.00000000000E+00 -0.71985338938E+03  0.98821436115E+03  0.67703672085E+03 0.  0.
        4    1    3    3  502    0 -0.33798272710E+03 -0.18577981785E+02 -0.36569213033E+03  0.49830694587E+03  0.12699999809E+01 0.  1.
       -4    1    3    3    0  502  0.33798272710E+03  0.18577981785E+02 -0.35416125906E+03  0.48990741528E+03  0.12699999809E+01 0. -1.
</event>
<event>
 5   0  0.1471290E-02  0.8074195E+03  0.7818609E-02  0.9549339E-01
        1   -1    0    0  501    0  0.00000000000E+00  0.00000000000E+00  0.67781011545E+03  0.67781011547E+03  0.50400001928E-02 0.  1.
       -1   -1    0    0    0  501  0.00000000000E+00  0.00000000000E+00 -0.24045315427E+03  0.24045315433E+03  0.50400001928E-02 0. -1.
    10030    2    1    2    0    0  0.00000000000E+00  0.00000000000E+00  0.43735696118E+03  0.91826326979E+03  0.80741954470E+03 0.  0.
        2    1    3    3  502    0  0.64725406440E+01  0.86614348269E+02 -0.22970133464E+03  0.24557410745E+03  0.25500000920E-02 0. -1.
       -2    1    3    3    0  502 -0.64725406440E+01 -0.86614348269E+02  0.66705829582E+03  0.67268916234E+03  0.25500000920E-02 0.  1.
</event>
<event>
 5   0  0.9919125E-03  0.7853159E+03  0.7818609E-02  0.9581518E-01
        3   -1    0    0  501    0  0.00000000000E+00  0.00000000000E+00  0.27809898367E+03  0.27809900202E+03  0.10100000352E+00 0.  1.
       -3   -1    0    0    0  501  0.00000000000E+00  0.00000000000E+00 -0.55440781774E+03  0.55440782694E+03  0.10100000352E+00 0. -1.
    10030    2    1    2    0    0  0.00000000000E+00  0.00000000000E+00 -0.27630883406E+03  0.83250682895E+03  0.78531589088E+03 0.  0.
        1    1    3    3  502    0  0.11630471168E+03  0.20413556793E+03  0.19536555979E+03  0.30555820727E+03  0.50400001928E-02 0.  1.
       -1    1    3    3    0  502 -0.11630471168E+03 -0.20413556793E+03 -0.47167439385E+03  0.52694862168E+03  0.50400001928E-02 0. -1.
</event>
<event>
 5   0  0.2422031E-02  0.8034167E+03  0.7818609E-02  0.9555085E-01
        2   -1    0    0  501    0  0.00000000000E+00  0.00000000000E+00  0.66732124041E+03  0.66732124041E+03  0.25500000920E-02 0.  1.
       -2   -1    0    0    0  501  0.00000000000E+00  0.00000000000E+00 -0.24181695436E+03  0.24181695437E+03  0.25500000920E-02 0. -1.
    10030    2    1    2    0    0  0.00000000000E+00  0.00000000000E+00  0.42550428605E+03  0.90913819478E+03  0.80341667879E+03 0.  0.
        4    1    3    3  502    0  0.17328452867E+02 -0.32659002239E+03 -0.51193859721E+02  0.33103435196E+03  0.12699999809E+01 0. -1.
       -4    1    3    3    0  502 -0.17328452867E+02  0.32659002239E+03  0.47669814577E+03  0.57810384282E+03  0.12699999809E+01 0.  1.
</event>
<event>
 5   0  0.1523811E-02  0.7929524E+03  0.7818609E-02  0.9570275E-01
        1   -1    0    0  501    0  0.00000000000E+00  0.00000000000E+00  0.11382911636E+04  0.11382911636E+04  0.50400001928E-02 0.  1.
       -1   -1    0    0    0  501  0.00000000000E+00  0.00000000000E+00 -0.13809593382E+03  0.13809593391E+03  0.50400001928E-02 0. -1.
    10030    2    1    2    0    0  0.00000000000E+00  0.00000000000E+00  0.10001952298E+04  0.12763870976E+04  0.79295241035E+03 0.  0.
        1    1    3    3  502    0 -0.49811129356E+01  0.21828639118E+02 -0.13707749870E+03  0.13889399428E+03  0.50400001928E-02 0. -1.
       -1    1    3    3    0  502  0.49811129356E+01 -0.21828639118E+02  0.11372727285E+04  0.11374931033E+04  0.50400001928E-02 0.  1.
</event>
<event>
 5   0  0.1624094E-02  0.8063531E+03  0.7818609E-02  0.9550867E-01
       -1   -1    0    0    0  501  0.00000000000E+00  0.00000000000E+00  0.10715280156E+03  0.10715280168E+03  0.50400001928E-02 0. -1.
        1   -1    0    0  501    0  0.00000000000E+00  0.00000000000E+00 -0.15170048466E+04  0.15170048466E+04  0.50400001928E-02 0.  1.
    10030    2    1    2    0    0  0.00000000000E+00  0.00000000000E+00 -0.14098520450E+04  0.16241576483E+04  0.80635307254E+03 0.  0.
        3    1    3    3  502    0  0.79876606244E+02 -0.18389845253E+03 -0.14094717343E+04  0.14236605962E+04  0.10100000352E+00 0.  1.
       -3    1    3    3    0  502 -0.79876606244E+02  0.18389845253E+03 -0.38031071097E+00  0.20049705211E+03  0.10100000352E+00 0. -1.
</event>
<event>
 5   0  0.2460312E-02  0.7978233E+03  0.7818609E-02  0.9563173E-01
       -2   -1    0    0    0  501  0.00000000000E+00  0.00000000000E+00  0.43320318483E+03  0.43320318484E+03  0.25500000920E-02 0.  1.
        2   -1    0    0  501    0  0.00000000000E+00  0.00000000000E+00 -0.36733454762E+03  0.36733454762E+03  0.25500000920E-02 0. -1.
    10030    2    1    2    0    0  0.00000000000E+00  0.00000000000E+00  0.65868637220E+02  0.80053773247E+03  0.79782327851E+03 0.  0.
        2    1    3    3  502    0  0.22822500632E+03  0.32498623038E+03  0.70849020690E+02  0.40338850651E+03  0.25500000920E-02 0.  1.
       -2    1    3    3    0  502 -0.22822500632E+03 -0.32498623038E+03 -0.49803834701E+01  0.39714922595E+03  0.25500000920E-02 0. -1.
</event>
<event>
 5   0  0.2422031E-02  0.7937251E+03  0.7818609E-02  0.9569144E-01
       -2   -1    0    0    0  501  0.00000000000E+00  0.00000000000E+00  0.70168877057E+02  0.70168877104E+02  0.25500000920E-02 0. -1.
        2   -1    0    0  501    0  0.00000000000E+00  0.00000000000E+00 -0.22445829914E+04  0.22445829914E+04  0.25500000920E-02 0.  1.
    10030    2    1    2    0    0  0.00000000000E+00  0.00000000000E+00 -0.21744141144E+04  0.23147518685E+04  0.79372506077E+03 0.  0.
        4    1    3    3  502    0 -0.20186872958E+03  0.31106508930E+03 -0.67492454229E+03  0.77008910163E+03  0.12699999809E+01 0. -1.
       -4    1    3    3    0  502  0.20186872958E+03 -0.31106508930E+03 -0.14994895721E+04  0.15446627669E+04  0.12699999809E+01 0.  1.
</event>
<event>
 5   0  0.1509629E-02  0.8000539E+03  0.7818609E-02  0.9559939E-01
        1   -1    0    0  501    0  0.00000000000E+00  0.00000000000E+00  0.53397841426E+03  0.53397841429E+03  0.50400001928E-02 0.  1.
       -1   -1    0    0    0  501  0.00000000000E+00  0.00000000000E+00 -0.29967796867E+03  0.29967796871E+03  0.50400001928E-02 0. -1.
    10030    2    1    2    0    0  0.00000000000E+00  0.00000000000E+00  0.23430044560E+03  0.83365638300E+03  0.80005391450E+03 0.  0.
        5    1    3    3  502    0 -0.26248592090E+03  0.26961745010E+03  0.25852108384E+03  0.45656069570E+03  0.46999998093E+01 0.  1.
       -5    1    3    3    0  502  0.26248592090E+03 -0.26961745010E+03 -0.24220638242E+02  0.37709568730E+03  0.46999998093E+01 0. -1.
</event>
<event>
 5   0  0.2422031E-02  0.7976265E+03  0.7818609E-02  0.9563459E-01
        2   -1    0    0  501    0  0.00000000000E+00  0.00000000000E+00  0.29724838336E+03  0.29724838337E+03  0.25500000920E-02 0.  1.
       -2   -1    0    0    0  501  0.00000000000E+00  0.00000000000E+00 -0.53508117573E+03  0.53508117574E+03  0.25500000920E-02 0. -1.
    10030    2    1    2    0    0  0.00000000000E+00  0.00000000000E+00 -0.23783279237E+03  0.83232955911E+03  0.79762651526E+03 0.  0.
        4    1    3    3  502    0 -0.96955888800E+02 -0.33871450231E+03 -0.31392242801E+03  0.47188649287E+03  0.12699999809E+01 0.  1.
       -4    1    3    3    0  502  0.96955888800E+02  0.33871450231E+03  0.76089635636E+02  0.36044306624E+03  0.12699999809E+01 0. -1.
</event>
<event>
 5   0  0.1471290E-02  0.7809500E+03  0.7818609E-02  0.9588008E-01
        1   -1    0    0  501    0  0.00000000000E+00  0.00000000000E+00  0.47379633398E+03  0.47379633401E+03  0.50400001928E-02 0.  1.
       -1   -1    0    0    0  501  0.00000000000E+00  0.00000000000E+00 -0.32180645070E+03  0.32180645074E+03  0.50400001928E-02 0. -1.
    10030    2    1    2    0    0  0.00000000000E+00  0.00000000000E+00  0.15198988328E+03  0.79560278475E+03  0.78094997694E+03 0.  0.
        2    1    3    3  502    0  0.36209615561E+03  0.12314491168E+03 -0.41734795386E+01  0.38248622605E+03  0.25500000920E-02 0. -1.
       -2    1    3    3    0  502 -0.36209615561E+03 -0.12314491168E+03  0.15616336282E+03  0.41311655870E+03  0.25500000920E-02 0.  1.
</event>
<event>
 5   0  0.2454354E-02  0.8164245E+03  0.7818609E-02  0.9536543E-01
        2   -1    0    0  501    0  0.00000000000E+00  0.00000000000E+00  0.11467661716E+04  0.11467661716E+04  0.25500000920E-02 0. -1.
       -2   -1    0    0    0  501  0.00000000000E+00  0.00000000000E+00 -0.14531057455E+03  0.14531057458E+03  0.25500000920E-02 0.  1.
    10030    2    1    2    0    0  0.00000000000E+00  0.00000000000E+00  0.10014555971E+04  0.12920767462E+04  0.81642452509E+03 0.  0.
        5    1    3    3  502    0  0.78386052314E+01 -0.25775544836E+03 -0.25339851430E-01  0.25791743937E+03  0.46999998093E+01 0.  1.
       -5    1    3    3    0  502 -0.78386052314E+01  0.25775544836E+03  0.10014809369E+04  0.10341593068E+04  0.46999998093E+01 0. -1.
</event>
<event>
 5   0  0.1471290E-02  0.7878326E+03  0.7818609E-02  0.9577798E-01
        1   -1    0    0  501    0  0.00000000000E+00  0.00000000000E+00  0.67717886552E+03  0.67717886554E+03  0.50400001928E-02 0.  1.
       -1   -1    0    0    0  501  0.00000000000E+00  0.00000000000E+00 -0.22914187279E+03  0.22914187284E+03  0.50400001928E-02 0. -1.
    10030    2    1    2    0    0  0.00000000000E+00  0.00000000000E+00  0.44803699273E+03  0.90632073838E+03  0.78783255452E+03 0.  0.
        2    1    3    3  502    0  0.18544284756E+03 -0.29659614059E+03  0.43240157412E+03  0.55617393110E+03  0.25500000920E-02 0.  1.
       -2    1    3    3    0  502 -0.18544284756E+03  0.29659614059E+03  0.15635418613E+02  0.35014680728E+03  0.25500000920E-02 0. -1.
</event>
<event>
 5   0  0.2464780E-02  0.7609705E+03  0.7818609E-02  0.9618295E-01
       -2   -1    0    0    0  501  0.00000000000E+00  0.00000000000E+00  0.17992017733E+03  0.17992017735E+03  0.25500000920E-02 0. -1.
        2   -1    0    0  501    0  0.00000000000E+00  0.00000000000E+00 -0.80462919007E+03  0.80462919007E+03  0.25500000920E-02 0.  1.
    10030    2    1    2    0    0  0.00000000000E+00  0.00000000000E+00 -0.62470901273E+03  0.98454936742E+03  0.76097050291E+03 0.  0.
        3    1    3    3  502    0 -0.60853670017E+02 -0.13636820509E+03  0.14042186353E+03  0.20498235649E+03  0.10100000352E+00 0. -1.
       -3    1    3    3    0  502  0.60853670017E+02  0.13636820509E+03 -0.76513087626E+03  0.77956701093E+03  0.10100000352E+00 0.  1.
</event>
<event>
 5   0  0.9919125E-03  0.8040082E+03  0.7818609E-02  0.9554233E-01
        4   -1    0    0  501    0  0.00000000000E+00  0.00000000000E+00  0.37556255203E+03  0.37556469933E+03  0.12699999809E+01 0.  1.
       -4   -1    0    0    0  501  0.00000000000E+00  0.00000000000E+00 -0.43030300821E+03  0.43030488235E+03  0.12699999809E+01 0. -1.
    10030    2    1    2    0    0  0.00000000000E+00  0.00000000000E+00 -0.54740456187E+02  0.80586958168E+03  0.80400824942E+03 0.  0.
        2    1    3    3  502    0  0.10944359441E+03  0.35578539911E+03  0.12479085765E+03  0.39259891586E+03  0.25500000920E-02 0.  1.
       -2    1    3    3    0  502 -0.10944359441E+03 -0.35578539911E+03 -0.17953131383E+03  0.41327066582E+03  0.25500000920E-02 0. -1.
</event>
<event>
 5   0  0.2460312E-02  0.7975870E+03  0.7818609E-02  0.9563516E-01
       -2   -1    0    0    0  501  0.00000000000E+00  0.00000000000E+00  0.59967763483E+03  0.59967763483E+03  0.25500000920E-02 0. -1.
        2   -1    0    0  501    0  0.00000000000E+00  0.00000000000E+00 -0.26520290936E+03  0.26520290937E+03  0.25500000920E-02 0.  1.
    10030    2    1    2    0    0  0.00000000000E+00  0.00000000000E+00  0.33447472547E+03  0.86488054421E+03  0.79758699448E+03 0.  0.
        2    1    3    3  502    0 -0.65570561908E+02 -0.15611825226E+03 -0.22428506632E+03  0.28102704186E+03  0.25500000920E-02 0.  1.
       -2    1    3    3    0  502  0.65570561908E+02  0.15611825226E+03  0.55875979179E+03  0.58385350235E+03  0.25500000920E-02 0. -1.
</event>
<event>
 5   0  0.1509629E-02  0.7781819E+03  0.7818609E-02  0.9592146E-01
       -1   -1    0    0    0  501  0.00000000000E+00  0.00000000000E+00  0.94921750825E+02  0.94921750959E+02  0.50400001928E-02 0.  1.
        1   -1    0    0  501    0  0.00000000000E+00  0.00000000000E+00 -0.15949111609E+04  0.15949111609E+04  0.50400001928E-02 0. -1.
    10030    2    1    2    0    0  0.00000000000E+00  0.00000000000E+00 -0.14999894101E+04  0.16898329119E+04  0.77818188086E+03 0.  0.
        5    1    3    3  502    0 -0.23288848796E+03  0.15777907913E+02 -0.14259032899E+04  0.14448904015E+04  0.46999998093E+01 0. -1.
       -5    1    3    3    0  502  0.23288848796E+03 -0.15777907913E+02 -0.74086120232E+02  0.24494251042E+03  0.46999998093E+01 0.  1.
</event>
<event>
 5   0  0.2422031E-02  0.8067026E+03  0.7818609E-02  0.9550366E-01
       -2   -1    0    0    0  501  0.00000000000E+00  0.00000000000E+00  0.17927881192E+03  0.17927881194E+03  0.25500000920E-02 0. -1.
        2   -1    0    0  501    0  0.00000000000E+00  0.00000000000E+00 -0.90748191939E+03  0.90748191939E+03  0.25500000920E-02 0.  1.
    10030    2    1    2    0    0  0.00000000000E+00  0.00000000000E+00 -0.72820310747E+03  0.10867607313E+04  0.80670262268E+03 0.  0.
        4    1    3    3  502    0  0.30555448320E+03  0.26299438267E+03 -0.38119939178E+03  0.55483707223E+03  0.12699999809E+01 0.  1.
       -4    1    3    3    0  502 -0.30555448320E+03 -0.26299438267E+03 -0.34700371569E+03  0.53192365911E+03  0.12699999809E+01 0. -1.
</event>
<event>
 5   0  0.2454354E-02  0.8043541E+03  0.7818609E-02  0.9553736E-01
       -2   -1    0    0    0  501  0.00000000000E+00  0.00000000000E+00  0.17067729699E+03  0.17067729701E+03  0.25500000920E-02 0.  1.
        2   -1    0    0  501    0  0.00000000000E+00  0.00000000000E+00 -0.94767356046E+03  0.94767356047E+03  0.25500000920E-02 0. -1.
    10030    2    1    2    0    0  0.00000000000E+00  0.00000000000E+00 -0.77699626347E+03  0.11183508575E+04  0.80435405573E+03 0.  0.
        5    1    3    3  502    0 -0.11705441562E+03  0.33698561267E+03 -0.13038575890E+03  0.37984677896E+03  0.46999998093E+01 0.  1.
       -5    1    3    3    0  502  0.11705441562E+03 -0.33698561267E+03 -0.64661050457E+03  0.73850407852E+03  0.46999998093E+01 0. -1.
</event>
<event>
 5   0  0.1498375E-02  0.7928194E+03  0.7818609E-02  0.9570469E-01
        1   -1    0    0  501    0  0.00000000000E+00  0.00000000000E+00  0.11645054345E+04  0.11645054345E+04  0.50400001928E-02 0.  1.
       -1   -1    0    0    0  501  0.00000000000E+00  0.00000000000E+00 -0.13494197022E+03  0.13494197032E+03  0.50400001928E-02 0. -1.
    10030    2    1    2    0    0  0.00000000000E+00  0.00000000000E+00  0.10295634642E+04  0.12994474048E+04  0.79281941886E+03 0.  0.
        4    1    3    3  502    0 -0.22968575624E+03  0.11589818439E+03  0.10090792467E+04  0.10413599161E+04  0.12699999809E+01 0.  1.
       -4    1    3    3    0  502  0.22968575624E+03 -0.11589818439E+03  0.20484217531E+02  0.25808748872E+03  0.12699999809E+01 0. -1.
</event>
<event>
 5   0  0.9919125E-03  0.8132067E+03  0.7818609E-02  0.9541095E-01
        4   -1    0    0  501    0  0.00000000000E+00  0.00000000000E+00  0.30228261352E+03  0.30228528138E+03  0.12699999809E+01 0. -1.
       -4   -1    0    0    0  501  0.00000000000E+00  0.00000000000E+00 -0.54692034093E+03  0.54692181546E+03  0.12699999809E+01 0.  1.
    10030    2    1    2    0    0  0.00000000000E+00  0.00000000000E+00 -0.24463772741E+03  0.84920709684E+03  0.81320666232E+03 0.  0.
        4    1    3    3  502    0 -0.31751853168E+03  0.24480372130E+03 -0.51664342135E+02  0.40424954802E+03  0.12699999809E+01 0.  1.
       -4    1    3    3    0  502  0.31751853168E+03 -0.24480372130E+03 -0.19297338528E+03  0.44495754882E+03  0.12699999809E+01 0. -1.
</event>
<event>
 5   0  0.2454354E-02  0.7979134E+03  0.7818609E-02  0.9563042E-01
        2   -1    0    0  501    0  0.00000000000E+00  0.00000000000E+00  0.10425909701E+04  0.10425909701E+04  0.25500000920E-02 0. -1.
       -2   -1    0    0    0  501  0.00000000000E+00  0.00000000000E+00 -0.15266430934E+03  0.15266430936E+03  0.25500000920E-02 0.  1.
    10030    2    1    2    0    0  0.00000000000E+00  0.00000000000E+00  0.88992666071E+03  0.11952552794E+04  0.79791335465E+03 0.  0.
        5    1    3    3  502    0 -0.38775629645E+03 -0.93411919992E+02  0.43301626281E+03  0.58873245714E+03  0.46999998093E+01 0.  1.
       -5    1    3    3    0  502  0.38775629645E+03  0.93411919992E+02  0.45691039790E+03  0.60652282228E+03  0.46999998093E+01 0. -1.
</event>
<event>
 5   0  0.1624094E-02  0.7905513E+03  0.7818609E-02  0.9573795E-01
       -1   -1    0    0    0  501  0.00000000000E+00  0.00000000000E+00  0.22999167500E+03  0.22999167505E+03  0.50400001928E-02 0. -1.
        1   -1    0    0  501    0  0.00000000000E+00  0.00000000000E+00 -0.67934121701E+03  0.67934121702E+03  0.50400001928E-02 0.  1.
    10030    2    1    2    0    0  0.00000000000E+00  0.00000000000E+00 -0.44934954201E+03  0.90933289208E+03  0.79055126191E+03 0.  0.
        3    1    3    3  502    0  0.30539052263E+03 -0.13206923581E+03 -0.47013200416E+03  0.57595986483E+03  0.10100000352E+00 0.  1.
       -3    1    3    3    0  502 -0.30539052263E+03  0.13206923581E+03  0.20782462152E+02  0.33337302724E+03  0.10100000352E+00 0. -1.
</event>
<event>
 5   0  0.2571778E-02  0.7986452E+03  0.7818609E-02  0.9561980E-01
       -2   -1    0    0    0  501  0.00000000000E+00  0.00000000000E+00  0.25490821611E+03  0.25490821612E+03  0.25500000920E-02 0.  1.
        2   -1    0    0  501    0  0.00000000000E+00  0.00000000000E+00 -0.62555278433E+03  0.62555278433E+03  0.25500000920E-02 0. -1.
    10030    2    1    2    0    0  0.00000000000E+00  0.00000000000E+00 -0.37064456822E+03  0.88046100045E+03  0.79864521370E+03 0.  0.
        1    1    3    3  502    0 -0.53016374783E+02 -0.24955053569E+02 -0.62078743055E+03  0.62354673013E+03  0.50400001928E-02 0. -1.
       -1    1    3    3    0  502  0.53016374783E+02  0.24955053569E+02  0.25014286233E+03  0.25691427032E+03  0.50400001928E-02 0.  1.
</event>
<event>
 5   0  0.1523811E-02  0.8010930E+03  0.7818609E-02  0.9558436E-01
        1   -1    0    0  501    0  0.00000000000E+00  0.00000000000E+00  0.10119086080E+04  0.10119086080E+04  0.50400001928E-02 0. -1.
       -1   -1    0    0    0  501  0.00000000000E+00  0.00000000000E+00 -0.15854937662E+03  0.15854937670E+03  0.50400001928E-02 0.  1.
    10030    2    1    2    0    0  0.00000000000E+00  0.00000000000E+00  0.85335923134E+03  0.11704579847E+04  0.80109295102E+03 0.  0.
        1    1    3    3  502    0 -0.29085101753E+03 -0.45739317822E+02  0.82346631785E+03  0.87451882556E+03  0.50400001928E-02 0. -1.
       -1    1    3    3    0  502  0.29085101753E+03  0.45739317822E+02  0.29892913486E+02  0.29593915911E+03  0.50400001928E-02 0.  1.
</event>
<event>
 5   0  0.2571778E-02  0.7964526E+03  0.7818609E-02  0.9565166E-01
       -2   -1    0    0    0  501  0.00000000000E+00  0.00000000000E+00  0.50999151704E+03  0.50999151705E+03  0.25500000920E-02 0.  1.
        2   -1    0    0  501    0  0.00000000000E+00  0.00000000000E+00 -0.31095458223E+03  0.31095458224E+03  0.25500000920E-02 0. -1.
    10030    2    1    2    0    0  0.00000000000E+00  0.00000000000E+00  0.19903693481E+03  0.82094609929E+03  0.79645263294E+03 0.  0.
        1    1    3    3  502    0 -0.29216314715E+03 -0.16141101493E+03 -0.12435054157E+03  0.35619640300E+03  0.50400001928E-02 0. -1.
       -1    1    3    3    0  502  0.29216314715E+03  0.16141101493E+03  0.32338747639E+03  0.46474969629E+03  0.50400001928E-02 0.  1.
</event>
<event>
 5   0  0.2571778E-02  0.7983525E+03  0.7818609E-02  0.9562405E-01
       -2   -1    0    0    0  501  0.00000000000E+00  0.00000000000E+00  0.29310064243E+03  0.29310064244E+03  0.25500000920E-02 0.  1.
        2   -1    0    0  501    0  0.00000000000E+00  0.00000000000E+00 -0.54364148592E+03  0.54364148592E+03  0.25500000920E-02 0. -1.
    10030    2    1    2    0    0  0.00000000000E+00  0.00000000000E+00 -0.25054084349E+03  0.83674212836E+03  0.79835247549E+03 0.  0.
        1    1    3    3  502    0  0.32342513654E+03 -0.11350649239E+03 -0.33969081976E+03  0.48257372060E+03  0.50400001928E-02 0. -1.
       -1    1    3    3    0  502 -0.32342513654E+03  0.11350649239E+03  0.89149976269E+02  0.35416840776E+03  0.50400001928E-02 0.  1.
</event>
<event>
 5   0  0.2454354E-02  0.7840520E+03  0.7818609E-02  0.9583392E-01
       -2   -1    0    0    0  501  0.00000000000E+00  0.00000000000E+00  0.38213860679E+03  0.38213860680E+03  0.25500000920E-02 0.  1.
        2   -1    0    0  501    0  0.00000000000E+00  0.00000000000E+00 -0.40216916853E+03  0.40216916854E+03  0.25500000920E-02 0. -1.
    10030    2    1    2    0    0  0.00000000000E+00  0.00000000000E+00 -0.20030561744E+02  0.78430777534E+03  0.78405195175E+03 0.  0.
        5    1    3    3  502    0 -0.24854685387E+03 -0.29907328664E+03 -0.59447053911E+02  0.39341633363E+03  0.46999998093E+01 0. -1.
       -5    1    3    3    0  502  0.24854685387E+03  0.29907328664E+03  0.39416492167E+02  0.39089144171E+03  0.46999998093E+01 0.  1.
</event>
<event>
 5   0  0.2464780E-02  0.7840529E+03  0.7818609E-02  0.9583391E-01
        2   -1    0    0  501    0  0.00000000000E+00  0.00000000000E+00  0.57554675582E+03  0.57554675582E+03  0.25500000920E-02 0. -1.
       -2   -1    0    0    0  501  0.00000000000E+00  0.00000000000E+00 -0.26702391104E+03  0.26702391106E+03  0.25500000920E-02 0.  1.
    10030    2    1    2    0    0  0.00000000000E+00  0.00000000000E+00  0.30852284477E+03  0.84257066688E+03  0.78405292100E+03 0.  0.
        3    1    3    3  502    0  0.21166693516E+03 -0.24819105023E+03  0.38793719361E+03  0.50685004216E+03  0.10100000352E+00 0. -1.
       -3    1    3    3    0  502 -0.21166693516E+03  0.24819105023E+03 -0.79414348834E+02  0.33572062471E+03  0.10100000352E+00 0.  1.
</event>
<event>
 5   0  0.1471290E-02  0.8014325E+03  0.7818609E-02  0.9557946E-01
       -1   -1    0    0    0  501  0.00000000000E+00  0.00000000000E+00  0.10114152784E+03  0.10114152797E+03  0.50400001928E-02 0.  1.
        1   -1    0    0  501    0  0.00000000000E+00  0.00000000000E+00 -0.15876120714E+04  0.15876120714E+04  0.50400001928E-02 0. -1.
    10030    2    1    2    0    0  0.00000000000E+00  0.00000000000E+00 -0.14864705435E+04  0.16887535994E+04  0.80143249406E+03 0.  0.
        2    1    3    3  502    0 -0.65789931324E+02 -0.70686280603E+02 -0.15627279685E+04  0.15657086475E+04  0.25500000920E-02 0. -1.
       -2    1    3    3    0  502  0.65789931324E+02  0.70686280603E+02  0.76257424908E+02  0.12304495190E+03  0.25500000920E-02 0.  1.
</event>
<event>
 5   0  0.1624094E-02  0.8103233E+03  0.7818609E-02  0.9545194E-01
       -1   -1    0    0    0  501  0.00000000000E+00  0.00000000000E+00  0.11883431321E+03  0.11883431331E+03  0.50400001928E-02 0. -1.
        1   -1    0    0  501    0  0.00000000000E+00  0.00000000000E+00 -0.13813853307E+04  0.13813853307E+04  0.50400001928E-02 0.  1.
    10030    2    1    2    0    0  0.00000000000E+00  0.00000000000E+00 -0.12625510175E+04  0.15002196440E+04  0.81032333578E+03 0.  0.
        3    1    3    3  502    0 -0.19279457501E+03  0.23753483184E+03 -0.13947800478E+03  0.33622413433E+03  0.10100000352E+00 0. -1.
       -3    1    3    3    0  502  0.19279457501E+03 -0.23753483184E+03 -0.11230730127E+04  0.11639955096E+04  0.10100000352E+00 0.  1.
</event>
<event>
 5   0  0.9919125E-03  0.7855379E+03  0.7818609E-02  0.9581190E-01
        3   -1    0    0  501    0  0.00000000000E+00  0.00000000000E+00  0.89401397498E+03  0.89401398068E+03  0.10100000352E+00 0.  1.
       -3   -1    0    0    0  501  0.00000000000E+00  0.00000000000E+00 -0.17255596038E+03  0.17255598994E+03  0.10100000352E+00 0. -1.
    10030    2    1    2    0    0  0.00000000000E+00  0.00000000000E+00  0.72145801460E+03  0.10665699706E+04  0.78553792741E+03 0.  0.
        2    1    3    3  502    0 -0.17731876863E+03 -0.19755985207E+03 -0.32307459891E+02  0.26742403188E+03  0.25500000920E-02 0. -1.
       -2    1    3    3    0  502  0.17731876863E+03  0.19755985207E+03  0.75376547449E+03  0.79914593874E+03  0.25500000920E-02 0.  1.
</event>
<event>
 5   0  0.9919125E-03  0.8077881E+03  0.7818609E-02  0.9548812E-01
        3   -1    0    0  501    0  0.00000000000E+00  0.00000000000E+00  0.97733292191E+03  0.97733292713E+03  0.10100000352E+00 0. -1.
       -3   -1    0    0    0  501  0.00000000000E+00  0.00000000000E+00 -0.16691382910E+03  0.16691385966E+03  0.10100000352E+00 0.  1.
    10030    2    1    2    0    0  0.00000000000E+00  0.00000000000E+00  0.81041909281E+03  0.11442467868E+04  0.80778809293E+03 0.  0.
        3    1    3    3  502    0 -0.21448191803E+03  0.30277165578E+03  0.17919949291E+03  0.41205052744E+03  0.10100000352E+00 0.  1.
       -3    1    3    3    0  502  0.21448191803E+03 -0.30277165578E+03  0.63121959990E+03  0.73219625935E+03  0.10100000352E+00 0. -1.
</event>
<event>
 5   0  0.1471290E-02  0.7759660E+03  0.7818609E-02  0.9595472E-01
        1   -1    0    0  501    0  0.00000000000E+00  0.00000000000E+00  0.13622493686E+04  0.13622493686E+04  0.50400001928E-02 0. -1.
       -1   -1    0    0    0  501  0.00000000000E+00  0.00000000000E+00 -0.11050164724E+03  0.11050164735E+03  0.50400001928E-02 0.  1.
    10030    2    1    2    0    0  0.00000000000E+00  0.00000000000E+00  0.12517477214E+04  0.14727510160E+04  0.77596597676E+03 0.  0.
        2    1    3    3  502    0  0.21723986930E+03 -0.10487460950E+03  0.49135114999E+02  0.24618307022E+03  0.25500000920E-02 0.  1.
       -2    1    3    3    0  502 -0.21723986930E+03  0.10487460950E+03  0.12026126064E+04  0.12265679458E+04  0.25500000920E-02 0. -1.
</event>
<event>
 5   0  0.1523811E-02  0.8153539E+03  0.7818609E-02  0.9538055E-01
       -1   -1    0    0    0  501  0.00000000000E+00  0.00000000000E+00  0.16364432452E+03  0.16364432459E+03  0.50400001928E-02 0. -1.
        1   -1    0    0  501    0  0.00000000000E+00  0.00000000000E+00 -0.10156202687E+04  0.10156202687E+04  0.50400001928E-02 0.  1.
    10030    2    1    2    0    0  0.00000000000E+00  0.00000000000E+00 -0.85197594420E+03  0.11792645933E+04  0.81535389345E+03 0.  0.
        1    1    3    3  502    0 -0.38131274796E+03  0.12997336290E+03 -0.51640343782E+03  0.65495419491E+03  0.50400001928E-02 0.  1.
       -1    1    3    3    0  502  0.38131274796E+03 -0.12997336290E+03 -0.33557250639E+03  0.52431039841E+03  0.50400001928E-02 0. -1.
</event>
<event>
 5   0  0.2422031E-02  0.7951191E+03  0.7818609E-02  0.9567109E-01
       -2   -1    0    0    0  501  0.00000000000E+00  0.00000000000E+00  0.24646828856E+03  0.24646828858E+03  0.25500000920E-02 0.  1.
        2   -1    0    0  501    0  0.00000000000E+00  0.00000000000E+00 -0.64127352974E+03  0.64127352974E+03  0.25500000920E-02 0. -1.
    10030    2    1    2    0    0  0.00000000000E+00  0.00000000000E+00 -0.39480524117E+03  0.88774181832E+03  0.79511908387E+03 0.  0.
        4    1    3    3  502    0 -0.93707165508E+02  0.38556602570E+03 -0.16983226830E+03  0.43160955191E+03  0.12699999809E+01 0.  1.
       -4    1    3    3    0  502  0.93707165508E+02 -0.38556602570E+03 -0.22497297287E+03  0.45613226641E+03  0.12699999809E+01 0. -1.
</event>
<event>
 5   0  0.1624094E-02  0.8019689E+03  0.7818609E-02  0.9557172E-01
       -1   -1    0    0    0  501  0.00000000000E+00  0.00000000000E+00  0.48651650746E+03  0.48651650748E+03  0.50400001928E-02 0. -1.
        1   -1    0    0  501    0  0.00000000000E+00  0.00000000000E+00 -0.33048937407E+03  0.33048937411E+03  0.50400001928E-02 0.  1.
    10030    2    1    2    0    0  0.00000000000E+00  0.00000000000E+00  0.15602713338E+03  0.81700588160E+03  0.80196891723E+03 0.  0.
        3    1    3    3  502    0  0.37234685066E+03 -0.14528565056E+03  0.45184697392E+02  0.40223347018E+03  0.10100000352E+00 0.  1.
       -3    1    3    3    0  502 -0.37234685066E+03  0.14528565056E+03  0.11084243599E+03  0.41477241142E+03  0.10100000352E+00 0. -1.
</event>
<event>
 5   0  0.2460312E-02  0.7877791E+03  0.7818609E-02  0.9577877E-01
        2   -1    0    0  501    0  0.00000000000E+00  0.00000000000E+00  0.39470757576E+03  0.39470757577E+03  0.25500000920E-02 0.  1.
       -2   -1    0    0    0  501  0.00000000000E+00  0.00000000000E+00 -0.39307317018E+03  0.39307317018E+03  0.25500000920E-02 0. -1.
    10030    2    1    2    0    0  0.00000000000E+00  0.00000000000E+00  0.16344055807E+01  0.78778074595E+03  0.78777905050E+03 0.  0.
        2    1    3    3  502    0  0.65143306688E+02 -0.22175923225E+03 -0.31813199140E+03  0.39322865035E+03  0.25500000920E-02 0. -1.
       -2    1    3    3    0  502 -0.65143306688E+02  0.22175923225E+03  0.31976639699E+03  0.39455209560E+03  0.25500000920E-02 0.  1.
</event>
<event>
 5   0  0.1509629E-02  0.7907667E+03  0.7818609E-02  0.9573479E-01
       -1   -1    0    0    0  501  0.00000000000E+00  0.00000000000E+00  0.66413458139E+03  0.66413458141E+03  0.50400001928E-02 0. -1.
        1   -1    0    0  501    0  0.00000000000E+00  0.00000000000E+00 -0.23538599736E+03  0.23538599741E+03  0.50400001928E-02 0.  1.
    10030    2    1    2    0    0  0.00000000000E+00  0.00000000000E+00  0.42874858404E+03  0.89952057882E+03  0.79076666812E+03 0.  0.
        5    1    3    3  502    0 -0.29795604746E+03  0.21385227195E+03  0.46438186105E+02  0.36971501939E+03  0.46999998093E+01 0.  1.
       -5    1    3    3    0  502  0.29795604746E+03 -0.21385227195E+03  0.38231039793E+03  0.52980555943E+03  0.46999998093E+01 0. -1.
</event>
<event>
 5   0  0.2422031E-02  0.8043597E+03  0.7818609E-02  0.9553728E-01
       -2   -1    0    0    0  501  0.00000000000E+00  0.00000000000E+00  0.80213239156E+02  0.80213239196E+02  0.25500000920E-02 0.  1.
        2   -1    0    0  501    0  0.00000000000E+00  0.00000000000E+00 -0.20164830217E+04  0.20164830217E+04  0.25500000920E-02 0. -1.
    10030    2    1    2    0    0  0.00000000000E+00  0.00000000000E+00 -0.19362697825E+04  0.20966962609E+04  0.80435970789E+03 0.  0.
        4    1    3    3  502    0 -0.34712674892E+03 -0.19450059845E+03 -0.81570494750E+03  0.90758120127E+03  0.12699999809E+01 0. -1.
       -4    1    3    3    0  502  0.34712674892E+03  0.19450059845E+03 -0.11205648350E+04  0.11891150596E+04  0.12699999809E+01 0.  1.
</event>
<event>
 5   0  0.2571778E-02  0.7985377E+03  0.7818609E-02  0.9562136E-01
       -2   -1    0    0    0  501  0.00000000000E+00  0.00000000000E+00  0.17891918319E+03  0.17891918321E+03  0.25500000920E-02 0.  1.
        2   -1    0    0  501    0  0.00000000000E+00  0.00000000000E+00 -0.89099230692E+03  0.89099230693E+03  0.25500000920E-02 0. -1.
    10030    2    1    2    0    0  0.00000000000E+00  0.00000000000E+00 -0.71207312373E+03  0.10699114901E+04  0.79853770304E+03 0.  0.
        1    1    3    3  502    0  0.62514717005E+01 -0.12748430458E+03 -0.86292115783E+03  0.87230972336E+03  0.50400001928E-02 0. -1.
       -1    1    3    3    0  502 -0.62514717005E+01  0.12748430458E+03  0.15084803410E+03  0.19760176677E+03  0.50400001928E-02 0.  1.
</event>
<event>
 5   0  0.2571778E-02  0.7991741E+03  0.7818609E-02  0.9561213E-01
       -2   -1    0    0    0  501  0.00000000000E+00  0.00000000000E+00  0.17269793609E+03  0.17269793611E+03  0.25500000920E-02 0.  1.
        2   -1    0    0  501    0  0.00000000000E+00  0.00000000000E+00 -0.92456110240E+03  0.92456110240E+03  0.25500000920E-02 0. -1.
    10030    2    1    2    0    0  0.00000000000E+00  0.00000000000E+00 -0.75186316630E+03  0.10972590385E+04  0.79917405911E+03 0.  0.
        1    1    3    3  502    0 -0.19925310271E+03  0.33868035209E+03 -0.47554316088E+03  0.61688530354E+03  0.50400001928E-02 0. -1.
       -1    1    3    3    0  502  0.19925310271E+03 -0.33868035209E+03 -0.27632000542E+03  0.48037373498E+03  0.50400001928E-02 0.  1.
</event>
<event>
 5   0  0.1471290E-02  0.8007064E+03  0.7818609E-02  0.9558995E-01
        1   -1    0    0  501    0  0.00000000000E+00  0.00000000000E+00  0.47006070809E+03  0.47006070811E+03  0.50400001928E-02 0.  1.
       -1   -1    0    0    0  501  0.00000000000E+00  0.00000000000E+00 -0.34098290684E+03  0.34098290688E+03  0.50400001928E-02 0. -1.
    10030    2    1    2    0    0  0.00000000000E+00  0.00000000000E+00  0.12907780125E+03  0.81104361499E+03  0.80070635482E+03 0.  0.
        2    1    3    3  502    0 -0.27174736238E+03 -0.10389677133E+03 -0.21404178092E+03  0.36118561992E+03  0.25500000920E-02 0. -1.
       -2    1    3    3    0  502  0.27174736238E+03  0.10389677133E+03  0.34311958217E+03  0.44985799507E+03  0.25500000920E-02 0.  1.
</event>
<event>
 5   0  0.2422031E-02  0.8257791E+03  0.7818609E-02  0.9523435E-01
        2   -1    0    0  501    0  0.00000000000E+00  0.00000000000E+00  0.12047202181E+04  0.12047202181E+04  0.25500000920E-02 0.  1.
       -2   -1    0    0    0  501  0.00000000000E+00  0.00000000000E+00 -0.14150819380E+03  0.14150819382E+03  0.25500000920E-02 0. -1.
    10030    2    1    2    0    0  0.00000000000E+00  0.00000000000E+00  0.10632120243E+04  0.13462284119E+04  0.82577910389E+03 0.  0.
        4    1    3    3  502    0  0.17383409507E+03  0.30112294027E+03  0.16859432074E+03  0.38641813577E+03  0.12699999809E+01 0.  1.
       -4    1    3    3    0  502 -0.17383409507E+03 -0.30112294027E+03  0.89461770353E+03  0.95981027612E+03  0.12699999809E+01 0. -1.
</event>
<event>
 5   0  0.2422031E-02  0.8068972E+03  0.7818609E-02  0.9550087E-01
        2   -1    0    0  501    0  0.00000000000E+00  0.00000000000E+00  0.31721286407E+03  0.31721286408E+03  0.25500000920E-02 0.  1.
       -2   -1    0    0    0  501  0.00000000000E+00  0.00000000000E+00 -0.51312795122E+03  0.51312795123E+03  0.25500000920E-02 0. -1.
    10030    2    1    2    0    0  0.00000000000E+00  0.00000000000E+00 -0.19591508715E+03  0.83034081531E+03  0.80689723521E+03 0.  0.
        4    1    3    3  502    0 -0.14521507515E+03  0.30677129374E+03  0.12649215124E+03  0.36221253697E+03  0.12699999809E+01 0.  1.
       -4    1    3    3    0  502  0.14521507515E+03 -0.30677129374E+03 -0.32240723839E+03  0.46812827834E+03  0.12699999809E+01 0. -1.
</event>
<event>
 5   0  0.9919125E-03  0.7317511E+03  0.7818609E-02  0.9664423E-01
       -4   -1    0    0    0  501  0.00000000000E+00  0.00000000000E+00  0.31837354225E+03  0.31837607527E+03  0.12699999809E+01 0. -1.
        4   -1    0    0  501    0  0.00000000000E+00  0.00000000000E+00 -0.42045974657E+03  0.42046166458E+03  0.12699999809E+01 0.  1.
    10030    2    1    2    0    0  0.00000000000E+00  0.00000000000E+00 -0.10208620432E+03  0.73883773985E+03  0.73175105925E+03 0.  0.
        4    1    3    3  502    0  0.40526757508E+02  0.54075663623E+02  0.31201775023E+03  0.31925426360E+03  0.12699999809E+01 0. -1.
       -4    1    3    3    0  502 -0.40526757508E+02 -0.54075663623E+02 -0.41410395455E+03  0.41958347625E+03  0.12699999809E+01 0.  1.
</event>
<event>
 5   0  0.2422031E-02  0.8175963E+03  0.7818609E-02  0.9534891E-01
        2   -1    0    0  501    0  0.00000000000E+00  0.00000000000E+00  0.62173115126E+03  0.62173115127E+03  0.25500000920E-02 0. -1.
       -2   -1    0    0    0  501  0.00000000000E+00  0.00000000000E+00 -0.26879128238E+03  0.26879128239E+03  0.25500000920E-02 0.  1.
    10030    2    1    2    0    0  0.00000000000E+00  0.00000000000E+00  0.35293986888E+03  0.89052243366E+03  0.81759626577E+03 0.  0.
        4    1    3    3  502    0 -0.86086765135E+02 -0.15075964247E+02 -0.25849450004E+03  0.27287219588E+03  0.12699999809E+01 0.  1.
       -4    1    3    3    0  502  0.86086765135E+02  0.15075964247E+02  0.61143436893E+03  0.61765023778E+03  0.12699999809E+01 0. -1.
</event>
<event>
 5   0  0.1624094E-02  0.8077713E+03  0.7818609E-02  0.9548836E-01
        1   -1    0    0  501    0  0.00000000000E+00  0.00000000000E+00  0.96725447725E+03  0.96725447726E+03  0.50400001928E-02 0.  1.
       -1   -1    0    0    0  501  0.00000000000E+00  0.00000000000E+00 -0.16864601534E+03  0.16864601542E+03  0.50400001928E-02 0. -1.
    10030    2    1    2    0    0  0.00000000000E+00  0.00000000000E+00  0.79860846191E+03  0.11359004927E+04  0.80777128808E+03 0.  0.
        3    1    3    3  502    0 -0.25743984851E+03 -0.14014418763E+03  0.79003970551E+03  0.84266150701E+03  0.10100000352E+00 0.  1.
       -3    1    3    3    0  502  0.25743984851E+03  0.14014418763E+03  0.85687563981E+01  0.29323898566E+03  0.10100000352E+00 0. -1.
</event>
<event>
 5   0  0.1509629E-02  0.7979711E+03  0.7818609E-02  0.9562959E-01
        1   -1    0    0  501    0  0.00000000000E+00  0.00000000000E+00  0.74753094978E+03  0.74753094980E+03  0.50400001928E-02 0.  1.
       -1   -1    0    0    0  501  0.00000000000E+00  0.00000000000E+00 -0.21295366305E+03  0.21295366310E+03  0.50400001928E-02 0. -1.
    10030    2    1    2    0    0  0.00000000000E+00  0.00000000000E+00  0.53457728674E+03  0.96048461290E+03  0.79797106221E+03 0.  0.
        5    1    3    3  502    0 -0.14046351642E+03  0.15627583079E+03  0.67549611005E+03  0.70743849162E+03  0.46999998093E+01 0. -1.
       -5    1    3    3    0  502  0.14046351642E+03 -0.15627583079E+03 -0.14091882332E+03  0.25304612128E+03  0.46999998093E+01 0.  1.
</event>
<event>
 5   0  0.1624094E-02  0.6996281E+03  0.7818609E-02  0.9717868E-01
        1   -1    0    0  501    0  0.00000000000E+00  0.00000000000E+00  0.84447782688E+03  0.84447782689E+03  0.50400001928E-02 0. -1.
       -1   -1    0    0    0  501  0.00000000000E+00  0.00000000000E+00 -0.14490594989E+03  0.14490594997E+03  0.50400001928E-02 0.  1.
    10030    2    1    2    0    0  0.00000000000E+00  0.00000000000E+00  0.69957187699E+03  0.98938377687E+03  0.69962807751E+03 0.  0.
        3    1    3    3  502    0  0.76632093302E+02  0.20087996568E+03 -0.40440910374E+02  0.21877092076E+03  0.10100000352E+00 0.  1.
       -3    1    3    3    0  502 -0.76632093302E+02 -0.20087996568E+03  0.74001278737E+03  0.77061285611E+03  0.10100000352E+00 0. -1.
</event>
<event>
 5   0  0.9919125E-03  0.7918681E+03  0.7818609E-02  0.9571863E-01
       -4   -1    0    0    0  501  0.00000000000E+00  0.00000000000E+00  0.34212739653E+03  0.34212975369E+03  0.12699999809E+01 0.  1.
        4   -1    0    0  501    0  0.00000000000E+00  0.00000000000E+00 -0.45819806471E+03  0.45819982475E+03  0.12699999809E+01 0. -1.
    10030    2    1    2    0    0  0.00000000000E+00  0.00000000000E+00 -0.11607066817E+03  0.80032957844E+03  0.79186806610E+03 0.  0.
        3    1    3    3  502    0  0.35734586619E+03 -0.13276131001E+03  0.50075492752E+02  0.38448562873E+03  0.10100000352E+00 0.  1.
       -3    1    3    3    0  502 -0.35734586619E+03  0.13276131001E+03 -0.16614616093E+03  0.41584394971E+03  0.10100000352E+00 0. -1.
</event>
<event>
 5   0  0.2464780E-02  0.7934115E+03  0.7818609E-02  0.9569603E-01
        2   -1    0    0  501    0  0.00000000000E+00  0.00000000000E+00  0.15347094913E+04  0.15347094913E+04  0.25500000920E-02 0. -1.
       -2   -1    0    0    0  501  0.00000000000E+00  0.00000000000E+00 -0.10254413004E+03  0.10254413007E+03  0.25500000920E-02 0.  1.
    10030    2    1    2    0    0  0.00000000000E+00  0.00000000000E+00  0.14321653613E+04  0.16372536214E+04  0.79341149393E+03 0.  0.
        3    1    3    3  502    0  0.28181845973E+03  0.25785618392E+03  0.93702822652E+03  0.10118959251E+04  0.10100000352E+00 0.  1.
       -3    1    3    3    0  502 -0.28181845973E+03 -0.25785618392E+03  0.49513713476E+03  0.62535769625E+03  0.10100000352E+00 0. -1.
</event>
<event>
 5   0  0.2454354E-02  0.7888389E+03  0.7818609E-02  0.9576314E-01
       -2   -1    0    0    0  501  0.00000000000E+00  0.00000000000E+00  0.32028149034E+03  0.32028149035E+03  0.25500000920E-02 0.  1.
        2   -1    0    0  501    0  0.00000000000E+00  0.00000000000E+00 -0.48571864540E+03  0.48571864541E+03  0.25500000920E-02 0. -1.
    10030    2    1    2    0    0  0.00000000000E+00  0.00000000000E+00 -0.16543715506E+03  0.80600013576E+03  0.78883887237E+03 0.  0.
        5    1    3    3  502    0 -0.23619151805E+03 -0.19080558701E+03  0.17445414792E+03  0.35021357049E+03  0.46999998093E+01 0.  1.
       -5    1    3    3    0  502  0.23619151805E+03  0.19080558701E+03 -0.33989130298E+03  0.45578656526E+03  0.46999998093E+01 0. -1.
</event>
<event>
 5   0  0.2460312E-02  0.7957722E+03  0.7818609E-02  0.9566157E-01
       -2   -1    0    0    0  501  0.00000000000E+00  0.00000000000E+00  0.24323063235E+03  0.24323063236E+03  0.25500000920E-02 0. -1.
        2   -1    0    0  501    0  0.00000000000E+00  0.00000000000E+00 -0.65087743639E+03  0.65087743640E+03  0.25500000920E-02 0.  1.
    10030    2    1    2    0    0  0.00000000000E+00  0.00000000000E+00 -0.40764680404E+03  0.89410806876E+03  0.79577215443E+03 0.  0.
        2    1    3    3  502    0 -0.70830757336E+02 -0.35538091364E+03 -0.19198995168E+02  0.36287903134E+03  0.25500000920E-02 0. -1.
       -2    1    3    3    0  502  0.70830757336E+02  0.35538091364E+03 -0.38844780888E+03  0.53122903741E+03  0.25500000920E-02 0.  1.
</event>
<event>
 5   0  0.1471290E-02  0.8002758E+03  0.7818609E-02  0.9559618E-01
        1   -1    0    0  501    0  0.00000000000E+00  0.00000000000E+00  0.72471101810E+03  0.72471101812E+03  0.50400001928E-02 0.  1.
       -1   -1    0    0    0  501  0.00000000000E+00  0.00000000000E+00 -0.22092990325E+03  0.22092990330E+03  0.50400001928E-02 0. -1.
    10030    2    1    2    0    0  0.00000000000E+00  0.00000000000E+00  0.50378111486E+03  0.94564092142E+03  0.80027579033E+03 0.  0.
        2    1    3    3  502    0  0.36109614278E+03 -0.14968775258E+03  0.15083764347E+03  0.41898549175E+03  0.25500000920E-02 0. -1.
       -2    1    3    3    0  502 -0.36109614278E+03  0.14968775258E+03  0.35294347139E+03  0.52665542967E+03  0.25500000920E-02 0.  1.
</event>
<event>
 5   0  0.2571778E-02  0.6559668E+03  0.7818609E-02  0.9795647E-01
       -2   -1    0    0    0  501  0.00000000000E+00  0.00000000000E+00  0.56996667367E+02  0.56996667424E+02  0.25500000920E-02 0.  1.
        2   -1    0    0  501    0  0.00000000000E+00  0.00000000000E+00 -0.18873577958E+04  0.18873577958E+04  0.25500000920E-02 0. -1.
    10030    2    1    2    0    0  0.00000000000E+00  0.00000000000E+00 -0.18303611285E+04  0.19443544633E+04  0.65596678132E+03 0.  0.
        1    1    3    3  502    0  0.22862490553E+03  0.19561067632E+03 -0.13021094906E+04  0.13364213443E+04  0.50400001928E-02 0. -1.
       -1    1    3    3    0  502 -0.22862490553E+03 -0.19561067632E+03 -0.52825163787E+03  0.60793311890E+03  0.50400001928E-02 0.  1.
</event>
<event>
 5   0  0.9919125E-03  0.8016100E+03  0.7818609E-02  0.9557690E-01
        3   -1    0    0  501    0  0.00000000000E+00  0.00000000000E+00  0.77900164680E+03  0.77900165335E+03  0.10100000352E+00 0.  1.
       -3   -1    0    0    0  501  0.00000000000E+00  0.00000000000E+00 -0.20621861601E+03  0.20621864074E+03  0.10100000352E+00 0. -1.
    10030    2    1    2    0    0  0.00000000000E+00  0.00000000000E+00  0.57278303079E+03  0.98522029409E+03  0.80161002209E+03 0.  0.
        2    1    3    3  502    0 -0.25633901053E+03 -0.41345847576E+02 -0.88873040528E+02  0.27444049404E+03  0.25500000920E-02 0. -1.
       -2    1    3    3    0  502  0.25633901053E+03  0.41345847576E+02  0.66165607132E+03  0.71077980005E+03  0.25500000920E-02 0.  1.
</event>
<event>
 5   0  0.9919125E-03  0.7978991E+03  0.7818609E-02  0.9563063E-01
       -4   -1    0    0    0  501  0.00000000000E+00  0.00000000000E+00  0.34109011669E+03  0.34109248101E+03  0.12699999809E+01 0.  1.
        4   -1    0    0  501    0  0.00000000000E+00  0.00000000000E+00 -0.46661891572E+03  0.46662064400E+03  0.12699999809E+01 0. -1.
    10030    2    1    2    0    0  0.00000000000E+00  0.00000000000E+00 -0.12552879903E+03  0.80771312501E+03  0.79789912453E+03 0.  0.
        2    1    3    3  502    0  0.15854290556E+03 -0.10658658130E+02 -0.43320429564E+03  0.46142759092E+03  0.25500000920E-02 0. -1.
       -2    1    3    3    0  502 -0.15854290556E+03  0.10658658130E+02  0.30767549661E+03  0.34628553409E+03  0.25500000920E-02 0.  1.
</event>
<event>
 5   0  0.1523811E-02  0.8083517E+03  0.7818609E-02  0.9548006E-01
        1   -1    0    0  501    0  0.00000000000E+00  0.00000000000E+00  0.81868582148E+03  0.81868582149E+03  0.50400001928E-02 0.  1.
       -1   -1    0    0    0  501  0.00000000000E+00  0.00000000000E+00 -0.19953700784E+03  0.19953700791E+03  0.50400001928E-02 0. -1.
    10030    2    1    2    0    0  0.00000000000E+00  0.00000000000E+00  0.61914881363E+03  0.10182228294E+04  0.80835170371E+03 0.  0.
        1    1    3    3  502    0  0.23635299757E+03  0.18455939549E+03  0.65091561900E+03  0.71667011449E+03  0.50400001928E-02 0.  1.
       -1    1    3    3    0  502 -0.23635299757E+03 -0.18455939549E+03 -0.31766805363E+02  0.30155271491E+03  0.50400001928E-02 0. -1.
</event>
<event>
 5   0  0.9919125E-03  0.7968520E+03  0.7818609E-02  0.9564585E-01
       -3   -1    0    0    0  501  0.00000000000E+00  0.00000000000E+00  0.57327255469E+03  0.57327256359E+03  0.10100000352E+00 0. -1.
        3   -1    0    0  501    0  0.00000000000E+00  0.00000000000E+00 -0.27690713751E+03  0.27690715592E+03  0.10100000352E+00 0.  1.
    10030    2    1    2    0    0  0.00000000000E+00  0.00000000000E+00  0.29636541719E+03  0.85017971952E+03  0.79685199063E+03 0.  0.
        5    1    3    3  502    0 -0.20964461008E+03  0.24686689927E+03  0.39571587067E+03  0.51137781413E+03  0.46999998093E+01 0. -1.
       -5    1    3    3    0  502  0.20964461008E+03 -0.24686689927E+03 -0.99350453479E+02  0.33880190539E+03  0.46999998093E+01 0.  1.
</event>
<event>
 5   0  0.1624094E-02  0.7860581E+03  0.7818609E-02  0.9580420E-01
       -1   -1    0    0    0  501  0.00000000000E+00  0.00000000000E+00  0.46791506897E+03  0.46791506900E+03  0.50400001928E-02 0. -1.
        1   -1    0    0  501    0  0.00000000000E+00  0.00000000000E+00 -0.33012794856E+03  0.33012794860E+03  0.50400001928E-02 0.  1.
    10030    2    1    2    0    0  0.00000000000E+00  0.00000000000E+00  0.13778712041E+03  0.79804301759E+03  0.78605811959E+03 0.  0.
        3    1    3    3  502    0 -0.29300485927E+03 -0.15887639427E+02 -0.19656498286E+03  0.35318843034E+03  0.10100000352E+00 0.  1.
       -3    1    3    3    0  502  0.29300485927E+03  0.15887639427E+02  0.33435210327E+03  0.44485458725E+03  0.10100000352E+00 0. -1.
</event>
<event>
 5   0  0.1471290E-02  0.8024175E+03  0.7818609E-02  0.9556525E-01
       -1   -1    0    0    0  501  0.00000000000E+00  0.00000000000E+00  0.10204677226E+04  0.10204677226E+04  0.50400001928E-02 0. -1.
        1   -1    0    0  501    0  0.00000000000E+00  0.00000000000E+00 -0.15773986909E+03  0.15773986917E+03  0.50400001928E-02 0.  1.
    10030    2    1    2    0    0  0.00000000000E+00  0.00000000000E+00  0.86272785349E+03  0.11782075918E+04  0.80241746000E+03 0.  0.
        2    1    3    3  502    0  0.36499760793E+02  0.12277062738E+03  0.98964242601E+03  0.99789628261E+03  0.25500000920E-02 0. -1.
       -2    1    3    3    0  502 -0.36499760793E+02 -0.12277062738E+03 -0.12691457252E+03  0.18031130916E+03  0.25500000920E-02 0.  1.
</event>
<event>
 5   0  0.1624094E-02  0.8026336E+03  0.7818609E-02  0.9556213E-01
       -1   -1    0    0    0  501  0.00000000000E+00  0.00000000000E+00  0.29610161391E+03  0.29610161395E+03  0.50400001928E-02 0. -1.
        1   -1    0    0  501    0  0.00000000000E+00  0.00000000000E+00 -0.54391858869E+03  0.54391858871E+03  0.50400001928E-02 0.  1.
    10030    2    1    2    0    0  0.00000000000E+00  0.00000000000E+00 -0.24781697478E+03  0.84002020266E+03  0.80263359504E+03 0.  0.
        3    1    3    3  502    0  0.34348433934E+03 -0.15327598590E+03  0.22538459529E+02  0.37680633167E+03  0.10100000352E+00 0. -1.
       -3    1    3    3    0  502 -0.34348433934E+03  0.15327598590E+03 -0.27035543431E+03  0.46321387100E+03  0.10100000352E+00 0.  1.
</event>
<event>
 5   0  0.1498375E-02  0.8066828E+03  0.7818609E-02  0.9550394E-01
        1   -1    0    0  501    0  0.00000000000E+00  0.00000000000E+00  0.47360509222E+03  0.47360509225E+03  0.50400001928E-02 0.  1.
       -1   -1    0    0    0  501  0.00000000000E+00  0.00000000000E+00 -0.34350194733E+03  0.34350194737E+03  0.50400001928E-02 0. -1.
    10030    2    1    2    0    0  0.00000000000E+00  0.00000000000E+00  0.13010314489E+03  0.81710703962E+03  0.80668276657E+03 0.  0.
        4    1    3    3  502    0 -0.74336448985E+02 -0.32883581031E+03 -0.15922271485E+03  0.37284364500E+03  0.12699999809E+01 0. -1.
       -4    1    3    3    0  502  0.74336448985E+02  0.32883581031E+03  0.28932585974E+03  0.44426339462E+03  0.12699999809E+01 0.  1.
</event>
<event>
 5   0  0.9919125E-03  0.7313119E+03  0.7818609E-02  0.9665134E-01
       -4   -1    0    0    0  501  0.00000000000E+00  0.00000000000E+00  0.23526798001E+03  0.23527140778E+03  0.12699999809E+01 0. -1.
        4   -1    0    0  501    0  0.00000000000E+00  0.00000000000E+00 -0.56829803242E+03  0.56829945148E+03  0.12699999809E+01 0.  1.
    10030    2    1    2    0    0  0.00000000000E+00  0.00000000000E+00 -0.33303005241E+03  0.80357085925E+03  0.73131191022E+03 0.  0.
        3    1    3    3  502    0 -0.15120304527E+02  0.76836474274E+02  0.22594811375E+03  0.23913391164E+03  0.10100000352E+00 0. -1.
       -3    1    3    3    0  502  0.15120304527E+02 -0.76836474274E+02 -0.55897816616E+03  0.56443694761E+03  0.10100000352E+00 0.  1.
</event>
<event>
 5   0  0.2460312E-02  0.7875930E+03  0.7818609E-02  0.9578151E-01
       -2   -1    0    0    0  501  0.00000000000E+00  0.00000000000E+00  0.30369269997E+03  0.30369269999E+03  0.25500000920E-02 0. -1.
        2   -1    0    0  501    0  0.00000000000E+00  0.00000000000E+00 -0.51063354740E+03  0.51063354741E+03  0.25500000920E-02 0.  1.
    10030    2    1    2    0    0  0.00000000000E+00  0.00000000000E+00 -0.20694084743E+03  0.81432624739E+03  0.78759299315E+03 0.  0.
        2    1    3    3  502    0 -0.97131264131E+02 -0.26743189366E+03  0.17802305564E+03  0.33562852764E+03  0.25500000920E-02 0. -1.
       -2    1    3    3    0  502  0.97131264131E+02  0.26743189366E+03 -0.38496390307E+03  0.47869771975E+03  0.25500000920E-02 0.  1.
</event>
<event>
 5   0  0.1471290E-02  0.8040594E+03  0.7818609E-02  0.9554160E-01
       -1   -1    0    0    0  501  0.00000000000E+00  0.00000000000E+00  0.56647748664E+03  0.56647748666E+03  0.50400001928E-02 0.  1.
        1   -1    0    0  501    0  0.00000000000E+00  0.00000000000E+00 -0.28532092663E+03  0.28532092668E+03  0.50400001928E-02 0. -1.
    10030    2    1    2    0    0  0.00000000000E+00  0.00000000000E+00  0.28115656000E+03  0.85179841334E+03  0.80405940436E+03 0.  0.
        2    1    3    3  502    0 -0.15654007381E+03 -0.25319014115E+03 -0.14568337591E+03  0.33141165988E+03  0.25500000920E-02 0. -1.
       -2    1    3    3    0  502  0.15654007381E+03  0.25319014115E+03  0.42683993591E+03  0.52038675346E+03  0.25500000920E-02 0.  1.
</event>
<event>
 5   0  0.1509629E-02  0.8046528E+03  0.7818609E-02  0.9553307E-01
        1   -1    0    0  501    0  0.00000000000E+00  0.00000000000E+00  0.77015553402E+03  0.77015553404E+03  0.50400001928E-02 0. -1.
       -1   -1    0    0    0  501  0.00000000000E+00  0.00000000000E+00 -0.21017381544E+03  0.21017381550E+03  0.50400001928E-02 0.  1.
    10030    2    1    2    0    0  0.00000000000E+00  0.00000000000E+00  0.55998171859E+03  0.98032934954E+03  0.80465278749E+03 0.  0.
        5    1    3    3  502    0 -0.29466592828E+02  0.24288397989E+03  0.66906153888E+03  0.71240882966E+03  0.46999998093E+01 0. -1.
       -5    1    3    3    0  502  0.29466592828E+02 -0.24288397989E+03 -0.10907982029E+03  0.26792051988E+03  0.46999998093E+01 0.  1.
</event>
<event>
 5   0  0.1509629E-02  0.8009203E+03  0.7818609E-02  0.9558686E-01
        1   -1    0    0  501    0  0.00000000000E+00  0.00000000000E+00  0.16533274080E+04  0.16533274080E+04  0.50400001928E-02 0.  1.
       -1   -1    0    0    0  501  0.00000000000E+00  0.00000000000E+00 -0.96997325612E+02  0.96997325742E+02  0.50400001928E-02 0. -1.
    10030    2    1    2    0    0  0.00000000000E+00  0.00000000000E+00  0.15563300824E+04  0.17503247337E+04  0.80092031328E+03 0.  0.
        5    1    3    3  502    0 -0.13190250541E+03  0.19988693230E+03  0.76817018354E+02  0.25154721414E+03  0.46999998093E+01 0. -1.
       -5    1    3    3    0  502  0.13190250541E+03 -0.19988693230E+03  0.14795130640E+04  0.14987775196E+04  0.46999998093E+01 0.  1.
</event>
<event>
 5   0  0.2464780E-02  0.8069424E+03  0.7818609E-02  0.9550022E-01
       -2   -1    0    0    0  501  0.00000000000E+00  0.00000000000E+00  0.12803271203E+03  0.12803271206E+03  0.25500000920E-02 0. -1.
        2   -1    0    0  501    0  0.00000000000E+00  0.00000000000E+00 -0.12714641209E+04  0.12714641209E+04  0.25500000920E-02 0.  1.
    10030    2    1    2    0    0  0.00000000000E+00  0.00000000000E+00 -0.11434314088E+04  0.13994968329E+04  0.80694237629E+03 0.  0.
        3    1    3    3  502    0 -0.17746436034E+03  0.19814176201E+03 -0.45569485423E+02  0.26987097888E+03  0.10100000352E+00 0. -1.
       -3    1    3    3    0  502  0.17746436034E+03 -0.19814176201E+03 -0.10978619234E+04  0.11296258540E+04  0.10100000352E+00 0.  1.
</event>
<event>
 5   0  0.2464780E-02  0.8073898E+03  0.7818609E-02  0.9549382E-01
       -2   -1    0    0    0  501  0.00000000000E+00  0.00000000000E+00  0.82048152099E+02  0.82048152139E+02  0.25500000920E-02 0. -1.
        2   -1    0    0  501    0  0.00000000000E+00  0.00000000000E+00 -0.19862671912E+04  0.19862671912E+04  0.25500000920E-02 0.  1.
    10030    2    1    2    0    0  0.00000000000E+00  0.00000000000E+00 -0.19042190391E+04  0.20683153433E+04  0.80738975137E+03 0.  0.
        3    1    3    3  502    0 -0.25406827172E+03 -0.24000198900E+03 -0.14696673164E+04  0.15106533926E+04  0.10100000352E+00 0.  1.
       -3    1    3    3    0  502  0.25406827172E+03  0.24000198900E+03 -0.43455172267E+03  0.55766195073E+03  0.10100000352E+00 0. -1.
</event>
<event>
 5   0  0.2422031E-02  0.7297177E+03  0.7818609E-02  0.9667719E-01
       -2   -1    0    0    0  501  0.00000000000E+00  0.00000000000E+00  0.14688368831E+03  0.14688368833E+03  0.25500000920E-02 0. -1.
        2   -1    0    0  501    0  0.00000000000E+00  0.00000000000E+00 -0.90630873870E+03  0.90630873871E+03  0.25500000920E-02 0.  1.
    10030    2    1    2    0    0  0.00000000000E+00  0.00000000000E+00 -0.75942505039E+03  0.10531924270E+04  0.72971767225E+03 0.  0.
        4    1    3    3  502    0  0.25156537811E+03 -0.26421268875E+03 -0.37223063666E+03  0.52120125109E+03  0.12699999809E+01 0. -1.
       -4    1    3    3    0  502 -0.25156537811E+03  0.26421268875E+03 -0.38719441373E+03  0.53199117595E+03  0.12699999809E+01 0.  1.
</event>
<event>
 5   0  0.2464780E-02  0.7925376E+03  0.7818609E-02  0.9570882E-01
        2   -1    0    0  501    0  0.00000000000E+00  0.00000000000E+00  0.97148104745E+03  0.97148104746E+03  0.25500000920E-02 0.  1.
       -2   -1    0    0    0  501  0.00000000000E+00  0.00000000000E+00 -0.16163873642E+03  0.16163873644E+03  0.25500000920E-02 0. -1.
    10030    2    1    2    0    0  0.00000000000E+00  0.00000000000E+00  0.80984231103E+03  0.11331197839E+04  0.79253761799E+03 0.  0.
        3    1    3    3  502    0  0.18601131683E+03  0.16172409466E+03 -0.38698309751E+02  0.24950443314E+03  0.10100000352E+00 0. -1.
       -3    1    3    3    0  502 -0.18601131683E+03 -0.16172409466E+03  0.84854062078E+03  0.88361535076E+03  0.10100000352E+00 0.  1.
</event>
<event>
 5   0  0.2571778E-02  0.7726936E+03  0.7818609E-02  0.9600405E-01
        2   -1    0    0  501    0  0.00000000000E+00  0.00000000000E+00  0.50305960930E+03  0.50305960931E+03  0.25500000920E-02 0.  1.
       -2   -1    0    0    0  501  0.00000000000E+00  0.00000000000E+00 -0.29671208317E+03  0.29671208318E+03  0.25500000920E-02 0. -1.
    10030    2    1    2    0    0  0.00000000000E+00  0.00000000000E+00  0.20634752613E+03  0.79977169249E+03  0.77269363823E+03 0.  0.
        1    1    3    3  502    0 -0.26130325834E+03  0.11833150558E+02 -0.19112185302E+03  0.32395521141E+03  0.50400001928E-02 0. -1.
       -1    1    3    3    0  502  0.26130325834E+03 -0.11833150558E+02  0.39746937915E+03  0.47581648107E+03  0.50400001928E-02 0.  1.
</event>
<event>
 5   0  0.2464780E-02  0.8017642E+03  0.7818609E-02  0.9557467E-01
        2   -1    0    0  501    0  0.00000000000E+00  0.00000000000E+00  0.25966278376E+03  0.25966278378E+03  0.25500000920E-02 0.  1.
       -2   -1    0    0    0  501  0.00000000000E+00  0.00000000000E+00 -0.61890440502E+03  0.61890440503E+03  0.25500000920E-02 0. -1.
    10030    2    1    2    0    0  0.00000000000E+00  0.00000000000E+00 -0.35924162126E+03  0.87856718880E+03  0.80176415659E+03 0.  0.
        3    1    3    3  502    0  0.78926238052E+02  0.39288465505E+03 -0.16768083101E+03  0.43440139792E+03  0.10100000352E+00 0.  1.
       -3    1    3    3    0  502 -0.78926238052E+02 -0.39288465505E+03 -0.19156079024E+03  0.44416579088E+03  0.10100000352E+00 0. -1.
</event>
<event>
 5   0  0.2454354E-02  0.7995845E+03  0.7818609E-02  0.9560619E-01
        2   -1    0    0  501    0  0.00000000000E+00  0.00000000000E+00  0.69889677955E+03  0.69889677956E+03  0.25500000920E-02 0. -1.
       -2   -1    0    0    0  501  0.00000000000E+00  0.00000000000E+00 -0.22869449990E+03  0.22869449992E+03  0.25500000920E-02 0.  1.
    10030    2    1    2    0    0  0.00000000000E+00  0.00000000000E+00  0.47020227965E+03  0.92759127947E+03  0.79958451584E+03 0.  0.
        5    1    3    3  502    0 -0.22051437393E+03 -0.11026346709E+03  0.60016546596E+03  0.64884921038E+03  0.46999998093E+01 0. -1.
       -5    1    3    3    0  502  0.22051437393E+03  0.11026346709E+03 -0.12996318631E+03  0.27874206909E+03  0.46999998093E+01 0.  1.
</event>
<event>
 5   0  0.1624094E-02  0.7980154E+03  0.7818609E-02  0.9562894E-01
        1   -1    0    0  501    0  0.00000000000E+00  0.00000000000E+00  0.39709208697E+03  0.39709208701E+03  0.50400001928E-02 0. -1.
       -1   -1    0    0    0  501  0.00000000000E+00  0.00000000000E+00 -0.40093255575E+03  0.40093255578E+03  0.50400001928E-02 0.  1.
    10030    2    1    2    0    0  0.00000000000E+00  0.00000000000E+00 -0.38404687727E+01  0.79802464278E+03  0.79801540166E+03 0.  0.
        3    1    3    3  502    0 -0.38639144612E+02  0.69802428993E+02  0.38903412664E+03  0.39713086569E+03  0.10100000352E+00 0. -1.
       -3    1    3    3    0  502  0.38639144612E+02 -0.69802428993E+02 -0.39287459541E+03  0.40089377709E+03  0.10100000352E+00 0.  1.
</event>
<event>
 5   0  0.9919125E-03  0.8280622E+03  0.7818609E-02  0.9520264E-01
       -3   -1    0    0    0  501  0.00000000000E+00  0.00000000000E+00  0.23259573823E+03  0.23259576016E+03  0.10100000352E+00 0. -1.
        3   -1    0    0  501    0  0.00000000000E+00  0.00000000000E+00 -0.73699429191E+03  0.73699429883E+03  0.10100000352E+00 0.  1.
    10030    2    1    2    0    0  0.00000000000E+00  0.00000000000E+00 -0.50439855368E+03  0.96959005899E+03  0.82806218458E+03 0.  0.
        5    1    3    3  502    0  0.77662236811E+02 -0.32134193293E+03 -0.54400752039E+03  0.63659903639E+03  0.46999998093E+01 0.  1.
       -5    1    3    3    0  502 -0.77662236811E+02  0.32134193293E+03  0.39608966714E+02  0.33299102260E+03  0.46999998093E+01 0. -1.
</event>
<event>
 5   0  0.1523811E-02  0.7989380E+03  0.7818609E-02  0.9561556E-01
       -1   -1    0    0    0  501  0.00000000000E+00  0.00000000000E+00  0.99118629438E+02  0.99118629566E+02  0.50400001928E-02 0.  1.
        1   -1    0    0  501    0  0.00000000000E+00  0.00000000000E+00 -0.16099443269E+04  0.16099443269E+04  0.50400001928E-02 0. -1.
    10030    2    1    2    0    0  0.00000000000E+00  0.00000000000E+00 -0.15108256974E+04  0.17090629564E+04  0.79893798324E+03 0.  0.
        1    1    3    3  502    0  0.13127577168E+03 -0.32439293863E+03 -0.34331677562E+03  0.49023516328E+03  0.50400001928E-02 0.  1.
       -1    1    3    3    0  502 -0.13127577168E+03  0.32439293863E+03 -0.11675089218E+04  0.12188277932E+04  0.50400001928E-02 0. -1.
</event>
<event>
 5   0  0.1624094E-02  0.7965342E+03  0.7818609E-02  0.9565047E-01
        1   -1    0    0  501    0  0.00000000000E+00  0.00000000000E+00  0.13347826559E+04  0.13347826559E+04  0.50400001928E-02 0. -1.
       -1   -1    0    0    0  501  0.00000000000E+00  0.00000000000E+00 -0.11883333172E+03  0.11883333183E+03  0.50400001928E-02 0.  1.
    10030    2    1    2    0    0  0.00000000000E+00  0.00000000000E+00  0.12159493241E+04  0.14536159877E+04  0.79653416803E+03 0.  0.
        3    1    3    3  502    0 -0.13150996392E+03 -0.23172880964E+02  0.12927106847E+04  0.12995894650E+04  0.10100000352E+00 0. -1.
       -3    1    3    3    0  502  0.13150996392E+03  0.23172880964E+02 -0.76761360549E+02  0.15402652271E+03  0.10100000352E+00 0.  1.
</event>
<event>
 5   0  0.1498375E-02  0.7973693E+03  0.7818609E-02  0.9563833E-01
       -1   -1    0    0    0  501  0.00000000000E+00  0.00000000000E+00  0.21647219857E+03  0.21647219863E+03  0.50400001928E-02 0. -1.
        1   -1    0    0  501    0  0.00000000000E+00  0.00000000000E+00 -0.73427188810E+03  0.73427188812E+03  0.50400001928E-02 0.  1.
    10030    2    1    2    0    0  0.00000000000E+00  0.00000000000E+00 -0.51779968953E+03  0.95074408675E+03  0.79736929964E+03 0.  0.
        4    1    3    3  502    0 -0.31241993578E+03  0.14088284939E+03 -0.16018080670E+02  0.34309238600E+03  0.12699999809E+01 0. -1.
       -4    1    3    3    0  502  0.31241993578E+03 -0.14088284939E+03 -0.50178160886E+03  0.60765170074E+03  0.12699999809E+01 0.  1.
</event>
<event>
 5   0  0.1498375E-02  0.8192175E+03  0.7818609E-02  0.9532610E-01
       -1   -1    0    0    0  501  0.00000000000E+00  0.00000000000E+00  0.17912405643E+03  0.17912405650E+03  0.50400001928E-02 0. -1.
        1   -1    0    0  501    0  0.00000000000E+00  0.00000000000E+00 -0.93666543702E+03  0.93666543703E+03  0.50400001928E-02 0.  1.
    10030    2    1    2    0    0  0.00000000000E+00  0.00000000000E+00 -0.75754138059E+03  0.11157894935E+04  0.81921746232E+03 0.  0.
        4    1    3    3  502    0 -0.33326868383E+03 -0.65756388406E+02 -0.67032664858E+02  0.34624689066E+03  0.12699999809E+01 0. -1.
       -4    1    3    3    0  502  0.33326868383E+03  0.65756388406E+02 -0.69050871573E+03  0.76954260287E+03  0.12699999809E+01 0.  1.
</event>
<event>
 5   0  0.2422031E-02  0.8113777E+03  0.7818609E-02  0.9543693E-01
        2   -1    0    0  501    0  0.00000000000E+00  0.00000000000E+00  0.16941442799E+04  0.16941442799E+04  0.25500000920E-02 0. -1.
       -2   -1    0    0    0  501  0.00000000000E+00  0.00000000000E+00 -0.97148413581E+02  0.97148413615E+02  0.25500000920E-02 0.  1.
    10030    2    1    2    0    0  0.00000000000E+00  0.00000000000E+00  0.15969958663E+04  0.17912926935E+04  0.81137766596E+03 0.  0.
        4    1    3    3  502    0  0.32456305366E+02  0.11156054227E+03  0.16566234224E+04  0.16606932116E+04  0.12699999809E+01 0. -1.
       -4    1    3    3    0  502 -0.32456305366E+02 -0.11156054227E+03 -0.59627556069E+02  0.13059948198E+03  0.12699999809E+01 0.  1.
</event>
<event>
 5   0  0.2454354E-02  0.7764665E+03  0.7818609E-02  0.9594720E-01
        2   -1    0    0  501    0  0.00000000000E+00  0.00000000000E+00  0.61518519523E+03  0.61518519523E+03  0.25500000920E-02 0. -1.
       -2   -1    0    0    0  501  0.00000000000E+00  0.00000000000E+00 -0.24500761248E+03  0.24500761249E+03  0.25500000920E-02 0.  1.
    10030    2    1    2    0    0  0.00000000000E+00  0.00000000000E+00  0.37017758275E+03  0.86019280772E+03  0.77646649875E+03 0.  0.
        5    1    3    3  502    0 -0.16527188917E+03  0.68455435708E+02 -0.19659361599E+03  0.26584221612E+03  0.46999998093E+01 0.  1.
       -5    1    3    3    0  502  0.16527188917E+03 -0.68455435708E+02  0.56677119874E+03  0.59435059160E+03  0.46999998093E+01 0. -1.
</event>
<event>
 5   0  0.1498375E-02  0.8029748E+03  0.7818609E-02  0.9555721E-01
       -1   -1    0    0    0  501  0.00000000000E+00  0.00000000000E+00  0.31333196922E+03  0.31333196926E+03  0.50400001928E-02 0.  1.
        1   -1    0    0  501    0  0.00000000000E+00  0.00000000000E+00 -0.51444522931E+03  0.51444522933E+03  0.50400001928E-02 0. -1.
    10030    2    1    2    0    0  0.00000000000E+00  0.00000000000E+00 -0.20111326009E+03  0.82777719859E+03  0.80297481101E+03 0.  0.
        4    1    3    3  502    0 -0.15876104346E+03 -0.24840225271E+03 -0.38152192341E+03  0.48215074304E+03  0.12699999809E+01 0. -1.
       -4    1    3    3    0  502  0.15876104346E+03  0.24840225271E+03  0.18040866332E+03  0.34562645555E+03  0.12699999809E+01 0.  1.
</event>
<event>
 5   0  0.2464780E-02  0.7999144E+03  0.7818609E-02  0.9560141E-01
        2   -1    0    0  501    0  0.00000000000E+00  0.00000000000E+00  0.21136625748E+03  0.21136625750E+03  0.25500000920E-02 0. -1.
       -2   -1    0    0    0  501  0.00000000000E+00  0.00000000000E+00 -0.75681790513E+03  0.75681790513E+03  0.25500000920E-02 0.  1.
    10030    2    1    2    0    0  0.00000000000E+00  0.00000000000E+00 -0.54545164765E+03  0.96818416263E+03  0.79991441595E+03 0.  0.
        3    1    3    3  502    0  0.37435963340E+03 -0.39079459697E+02 -0.10902084494E+03  0.39186463750E+03  0.10100000352E+00 0.  1.
       -3    1    3    3    0  502 -0.37435963340E+03  0.39079459697E+02 -0.43643080271E+03  0.57631952513E+03  0.10100000352E+00 0. -1.
</event>
<event>
 5   0  0.2571778E-02  0.7321713E+03  0.7818609E-02  0.9663744E-01
       -2   -1    0    0    0  501  0.00000000000E+00  0.00000000000E+00  0.52273160913E+03  0.52273160914E+03  0.25500000920E-02 0.  1.
        2   -1    0    0  501    0  0.00000000000E+00  0.00000000000E+00 -0.25638145143E+03  0.25638145144E+03  0.25500000920E-02 0. -1.
    10030    2    1    2    0    0  0.00000000000E+00  0.00000000000E+00  0.26635015770E+03  0.77911306058E+03  0.73217126047E+03 0.  0.
        1    1    3    3  502    0 -0.48138734139E+02  0.16394134566E+02 -0.25260458370E+03  0.25767262389E+03  0.50400001928E-02 0. -1.
       -1    1    3    3    0  502  0.48138734139E+02 -0.16394134566E+02  0.51895474140E+03  0.52144043669E+03  0.50400001928E-02 0.  1.
</event>
<event>
 5   0  0.2460312E-02  0.8067041E+03  0.7818609E-02  0.9550364E-01
       -2   -1    0    0    0  501  0.00000000000E+00  0.00000000000E+00  0.22160341257E+03  0.22160341259E+03  0.25500000920E-02 0. -1.
        2   -1    0    0  501    0  0.00000000000E+00  0.00000000000E+00 -0.73416239170E+03  0.73416239170E+03  0.25500000920E-02 0.  1.
    10030    2    1    2    0    0  0.00000000000E+00  0.00000000000E+00 -0.51255897912E+03  0.95576580429E+03  0.80670413757E+03 0.  0.
        2    1    3    3  502    0 -0.26791876054E+02 -0.60978597231E+02 -0.72760207673E+03  0.73064421986E+03  0.25500000920E-02 0.  1.
       -2    1    3    3    0  502  0.26791876054E+02  0.60978597231E+02  0.21504309761E+03  0.22512158443E+03  0.25500000920E-02 0. -1.
</event>
<event>
 5   0  0.9919125E-03  0.7936036E+03  0.7818609E-02  0.9569322E-01
        4   -1    0    0  501    0  0.00000000000E+00  0.00000000000E+00  0.96906147330E+02  0.96914468942E+02  0.12699999809E+01 0. -1.
       -4   -1    0    0    0  501  0.00000000000E+00  0.00000000000E+00 -0.16247068258E+04  0.16247073222E+04  0.12699999809E+01 0.  1.
    10030    2    1    2    0    0  0.00000000000E+00  0.00000000000E+00 -0.15278006785E+04  0.17216217911E+04  0.79360360287E+03 0.  0.
        4    1    3    3  502    0  0.13313157398E+02 -0.13790707506E+03  0.42728393473E+02  0.14499286196E+03  0.12699999809E+01 0. -1.
       -4    1    3    3    0  502 -0.13313157398E+02  0.13790707506E+03 -0.15705290720E+04  0.15766289292E+04  0.12699999809E+01 0.  1.
</event>
<event>
 5   0  0.1498375E-02  0.8022125E+03  0.7818609E-02  0.9556820E-01
        1   -1    0    0  501    0  0.00000000000E+00  0.00000000000E+00  0.31979107424E+03  0.31979107428E+03  0.50400001928E-02 0. -1.
       -1   -1    0    0    0  501  0.00000000000E+00  0.00000000000E+00 -0.50309794794E+03  0.50309794797E+03  0.50400001928E-02 0.  1.
    10030    2    1    2    0    0  0.00000000000E+00  0.00000000000E+00 -0.18330687370E+03  0.82288902225E+03  0.80221252358E+03 0.  0.
        4    1    3    3  502    0 -0.11849676372E+03  0.35736972761E+03 -0.23352961721E+03  0.44304886891E+03  0.12699999809E+01 0.  1.
       -4    1    3    3    0  502  0.11849676372E+03 -0.35736972761E+03  0.50222743508E+02  0.37984015334E+03  0.12699999809E+01 0. -1.
</event>
<event>
 5   0  0.2454354E-02  0.7990039E+03  0.7818609E-02  0.9561460E-01
       -2   -1    0    0    0  501  0.00000000000E+00  0.00000000000E+00  0.75152103163E+03  0.75152103164E+03  0.25500000920E-02 0. -1.
        2   -1    0    0  501    0  0.00000000000E+00  0.00000000000E+00 -0.21237171497E+03  0.21237171498E+03  0.25500000920E-02 0.  1.
    10030    2    1    2    0    0  0.00000000000E+00  0.00000000000E+00  0.53914931666E+03  0.96389274662E+03  0.79900390570E+03 0.  0.
        5    1    3    3  502    0  0.55851552590E+02  0.41478057224E+02 -0.20497422861E+03  0.21650946758E+03  0.46999998093E+01 0.  1.
       -5    1    3    3    0  502 -0.55851552590E+02 -0.41478057224E+02  0.74412354527E+03  0.74738327904E+03  0.46999998093E+01 0. -1.
</event>
<event>
 5   0  0.9919125E-03  0.8249121E+03  0.7818609E-02  0.9524642E-01
       -4   -1    0    0    0  501  0.00000000000E+00  0.00000000000E+00  0.15101988539E+04  0.15101993879E+04  0.12699999809E+01 0.  1.
        4   -1    0    0  501    0  0.00000000000E+00  0.00000000000E+00 -0.11264328282E+03  0.11265044192E+03  0.12699999809E+01 0. -1.
    10030    2    1    2    0    0  0.00000000000E+00  0.00000000000E+00  0.13975555710E+04  0.16228498298E+04  0.82491211403E+03 0.  0.
        2    1    3    3  502    0  0.39186515370E+03  0.12163352792E+03  0.61608129022E+03  0.74020886915E+03  0.25500000920E-02 0. -1.
       -2    1    3    3    0  502 -0.39186515370E+03 -0.12163352792E+03  0.78147428081E+03  0.88264096063E+03  0.25500000920E-02 0.  1.
</event>
<event>
 5   0  0.1509629E-02  0.7916093E+03  0.7818609E-02  0.9572242E-01
        1   -1    0    0  501    0  0.00000000000E+00  0.00000000000E+00  0.13163759229E+04  0.13163759229E+04  0.50400001928E-02 0. -1.
       -1   -1    0    0    0  501  0.00000000000E+00  0.00000000000E+00 -0.11900954944E+03  0.11900954954E+03  0.50400001928E-02 0.  1.
    10030    2    1    2    0    0  0.00000000000E+00  0.00000000000E+00  0.11973663734E+04  0.14353854724E+04  0.79160926107E+03 0.  0.
        5    1    3    3  502    0  0.50300438479E+01 -0.25410885758E+03  0.48569911426E+02  0.25880057792E+03  0.46999998093E+01 0.  1.
       -5    1    3    3    0  502 -0.50300438479E+01  0.25410885758E+03  0.11487964620E+04  0.11765848945E+04  0.46999998093E+01 0. -1.
</event>
<event>
 5   0  0.1498375E-02  0.8020105E+03  0.7818609E-02  0.9557112E-01
        1   -1    0    0  501    0  0.00000000000E+00  0.00000000000E+00  0.69943543512E+03  0.69943543514E+03  0.50400001928E-02 0. -1.
       -1   -1    0    0    0  501  0.00000000000E+00  0.00000000000E+00 -0.22990713796E+03  0.22990713802E+03  0.50400001928E-02 0.  1.
    10030    2    1    2    0    0  0.00000000000E+00  0.00000000000E+00  0.46952829716E+03  0.92934257316E+03  0.80201047154E+03 0.  0.
        4    1    3    3  502    0  0.14058191794E+03  0.17811929145E+03 -0.14835454797E+03  0.27110965022E+03  0.12699999809E+01 0.  1.
       -4    1    3    3    0  502 -0.14058191794E+03 -0.17811929145E+03  0.61788284513E+03  0.65823292294E+03  0.12699999809E+01 0. -1.
</event>
<event>
 5   0  0.1624094E-02  0.8013876E+03  0.7818609E-02  0.9558011E-01
       -1   -1    0    0    0  501  0.00000000000E+00  0.00000000000E+00  0.12142229202E+03  0.12142229213E+03  0.50400001928E-02 0. -1.
        1   -1    0    0  501    0  0.00000000000E+00  0.00000000000E+00 -0.13222903387E+04  0.13222903387E+04  0.50400001928E-02 0.  1.
    10030    2    1    2    0    0  0.00000000000E+00  0.00000000000E+00 -0.12008680467E+04  0.14437126308E+04  0.80138760591E+03 0.  0.
        3    1    3    3  502    0  0.15699586359E+02  0.17298279909E+03  0.50075404664E+02  0.18076803409E+03  0.10100000352E+00 0. -1.
       -3    1    3    3    0  502 -0.15699586359E+02 -0.17298279909E+03 -0.12509434514E+04  0.12629445968E+04  0.10100000352E+00 0.  1.
</event>
<event>
 5   0  0.9919125E-03  0.8102479E+03  0.7818609E-02  0.9545301E-01
       -3   -1    0    0    0  501  0.00000000000E+00  0.00000000000E+00  0.48523802548E+03  0.48523803599E+03  0.10100000352E+00 0. -1.
        3   -1    0    0  501    0  0.00000000000E+00  0.00000000000E+00 -0.33823689442E+03  0.33823690950E+03  0.10100000352E+00 0.  1.
    10030    2    1    2    0    0  0.00000000000E+00  0.00000000000E+00  0.14700113106E+03  0.82347494549E+03  0.81024789622E+03 0.  0.
        4    1    3    3  502    0  0.23219360942E+03 -0.33010347414E+03  0.37688644201E+02  0.40534457279E+03  0.12699999809E+01 0. -1.
       -4    1    3    3    0  502 -0.23219360942E+03  0.33010347414E+03  0.10931248686E+03  0.41813037270E+03  0.12699999809E+01 0.  1.
</event>
<event>
 5   0  0.1509629E-02  0.7979148E+03  0.7818609E-02  0.9563040E-01
        1   -1    0    0  501    0  0.00000000000E+00  0.00000000000E+00  0.15196471878E+04  0.15196471878E+04  0.50400001928E-02 0.  1.
       -1   -1    0    0    0  501  0.00000000000E+00  0.00000000000E+00 -0.10473945352E+03  0.10473945364E+03  0.50400001928E-02 0. -1.
    10030    2    1    2    0    0  0.00000000000E+00  0.00000000000E+00  0.14149077343E+04  0.16243866415E+04  0.79791482277E+03 0.  0.
        5    1    3    3  502    0 -0.97452323828E+02  0.29312444497E+03  0.12213688858E+04  0.12598344894E+04  0.46999998093E+01 0.  1.
       -5    1    3    3    0  502  0.97452323828E+02 -0.29312444497E+03  0.19353884851E+03  0.36455215201E+03  0.46999998093E+01 0. -1.
</event>
<event>
 5   0  0.1498375E-02  0.7698032E+03  0.7818609E-02  0.9604784E-01
       -1   -1    0    0    0  501  0.00000000000E+00  0.00000000000E+00  0.13293693117E+03  0.13293693126E+03  0.50400001928E-02 0.  1.
        1   -1    0    0  501    0  0.00000000000E+00  0.00000000000E+00 -0.11144325246E+04  0.11144325246E+04  0.50400001928E-02 0. -1.
    10030    2    1    2    0    0  0.00000000000E+00  0.00000000000E+00 -0.98149559343E+03  0.12473694559E+04  0.76980319531E+03 0.  0.
        4    1    3    3  502    0 -0.13015216663E+03 -0.27368866647E+03 -0.87523283557E+03  0.92621768607E+03  0.12699999809E+01 0. -1.
       -4    1    3    3    0  502  0.13015216663E+03  0.27368866647E+03 -0.10626275786E+03  0.32115176980E+03  0.12699999809E+01 0.  1.
</event>
<event>
 5   0  0.9919125E-03  0.7957746E+03  0.7818609E-02  0.9566153E-01
       -3   -1    0    0    0  501  0.00000000000E+00  0.00000000000E+00  0.13908641489E+03  0.13908645156E+03  0.10100000352E+00 0. -1.
        3   -1    0    0  501    0  0.00000000000E+00  0.00000000000E+00 -0.11382440974E+04  0.11382441019E+04  0.10100000352E+00 0.  1.
    10030    2    1    2    0    0  0.00000000000E+00  0.00000000000E+00 -0.99915768255E+03  0.12773305535E+04  0.79577463408E+03 0.  0.
        2    1    3    3  502    0 -0.31245442070E+02 -0.29532894745E+03 -0.92461962937E+03  0.97114207193E+03  0.25500000920E-02 0.  1.
       -2    1    3    3    0  502  0.31245442070E+02  0.29532894745E+03 -0.74538053173E+02  0.30618848154E+03  0.25500000920E-02 0. -1.
</event>
<event>
 5   0  0.2571778E-02  0.7960619E+03  0.7818609E-02  0.9565735E-01
       -2   -1    0    0    0  501  0.00000000000E+00  0.00000000000E+00  0.10405409317E+04  0.10405409317E+04  0.25500000920E-02 0.  1.
        2   -1    0    0  501    0  0.00000000000E+00  0.00000000000E+00 -0.15225603348E+03  0.15225603350E+03  0.25500000920E-02 0. -1.
    10030    2    1    2    0    0  0.00000000000E+00  0.00000000000E+00  0.88828489824E+03  0.11927969652E+04  0.79606189445E+03 0.  0.
        1    1    3    3  502    0  0.89306957984E+02  0.18825476274E+03  0.95229398590E+03  0.97482276545E+03  0.50400001928E-02 0.  1.
       -1    1    3    3    0  502 -0.89306957984E+02 -0.18825476274E+03 -0.64009087656E+02  0.21797419977E+03  0.50400001928E-02 0. -1.
</event>
<event>
 5   0  0.1523811E-02  0.7893430E+03  0.7818609E-02  0.9575572E-01
        1   -1    0    0  501    0  0.00000000000E+00  0.00000000000E+00  0.25948461149E+04  0.25948461149E+04  0.50400001928E-02 0. -1.
       -1   -1    0    0    0  501  0.00000000000E+00  0.00000000000E+00 -0.60028831491E+02  0.60028831702E+02  0.50400001928E-02 0.  1.
    10030    2    1    2    0    0  0.00000000000E+00  0.00000000000E+00  0.25348172834E+04  0.26548749466E+04  0.78934296845E+03 0.  0.
        1    1    3    3  502    0  0.17173367406E+03 -0.75272872660E+02  0.99349591817E+02  0.21219990948E+03  0.50400001928E-02 0.  1.
       -1    1    3    3    0  502 -0.17173367406E+03  0.75272872660E+02  0.24354676916E+04  0.24426750371E+04  0.50400001928E-02 0. -1.
</event>
<event>
 5   0  0.2422031E-02  0.8119445E+03  0.7818609E-02  0.9542887E-01
       -2   -1    0    0    0  501  0.00000000000E+00  0.00000000000E+00  0.55859948566E+03  0.55859948567E+03  0.25500000920E-02 0. -1.
        2   -1    0    0  501    0  0.00000000000E+00  0.00000000000E+00 -0.29504762306E+03  0.29504762307E+03  0.25500000920E-02 0.  1.
    10030    2    1    2    0    0  0.00000000000E+00  0.00000000000E+00  0.26355186261E+03  0.85364710874E+03  0.81194445744E+03 0.  0.
        4    1    3    3  502    0  0.18747851364E+03 -0.16711367285E+03  0.46712013215E+03  0.53035648717E+03  0.12699999809E+01 0. -1.
       -4    1    3    3    0  502 -0.18747851364E+03  0.16711367285E+03 -0.20356826954E+03  0.32329062156E+03  0.12699999809E+01 0.  1.
</event>
<event>
 5   0  0.2454354E-02  0.8153506E+03  0.7818609E-02  0.9538060E-01
        2   -1    0    0  501    0  0.00000000000E+00  0.00000000000E+00  0.99679604724E+03  0.99679604724E+03  0.25500000920E-02 0. -1.
       -2   -1    0    0    0  501  0.00000000000E+00  0.00000000000E+00 -0.16673336832E+03  0.16673336834E+03  0.25500000920E-02 0.  1.
    10030    2    1    2    0    0  0.00000000000E+00  0.00000000000E+00  0.83006267892E+03  0.11635294156E+04  0.81535063009E+03 0.  0.
        5    1    3    3  502    0  0.35748093686E+03 -0.12112663894E+03  0.19528366877E+03  0.42499656959E+03  0.46999998093E+01 0.  1.
       -5    1    3    3    0  502 -0.35748093686E+03  0.12112663894E+03  0.63477901015E+03  0.73853284599E+03  0.46999998093E+01 0. -1.
</event>
<event>
 5   0  0.9919125E-03  0.8068196E+03  0.7818609E-02  0.9550198E-01
        4   -1    0    0  501    0  0.00000000000E+00  0.00000000000E+00  0.45371509589E+03  0.45371687332E+03  0.12699999809E+01 0.  1.
       -4   -1    0    0    0  501  0.00000000000E+00  0.00000000000E+00 -0.35867849466E+03  0.35868074305E+03  0.12699999809E+01 0. -1.
    10030    2    1    2    0    0  0.00000000000E+00  0.00000000000E+00  0.95036601230E+02  0.81239761637E+03  0.80681964001E+03 0.  0.
        3    1    3    3  502    0  0.32957762200E+03 -0.22784684264E+03  0.94788360908E+02  0.41172859530E+03  0.10100000352E+00 0.  1.
       -3    1    3    3    0  502 -0.32957762200E+03  0.22784684264E+03  0.24824032158E+00  0.40066902107E+03  0.10100000352E+00 0. -1.
</event>
<event>
 5   0  0.1523811E-02  0.8009404E+03  0.7818609E-02  0.9558657E-01
       -1   -1    0    0    0  501  0.00000000000E+00  0.00000000000E+00  0.13897321419E+03  0.13897321428E+03  0.50400001928E-02 0. -1.
        1   -1    0    0  501    0  0.00000000000E+00  0.00000000000E+00 -0.11540092341E+04  0.11540092341E+04  0.50400001928E-02 0.  1.
    10030    2    1    2    0    0  0.00000000000E+00  0.00000000000E+00 -0.10150360199E+04  0.12929824484E+04  0.80094037864E+03 0.  0.
        1    1    3    3  502    0 -0.24897791860E+02 -0.57632246665E+02  0.13097978149E+03  0.14524833589E+03  0.50400001928E-02 0. -1.
       -1    1    3    3    0  502  0.24897791860E+02  0.57632246665E+02 -0.11460158014E+04  0.11477341125E+04  0.50400001928E-02 0.  1.
</event>
<event>
 5   0  0.2460312E-02  0.7943018E+03  0.7818609E-02  0.9568302E-01
       -2   -1    0    0    0  501  0.00000000000E+00  0.00000000000E+00  0.98454300703E+02  0.98454300736E+02  0.25500000920E-02 0.  1.
        2   -1    0    0  501    0  0.00000000000E+00  0.00000000000E+00 -0.16020514651E+04  0.16020514651E+04  0.25500000920E-02 0. -1.
    10030    2    1    2    0    0  0.00000000000E+00  0.00000000000E+00 -0.15035971644E+04  0.17005057658E+04  0.79430184871E+03 0.  0.
        2    1    3    3  502    0  0.27551478587E+03  0.25651253132E+03 -0.10227852518E+04  0.10898608844E+04  0.25500000920E-02 0. -1.
       -2    1    3    3    0  502 -0.27551478587E+03 -0.25651253132E+03 -0.48081191254E+03  0.61064488142E+03  0.25500000920E-02 0.  1.
</event>
<event>
 5   0  0.1624094E-02  0.8145446E+03  0.7818609E-02  0.9539200E-01
       -1   -1    0    0    0  501  0.00000000000E+00  0.00000000000E+00  0.31199780106E+03  0.31199780110E+03  0.50400001928E-02 0. -1.
        1   -1    0    0  501    0  0.00000000000E+00  0.00000000000E+00 -0.53164074539E+03  0.53164074541E+03  0.50400001928E-02 0.  1.
    10030    2    1    2    0    0  0.00000000000E+00  0.00000000000E+00 -0.21964294433E+03  0.84363854651E+03  0.81454464221E+03 0.  0.
        3    1    3    3  502    0  0.23330574579E+02 -0.19267033969E+03  0.26102423492E+03  0.32526886866E+03  0.10100000352E+00 0. -1.
       -3    1    3    3    0  502 -0.23330574579E+02  0.19267033969E+03 -0.48066717924E+03  0.51836967785E+03  0.10100000352E+00 0.  1.
</event>
<event>
 5   0  0.1624094E-02  0.7995248E+03  0.7818609E-02  0.9560705E-01
        1   -1    0    0  501    0  0.00000000000E+00  0.00000000000E+00  0.12011584583E+03  0.12011584593E+03  0.50400001928E-02 0.  1.
       -1   -1    0    0    0  501  0.00000000000E+00  0.00000000000E+00 -0.13304653440E+04  0.13304653440E+04  0.50400001928E-02 0. -1.
    10030    2    1    2    0    0  0.00000000000E+00  0.00000000000E+00 -0.12103494982E+04  0.14505811900E+04  0.79952478443E+03 0.  0.
        3    1    3    3  502    0 -0.35812980104E+02 -0.39445409162E+03 -0.50691111991E+03  0.64330046916E+03  0.10100000352E+00 0.  1.
       -3    1    3    3    0  502  0.35812980104E+02  0.39445409162E+03 -0.70343837829E+03  0.80728072081E+03  0.10100000352E+00 0. -1.
</event>
<event>
 5   0  0.2460312E-02  0.8169311E+03  0.7818609E-02  0.9535828E-01
       -2   -1    0    0    0  501  0.00000000000E+00  0.00000000000E+00  0.11612316051E+03  0.11612316054E+03  0.25500000920E-02 0. -1.
        2   -1    0    0  501    0  0.00000000000E+00  0.00000000000E+00 -0.14367859173E+04  0.14367859173E+04  0.25500000920E-02 0.  1.
    10030    2    1    2    0    0  0.00000000000E+00  0.00000000000E+00 -0.13206627567E+04  0.15529090778E+04  0.81693113962E+03 0.  0.
        2    1    3    3  502    0  0.16025782521E+03  0.17316509881E+03 -0.26512854307E+02  0.23742715396E+03  0.25500000920E-02 0. -1.
       -2    1    3    3    0  502 -0.16025782521E+03 -0.17316509881E+03 -0.12941499024E+04  0.13154819239E+04  0.25500000920E-02 0.  1.
</event>
<event>
 5   0  0.1624094E-02  0.6547674E+03  0.7818609E-02  0.9797874E-01
       -1   -1    0    0    0  501  0.00000000000E+00  0.00000000000E+00  0.54796706374E+03  0.54796706376E+03  0.50400001928E-02 0. -1.
        1   -1    0    0  501    0  0.00000000000E+00  0.00000000000E+00 -0.19559585560E+03  0.19559585567E+03  0.50400001928E-02 0.  1.
    10030    2    1    2    0    0  0.00000000000E+00  0.00000000000E+00  0.35237120814E+03  0.74356291943E+03  0.65476739903E+03 0.  0.
        3    1    3    3  502    0  0.45248618447E+02  0.31824045620E+03  0.10567092422E+03  0.33836486203E+03  0.10100000352E+00 0.  1.
       -3    1    3    3    0  502 -0.45248618447E+02 -0.31824045620E+03  0.24670028392E+03  0.40519805740E+03  0.10100000352E+00 0. -1.
</event>
<event>
 5   0  0.2464780E-02  0.7994080E+03  0.7818609E-02  0.9560874E-01
       -2   -1    0    0    0  501  0.00000000000E+00  0.00000000000E+00  0.45403917009E+03  0.45403917009E+03  0.25500000920E-02 0. -1.
        2   -1    0    0  501    0  0.00000000000E+00  0.00000000000E+00 -0.35187113406E+03  0.35187113407E+03  0.25500000920E-02 0.  1.
    10030    2    1    2    0    0  0.00000000000E+00  0.00000000000E+00  0.10216803603E+03  0.80591030416E+03  0.79940797517E+03 0.  0.
        3    1    3    3  502    0 -0.30899664064E+03  0.93168311924E+02 -0.18663902741E+03  0.37281817959E+03  0.10100000352E+00 0.  1.
       -3    1    3    3    0  502  0.30899664064E+03 -0.93168311924E+02  0.28880706344E+03  0.43309212458E+03  0.10100000352E+00 0. -1.
</event>
<event>
 5   0  0.2464780E-02  0.8054546E+03  0.7818609E-02  0.9552155E-01
        2   -1    0    0  501    0  0.00000000000E+00  0.00000000000E+00  0.20238147094E+04  0.20238147094E+04  0.25500000920E-02 0.  1.
       -2   -1    0    0    0  501  0.00000000000E+00  0.00000000000E+00 -0.80140382863E+02  0.80140382903E+02  0.25500000920E-02 0. -1.
    10030    2    1    2    0    0  0.00000000000E+00  0.00000000000E+00  0.19436743266E+04  0.21039550923E+04  0.80545461871E+03 0.  0.
        3    1    3    3  502    0  0.20058117063E+03  0.35466213128E+02  0.64337365554E+02  0.21361171572E+03  0.10100000352E+00 0. -1.
       -3    1    3    3    0  502 -0.20058117063E+03 -0.35466213128E+02  0.18793369610E+04  0.18903433766E+04  0.10100000352E+00 0.  1.
</event>
<event>
 5   0  0.2460312E-02  0.8391472E+03  0.7818609E-02  0.9505020E-01
       -2   -1    0    0    0  501  0.00000000000E+00  0.00000000000E+00  0.69167424765E+03  0.69167424765E+03  0.25500000920E-02 0.  1.
        2   -1    0    0  501    0  0.00000000000E+00  0.00000000000E+00 -0.25451576508E+03  0.25451576510E+03  0.25500000920E-02 0. -1.
    10030    2    1    2    0    0  0.00000000000E+00  0.00000000000E+00  0.43715848256E+03  0.94619001275E+03  0.83914718694E+03 0.  0.
        2    1    3    3  502    0 -0.19551563124E+03 -0.16720684308E+03  0.59230677251E+03  0.64576451064E+03  0.25500000920E-02 0.  1.
       -2    1    3    3    0  502  0.19551563124E+03  0.16720684308E+03 -0.15514828995E+03  0.30042550211E+03  0.25500000920E-02 0. -1.
</event>
<event>
 5   0  0.1498375E-02  0.8007483E+03  0.7818609E-02  0.9558935E-01
        1   -1    0    0  501    0  0.00000000000E+00  0.00000000000E+00  0.32270625753E+03  0.32270625757E+03  0.50400001928E-02 0.  1.
       -1   -1    0    0    0  501  0.00000000000E+00  0.00000000000E+00 -0.49673489263E+03  0.49673489266E+03  0.50400001928E-02 0. -1.
    10030    2    1    2    0    0  0.00000000000E+00  0.00000000000E+00 -0.17402863510E+03  0.81944115023E+03  0.80074829557E+03 0.  0.
        4    1    3    3  502    0 -0.39449333666E+03 -0.67453928894E+02 -0.75673182946E+02  0.40731200413E+03  0.12699999809E+01 0. -1.
       -4    1    3    3    0  502  0.39449333666E+03  0.67453928894E+02 -0.98355452153E+02  0.41212914610E+03  0.12699999809E+01 0.  1.
</event>
<event>
 5   0  0.2571778E-02  0.8053612E+03  0.7818609E-02  0.9552289E-01
        2   -1    0    0  501    0  0.00000000000E+00  0.00000000000E+00  0.72912135200E+03  0.72912135200E+03  0.25500000920E-02 0. -1.
       -2   -1    0    0    0  501  0.00000000000E+00  0.00000000000E+00 -0.22239326523E+03  0.22239326524E+03  0.25500000920E-02 0.  1.
    10030    2    1    2    0    0  0.00000000000E+00  0.00000000000E+00  0.50672808677E+03  0.95151461724E+03  0.80536123131E+03 0.  0.
        1    1    3    3  502    0 -0.10445311511E+03 -0.10173218837E+03 -0.19010936446E+03  0.23958602190E+03  0.50400001928E-02 0.  1.
       -1    1    3    3    0  502  0.10445311511E+03  0.10173218837E+03  0.69683745123E+03  0.71192859535E+03  0.50400001928E-02 0. -1.
</event>
<event>
 5   0  0.2460312E-02  0.7967689E+03  0.7818609E-02  0.9564706E-01
       -2   -1    0    0    0  501  0.00000000000E+00  0.00000000000E+00  0.11377364317E+03  0.11377364319E+03  0.25500000920E-02 0.  1.
        2   -1    0    0  501    0  0.00000000000E+00  0.00000000000E+00 -0.13949641562E+04  0.13949641562E+04  0.25500000920E-02 0. -1.
    10030    2    1    2    0    0  0.00000000000E+00  0.00000000000E+00 -0.12811905131E+04  0.15087377994E+04  0.79676886024E+03 0.  0.
        2    1    3    3  502    0 -0.25773422037E+03 -0.13088275253E+02 -0.65897710183E+02  0.26634702836E+03  0.25500000920E-02 0.  1.
       -2    1    3    3    0  502  0.25773422037E+03  0.13088275253E+02 -0.12152928029E+04  0.12423907711E+04  0.25500000920E-02 0. -1.
</event>
<event>
 5   0  0.2422031E-02  0.8039842E+03  0.7818609E-02  0.9554268E-01
        2   -1    0    0  501    0  0.00000000000E+00  0.00000000000E+00  0.15400963848E+04  0.15400963848E+04  0.25500000920E-02 0. -1.
       -2   -1    0    0    0  501  0.00000000000E+00  0.00000000000E+00 -0.10492695899E+03  0.10492695903E+03  0.25500000920E-02 0.  1.
    10030    2    1    2    0    0  0.00000000000E+00  0.00000000000E+00  0.14351694258E+04  0.16450233438E+04  0.80398415467E+03 0.  0.
        4    1    3    3  502    0  0.31341415190E+03 -0.25157323996E+03  0.69945727804E+03  0.80669673508E+03  0.12699999809E+01 0.  1.
       -4    1    3    3    0  502 -0.31341415190E+03  0.25157323996E+03  0.73571214774E+03  0.83832660873E+03  0.12699999809E+01 0. -1.
</event>
<event>
 5   0  0.2464780E-02  0.7943850E+03  0.7818609E-02  0.9568180E-01
       -2   -1    0    0    0  501  0.00000000000E+00  0.00000000000E+00  0.72043359190E+02  0.72043359235E+02  0.25500000920E-02 0.  1.
        2   -1    0    0  501    0  0.00000000000E+00  0.00000000000E+00 -0.21898185808E+04  0.21898185808E+04  0.25500000920E-02 0. -1.
    10030    2    1    2    0    0  0.00000000000E+00  0.00000000000E+00 -0.21177752216E+04  0.22618619401E+04  0.79438501152E+03 0.  0.
        3    1    3    3  502    0  0.17609970438E+03 -0.31361055436E+03 -0.15387183139E+04  0.15801951606E+04  0.10100000352E+00 0. -1.
       -3    1    3    3    0  502 -0.17609970438E+03  0.31361055436E+03 -0.57905690772E+03  0.68166677950E+03  0.10100000352E+00 0.  1.
</event>
<event>
 5   0  0.9919125E-03  0.8023764E+03  0.7818609E-02  0.9556584E-01
        4   -1    0    0  501    0  0.00000000000E+00  0.00000000000E+00  0.43853750842E+03  0.43853934737E+03  0.12699999809E+01 0.  1.
       -4   -1    0    0    0  501  0.00000000000E+00  0.00000000000E+00 -0.36701616607E+03  0.36701836338E+03  0.12699999809E+01 0. -1.
    10030    2    1    2    0    0  0.00000000000E+00  0.00000000000E+00  0.71521342349E+02  0.80555771075E+03  0.80237642223E+03 0.  0.
        1    1    3    3  502    0  0.35904543670E+03 -0.16563884802E+03  0.10386862075E+03  0.40882581131E+03  0.50400001928E-02 0. -1.
       -1    1    3    3    0  502 -0.35904543670E+03  0.16563884802E+03 -0.32347278406E+02  0.39673189944E+03  0.50400001928E-02 0.  1.
</event>
<event>
 5   0  0.2571778E-02  0.7957882E+03  0.7818609E-02  0.9566134E-01
        2   -1    0    0  501    0  0.00000000000E+00  0.00000000000E+00  0.58348917893E+03  0.58348917893E+03  0.25500000920E-02 0.  1.
       -2   -1    0    0    0  501  0.00000000000E+00  0.00000000000E+00 -0.27133271236E+03  0.27133271237E+03  0.25500000920E-02 0. -1.
    10030    2    1    2    0    0  0.00000000000E+00  0.00000000000E+00  0.31215646657E+03  0.85482189130E+03  0.79578816668E+03 0.  0.
        1    1    3    3  502    0  0.15948813848E+03 -0.30876870434E+03  0.36421793177E+03  0.50341760095E+03  0.50400001928E-02 0.  1.
       -1    1    3    3    0  502 -0.15948813848E+03  0.30876870434E+03 -0.52061465197E+02  0.35140429035E+03  0.50400001928E-02 0. -1.
</event>
<event>
 5   0  0.2422031E-02  0.8031622E+03  0.7818609E-02  0.9555451E-01
       -2   -1    0    0    0  501  0.00000000000E+00  0.00000000000E+00  0.76290128136E+02  0.76290128179E+02  0.25500000920E-02 0.  1.
        2   -1    0    0  501    0  0.00000000000E+00  0.00000000000E+00 -0.21138693339E+04  0.21138693339E+04  0.25500000920E-02 0. -1.
    10030    2    1    2    0    0  0.00000000000E+00  0.00000000000E+00 -0.20375792057E+04  0.21901594620E+04  0.80316215646E+03 0.  0.
        4    1    3    3  502    0 -0.55493024167E+02 -0.19391452004E+03 -0.19657162119E+04  0.19760374884E+04  0.12699999809E+01 0. -1.
       -4    1    3    3    0  502  0.55493024167E+02  0.19391452004E+03 -0.71862993780E+02  0.21412197363E+03  0.12699999809E+01 0.  1.
</event>
<event>
 5   0  0.1523811E-02  0.7765620E+03  0.7818609E-02  0.9594576E-01
       -1   -1    0    0    0  501  0.00000000000E+00  0.00000000000E+00  0.20763874421E+03  0.20763874427E+03  0.50400001928E-02 0.  1.
        1   -1    0    0  501    0  0.00000000000E+00  0.00000000000E+00 -0.72607910293E+03  0.72607910295E+03  0.50400001928E-02 0. -1.
    10030    2    1    2    0    0  0.00000000000E+00  0.00000000000E+00 -0.51844035872E+03  0.93371784722E+03  0.77656204689E+03 0.  0.
        1    1    3    3  502    0 -0.33888274854E+03 -0.16928444913E+03 -0.15674709378E+03  0.40996145356E+03  0.50400001928E-02 0. -1.
       -1    1    3    3    0  502  0.33888274854E+03  0.16928444913E+03 -0.36169326494E+03  0.52375639366E+03  0.50400001928E-02 0.  1.
</event>
<event>
 5   0  0.1471290E-02  0.8015854E+03  0.7818609E-02  0.9557725E-01
       -1   -1    0    0    0  501  0.00000000000E+00  0.00000000000E+00  0.11502203352E+03  0.11502203363E+03  0.50400001928E-02 0.  1.
        1   -1    0    0  501    0  0.00000000000E+00  0.00000000000E+00 -0.13965568181E+04  0.13965568181E+04  0.50400001928E-02 0. -1.
    10030    2    1    2    0    0  0.00000000000E+00  0.00000000000E+00 -0.12815347846E+04  0.15115788518E+04  0.80158544209E+03 0.  0.
        2    1    3    3  502    0 -0.21290714371E+03 -0.32236054043E+03 -0.84201209468E+03  0.92640711216E+03  0.25500000920E-02 0. -1.
       -2    1    3    3    0  502  0.21290714371E+03  0.32236054043E+03 -0.43952268993E+03  0.58517173961E+03  0.25500000920E-02 0.  1.
</event>
<event>
 5   0  0.1509629E-02  0.8037991E+03  0.7818609E-02  0.9554534E-01
       -1   -1    0    0    0  501  0.00000000000E+00  0.00000000000E+00  0.23097247637E+03  0.23097247643E+03  0.50400001928E-02 0. -1.
        1   -1    0    0  501    0  0.00000000000E+00  0.00000000000E+00 -0.69931813922E+03  0.69931813924E+03  0.50400001928E-02 0.  1.
    10030    2    1    2    0    0  0.00000000000E+00  0.00000000000E+00 -0.46834566284E+03  0.93029061567E+03  0.80379908540E+03 0.  0.
        5    1    3    3  502    0  0.16190713183E+03  0.35621941091E+03 -0.12813018411E+03  0.41175917977E+03  0.46999998093E+01 0. -1.
       -5    1    3    3    0  502 -0.16190713183E+03 -0.35621941091E+03 -0.34021547874E+03  0.51853143590E+03  0.46999998093E+01 0.  1.
</event>
<event>
 5   0  0.1509629E-02  0.8085309E+03  0.7818609E-02  0.9547750E-01
       -1   -1    0    0    0  501  0.00000000000E+00  0.00000000000E+00  0.17173242469E+03  0.17173242476E+03  0.50400001928E-02 0. -1.
        1   -1    0    0  501    0  0.00000000000E+00  0.00000000000E+00 -0.95165807751E+03  0.95165807753E+03  0.50400001928E-02 0.  1.
    10030    2    1    2    0    0  0.00000000000E+00  0.00000000000E+00 -0.77992565283E+03  0.11233905023E+04  0.80853088790E+03 0.  0.
        5    1    3    3  502    0  0.27057294848E+03  0.26502092691E+03 -0.58627317579E+03  0.69798577263E+03  0.46999998093E+01 0.  1.
       -5    1    3    3    0  502 -0.27057294848E+03 -0.26502092691E+03 -0.19365247704E+03  0.42540472966E+03  0.46999998093E+01 0. -1.
</event>
<event>
 5   0  0.1523811E-02  0.7993494E+03  0.7818609E-02  0.9560959E-01
        1   -1    0    0  501    0  0.00000000000E+00  0.00000000000E+00  0.21921716121E+03  0.21921716127E+03  0.50400001928E-02 0. -1.
       -1   -1    0    0    0  501  0.00000000000E+00  0.00000000000E+00 -0.72868329355E+03  0.72868329356E+03  0.50400001928E-02 0.  1.
    10030    2    1    2    0    0  0.00000000000E+00  0.00000000000E+00 -0.50946613234E+03  0.94790045483E+03  0.79934944315E+03 0.  0.
        1    1    3    3  502    0 -0.15875160104E+03 -0.32712123564E+02  0.17849261239E+03  0.24110530181E+03  0.50400001928E-02 0. -1.
       -1    1    3    3    0  502  0.15875160104E+03  0.32712123564E+02 -0.68795874473E+03  0.70679515302E+03  0.50400001928E-02 0.  1.
</event>
<event>
 5   0  0.2422031E-02  0.7946404E+03  0.7818609E-02  0.9567807E-01
        2   -1    0    0  501    0  0.00000000000E+00  0.00000000000E+00  0.91030301993E+03  0.91030301994E+03  0.25500000920E-02 0. -1.
       -2   -1    0    0    0  501  0.00000000000E+00  0.00000000000E+00 -0.17341846646E+03  0.17341846648E+03  0.25500000920E-02 0.  1.
    10030    2    1    2    0    0  0.00000000000E+00  0.00000000000E+00  0.73688455348E+03  0.10837214864E+04  0.79464043124E+03 0.  0.
        4    1    3    3  502    0  0.74200977351E+02  0.17959547830E+03 -0.10418751876E+03  0.22049256865E+03  0.12699999809E+01 0.  1.
       -4    1    3    3    0  502 -0.74200977351E+02 -0.17959547830E+03  0.84107207224E+03  0.86322891776E+03  0.12699999809E+01 0. -1.
</event>
<event>
 5   0  0.1523811E-02  0.8173693E+03  0.7818609E-02  0.9535211E-01
        1   -1    0    0  501    0  0.00000000000E+00  0.00000000000E+00  0.14927170038E+04  0.14927170038E+04  0.50400001928E-02 0. -1.
       -1   -1    0    0    0  501  0.00000000000E+00  0.00000000000E+00 -0.11189203753E+03  0.11189203765E+03  0.50400001928E-02 0.  1.
    10030    2    1    2    0    0  0.00000000000E+00  0.00000000000E+00  0.13808249663E+04  0.16046090415E+04  0.81736930972E+03 0.  0.
        1    1    3    3  502    0  0.22036907556E+02  0.23517281764E+02 -0.10939345093E+03  0.11404216312E+03  0.50400001928E-02 0.  1.
       -1    1    3    3    0  502 -0.22036907556E+02 -0.23517281764E+02  0.14902184172E+04  0.14905668784E+04  0.50400001928E-02 0. -1.
</event>
<event>
 5   0  0.2454354E-02  0.7990539E+03  0.7818609E-02  0.9561388E-01
       -2   -1    0    0    0  501  0.00000000000E+00  0.00000000000E+00  0.15558763764E+03  0.15558763766E+03  0.25500000920E-02 0.  1.
        2   -1    0    0  501    0  0.00000000000E+00  0.00000000000E+00 -0.10259284272E+04  0.10259284272E+04  0.25500000920E-02 0. -1.
    10030    2    1    2    0    0  0.00000000000E+00  0.00000000000E+00 -0.87034078956E+03  0.11815160649E+04  0.79905389154E+03 0.  0.
        5    1    3    3  502    0 -0.14707011228E+03  0.92172731582E+02 -0.96722386348E+03  0.98268485409E+03  0.46999998093E+01 0. -1.
       -5    1    3    3    0  502  0.14707011228E+03 -0.92172731582E+02  0.96883073916E+02  0.19883121079E+03  0.46999998093E+01 0.  1.
</event>
<event>
 5   0  0.2454354E-02  0.7944132E+03  0.7818609E-02  0.9568139E-01
        2   -1    0    0  501    0  0.00000000000E+00  0.00000000000E+00  0.42909864504E+03  0.42909864505E+03  0.25500000920E-02 0.  1.
       -2   -1    0    0    0  501  0.00000000000E+00  0.00000000000E+00 -0.36768485369E+03  0.36768485370E+03  0.25500000920E-02 0. -1.
    10030    2    1    2    0    0  0.00000000000E+00  0.00000000000E+00  0.61413791349E+02  0.79678349875E+03  0.79441317342E+03 0.  0.
        5    1    3    3  502    0  0.33544947239E+03 -0.17732649638E+03  0.14844517334E+03  0.40746667880E+03  0.46999998093E+01 0.  1.
       -5    1    3    3    0  502 -0.33544947239E+03  0.17732649638E+03 -0.87031381988E+02  0.38931681995E+03  0.46999998093E+01 0. -1.
</event>
<event>
 5   0  0.2454354E-02  0.7555322E+03  0.7818609E-02  0.9626711E-01
        2   -1    0    0  501    0  0.00000000000E+00  0.00000000000E+00  0.76795428459E+03  0.76795428460E+03  0.25500000920E-02 0.  1.
       -2   -1    0    0    0  501  0.00000000000E+00  0.00000000000E+00 -0.18582775624E+03  0.18582775626E+03  0.25500000920E-02 0. -1.
    10030    2    1    2    0    0  0.00000000000E+00  0.00000000000E+00  0.58212652835E+03  0.95378204086E+03  0.75553218757E+03 0.  0.
        5    1    3    3  502    0 -0.47972467349E+02  0.32388753167E+03  0.52885233897E+03  0.62202200703E+03  0.46999998093E+01 0.  1.
       -5    1    3    3    0  502  0.47972467349E+02 -0.32388753167E+03  0.53274189381E+02  0.33176003383E+03  0.46999998093E+01 0. -1.
</event>
<event>
 5   0  0.2460312E-02  0.7753763E+03  0.7818609E-02  0.9596359E-01
       -2   -1    0    0    0  501  0.00000000000E+00  0.00000000000E+00  0.32614754239E+03  0.32614754240E+03  0.25500000920E-02 0. -1.
        2   -1    0    0  501    0  0.00000000000E+00  0.00000000000E+00 -0.46084078026E+03  0.46084078027E+03  0.25500000920E-02 0.  1.
    10030    2    1    2    0    0  0.00000000000E+00  0.00000000000E+00 -0.13469323787E+03  0.78698832267E+03  0.77537626459E+03 0.  0.
        2    1    3    3  502    0 -0.10362918146E+03 -0.30320201757E+03 -0.28886177675E+03  0.43140653307E+03  0.25500000920E-02 0.  1.
       -2    1    3    3    0  502  0.10362918146E+03  0.30320201757E+03  0.15416853887E+03  0.35558178960E+03  0.25500000920E-02 0. -1.
</event>
<event>
 5   0  0.1498375E-02  0.7979495E+03  0.7818609E-02  0.9562990E-01
       -1   -1    0    0    0  501  0.00000000000E+00  0.00000000000E+00  0.98020649398E+03  0.98020649399E+03  0.50400001928E-02 0.  1.
        1   -1    0    0  501    0  0.00000000000E+00  0.00000000000E+00 -0.16239521781E+03  0.16239521789E+03  0.50400001928E-02 0. -1.
    10030    2    1    2    0    0  0.00000000000E+00  0.00000000000E+00  0.81781127617E+03  0.11426017119E+04  0.79794948998E+03 0.  0.
        4    1    3    3  502    0 -0.49618917519E+02  0.35542772360E+03  0.65852190846E+03  0.74996241272E+03  0.12699999809E+01 0.  1.
       -4    1    3    3    0  502  0.49618917519E+02 -0.35542772360E+03  0.15928936770E+03  0.39263929915E+03  0.12699999809E+01 0. -1.
</event>
<event>
 5   0  0.2571778E-02  0.7688091E+03  0.7818609E-02  0.9606295E-01
       -2   -1    0    0    0  501  0.00000000000E+00  0.00000000000E+00  0.73918387777E+02  0.73918387821E+02  0.25500000920E-02 0. -1.
        2   -1    0    0  501    0  0.00000000000E+00  0.00000000000E+00 -0.19990541683E+04  0.19990541683E+04  0.25500000920E-02 0.  1.
    10030    2    1    2    0    0  0.00000000000E+00  0.00000000000E+00 -0.19251357806E+04  0.20729725562E+04  0.76880910830E+03 0.  0.
        1    1    3    3  502    0  0.17198169853E+03 -0.70104156541E+02 -0.18700566029E+04  0.18792562346E+04  0.50400001928E-02 0.  1.
       -1    1    3    3    0  502 -0.17198169853E+03  0.70104156541E+02 -0.55079177704E+02  0.19371632155E+03  0.50400001928E-02 0. -1.
</event>
<event>
 5   0  0.2454354E-02  0.7565611E+03  0.7818609E-02  0.9625113E-01
        2   -1    0    0  501    0  0.00000000000E+00  0.00000000000E+00  0.66138897027E+03  0.66138897027E+03  0.25500000920E-02 0.  1.
       -2   -1    0    0    0  501  0.00000000000E+00  0.00000000000E+00 -0.21635706912E+03  0.21635706913E+03  0.25500000920E-02 0. -1.
    10030    2    1    2    0    0  0.00000000000E+00  0.00000000000E+00  0.44503190115E+03  0.87774603940E+03  0.75656111230E+03 0.  0.
        5    1    3    3  502    0  0.24687758959E+03 -0.28118819209E+03  0.28668070539E+03  0.47140562200E+03  0.46999998093E+01 0. -1.
       -5    1    3    3    0  502 -0.24687758959E+03  0.28118819209E+03  0.15835119576E+03  0.40634041740E+03  0.46999998093E+01 0.  1.
</event>
<event>
 5   0  0.2422031E-02  0.7890217E+03  0.7818609E-02  0.9576045E-01
        2   -1    0    0  501    0  0.00000000000E+00  0.00000000000E+00  0.75546698823E+03  0.75546698824E+03  0.25500000920E-02 0. -1.
       -2   -1    0    0    0  501  0.00000000000E+00  0.00000000000E+00 -0.20601671515E+03  0.20601671516E+03  0.25500000920E-02 0.  1.
    10030    2    1    2    0    0  0.00000000000E+00  0.00000000000E+00  0.54945027309E+03  0.96148370340E+03  0.78902174197E+03 0.  0.
        4    1    3    3  502    0 -0.11910118263E+03  0.23174452190E+03  0.63569263849E+03  0.68702063918E+03  0.12699999809E+01 0. -1.
       -4    1    3    3    0  502  0.11910118263E+03 -0.23174452190E+03 -0.86242365399E+02  0.27446306422E+03  0.12699999809E+01 0.  1.
</event>
<event>
 5   0  0.2464780E-02  0.7971993E+03  0.7818609E-02  0.9564080E-01
        2   -1    0    0  501    0  0.00000000000E+00  0.00000000000E+00  0.11208628548E+04  0.11208628548E+04  0.25500000920E-02 0. -1.
       -2   -1    0    0    0  501  0.00000000000E+00  0.00000000000E+00 -0.14174943639E+03  0.14174943641E+03  0.25500000920E-02 0.  1.
    10030    2    1    2    0    0  0.00000000000E+00  0.00000000000E+00  0.97911341842E+03  0.12626122912E+04  0.79719929241E+03 0.  0.
        3    1    3    3  502    0  0.34055213258E+03  0.33420666588E+02  0.16578868799E+03  0.38023492111E+03  0.10100000352E+00 0. -1.
       -3    1    3    3    0  502 -0.34055213258E+03 -0.33420666588E+02  0.81332473043E+03  0.88237737011E+03  0.10100000352E+00 0.  1.
</event>
<event>
 5   0  0.2454354E-02  0.7884979E+03  0.7818609E-02  0.9576817E-01
       -2   -1    0    0    0  501  0.00000000000E+00  0.00000000000E+00  0.22644539735E+03  0.22644539736E+03  0.25500000920E-02 0.  1.
        2   -1    0    0  501    0  0.00000000000E+00  0.00000000000E+00 -0.68640047447E+03  0.68640047447E+03  0.25500000920E-02 0. -1.
    10030    2    1    2    0    0  0.00000000000E+00  0.00000000000E+00 -0.45995507712E+03  0.91284587184E+03  0.78849788380E+03 0.  0.
        5    1    3    3  502    0  0.19200318040E+03  0.33923464415E+03 -0.29812259006E+03  0.49075914030E+03  0.46999998093E+01 0. -1.
       -5    1    3    3    0  502 -0.19200318040E+03 -0.33923464415E+03 -0.16183248705E+03  0.42208673154E+03  0.46999998093E+01 0.  1.
</event>
<event>
 5   0  0.1498375E-02  0.7955971E+03  0.7818609E-02  0.9566412E-01
       -1   -1    0    0    0  501  0.00000000000E+00  0.00000000000E+00  0.32678326581E+03  0.32678326585E+03  0.50400001928E-02 0.  1.
        1   -1    0    0  501    0  0.00000000000E+00  0.00000000000E+00 -0.48424663557E+03  0.48424663559E+03  0.50400001928E-02 0. -1.
    10030    2    1    2    0    0  0.00000000000E+00  0.00000000000E+00 -0.15746336976E+03  0.81102990144E+03  0.79559712683E+03 0.  0.
        4    1    3    3  502    0  0.33694725263E+03 -0.19632379323E+03 -0.15877616335E+03  0.42105577516E+03  0.12699999809E+01 0.  1.
       -4    1    3    3    0  502 -0.33694725263E+03  0.19632379323E+03  0.13127935915E+01  0.38997412629E+03  0.12699999809E+01 0. -1.
</event>
<event>
 5   0  0.1624094E-02  0.7983454E+03  0.7818609E-02  0.9562415E-01
       -1   -1    0    0    0  501  0.00000000000E+00  0.00000000000E+00  0.19909419525E+03  0.19909419531E+03  0.50400001928E-02 0.  1.
        1   -1    0    0  501    0  0.00000000000E+00  0.00000000000E+00 -0.80031893834E+03  0.80031893835E+03  0.50400001928E-02 0. -1.
    10030    2    1    2    0    0  0.00000000000E+00  0.00000000000E+00 -0.60122474309E+03  0.99941313366E+03  0.79834542652E+03 0.  0.
        3    1    3    3  502    0  0.61286676174E+02  0.98082551661E+02 -0.77888442836E+03  0.78742441324E+03  0.10100000352E+00 0. -1.
       -3    1    3    3    0  502 -0.61286676174E+02 -0.98082551661E+02  0.17765968527E+03  0.21198872043E+03  0.10100000352E+00 0.  1.
</event>
<event>
 5   0  0.1509629E-02  0.8149915E+03  0.7818609E-02  0.9538568E-01
       -1   -1    0    0    0  501  0.00000000000E+00  0.00000000000E+00  0.48839640057E+03  0.48839640060E+03  0.50400001928E-02 0.  1.
        1   -1    0    0  501    0  0.00000000000E+00  0.00000000000E+00 -0.33999591101E+03  0.33999591104E+03  0.50400001928E-02 0. -1.
    10030    2    1    2    0    0  0.00000000000E+00  0.00000000000E+00  0.14840048957E+03  0.82839231164E+03  0.81499148258E+03 0.  0.
        5    1    3    3  502    0 -0.25806434455E+03  0.21148660120E+03 -0.16354073352E+03  0.37160657951E+03  0.46999998093E+01 0. -1.
       -5    1    3    3    0  502  0.25806434455E+03 -0.21148660120E+03  0.31194122309E+03  0.45678573213E+03  0.46999998093E+01 0.  1.
</event>
<event>
 5   0  0.2571778E-02  0.7905835E+03  0.7818609E-02  0.9573748E-01
        2   -1    0    0  501    0  0.00000000000E+00  0.00000000000E+00  0.20857079818E+03  0.20857079820E+03  0.25500000920E-02 0.  1.
       -2   -1    0    0    0  501  0.00000000000E+00  0.00000000000E+00 -0.74917271197E+03  0.74917271197E+03  0.25500000920E-02 0. -1.
    10030    2    1    2    0    0  0.00000000000E+00  0.00000000000E+00 -0.54060191378E+03  0.95774351017E+03  0.79058345675E+03 0.  0.
        1    1    3    3  502    0  0.37397369868E+03 -0.10087565394E+03 -0.36586901437E+03  0.53281550330E+03  0.50400001928E-02 0. -1.
       -1    1    3    3    0  502 -0.37397369868E+03  0.10087565394E+03 -0.17473289941E+03  0.42492800687E+03  0.50400001928E-02 0.  1.
</event>
<event>
 5   0  0.2454354E-02  0.7820128E+03  0.7818609E-02  0.9586424E-01
       -2   -1    0    0    0  501  0.00000000000E+00  0.00000000000E+00  0.93364689857E+02  0.93364689892E+02  0.25500000920E-02 0.  1.
        2   -1    0    0  501    0  0.00000000000E+00  0.00000000000E+00 -0.16375140792E+04  0.16375140792E+04  0.25500000920E-02 0. -1.
    10030    2    1    2    0    0  0.00000000000E+00  0.00000000000E+00 -0.15441493893E+04  0.17308787691E+04  0.78201277271E+03 0.  0.
        5    1    3    3  502    0  0.33836995984E+03  0.15445876312E+03 -0.50543861983E+03  0.62756834499E+03  0.46999998093E+01 0.  1.
       -5    1    3    3    0  502 -0.33836995984E+03 -0.15445876312E+03 -0.10387107695E+04  0.11033104241E+04  0.46999998093E+01 0. -1.
</event>
<event>
 5   0  0.1509629E-02  0.7973161E+03  0.7818609E-02  0.9563910E-01
        1   -1    0    0  501    0  0.00000000000E+00  0.00000000000E+00  0.16954917281E+04  0.16954917281E+04  0.50400001928E-02 0.  1.
       -1   -1    0    0    0  501  0.00000000000E+00  0.00000000000E+00 -0.93735784005E+02  0.93735784141E+02  0.50400001928E-02 0. -1.
    10030    2    1    2    0    0  0.00000000000E+00  0.00000000000E+00  0.16017559441E+04  0.17892275123E+04  0.79731611432E+03 0.  0.
        5    1    3    3  502    0 -0.31875152427E+02  0.36760871646E+03  0.11393817715E+04  0.11976498257E+04  0.46999998093E+01 0.  1.
       -5    1    3    3    0  502  0.31875152427E+02 -0.36760871646E+03  0.46237417265E+03  0.59157768661E+03  0.46999998093E+01 0. -1.
</event>
<event>
 5   0  0.1523811E-02  0.7864919E+03  0.7818609E-02  0.9579778E-01
        1   -1    0    0  501    0  0.00000000000E+00  0.00000000000E+00  0.39641889347E+03  0.39641889350E+03  0.50400001928E-02 0. -1.
       -1   -1    0    0    0  501  0.00000000000E+00  0.00000000000E+00 -0.39009840171E+03  0.39009840174E+03  0.50400001928E-02 0.  1.
    10030    2    1    2    0    0  0.00000000000E+00  0.00000000000E+00  0.63204917647E+01  0.78651729524E+03  0.78649189894E+03 0.  0.
        1    1    3    3  502    0  0.14929795174E+03 -0.38416201959E+02 -0.35862027611E+03  0.39035136151E+03  0.50400001928E-02 0.  1.
       -1    1    3    3    0  502 -0.14929795174E+03  0.38416201959E+02  0.36494076787E+03  0.39616593373E+03  0.50400001928E-02 0. -1.
</event>
<event>
 5   0  0.2422031E-02  0.8058363E+03  0.7818609E-02  0.9551608E-01
       -2   -1    0    0    0  501  0.00000000000E+00  0.00000000000E+00  0.27453881364E+03  0.27453881365E+03  0.25500000920E-02 0.  1.
        2   -1    0    0  501    0  0.00000000000E+00  0.00000000000E+00 -0.59132992569E+03  0.59132992569E+03  0.25500000920E-02 0. -1.
    10030    2    1    2    0    0  0.00000000000E+00  0.00000000000E+00 -0.31679111204E+03  0.86586873935E+03  0.80583625204E+03 0.  0.
        4    1    3    3  502    0  0.34449950037E+02 -0.30452073406E+03 -0.43945764827E+03  0.53576516690E+03  0.12699999809E+01 0. -1.
       -4    1    3    3    0  502 -0.34449950037E+02  0.30452073406E+03  0.12266653623E+03  0.33010357245E+03  0.12699999809E+01 0.  1.
</event>
<event>
 5   0  0.1498375E-02  0.7993084E+03  0.7818609E-02  0.9561019E-01
       -1   -1    0    0    0  501  0.00000000000E+00  0.00000000000E+00  0.15384383455E+03  0.15384383463E+03  0.50400001928E-02 0. -1.
        1   -1    0    0  501    0  0.00000000000E+00  0.00000000000E+00 -0.10382183832E+04  0.10382183832E+04  0.50400001928E-02 0.  1.
    10030    2    1    2    0    0  0.00000000000E+00  0.00000000000E+00 -0.88437454862E+03  0.11920622178E+04  0.79930844415E+03 0.  0.
        4    1    3    3  502    0  0.33859263319E+03 -0.98362952224E+02 -0.72279280690E+03  0.80420849052E+03  0.12699999809E+01 0.  1.
       -4    1    3    3    0  502 -0.33859263319E+03  0.98362952224E+02 -0.16158174173E+03  0.38785372730E+03  0.12699999809E+01 0. -1.
</event>
<event>
 5   0  0.2422031E-02  0.8023397E+03  0.7818609E-02  0.9556637E-01
       -2   -1    0    0    0  501  0.00000000000E+00  0.00000000000E+00  0.59298431585E+03  0.59298431585E+03  0.25500000920E-02 0. -1.
        2   -1    0    0  501    0  0.00000000000E+00  0.00000000000E+00 -0.27140223061E+03  0.27140223062E+03  0.25500000920E-02 0.  1.
    10030    2    1    2    0    0  0.00000000000E+00  0.00000000000E+00  0.32158208524E+03  0.86438654647E+03  0.80233974361E+03 0.  0.
        4    1    3    3  502    0  0.72692603165E+02 -0.13814479370E+03 -0.23733748782E+03  0.28407550864E+03  0.12699999809E+01 0.  1.
       -4    1    3    3    0  502 -0.72692603165E+02  0.13814479370E+03  0.55891957306E+03  0.58031103784E+03  0.12699999809E+01 0. -1.
</event>
<event>
 5   0  0.2571778E-02  0.7576197E+03  0.7818609E-02  0.9623471E-01
       -2   -1    0    0    0  501  0.00000000000E+00  0.00000000000E+00  0.26032757670E+03  0.26032757671E+03  0.25500000920E-02 0.  1.
        2   -1    0    0  501    0  0.00000000000E+00  0.00000000000E+00 -0.55121669044E+03  0.55121669045E+03  0.25500000920E-02 0. -1.
    10030    2    1    2    0    0  0.00000000000E+00  0.00000000000E+00 -0.29088911374E+03  0.81154426717E+03  0.75761970742E+03 0.  0.
        1    1    3    3  502    0  0.18321130687E+03 -0.12838978610E+03  0.18200368930E+03  0.28840191241E+03  0.50400001928E-02 0.  1.
       -1    1    3    3    0  502 -0.18321130687E+03  0.12838978610E+03 -0.47289280304E+03  0.52314235475E+03  0.50400001928E-02 0. -1.
</event>
<event>
 5   0  0.2454354E-02  0.8022848E+03  0.7818609E-02  0.9556716E-01
        2   -1    0    0  501    0  0.00000000000E+00  0.00000000000E+00  0.21300511036E+04  0.21300511036E+04  0.25500000920E-02 0. -1.
       -2   -1    0    0    0  501  0.00000000000E+00  0.00000000000E+00 -0.75545234953E+02  0.75545234997E+02  0.25500000920E-02 0.  1.
    10030    2    1    2    0    0  0.00000000000E+00  0.00000000000E+00  0.20545058687E+04  0.22055963386E+04  0.80228476524E+03 0.  0.
        5    1    3    3  502    0  0.14887708394E+03 -0.25898598214E+03  0.29134967737E+03  0.41730666131E+03  0.46999998093E+01 0.  1.
       -5    1    3    3    0  502 -0.14887708394E+03  0.25898598214E+03  0.17631561913E+04  0.17882896773E+04  0.46999998093E+01 0. -1.
</event>
<event>
 5   0  0.1523811E-02  0.8000168E+03  0.7818609E-02  0.9559993E-01
       -1   -1    0    0    0  501  0.00000000000E+00  0.00000000000E+00  0.71970345234E+02  0.71970345410E+02  0.50400001928E-02 0. -1.
        1   -1    0    0  501    0  0.00000000000E+00  0.00000000000E+00 -0.22232312119E+04  0.22232312119E+04  0.50400001928E-02 0.  1.
    10030    2    1    2    0    0  0.00000000000E+00  0.00000000000E+00 -0.21512608667E+04  0.22952015573E+04  0.80001679498E+03 0.  0.
        1    1    3    3  502    0  0.12841314405E+03 -0.16056389722E+03 -0.20600412930E+04  0.20702755444E+04  0.50400001928E-02 0.  1.
       -1    1    3    3    0  502 -0.12841314405E+03  0.16056389722E+03 -0.91219573642E+02  0.22492601294E+03  0.50400001928E-02 0. -1.
</event>
<event>
 5   0  0.1509629E-02  0.7907491E+03  0.7818609E-02  0.9573505E-01
        1   -1    0    0  501    0  0.00000000000E+00  0.00000000000E+00  0.30766987478E+03  0.30766987482E+03  0.50400001928E-02 0.  1.
       -1   -1    0    0    0  501  0.00000000000E+00  0.00000000000E+00 -0.50808034219E+03  0.50808034221E+03  0.50400001928E-02 0. -1.
    10030    2    1    2    0    0  0.00000000000E+00  0.00000000000E+00 -0.20041046741E+03  0.81575021703E+03  0.79074905067E+03 0.  0.
        5    1    3    3  502    0 -0.38193308654E+03 -0.18307154885E+01 -0.20552465248E+03  0.43374959007E+03  0.46999998093E+01 0. -1.
       -5    1    3    3    0  502  0.38193308654E+03  0.18307154885E+01  0.51141850705E+01  0.38200062696E+03  0.46999998093E+01 0.  1.
</event>
<event>
 5   0  0.2422031E-02  0.7760532E+03  0.7818609E-02  0.9595341E-01
        2   -1    0    0  501    0  0.00000000000E+00  0.00000000000E+00  0.57159847457E+03  0.57159847458E+03  0.25500000920E-02 0.  1.
       -2   -1    0    0    0  501  0.00000000000E+00  0.00000000000E+00 -0.26340980568E+03  0.26340980569E+03  0.25500000920E-02 0. -1.
    10030    2    1    2    0    0  0.00000000000E+00  0.00000000000E+00  0.30818866889E+03  0.83500828027E+03  0.77605320210E+03 0.  0.
        4    1    3    3  502    0 -0.30377862807E+03 -0.10531056429E+03 -0.79644070111E+02  0.33123490249E+03  0.12699999809E+01 0. -1.
       -4    1    3    3    0  502  0.30377862807E+03  0.10531056429E+03  0.38783273900E+03  0.50377337778E+03  0.12699999809E+01 0.  1.
</event>
<event>
 5   0  0.9919125E-03  0.7789199E+03  0.7818609E-02  0.9591041E-01
        3   -1    0    0  501    0  0.00000000000E+00  0.00000000000E+00  0.39122836522E+03  0.39122837826E+03  0.10100000352E+00 0. -1.
       -3   -1    0    0    0  501  0.00000000000E+00  0.00000000000E+00 -0.38769952113E+03  0.38769953428E+03  0.10100000352E+00 0.  1.
    10030    2    1    2    0    0  0.00000000000E+00  0.00000000000E+00  0.35288440943E+01  0.77892791254E+03  0.77891991898E+03 0.  0.
        5    1    3    3  502    0  0.35116048023E+03 -0.31173803783E+02  0.16720940664E+03  0.39021348591E+03  0.46999998093E+01 0. -1.
       -5    1    3    3    0  502 -0.35116048023E+03  0.31173803783E+02 -0.16368056254E+03  0.38871442663E+03  0.46999998093E+01 0.  1.
</event>
<event>
 5   0  0.1498375E-02  0.7926728E+03  0.7818609E-02  0.9570684E-01
        1   -1    0    0  501    0  0.00000000000E+00  0.00000000000E+00  0.33260776974E+03  0.33260776977E+03  0.50400001928E-02 0. -1.
       -1   -1    0    0    0  501  0.00000000000E+00  0.00000000000E+00 -0.47227557143E+03  0.47227557145E+03  0.50400001928E-02 0.  1.
    10030    2    1    2    0    0  0.00000000000E+00  0.00000000000E+00 -0.13966780169E+03  0.80488334123E+03  0.79267275603E+03 0.  0.
        4    1    3    3  502    0  0.38501906871E+03 -0.51258103978E+01 -0.16516817030E+03  0.41898459946E+03  0.12699999809E+01 0.  1.
       -4    1    3    3    0  502 -0.38501906871E+03  0.51258103978E+01  0.25500368606E+02  0.38589874177E+03  0.12699999809E+01 0. -1.
</event>
<event>
 5   0  0.2422031E-02  0.7999891E+03  0.7818609E-02  0.9560033E-01
       -2   -1    0    0    0  501  0.00000000000E+00  0.00000000000E+00  0.14120378238E+03  0.14120378240E+03  0.25500000920E-02 0.  1.
        2   -1    0    0  501    0  0.00000000000E+00  0.00000000000E+00 -0.11330833513E+04  0.11330833513E+04  0.25500000920E-02 0. -1.
    10030    2    1    2    0    0  0.00000000000E+00  0.00000000000E+00 -0.99187956893E+03  0.12742871337E+04  0.79998913735E+03 0.  0.
        4    1    3    3  502    0  0.30485960062E+03  0.21309682834E+03 -0.73028498388E+03  0.81955317395E+03  0.12699999809E+01 0. -1.
       -4    1    3    3    0  502 -0.30485960062E+03 -0.21309682834E+03 -0.26159458505E+03  0.45473395976E+03  0.12699999809E+01 0.  1.
</event>
<event>
 5   0  0.9919125E-03  0.7960445E+03  0.7818609E-02  0.9565760E-01
       -4   -1    0    0    0  501  0.00000000000E+00  0.00000000000E+00  0.26985061578E+03  0.26985360427E+03  0.12699999809E+01 0. -1.
        4   -1    0    0  501    0  0.00000000000E+00  0.00000000000E+00 -0.58706496815E+03  0.58706634184E+03  0.12699999809E+01 0.  1.
    10030    2    1    2    0    0  0.00000000000E+00  0.00000000000E+00 -0.31721435237E+03  0.85691994611E+03  0.79604450170E+03 0.  0.
        3    1    3    3  502    0 -0.17492689283E+02 -0.37596372352E+03 -0.29799678866E+03  0.48005917535E+03  0.10100000352E+00 0. -1.
       -3    1    3    3    0  502  0.17492689283E+02  0.37596372352E+03 -0.19217563709E+02  0.37686077076E+03  0.10100000352E+00 0.  1.
</event>
<event>
 5   0  0.2571778E-02  0.8065441E+03  0.7818609E-02  0.9550593E-01
       -2   -1    0    0    0  501  0.00000000000E+00  0.00000000000E+00  0.14408045995E+03  0.14408045997E+03  0.25500000920E-02 0.  1.
        2   -1    0    0  501    0  0.00000000000E+00  0.00000000000E+00 -0.11287327573E+04  0.11287327573E+04  0.25500000920E-02 0. -1.
    10030    2    1    2    0    0  0.00000000000E+00  0.00000000000E+00 -0.98465229730E+03  0.12728132172E+04  0.80654407157E+03 0.  0.
        1    1    3    3  502    0 -0.34173251010E+03  0.13409959276E+03 -0.75575443080E+03  0.84019555398E+03  0.50400001928E-02 0. -1.
       -1    1    3    3    0  502  0.34173251010E+03 -0.13409959276E+03 -0.22889786651E+03  0.43261766325E+03  0.50400001928E-02 0.  1.
</event>
<event>
 5   0  0.1523811E-02  0.7877386E+03  0.7818609E-02  0.9577937E-01
       -1   -1    0    0    0  501  0.00000000000E+00  0.00000000000E+00  0.55045514030E+03  0.55045514033E+03  0.50400001928E-02 0. -1.
        1   -1    0    0  501    0  0.00000000000E+00  0.00000000000E+00 -0.28182682954E+03  0.28182682959E+03  0.50400001928E-02 0.  1.
    10030    2    1    2    0    0  0.00000000000E+00  0.00000000000E+00  0.26862831076E+03  0.83228196991E+03  0.78773860392E+03 0.  0.
        1    1    3    3  502    0 -0.68657934637E+02 -0.20141141270E+03 -0.21586754260E+03  0.30311592688E+03  0.50400001928E-02 0.  1.
       -1    1    3    3    0  502  0.68657934637E+02  0.20141141270E+03  0.48449585336E+03  0.52916604304E+03  0.50400001928E-02 0. -1.
</event>
<event>
 5   0  0.1498375E-02  0.8078898E+03  0.7818609E-02  0.9548667E-01
        1   -1    0    0  501    0  0.00000000000E+00  0.00000000000E+00  0.48515580611E+03  0.48515580613E+03  0.50400001928E-02 0. -1.
       -1   -1    0    0    0  501  0.00000000000E+00  0.00000000000E+00 -0.33632798637E+03  0.33632798640E+03  0.50400001928E-02 0.  1.
    10030    2    1    2    0    0  0.00000000000E+00  0.00000000000E+00  0.14882781974E+03  0.82148379254E+03  0.80788978300E+03 0.  0.
        4    1    3    3  502    0 -0.14174820553E+03  0.29612372452E+03  0.31372064152E+03  0.45409698062E+03  0.12699999809E+01 0. -1.
       -4    1    3    3    0  502  0.14174820553E+03 -0.29612372452E+03 -0.16489282178E+03  0.36738681191E+03  0.12699999809E+01 0.  1.
</event>
<event>
 5   0  0.1624094E-02  0.8161133E+03  0.7818609E-02  0.9536982E-01
       -1   -1    0    0    0  501  0.00000000000E+00  0.00000000000E+00  0.77471454061E+03  0.77471454062E+03  0.50400001928E-02 0.  1.
        1   -1    0    0  501    0  0.00000000000E+00  0.00000000000E+00 -0.21493109583E+03  0.21493109589E+03  0.50400001928E-02 0. -1.
    10030    2    1    2    0    0  0.00000000000E+00  0.00000000000E+00  0.55978344478E+03  0.98964563651E+03  0.81611333821E+03 0.  0.
        3    1    3    3  502    0 -0.32336371386E+03  0.23752660939E+03  0.37004549928E+03  0.54581742675E+03  0.10100000352E+00 0. -1.
       -3    1    3    3    0  502  0.32336371386E+03 -0.23752660939E+03  0.18973794550E+03  0.44382820975E+03  0.10100000352E+00 0.  1.
</event>
<event>
 5   0  0.2464780E-02  0.7978685E+03  0.7818609E-02  0.9563108E-01
       -2   -1    0    0    0  501  0.00000000000E+00  0.00000000000E+00  0.87300664489E+02  0.87300664526E+02  0.25500000920E-02 0.  1.
        2   -1    0    0  501    0  0.00000000000E+00  0.00000000000E+00 -0.18229933565E+04  0.18229933565E+04  0.25500000920E-02 0. -1.
    10030    2    1    2    0    0  0.00000000000E+00  0.00000000000E+00 -0.17356926921E+04  0.19102940211E+04  0.79786848897E+03 0.  0.
        3    1    3    3  502    0 -0.37864377134E+03  0.81145519357E+02 -0.63828789314E+03  0.74657025498E+03  0.10100000352E+00 0. -1.
       -3    1    3    3    0  502  0.37864377134E+03 -0.81145519357E+02 -0.10974047989E+04  0.11637237661E+04  0.10100000352E+00 0.  1.
</event>
<event>
 5   0  0.2460312E-02  0.8041922E+03  0.7818609E-02  0.9553969E-01
        2   -1    0    0  501    0  0.00000000000E+00  0.00000000000E+00  0.12361162733E+04  0.12361162733E+04  0.25500000920E-02 0.  1.
       -2   -1    0    0    0  501  0.00000000000E+00  0.00000000000E+00 -0.13079777292E+03  0.13079777295E+03  0.25500000920E-02 0. -1.
    10030    2    1    2    0    0  0.00000000000E+00  0.00000000000E+00  0.11053185003E+04  0.13669140462E+04  0.80419215523E+03 0.  0.
        2    1    3    3  502    0  0.10531937804E+02  0.25653239031E+03  0.10786483792E+04  0.11087840705E+04  0.25500000920E-02 0.  1.
       -2    1    3    3    0  502 -0.10531937804E+02 -0.25653239031E+03  0.26670121123E+02  0.25812997571E+03  0.25500000920E-02 0. -1.
</event>
<event>
 5   0  0.1471290E-02  0.8259064E+03  0.7818609E-02  0.9523258E-01
        1   -1    0    0  501    0  0.00000000000E+00  0.00000000000E+00  0.51844975695E+03  0.51844975698E+03  0.50400001928E-02 0.  1.
       -1   -1    0    0    0  501  0.00000000000E+00  0.00000000000E+00 -0.32892356740E+03  0.32892356744E+03  0.50400001928E-02 0. -1.
    10030    2    1    2    0    0  0.00000000000E+00  0.00000000000E+00  0.18952618955E+03  0.84737332442E+03  0.82590639567E+03 0.  0.
        2    1    3    3  502    0  0.44771946246E+01  0.34936203071E+02  0.51690581430E+03  0.51810443390E+03  0.25500000920E-02 0.  1.
       -2    1    3    3    0  502 -0.44771946246E+01 -0.34936203071E+02 -0.32737962475E+03  0.32926889052E+03  0.25500000920E-02 0. -1.
</event>
<event>
 5   0  0.2422031E-02  0.7183857E+03  0.7818609E-02  0.9686297E-01
        2   -1    0    0  501    0  0.00000000000E+00  0.00000000000E+00  0.10990927849E+04  0.10990927849E+04  0.25500000920E-02 0.  1.
       -2   -1    0    0    0  501  0.00000000000E+00  0.00000000000E+00 -0.11738727486E+03  0.11738727489E+03  0.25500000920E-02 0. -1.
    10030    2    1    2    0    0  0.00000000000E+00  0.00000000000E+00  0.98170550999E+03  0.12164800597E+04  0.71838570936E+03 0.  0.
        4    1    3    3  502    0 -0.10830673946E+03 -0.27374451898E+03  0.83933577240E+03  0.88946757289E+03  0.12699999809E+01 0.  1.
       -4    1    3    3    0  502  0.10830673946E+03  0.27374451898E+03  0.14236973759E+03  0.32701248686E+03  0.12699999809E+01 0. -1.
</event>
<event>
 5   0  0.2454354E-02  0.8014961E+03  0.7818609E-02  0.9557854E-01
        2   -1    0    0  501    0  0.00000000000E+00  0.00000000000E+00  0.10334926816E+04  0.10334926816E+04  0.25500000920E-02 0.  1.
       -2   -1    0    0    0  501  0.00000000000E+00  0.00000000000E+00 -0.15539441454E+03  0.15539441456E+03  0.25500000920E-02 0. -1.
    10030    2    1    2    0    0  0.00000000000E+00  0.00000000000E+00  0.87809826702E+03  0.11888870961E+04  0.80149607658E+03 0.  0.
        5    1    3    3  502    0 -0.16453180283E+02 -0.36078158743E+03  0.69658118720E+03  0.78465374614E+03  0.46999998093E+01 0.  1.
       -5    1    3    3    0  502  0.16453180283E+02  0.36078158743E+03  0.18151707981E+03  0.40423334998E+03  0.46999998093E+01 0. -1.
</event>
<event>
 5   0  0.1498375E-02  0.8005040E+03  0.7818609E-02  0.9559288E-01
       -1   -1    0    0    0  501  0.00000000000E+00  0.00000000000E+00  0.19579791814E+03  0.19579791821E+03  0.50400001928E-02 0. -1.
        1   -1    0    0  501    0  0.00000000000E+00  0.00000000000E+00 -0.81819902315E+03  0.81819902316E+03  0.50400001928E-02 0.  1.
    10030    2    1    2    0    0  0.00000000000E+00  0.00000000000E+00 -0.62240110500E+03  0.10139969414E+04  0.80050400473E+03 0.  0.
        4    1    3    3  502    0 -0.37562837500E+02  0.13395711735E+03 -0.78658306331E+03  0.79879284200E+03  0.12699999809E+01 0.  1.
       -4    1    3    3    0  502  0.37562837500E+02 -0.13395711735E+03  0.16418195831E+03  0.21520409937E+03  0.12699999809E+01 0. -1.
</event>
<event>
 5   0  0.2571778E-02  0.8024815E+03  0.7818609E-02  0.9556432E-01
        2   -1    0    0  501    0  0.00000000000E+00  0.00000000000E+00  0.20242571063E+04  0.20242571063E+04  0.25500000920E-02 0.  1.
       -2   -1    0    0    0  501  0.00000000000E+00  0.00000000000E+00 -0.79532452270E+02  0.79532452311E+02  0.25500000920E-02 0. -1.
    10030    2    1    2    0    0  0.00000000000E+00  0.00000000000E+00  0.19447246540E+04  0.21037895586E+04  0.80248148074E+03 0.  0.
        1    1    3    3  502    0  0.39600582722E+03  0.63595769428E+02  0.10021489560E+04  0.10794292784E+04  0.50400001928E-02 0.  1.
       -1    1    3    3    0  502 -0.39600582722E+03 -0.63595769428E+02  0.94257569803E+03  0.10243602802E+04  0.50400001928E-02 0. -1.
</event>
<event>
 5   0  0.1523811E-02  0.7999841E+03  0.7818609E-02  0.9560040E-01
        1   -1    0    0  501    0  0.00000000000E+00  0.00000000000E+00  0.34590129700E+03  0.34590129704E+03  0.50400001928E-02 0.  1.
       -1   -1    0    0    0  501  0.00000000000E+00  0.00000000000E+00 -0.46254135665E+03  0.46254135667E+03  0.50400001928E-02 0. -1.
    10030    2    1    2    0    0  0.00000000000E+00  0.00000000000E+00 -0.11664005964E+03  0.80844265371E+03  0.79998413786E+03 0.  0.
        1    1    3    3  502    0  0.47744097398E+02  0.71616404799E+02  0.33643176701E+03  0.34726753685E+03  0.50400001928E-02 0.  1.
       -1    1    3    3    0  502 -0.47744097398E+02 -0.71616404799E+02 -0.45307182666E+03  0.46117511686E+03  0.50400001928E-02 0. -1.
</event>
<event>
 5   0  0.2571778E-02  0.8004809E+03  0.7818609E-02  0.9559321E-01
        2   -1    0    0  501    0  0.00000000000E+00  0.00000000000E+00  0.24135769250E+03  0.24135769251E+03  0.25500000920E-02 0.  1.
       -2   -1    0    0    0  501  0.00000000000E+00  0.00000000000E+00 -0.66371379109E+03  0.66371379109E+03  0.25500000920E-02 0. -1.
    10030    2    1    2    0    0  0.00000000000E+00  0.00000000000E+00 -0.42235609859E+03  0.90507148361E+03  0.80048092820E+03 0.  0.
        1    1    3    3  502    0  0.15946430680E+03 -0.34688911926E+03 -0.75350560142E+02  0.38915117004E+03  0.50400001928E-02 0.  1.
       -1    1    3    3    0  502 -0.15946430680E+03  0.34688911926E+03 -0.34700553845E+03  0.51592031356E+03  0.50400001928E-02 0. -1.
</event>
<event>
 5   0  0.1471290E-02  0.7928526E+03  0.7818609E-02  0.9570421E-01
       -1   -1    0    0    0  501  0.00000000000E+00  0.00000000000E+00  0.24724413277E+03  0.24724413282E+03  0.50400001928E-02 0. -1.
        1   -1    0    0  501    0  0.00000000000E+00  0.00000000000E+00 -0.63562208322E+03  0.63562208324E+03  0.50400001928E-02 0.  1.
    10030    2    1    2    0    0  0.00000000000E+00  0.00000000000E+00 -0.38837795045E+03  0.88286621606E+03  0.79285264903E+03 0.  0.
        2    1    3    3  502    0 -0.18869737927E+03 -0.33164658484E+03 -0.31390095423E+03  0.49409509940E+03  0.25500000920E-02 0.  1.
       -2    1    3    3    0  502  0.18869737927E+03  0.33164658484E+03 -0.74476996216E+02  0.38877111666E+03  0.25500000920E-02 0. -1.
</event>
<event>
 5   0  0.2460312E-02  0.8001324E+03  0.7818609E-02  0.9559825E-01
       -2   -1    0    0    0  501  0.00000000000E+00  0.00000000000E+00  0.12171769246E+03  0.12171769248E+03  0.25500000920E-02 0. -1.
        2   -1    0    0  501    0  0.00000000000E+00  0.00000000000E+00 -0.13149524142E+04  0.13149524142E+04  0.25500000920E-02 0.  1.
    10030    2    1    2    0    0  0.00000000000E+00  0.00000000000E+00 -0.11932347218E+04  0.14366701067E+04  0.80013242297E+03 0.  0.
        2    1    3    3  502    0  0.20184072799E+03  0.26817636497E+03 -0.98751245426E+03  0.10429952490E+04  0.25500000920E-02 0.  1.
       -2    1    3    3    0  502 -0.20184072799E+03 -0.26817636497E+03 -0.20572226750E+03  0.39367485766E+03  0.25500000920E-02 0. -1.
</event>
<event>
 5   0  0.2460312E-02  0.8101395E+03  0.7818609E-02  0.9545455E-01
        2   -1    0    0  501    0  0.00000000000E+00  0.00000000000E+00  0.46772329067E+03  0.46772329068E+03  0.25500000920E-02 0. -1.
       -2   -1    0    0    0  501  0.00000000000E+00  0.00000000000E+00 -0.35080892049E+03  0.35080892050E+03  0.25500000920E-02 0.  1.
    10030    2    1    2    0    0  0.00000000000E+00  0.00000000000E+00  0.11691437018E+03  0.81853221118E+03  0.81013950082E+03 0.  0.
        2    1    3    3  502    0  0.73004003894E+02  0.39290380766E+03  0.12531303879E+03  0.41881540606E+03  0.25500000920E-02 0.  1.
       -2    1    3    3    0  502 -0.73004003894E+02 -0.39290380766E+03 -0.83986686133E+01  0.39971680512E+03  0.25500000920E-02 0. -1.
</event>
<event>
 5   0  0.1498375E-02  0.8193873E+03  0.7818609E-02  0.9532371E-01
        1   -1    0    0  501    0  0.00000000000E+00  0.00000000000E+00  0.74667816762E+03  0.74667816764E+03  0.50400001928E-02 0.  1.
       -1   -1    0    0    0  501  0.00000000000E+00  0.00000000000E+00 -0.22479417045E+03  0.22479417051E+03  0.50400001928E-02 0. -1.
    10030    2    1    2    0    0  0.00000000000E+00  0.00000000000E+00  0.52188399717E+03  0.97147233815E+03  0.81938733044E+03 0.  0.
        4    1    3    3  502    0 -0.25891508350E+03 -0.22609473680E+03 -0.33487541469E+01  0.34375671270E+03  0.12699999809E+01 0. -1.
       -4    1    3    3    0  502  0.25891508350E+03  0.22609473680E+03  0.52523275132E+03  0.62771562545E+03  0.12699999809E+01 0.  1.
</event>
<event>
 5   0  0.1509629E-02  0.8084732E+03  0.7818609E-02  0.9547833E-01
       -1   -1    0    0    0  501  0.00000000000E+00  0.00000000000E+00  0.19407498531E+03  0.19407498538E+03  0.50400001928E-02 0. -1.
        1   -1    0    0  501    0  0.00000000000E+00  0.00000000000E+00 -0.84197989770E+03  0.84197989772E+03  0.50400001928E-02 0.  1.
    10030    2    1    2    0    0  0.00000000000E+00  0.00000000000E+00 -0.64790491239E+03  0.10360548831E+04  0.80847321866E+03 0.  0.
        5    1    3    3  502    0 -0.32897560040E+03  0.18606987553E+02 -0.23923759781E+02  0.33040218208E+03  0.46999998093E+01 0. -1.
       -5    1    3    3    0  502  0.32897560040E+03 -0.18606987553E+02 -0.62398115261E+03  0.70565270102E+03  0.46999998093E+01 0.  1.
</event>
<event>
 5   0  0.9919125E-03  0.8202287E+03  0.7818609E-02  0.9531190E-01
        4   -1    0    0  501    0  0.00000000000E+00  0.00000000000E+00  0.64718028503E+03  0.64718153113E+03  0.12699999809E+01 0.  1.
       -4   -1    0    0    0  501  0.00000000000E+00  0.00000000000E+00 -0.25988397985E+03  0.25988708294E+03  0.12699999809E+01 0. -1.
    10030    2    1    2    0    0  0.00000000000E+00  0.00000000000E+00  0.38729630518E+03  0.90706861407E+03  0.82022865265E+03 0.  0.
        1    1    3    3  502    0 -0.12531371906E+03 -0.35968508292E+03  0.25508652190E+02  0.38174281712E+03  0.50400001928E-02 0. -1.
       -1    1    3    3    0  502  0.12531371906E+03  0.35968508292E+03  0.36178765299E+03  0.52532579695E+03  0.50400001928E-02 0.  1.
</event>
<event>
 5   0  0.2464780E-02  0.8054432E+03  0.7818609E-02  0.9552172E-01
        2   -1    0    0  501    0  0.00000000000E+00  0.00000000000E+00  0.72711528938E+03  0.72711528938E+03  0.25500000920E-02 0.  1.
       -2   -1    0    0    0  501  0.00000000000E+00  0.00000000000E+00 -0.22305221865E+03  0.22305221866E+03  0.25500000920E-02 0. -1.
    10030    2    1    2    0    0  0.00000000000E+00  0.00000000000E+00  0.50406307073E+03  0.95016750804E+03  0.80544317867E+03 0.  0.
        3    1    3    3  502    0 -0.74910802379E+02  0.47133143767E+02 -0.21143747875E+03  0.22921382850E+03  0.10100000352E+00 0. -1.
       -3    1    3    3    0  502  0.74910802379E+02 -0.47133143767E+02  0.71550054947E+03  0.72095367955E+03  0.10100000352E+00 0.  1.
</event>
<event>
 5   0  0.9919125E-03  0.7926916E+03  0.7818609E-02  0.9570656E-01
        4   -1    0    0  501    0  0.00000000000E+00  0.00000000000E+00  0.82561592128E+03  0.82561689807E+03  0.12699999809E+01 0. -1.
       -4   -1    0    0    0  501  0.00000000000E+00  0.00000000000E+00 -0.19026687548E+03  0.19027111395E+03  0.12699999809E+01 0.  1.
    10030    2    1    2    0    0  0.00000000000E+00  0.00000000000E+00  0.63534904580E+03  0.10158880120E+04  0.79269164431E+03 0.  0.
        3    1    3    3  502    0  0.31882211164E+03  0.22841058470E+03  0.24437751621E+03  0.46210314293E+03  0.10100000352E+00 0.  1.
       -3    1    3    3    0  502 -0.31882211164E+03 -0.22841058470E+03  0.39097152960E+03  0.55378486909E+03  0.10100000352E+00 0. -1.
</event>
<event>
 5   0  0.1523811E-02  0.8033342E+03  0.7818609E-02  0.9555203E-01
       -1   -1    0    0    0  501  0.00000000000E+00  0.00000000000E+00  0.46281243246E+03  0.46281243248E+03  0.50400001928E-02 0. -1.
        1   -1    0    0  501    0  0.00000000000E+00  0.00000000000E+00 -0.34860009698E+03  0.34860009702E+03  0.50400001928E-02 0.  1.
    10030    2    1    2    0    0  0.00000000000E+00  0.00000000000E+00  0.11421233548E+03  0.81141252950E+03  0.80333419911E+03 0.  0.
        1    1    3    3  502    0  0.16488589528E+03  0.20955522386E+03  0.36051950693E+03  0.44841394404E+03  0.50400001928E-02 0. -1.
       -1    1    3    3    0  502 -0.16488589528E+03 -0.20955522386E+03 -0.24630717146E+03  0.36299858546E+03  0.50400001928E-02 0.  1.
</event>
<event>
 5   0  0.2571778E-02  0.7867503E+03  0.7818609E-02  0.9579396E-01
        2   -1    0    0  501    0  0.00000000000E+00  0.00000000000E+00  0.67049099141E+03  0.67049099141E+03  0.25500000920E-02 0. -1.
       -2   -1    0    0    0  501  0.00000000000E+00  0.00000000000E+00 -0.23079204801E+03  0.23079204802E+03  0.25500000920E-02 0.  1.
    10030    2    1    2    0    0  0.00000000000E+00  0.00000000000E+00  0.43969894340E+03  0.90128303943E+03  0.78675025029E+03 0.  0.
        1    1    3    3  502    0  0.33828933009E+03  0.15975058694E+03  0.35913990426E+03  0.51859559557E+03  0.50400001928E-02 0.  1.
       -1    1    3    3    0  502 -0.33828933009E+03 -0.15975058694E+03  0.80559039139E+02  0.38268744387E+03  0.50400001928E-02 0. -1.
</event>
<event>
 5   0  0.1509629E-02  0.7878173E+03  0.7818609E-02  0.9577820E-01
       -1   -1    0    0    0  501  0.00000000000E+00  0.00000000000E+00  0.41988677161E+03  0.41988677164E+03  0.50400001928E-02 0. -1.
        1   -1    0    0  501    0  0.00000000000E+00  0.00000000000E+00 -0.36953777298E+03  0.36953777302E+03  0.50400001928E-02 0.  1.
    10030    2    1    2    0    0  0.00000000000E+00  0.00000000000E+00  0.50348998623E+02  0.78942454466E+03  0.78781729484E+03 0.  0.
        5    1    3    3  502    0  0.37122852747E+03 -0.12926886955E+03  0.20635612408E+00  0.39311981993E+03  0.46999998093E+01 0. -1.
       -5    1    3    3    0  502 -0.37122852747E+03  0.12926886955E+03  0.50142642499E+02  0.39630472472E+03  0.46999998093E+01 0.  1.
</event>
<event>
 5   0  0.1509629E-02  0.7975594E+03  0.7818609E-02  0.9563557E-01
       -1   -1    0    0    0  501  0.00000000000E+00  0.00000000000E+00  0.31986309299E+03  0.31986309303E+03  0.50400001928E-02 0. -1.
        1   -1    0    0  501    0  0.00000000000E+00  0.00000000000E+00 -0.49716660043E+03  0.49716660045E+03  0.50400001928E-02 0.  1.
    10030    2    1    2    0    0  0.00000000000E+00  0.00000000000E+00 -0.17730350744E+03  0.81702969348E+03  0.79755939357E+03 0.  0.
        5    1    3    3  502    0 -0.47296785889E+02 -0.39257863581E+03 -0.14136854804E+03  0.41995491141E+03  0.46999998093E+01 0.  1.
       -5    1    3    3    0  502  0.47296785889E+02  0.39257863581E+03 -0.35934959398E+02  0.39707478207E+03  0.46999998093E+01 0. -1.
</event>
<event>
 5   0  0.2460312E-02  0.7974405E+03  0.7818609E-02  0.9563729E-01
       -2   -1    0    0    0  501  0.00000000000E+00  0.00000000000E+00  0.29267351755E+03  0.29267351756E+03  0.25500000920E-02 0. -1.
        2   -1    0    0  501    0  0.00000000000E+00  0.00000000000E+00 -0.54319176952E+03  0.54319176952E+03  0.25500000920E-02 0.  1.
    10030    2    1    2    0    0  0.00000000000E+00  0.00000000000E+00 -0.25051825196E+03  0.83586528709E+03  0.79744052041E+03 0.  0.
        2    1    3    3  502    0  0.29774601343E+01 -0.98883203722E+02  0.27960513102E+03  0.29659026037E+03  0.25500000920E-02 0. -1.
       -2    1    3    3    0  502 -0.29774601343E+01  0.98883203722E+02 -0.53012338298E+03  0.53927502672E+03  0.25500000920E-02 0.  1.
</event>
<event>
 5   0  0.2460312E-02  0.7979875E+03  0.7818609E-02  0.9562935E-01
       -2   -1    0    0    0  501  0.00000000000E+00  0.00000000000E+00  0.21462506701E+03  0.21462506703E+03  0.25500000920E-02 0.  1.
        2   -1    0    0  501    0  0.00000000000E+00  0.00000000000E+00 -0.74174005838E+03  0.74174005838E+03  0.25500000920E-02 0. -1.
    10030    2    1    2    0    0  0.00000000000E+00  0.00000000000E+00 -0.52711499137E+03  0.95636512541E+03  0.79798749300E+03 0.  0.
        2    1    3    3  502    0  0.32291014173E+03 -0.21820098134E+03 -0.36604874124E+03  0.53467215082E+03  0.25500000920E-02 0. -1.
       -2    1    3    3    0  502 -0.32291014173E+03  0.21820098134E+03 -0.16106625013E+03  0.42169297460E+03  0.25500000920E-02 0.  1.
</event>
<event>
 5   0  0.1523811E-02  0.7839487E+03  0.7818609E-02  0.9583546E-01
       -1   -1    0    0    0  501  0.00000000000E+00  0.00000000000E+00  0.11818595594E+03  0.11818595604E+03  0.50400001928E-02 0.  1.
        1   -1    0    0  501    0  0.00000000000E+00  0.00000000000E+00 -0.13000180529E+04  0.13000180529E+04  0.50400001928E-02 0. -1.
    10030    2    1    2    0    0  0.00000000000E+00  0.00000000000E+00 -0.11818320969E+04  0.14182040089E+04  0.78394866259E+03 0.  0.
        1    1    3    3  502    0 -0.25046736592E+03  0.11772123664E+03 -0.10930760958E+04  0.11275670899E+04  0.50400001928E-02 0. -1.
       -1    1    3    3    0  502  0.25046736592E+03 -0.11772123664E+03 -0.88756001135E+02  0.29063691904E+03  0.50400001928E-02 0.  1.
</event>
<event>
 5   0  0.2454354E-02  0.7966676E+03  0.7818609E-02  0.9564853E-01
       -2   -1    0    0    0  501  0.00000000000E+00  0.00000000000E+00  0.66744639063E+03  0.66744639064E+03  0.25500000920E-02 0.  1.
        2   -1    0    0  501    0  0.00000000000E+00  0.00000000000E+00 -0.23772669627E+03  0.23772669629E+03  0.25500000920E-02 0. -1.
    10030    2    1    2    0    0  0.00000000000E+00  0.00000000000E+00  0.42971969436E+03  0.90517308692E+03  0.79666762302E+03 0.  0.
        5    1    3    3  502    0 -0.11777340506E+03 -0.14474937392E+03 -0.18495438199E+03  0.26277969786E+03  0.46999998093E+01 0. -1.
       -5    1    3    3    0  502  0.11777340506E+03  0.14474937392E+03  0.61467407635E+03  0.64239338907E+03  0.46999998093E+01 0.  1.
</event>
<event>
 5   0  0.1498375E-02  0.7964206E+03  0.7818609E-02  0.9565213E-01
        1   -1    0    0  501    0  0.00000000000E+00  0.00000000000E+00  0.16898750549E+04  0.16898750549E+04  0.50400001928E-02 0. -1.
       -1   -1    0    0    0  501  0.00000000000E+00  0.00000000000E+00 -0.93836196959E+02  0.93836197094E+02  0.50400001928E-02 0.  1.
    10030    2    1    2    0    0  0.00000000000E+00  0.00000000000E+00  0.15960388579E+04  0.17837112520E+04  0.79642061403E+03 0.  0.
        4    1    3    3  502    0 -0.10121369078E+03  0.37672389899E+03  0.97725839080E+03  0.10522360394E+04  0.12699999809E+01 0.  1.
       -4    1    3    3    0  502  0.10121369078E+03 -0.37672389899E+03  0.61878046714E+03  0.73147521262E+03  0.12699999809E+01 0. -1.
</event>
<event>
 5   0  0.2460312E-02  0.8022235E+03  0.7818609E-02  0.9556804E-01
        2   -1    0    0  501    0  0.00000000000E+00  0.00000000000E+00  0.64939369088E+03  0.64939369089E+03  0.25500000920E-02 0.  1.
       -2   -1    0    0    0  501  0.00000000000E+00  0.00000000000E+00 -0.24775515408E+03  0.24775515410E+03  0.25500000920E-02 0. -1.
    10030    2    1    2    0    0  0.00000000000E+00  0.00000000000E+00  0.40163853680E+03  0.89714884498E+03  0.80222349493E+03 0.  0.
        2    1    3    3  502    0  0.18453812811E+02  0.39456850187E+03  0.12281008710E+03  0.41365101640E+03  0.25500000920E-02 0.  1.
       -2    1    3    3    0  502 -0.18453812811E+02 -0.39456850187E+03  0.27882844970E+03  0.48349782858E+03  0.25500000920E-02 0. -1.
</event>
<event>
 5   0  0.1624094E-02  0.7718887E+03  0.7818609E-02  0.9601623E-01
        1   -1    0    0  501    0  0.00000000000E+00  0.00000000000E+00  0.14789763456E+03  0.14789763465E+03  0.50400001928E-02 0. -1.
       -1   -1    0    0    0  501  0.00000000000E+00  0.00000000000E+00 -0.10071361667E+04  0.10071361667E+04  0.50400001928E-02 0.  1.
    10030    2    1    2    0    0  0.00000000000E+00  0.00000000000E+00 -0.85923853212E+03  0.11550338013E+04  0.77188874015E+03 0.  0.
        3    1    3    3  502    0  0.90579040634E+02  0.29560847888E+03 -0.77529160503E+03  0.83466521338E+03  0.10100000352E+00 0.  1.
       -3    1    3    3    0  502 -0.90579040634E+02 -0.29560847888E+03 -0.83946927091E+02  0.32036858797E+03  0.10100000352E+00 0. -1.
</event>
<event>
 5   0  0.1509629E-02  0.7795749E+03  0.7818609E-02  0.9590061E-01
       -1   -1    0    0    0  501  0.00000000000E+00  0.00000000000E+00  0.21685193218E+03  0.21685193224E+03  0.50400001928E-02 0.  1.
        1   -1    0    0  501    0  0.00000000000E+00  0.00000000000E+00 -0.70063585248E+03  0.70063585250E+03  0.50400001928E-02 0. -1.
    10030    2    1    2    0    0  0.00000000000E+00  0.00000000000E+00 -0.48378392030E+03  0.91748778474E+03  0.77957485440E+03 0.  0.
        5    1    3    3  502    0  0.95640913747E+02  0.37300684817E+03 -0.31280840177E+03  0.49613756094E+03  0.46999998093E+01 0. -1.
       -5    1    3    3    0  502 -0.95640913747E+02 -0.37300684817E+03 -0.17097551853E+03  0.42135022380E+03  0.46999998093E+01 0.  1.
</event>
<event>
 5   0  0.9919125E-03  0.7983675E+03  0.7818609E-02  0.9562383E-01
        4   -1    0    0  501    0  0.00000000000E+00  0.00000000000E+00  0.14242269806E+03  0.14242836032E+03  0.12699999809E+01 0.  1.
       -4   -1    0    0    0  501  0.00000000000E+00  0.00000000000E+00 -0.11188078895E+04  0.11188086103E+04  0.12699999809E+01 0. -1.
    10030    2    1    2    0    0  0.00000000000E+00  0.00000000000E+00 -0.97638519143E+03  0.12612369706E+04  0.79836749308E+03 0.  0.
        5    1    3    3  502    0  0.15443484572E+03 -0.18738554708E+03  0.12278195424E+02  0.24317958160E+03  0.46999998093E+01 0.  1.
       -5    1    3    3    0  502 -0.15443484572E+03  0.18738554708E+03 -0.98866338686E+03  0.10180573890E+04  0.46999998093E+01 0. -1.
</event>
<event>
 5   0  0.1509629E-02  0.7946421E+03  0.7818609E-02  0.9567805E-01
        1   -1    0    0  501    0  0.00000000000E+00  0.00000000000E+00  0.30464498786E+03  0.30464498791E+03  0.50400001928E-02 0. -1.
       -1   -1    0    0    0  501  0.00000000000E+00  0.00000000000E+00 -0.51819015077E+03  0.51819015079E+03  0.50400001928E-02 0.  1.
    10030    2    1    2    0    0  0.00000000000E+00  0.00000000000E+00 -0.21354516291E+03  0.82283513870E+03  0.79464213888E+03 0.  0.
        5    1    3    3  502    0 -0.19023198890E+03  0.33424221517E+03 -0.35572335441E+01  0.38463074749E+03  0.46999998093E+01 0.  1.
       -5    1    3    3    0  502  0.19023198890E+03 -0.33424221517E+03 -0.20998792936E+03  0.43820439121E+03  0.46999998093E+01 0. -1.
</event>
<event>
 5   0  0.2460312E-02  0.8033299E+03  0.7818609E-02  0.9555210E-01
       -2   -1    0    0    0  501  0.00000000000E+00  0.00000000000E+00  0.20451959822E+03  0.20451959823E+03  0.25500000920E-02 0.  1.
        2   -1    0    0  501    0  0.00000000000E+00  0.00000000000E+00 -0.78884727798E+03  0.78884727798E+03  0.25500000920E-02 0. -1.
    10030    2    1    2    0    0  0.00000000000E+00  0.00000000000E+00 -0.58432767976E+03  0.99336687621E+03  0.80332989078E+03 0.  0.
        2    1    3    3  502    0 -0.23129677589E+03  0.67429652313E+02 -0.68957897853E+03  0.73045473795E+03  0.25500000920E-02 0. -1.
       -2    1    3    3    0  502  0.23129677589E+03 -0.67429652313E+02  0.10525129877E+03  0.26291213827E+03  0.25500000920E-02 0.  1.
</event>
<event>
 5   0  0.2460312E-02  0.8000547E+03  0.7818609E-02  0.9559938E-01
       -2   -1    0    0    0  501  0.00000000000E+00  0.00000000000E+00  0.24470183100E+03  0.24470183102E+03  0.25500000920E-02 0. -1.
        2   -1    0    0  501    0  0.00000000000E+00  0.00000000000E+00 -0.65394647706E+03  0.65394647707E+03  0.25500000920E-02 0.  1.
    10030    2    1    2    0    0  0.00000000000E+00  0.00000000000E+00 -0.40924464606E+03  0.89864830808E+03  0.80005474893E+03 0.  0.
        2    1    3    3  502    0 -0.37563681823E+03 -0.44937925586E+02 -0.58604281866E+02  0.38282750453E+03  0.25500000920E-02 0.  1.
       -2    1    3    3    0  502  0.37563681823E+03  0.44937925586E+02 -0.35064036419E+03  0.51582080355E+03  0.25500000920E-02 0. -1.
</event>
<event>
 5   0  0.1471290E-02  0.7959861E+03  0.7818609E-02  0.9565845E-01
       -1   -1    0    0    0  501  0.00000000000E+00  0.00000000000E+00  0.14293893131E+04  0.14293893131E+04  0.50400001928E-02 0.  1.
        1   -1    0    0  501    0  0.00000000000E+00  0.00000000000E+00 -0.11081548462E+03  0.11081548474E+03  0.50400001928E-02 0. -1.
    10030    2    1    2    0    0  0.00000000000E+00  0.00000000000E+00  0.13185738285E+04  0.15402047978E+04  0.79598610425E+03 0.  0.
        2    1    3    3  502    0 -0.39380704973E+02  0.56323760795E+02  0.14178207692E+04  0.14194854489E+04  0.25500000920E-02 0.  1.
       -2    1    3    3    0  502  0.39380704973E+02 -0.56323760795E+02 -0.99246940756E+02  0.12071934895E+03  0.25500000920E-02 0. -1.
</event>
<event>
 5   0  0.2422031E-02  0.7905778E+03  0.7818609E-02  0.9573756E-01
       -2   -1    0    0    0  501  0.00000000000E+00  0.00000000000E+00  0.16924143400E+03  0.16924143402E+03  0.25500000920E-02 0. -1.
        2   -1    0    0  501    0  0.00000000000E+00  0.00000000000E+00 -0.92325697366E+03  0.92325697367E+03  0.25500000920E-02 0.  1.
    10030    2    1    2    0    0  0.00000000000E+00  0.00000000000E+00 -0.75401553967E+03  0.10924984077E+04  0.79057784989E+03 0.  0.
        4    1    3    3  502    0  0.59164390319E+02  0.22556144266E+03 -0.81807665855E+03  0.85066410625E+03  0.12699999809E+01 0.  1.
       -4    1    3    3    0  502 -0.59164390319E+02 -0.22556144266E+03  0.64061118887E+02  0.24183430143E+03  0.12699999809E+01 0. -1.
</event>
<event>
 5   0  0.1509629E-02  0.7934149E+03  0.7818609E-02  0.9569598E-01
        1   -1    0    0  501    0  0.00000000000E+00  0.00000000000E+00  0.14780334133E+04  0.14780334133E+04  0.50400001928E-02 0.  1.
       -1   -1    0    0    0  501  0.00000000000E+00  0.00000000000E+00 -0.10647715394E+03  0.10647715405E+03  0.50400001928E-02 0. -1.
    10030    2    1    2    0    0  0.00000000000E+00  0.00000000000E+00  0.13715562594E+04  0.15845105674E+04  0.79341487601E+03 0.  0.
        5    1    3    3  502    0  0.38110874180E+03  0.97685090135E+02  0.78698977442E+03  0.87986433326E+03  0.46999998093E+01 0. -1.
       -5    1    3    3    0  502 -0.38110874180E+03 -0.97685090135E+02  0.58456648494E+03  0.70464623409E+03  0.46999998093E+01 0.  1.
</event>
<event>
 5   0  0.1509629E-02  0.7917315E+03  0.7818609E-02  0.9572063E-01
       -1   -1    0    0    0  501  0.00000000000E+00  0.00000000000E+00  0.15179239776E+04  0.15179239776E+04  0.50400001928E-02 0. -1.
        1   -1    0    0  501    0  0.00000000000E+00  0.00000000000E+00 -0.10323947425E+03  0.10323947437E+03  0.50400001928E-02 0.  1.
    10030    2    1    2    0    0  0.00000000000E+00  0.00000000000E+00  0.14146845034E+04  0.16211634520E+04  0.79173145322E+03 0.  0.
        5    1    3    3  502    0 -0.14113206380E+03 -0.24100914036E+03  0.12817124462E+04  0.13117974501E+04  0.46999998093E+01 0. -1.
       -5    1    3    3    0  502  0.14113206380E+03  0.24100914036E+03  0.13297205714E+03  0.30936600193E+03  0.46999998093E+01 0.  1.
</event>
<event>
 5   0  0.1624094E-02  0.7493402E+03  0.7818609E-02  0.9636386E-01
        1   -1    0    0  501    0  0.00000000000E+00  0.00000000000E+00  0.45202557597E+03  0.45202557600E+03  0.50400001928E-02 0. -1.
       -1   -1    0    0    0  501  0.00000000000E+00  0.00000000000E+00 -0.31055249435E+03  0.31055249439E+03  0.50400001928E-02 0.  1.
    10030    2    1    2    0    0  0.00000000000E+00  0.00000000000E+00  0.14147308162E+03  0.76257807039E+03  0.74934016349E+03 0.  0.
        3    1    3    3  502    0 -0.48756753161E+02  0.25138113831E+03 -0.20760576059E+03  0.32965111817E+03  0.10100000352E+00 0.  1.
       -3    1    3    3    0  502  0.48756753161E+02 -0.25138113831E+03  0.34907884221E+03  0.43292695222E+03  0.10100000352E+00 0. -1.
</event>
<event>
 5   0  0.2460312E-02  0.8018532E+03  0.7818609E-02  0.9557339E-01
       -2   -1    0    0    0  501  0.00000000000E+00  0.00000000000E+00  0.70789816221E+03  0.70789816222E+03  0.25500000920E-02 0.  1.
        2   -1    0    0  501    0  0.00000000000E+00  0.00000000000E+00 -0.22706958960E+03  0.22706958961E+03  0.25500000920E-02 0. -1.
    10030    2    1    2    0    0  0.00000000000E+00  0.00000000000E+00  0.48082857261E+03  0.93496775183E+03  0.80185321645E+03 0.  0.
        2    1    3    3  502    0  0.15053281229E+03 -0.36405872582E+03  0.15360134924E+03  0.42283833544E+03  0.25500000920E-02 0. -1.
       -2    1    3    3    0  502 -0.15053281229E+03  0.36405872582E+03  0.32722722337E+03  0.51212941640E+03  0.25500000920E-02 0.  1.
</event>
<event>
 5   0  0.1498375E-02  0.7984785E+03  0.7818609E-02  0.9562222E-01
        1   -1    0    0  501    0  0.00000000000E+00  0.00000000000E+00  0.37675593579E+03  0.37675593583E+03  0.50400001928E-02 0. -1.
       -1   -1    0    0    0  501  0.00000000000E+00  0.00000000000E+00 -0.42306425469E+03  0.42306425472E+03  0.50400001928E-02 0.  1.
    10030    2    1    2    0    0  0.00000000000E+00  0.00000000000E+00 -0.46308318900E+02  0.79982019055E+03  0.79847847611E+03 0.  0.
        4    1    3    3  502    0 -0.31993783245E+02 -0.16742743167E+03  0.33847160092E+03  0.37897253802E+03  0.12699999809E+01 0. -1.
       -4    1    3    3    0  502  0.31993783245E+02  0.16742743167E+03 -0.38477991982E+03  0.42084765253E+03  0.12699999809E+01 0.  1.
</event>
<event>
 5   0  0.2460312E-02  0.7989483E+03  0.7818609E-02  0.9561541E-01
        2   -1    0    0  501    0  0.00000000000E+00  0.00000000000E+00  0.25909084719E+03  0.25909084721E+03  0.25500000920E-02 0. -1.
       -2   -1    0    0    0  501  0.00000000000E+00  0.00000000000E+00 -0.61592133841E+03  0.61592133842E+03  0.25500000920E-02 0.  1.
    10030    2    1    2    0    0  0.00000000000E+00  0.00000000000E+00 -0.35683049122E+03  0.87501218562E+03  0.79894826211E+03 0.  0.
        2    1    3    3  502    0 -0.33432483834E+03 -0.48160466540E+02 -0.41199723159E+03  0.53276096602E+03  0.25500000920E-02 0.  1.
       -2    1    3    3    0  502  0.33432483834E+03  0.48160466540E+02  0.55166740369E+02  0.34225121960E+03  0.25500000920E-02 0. -1.
</event>
<event>
 5   0  0.2460312E-02  0.7837699E+03  0.7818609E-02  0.9583811E-01
       -2   -1    0    0    0  501  0.00000000000E+00  0.00000000000E+00  0.31401932217E+03  0.31401932218E+03  0.25500000920E-02 0.  1.
        2   -1    0    0  501    0  0.00000000000E+00  0.00000000000E+00 -0.48905849596E+03  0.48905849597E+03  0.25500000920E-02 0. -1.
    10030    2    1    2    0    0  0.00000000000E+00  0.00000000000E+00 -0.17503917379E+03  0.80307781815E+03  0.78376990861E+03 0.  0.
        2    1    3    3  502    0  0.15283025535E+03 -0.16413019836E+03 -0.41680536371E+03  0.47331017334E+03  0.25500000920E-02 0. -1.
       -2    1    3    3    0  502 -0.15283025535E+03  0.16413019836E+03  0.24176618993E+03  0.32976764481E+03  0.25500000920E-02 0.  1.
</event>
<event>
 5   0  0.1624094E-02  0.7989013E+03  0.7818609E-02  0.9561609E-01
        1   -1    0    0  501    0  0.00000000000E+00  0.00000000000E+00  0.12491895221E+04  0.12491895221E+04  0.50400001928E-02 0.  1.
       -1   -1    0    0    0  501  0.00000000000E+00  0.00000000000E+00 -0.12773147456E+03  0.12773147466E+03  0.50400001928E-02 0. -1.
    10030    2    1    2    0    0  0.00000000000E+00  0.00000000000E+00  0.11214580475E+04  0.13769209968E+04  0.79890129488E+03 0.  0.
        3    1    3    3  502    0  0.33669788628E+03 -0.17704663605E+03  0.35070128264E+03  0.51739963066E+03  0.10100000352E+00 0. -1.
       -3    1    3    3    0  502 -0.33669788628E+03  0.17704663605E+03  0.77075676489E+03  0.85952136610E+03  0.10100000352E+00 0.  1.
</event>
<event>
 5   0  0.1523811E-02  0.7507054E+03  0.7818609E-02  0.9634244E-01
       -1   -1    0    0    0  501  0.00000000000E+00  0.00000000000E+00  0.17413786379E+03  0.17413786386E+03  0.50400001928E-02 0.  1.
        1   -1    0    0  501    0  0.00000000000E+00  0.00000000000E+00 -0.80906958989E+03  0.80906958990E+03  0.50400001928E-02 0. -1.
    10030    2    1    2    0    0  0.00000000000E+00  0.00000000000E+00 -0.63493172610E+03  0.98320745377E+03  0.75070540183E+03 0.  0.
        1    1    3    3  502    0 -0.26767493300E+03 -0.25373272843E+03 -0.22616589047E+03  0.43264440049E+03  0.50400001928E-02 0.  1.
       -1    1    3    3    0  502  0.26767493300E+03  0.25373272843E+03 -0.40876583563E+03  0.55056305328E+03  0.50400001928E-02 0. -1.
</event>
<event>
 5   0  0.1624094E-02  0.8017502E+03  0.7818609E-02  0.9557487E-01
        1   -1    0    0  501    0  0.00000000000E+00  0.00000000000E+00  0.30371449440E+03  0.30371449444E+03  0.50400001928E-02 0.  1.
       -1   -1    0    0    0  501  0.00000000000E+00  0.00000000000E+00 -0.52911812807E+03  0.52911812810E+03  0.50400001928E-02 0. -1.
    10030    2    1    2    0    0  0.00000000000E+00  0.00000000000E+00 -0.22540363368E+03  0.83283262253E+03  0.80175019743E+03 0.  0.
        3    1    3    3  502    0 -0.22610828019E+03 -0.30329035233E+03  0.25070503092E+02  0.37912864903E+03  0.10100000352E+00 0.  1.
       -3    1    3    3    0  502  0.22610828019E+03  0.30329035233E+03 -0.25047413677E+03  0.45370397351E+03  0.10100000352E+00 0. -1.
</event>
<event>
 5   0  0.1509629E-02  0.7837257E+03  0.7818609E-02  0.9583877E-01
       -1   -1    0    0    0  501  0.00000000000E+00  0.00000000000E+00  0.32745345785E+03  0.32745345789E+03  0.50400001928E-02 0. -1.
        1   -1    0    0  501    0  0.00000000000E+00  0.00000000000E+00 -0.46894142207E+03  0.46894142210E+03  0.50400001928E-02 0.  1.
    10030    2    1    2    0    0  0.00000000000E+00  0.00000000000E+00 -0.14148796422E+03  0.79639487999E+03  0.78372569235E+03 0.  0.
        5    1    3    3  502    0 -0.26784794455E+03 -0.74686253126E+02 -0.35127526897E+03  0.44803678688E+03  0.46999998093E+01 0.  1.
       -5    1    3    3    0  502  0.26784794455E+03  0.74686253126E+02  0.20978730474E+03  0.34835809311E+03  0.46999998093E+01 0. -1.
</event>
<event>
 5   0  0.1498375E-02  0.7988061E+03  0.7818609E-02  0.9561747E-01
       -1   -1    0    0    0  501  0.00000000000E+00  0.00000000000E+00  0.91363245177E+03  0.91363245178E+03  0.50400001928E-02 0. -1.
        1   -1    0    0  501    0  0.00000000000E+00  0.00000000000E+00 -0.17460283381E+03  0.17460283388E+03  0.50400001928E-02 0.  1.
    10030    2    1    2    0    0  0.00000000000E+00  0.00000000000E+00  0.73902961796E+03  0.10882352857E+04  0.79880614716E+03 0.  0.
        4    1    3    3  502    0  0.25651367398E+03  0.24272824229E+02  0.78526519319E+03  0.82645718067E+03  0.12699999809E+01 0. -1.
       -4    1    3    3    0  502 -0.25651367398E+03 -0.24272824229E+02 -0.46235575236E+02  0.26177810499E+03  0.12699999809E+01 0.  1.
</event>
<event>
 5   0  0.1498375E-02  0.7442803E+03  0.7818609E-02  0.9644367E-01
        1   -1    0    0  501    0  0.00000000000E+00  0.00000000000E+00  0.10599754885E+04  0.10599754885E+04  0.50400001928E-02 0.  1.
       -1   -1    0    0    0  501  0.00000000000E+00  0.00000000000E+00 -0.13065235033E+03  0.13065235042E+03  0.50400001928E-02 0. -1.
    10030    2    1    2    0    0  0.00000000000E+00  0.00000000000E+00  0.92932313818E+03  0.11906278389E+04  0.74428029378E+03 0.  0.
        4    1    3    3  502    0 -0.94233943546E+01  0.10797229340E+03  0.10341647095E+04  0.10398293493E+04  0.12699999809E+01 0.  1.
       -4    1    3    3    0  502  0.94233943546E+01 -0.10797229340E+03 -0.10484157128E+03  0.15079848962E+03  0.12699999809E+01 0. -1.
</event>
<event>
 5   0  0.2571778E-02  0.8049863E+03  0.7818609E-02  0.9552828E-01
        2   -1    0    0  501    0  0.00000000000E+00  0.00000000000E+00  0.29614163434E+03  0.29614163435E+03  0.25500000920E-02 0.  1.
       -2   -1    0    0    0  501  0.00000000000E+00  0.00000000000E+00 -0.54703807534E+03  0.54703807534E+03  0.25500000920E-02 0. -1.
    10030    2    1    2    0    0  0.00000000000E+00  0.00000000000E+00 -0.25089644100E+03  0.84317970969E+03  0.80498633450E+03 0.  0.
        1    1    3    3  502    0 -0.43357764339E+02  0.57491296994E+02  0.28933986954E+03  0.29816556657E+03  0.50400001928E-02 0.  1.
       -1    1    3    3    0  502  0.43357764339E+02 -0.57491296994E+02 -0.54023631053E+03  0.54501414312E+03  0.50400001928E-02 0. -1.
</event>
<event>
 5   0  0.2464780E-02  0.7937804E+03  0.7818609E-02  0.9569064E-01
       -2   -1    0    0    0  501  0.00000000000E+00  0.00000000000E+00  0.14596000679E+03  0.14596000681E+03  0.25500000920E-02 0.  1.
        2   -1    0    0  501    0  0.00000000000E+00  0.00000000000E+00 -0.10792123409E+04  0.10792123409E+04  0.25500000920E-02 0. -1.
    10030    2    1    2    0    0  0.00000000000E+00  0.00000000000E+00 -0.93325233412E+03  0.12251723477E+04  0.79378042461E+03 0.  0.
        3    1    3    3  502    0  0.77834783466E+01 -0.15644836981E+03  0.96231238181E+02  0.18383997485E+03  0.10100000352E+00 0.  1.
       -3    1    3    3    0  502 -0.77834783466E+01  0.15644836981E+03 -0.10294835723E+04  0.10413323729E+04  0.10100000352E+00 0. -1.
</event>
<event>
 5   0  0.1509629E-02  0.7967801E+03  0.7818609E-02  0.9564690E-01
        1   -1    0    0  501    0  0.00000000000E+00  0.00000000000E+00  0.39770058703E+03  0.39770058707E+03  0.50400001928E-02 0.  1.
       -1   -1    0    0    0  501  0.00000000000E+00  0.00000000000E+00 -0.39908069279E+03  0.39908069282E+03  0.50400001928E-02 0. -1.
    10030    2    1    2    0    0  0.00000000000E+00  0.00000000000E+00 -0.13801057563E+01  0.79678127989E+03  0.79678008464E+03 0.  0.
        5    1    3    3  502    0 -0.26223576716E+02 -0.39038980102E+03 -0.75527743313E+02  0.39852026639E+03  0.46999998093E+01 0.  1.
       -5    1    3    3    0  502  0.26223576716E+02  0.39038980102E+03  0.74147637557E+02  0.39826101349E+03  0.46999998093E+01 0. -1.
</event>
<event>
 5   0  0.2460312E-02  0.7894309E+03  0.7818609E-02  0.9575443E-01
       -2   -1    0    0    0  501  0.00000000000E+00  0.00000000000E+00  0.16319069804E+04  0.16319069804E+04  0.25500000920E-02 0.  1.
        2   -1    0    0  501    0  0.00000000000E+00  0.00000000000E+00 -0.95471311505E+02  0.95471311539E+02  0.25500000920E-02 0. -1.
    10030    2    1    2    0    0  0.00000000000E+00  0.00000000000E+00  0.15364356689E+04  0.17273782919E+04  0.78943093352E+03 0.  0.
        2    1    3    3  502    0  0.25847529785E+03  0.24707720801E+03  0.11339937159E+04  0.11890325370E+04  0.25500000920E-02 0.  1.
       -2    1    3    3    0  502 -0.25847529785E+03 -0.24707720801E+03  0.40244195291E+03  0.53834575487E+03  0.25500000920E-02 0. -1.
</event>
<event>
 5   0  0.2422031E-02  0.7841459E+03  0.7818609E-02  0.9583253E-01
        2   -1    0    0  501    0  0.00000000000E+00  0.00000000000E+00  0.34159264808E+03  0.34159264809E+03  0.25500000920E-02 0.  1.
       -2   -1    0    0    0  501  0.00000000000E+00  0.00000000000E+00 -0.45001314120E+03  0.45001314121E+03  0.25500000920E-02 0. -1.
    10030    2    1    2    0    0  0.00000000000E+00  0.00000000000E+00 -0.10842049313E+03  0.79160578930E+03  0.78414585526E+03 0.  0.
        4    1    3    3  502    0  0.20876580679E+03  0.21871905341E+03  0.19776071400E+03  0.36129226301E+03  0.12699999809E+01 0.  1.
       -4    1    3    3    0  502 -0.20876580679E+03 -0.21871905341E+03 -0.30618120712E+03  0.43031352629E+03  0.12699999809E+01 0. -1.
</event>
<event>
 5   0  0.1498375E-02  0.8014734E+03  0.7818609E-02  0.9557887E-01
        1   -1    0    0  501    0  0.00000000000E+00  0.00000000000E+00  0.90839521298E+03  0.90839521299E+03  0.50400001928E-02 0. -1.
       -1   -1    0    0    0  501  0.00000000000E+00  0.00000000000E+00 -0.17678418696E+03  0.17678418704E+03  0.50400001928E-02 0.  1.
    10030    2    1    2    0    0  0.00000000000E+00  0.00000000000E+00  0.73161102602E+03  0.10851794000E+04  0.80147341619E+03 0.  0.
        4    1    3    3  502    0 -0.25419862909E+03 -0.40718463607E+02 -0.50008410564E+02  0.26225443817E+03  0.12699999809E+01 0.  1.
       -4    1    3    3    0  502  0.25419862909E+03  0.40718463607E+02  0.78161943658E+03  0.82292496186E+03  0.12699999809E+01 0. -1.
</event>
<event>
 5   0  0.2454354E-02  0.8185209E+03  0.7818609E-02  0.9533589E-01
        2   -1    0    0  501    0  0.00000000000E+00  0.00000000000E+00  0.99238356264E+02  0.99238356297E+02  0.25500000920E-02 0. -1.
       -2   -1    0    0    0  501  0.00000000000E+00  0.00000000000E+00 -0.16877961017E+04  0.16877961017E+04  0.25500000920E-02 0.  1.
    10030    2    1    2    0    0  0.00000000000E+00  0.00000000000E+00 -0.15885577454E+04  0.17870344580E+04  0.81852088763E+03 0.  0.
        5    1    3    3  502    0 -0.13874560749E+03  0.20642603952E+02  0.45053268403E+02  0.14740538555E+03  0.46999998093E+01 0. -1.
       -5    1    3    3    0  502  0.13874560749E+03 -0.20642603952E+02 -0.16336110138E+04  0.16396290724E+04  0.46999998093E+01 0.  1.
</event>
<event>
 5   0  0.2571778E-02  0.7947275E+03  0.7818609E-02  0.9567680E-01
       -2   -1    0    0    0  501  0.00000000000E+00  0.00000000000E+00  0.18000942440E+03  0.18000942442E+03  0.25500000920E-02 0.  1.
        2   -1    0    0  501    0  0.00000000000E+00  0.00000000000E+00 -0.87716484147E+03  0.87716484148E+03  0.25500000920E-02 0. -1.
    10030    2    1    2    0    0  0.00000000000E+00  0.00000000000E+00 -0.69715541707E+03  0.10571742659E+04  0.79472747086E+03 0.  0.
        1    1    3    3  502    0 -0.22484041145E+03 -0.65238757322E+02 -0.77568181408E+03  0.81024168172E+03  0.50400001928E-02 0. -1.
       -1    1    3    3    0  502  0.22484041145E+03  0.65238757322E+02  0.78526397007E+02  0.24693258418E+03  0.50400001928E-02 0.  1.
</event>
<event>
 5   0  0.1498375E-02  0.7941205E+03  0.7818609E-02  0.9568567E-01
       -1   -1    0    0    0  501  0.00000000000E+00  0.00000000000E+00  0.28511370680E+03  0.28511370685E+03  0.50400001928E-02 0.  1.
        1   -1    0    0  501    0  0.00000000000E+00  0.00000000000E+00 -0.55296124312E+03  0.55296124314E+03  0.50400001928E-02 0. -1.
    10030    2    1    2    0    0  0.00000000000E+00  0.00000000000E+00 -0.26784753632E+03  0.83807494999E+03  0.79412046888E+03 0.  0.
        4    1    3    3  502    0 -0.29391140525E+03  0.90477832298E+02  0.13114572369E+03  0.33432165054E+03  0.12699999809E+01 0.  1.
       -4    1    3    3    0  502  0.29391140525E+03 -0.90477832298E+02 -0.39899326001E+03  0.50375329945E+03  0.12699999809E+01 0. -1.
</event>
<event>
 5   0  0.9919125E-03  0.7932441E+03  0.7818609E-02  0.9569848E-01
       -3   -1    0    0    0  501  0.00000000000E+00  0.00000000000E+00  0.40609087536E+03  0.40609088792E+03  0.10100000352E+00 0. -1.
        3   -1    0    0  501    0  0.00000000000E+00  0.00000000000E+00 -0.38737393564E+03  0.38737394881E+03  0.10100000352E+00 0.  1.
    10030    2    1    2    0    0  0.00000000000E+00  0.00000000000E+00  0.18716939723E+02  0.79346483673E+03  0.79324405027E+03 0.  0.
        1    1    3    3  502    0  0.69629686407E+02  0.72244169999E+02 -0.37446895672E+03  0.38767836269E+03  0.50400001928E-02 0.  1.
       -1    1    3    3    0  502 -0.69629686407E+02 -0.72244169999E+02  0.39318589644E+03  0.40578647404E+03  0.50400001928E-02 0. -1.
</event>
<event>
 5   0  0.1523811E-02  0.7968129E+03  0.7818609E-02  0.9564642E-01
       -1   -1    0    0    0  501  0.00000000000E+00  0.00000000000E+00  0.82566615773E+03  0.82566615774E+03  0.50400001928E-02 0.  1.
        1   -1    0    0  501    0  0.00000000000E+00  0.00000000000E+00 -0.19224198113E+03  0.19224198120E+03  0.50400001928E-02 0. -1.
    10030    2    1    2    0    0  0.00000000000E+00  0.00000000000E+00  0.63342417659E+03  0.10179081389E+04  0.79681289637E+03 0.  0.
        1    1    3    3  502    0  0.68408358443E+02 -0.14475968458E+03 -0.14933439253E+03  0.21894252808E+03  0.50400001928E-02 0. -1.
       -1    1    3    3    0  502 -0.68408358443E+02  0.14475968458E+03  0.78275856912E+03  0.79896561086E+03  0.50400001928E-02 0.  1.
</event>
<event>
 5   0  0.2422031E-02  0.7543261E+03  0.7818609E-02  0.9628588E-01
        2   -1    0    0  501    0  0.00000000000E+00  0.00000000000E+00  0.68688828149E+03  0.68688828149E+03  0.25500000920E-02 0.  1.
       -2   -1    0    0    0  501  0.00000000000E+00  0.00000000000E+00 -0.20709619661E+03  0.20709619663E+03  0.25500000920E-02 0. -1.
    10030    2    1    2    0    0  0.00000000000E+00  0.00000000000E+00  0.47979208488E+03  0.89398447812E+03  0.75432605842E+03 0.  0.
        4    1    3    3  502    0 -0.37762537415E+02  0.23092836611E+03  0.59045898450E+03  0.63513569006E+03  0.12699999809E+01 0.  1.
       -4    1    3    3    0  502  0.37762537415E+02 -0.23092836611E+03 -0.11066689963E+03  0.25884878806E+03  0.12699999809E+01 0. -1.
</event>
<event>
 5   0  0.2464780E-02  0.7703261E+03  0.7818609E-02  0.9603991E-01
        2   -1    0    0  501    0  0.00000000000E+00  0.00000000000E+00  0.73451318846E+03  0.73451318846E+03  0.25500000920E-02 0.  1.
       -2   -1    0    0    0  501  0.00000000000E+00  0.00000000000E+00 -0.20197126868E+03  0.20197126870E+03  0.25500000920E-02 0. -1.
    10030    2    1    2    0    0  0.00000000000E+00  0.00000000000E+00  0.53254191978E+03  0.93648445716E+03  0.77032606225E+03 0.  0.
        3    1    3    3  502    0 -0.62498988537E+02  0.17761974885E+03 -0.14220320124E+03  0.23595902058E+03  0.10100000352E+00 0. -1.
       -3    1    3    3    0  502  0.62498988537E+02 -0.17761974885E+03  0.67474512102E+03  0.70052543658E+03  0.10100000352E+00 0.  1.
</event>
<event>
 5   0  0.2460312E-02  0.8020975E+03  0.7818609E-02  0.9556986E-01
        2   -1    0    0  501    0  0.00000000000E+00  0.00000000000E+00  0.67572389645E+03  0.67572389645E+03  0.25500000920E-02 0.  1.
       -2   -1    0    0    0  501  0.00000000000E+00  0.00000000000E+00 -0.23802637613E+03  0.23802637614E+03  0.25500000920E-02 0. -1.
    10030    2    1    2    0    0  0.00000000000E+00  0.00000000000E+00  0.43769752032E+03  0.91375027259E+03  0.80209752609E+03 0.  0.
        2    1    3    3  502    0  0.32182762408E+03  0.21820740729E+03  0.10692484206E+03  0.40326221503E+03  0.25500000920E-02 0. -1.
       -2    1    3    3    0  502 -0.32182762408E+03 -0.21820740729E+03  0.33077267826E+03  0.51048805756E+03  0.25500000920E-02 0.  1.
</event>
<event>
 5   0  0.2460312E-02  0.8178941E+03  0.7818609E-02  0.9534471E-01
        2   -1    0    0  501    0  0.00000000000E+00  0.00000000000E+00  0.48784180820E+03  0.48784180821E+03  0.25500000920E-02 0. -1.
       -2   -1    0    0    0  501  0.00000000000E+00  0.00000000000E+00 -0.34281127518E+03  0.34281127519E+03  0.25500000920E-02 0.  1.
    10030    2    1    2    0    0  0.00000000000E+00  0.00000000000E+00  0.14503053302E+03  0.83065308340E+03  0.81789405759E+03 0.  0.
        2    1    3    3  502    0  0.26718860523E+02 -0.10744617715E+03 -0.32729982893E+03  0.34551954578E+03  0.25500000920E-02 0.  1.
       -2    1    3    3    0  502 -0.26718860523E+02  0.10744617715E+03  0.47233036195E+03  0.48513353762E+03  0.25500000920E-02 0. -1.
</event>
<event>
 5   0  0.2422031E-02  0.8025612E+03  0.7818609E-02  0.9556317E-01
        2   -1    0    0  501    0  0.00000000000E+00  0.00000000000E+00  0.27005169793E+03  0.27005169794E+03  0.25500000920E-02 0.  1.
       -2   -1    0    0    0  501  0.00000000000E+00  0.00000000000E+00 -0.59627890976E+03  0.59627890976E+03  0.25500000920E-02 0. -1.
    10030    2    1    2    0    0  0.00000000000E+00  0.00000000000E+00 -0.32622721183E+03  0.86633060771E+03  0.80256123013E+03 0.  0.
        4    1    3    3  502    0  0.10200858751E+03  0.32050123075E+03  0.73131565223E+02  0.34420434276E+03  0.12699999809E+01 0.  1.
       -4    1    3    3    0  502 -0.10200858751E+03 -0.32050123075E+03 -0.39935877705E+03  0.52212626495E+03  0.12699999809E+01 0. -1.
</event>
<event>
 5   0  0.2454354E-02  0.7975627E+03  0.7818609E-02  0.9563552E-01
       -2   -1    0    0    0  501  0.00000000000E+00  0.00000000000E+00  0.12522992991E+03  0.12522992994E+03  0.25500000920E-02 0. -1.
        2   -1    0    0  501    0  0.00000000000E+00  0.00000000000E+00 -0.12698765175E+04  0.12698765175E+04  0.25500000920E-02 0.  1.
    10030    2    1    2    0    0  0.00000000000E+00  0.00000000000E+00 -0.11446465876E+04  0.13951064475E+04  0.79756265535E+03 0.  0.
        5    1    3    3  502    0 -0.22832911939E+03  0.30717408416E+03 -0.37664316378E+03  0.53700304242E+03  0.46999998093E+01 0. -1.
       -5    1    3    3    0  502  0.22832911939E+03 -0.30717408416E+03 -0.76800342382E+03  0.85810340504E+03  0.46999998093E+01 0.  1.
</event>
<event>
 5   0  0.2454354E-02  0.8243292E+03  0.7818609E-02  0.9525454E-01
       -2   -1    0    0    0  501  0.00000000000E+00  0.00000000000E+00  0.31853058758E+03  0.31853058759E+03  0.25500000920E-02 0. -1.
        2   -1    0    0  501    0  0.00000000000E+00  0.00000000000E+00 -0.53332285450E+03  0.53332285450E+03  0.25500000920E-02 0.  1.
    10030    2    1    2    0    0  0.00000000000E+00  0.00000000000E+00 -0.21479226692E+03  0.85185344209E+03  0.82432916294E+03 0.  0.
        5    1    3    3  502    0  0.37096146709E+03  0.17858489712E+03 -0.12680012196E+03  0.43081937801E+03  0.46999998093E+01 0.  1.
       -5    1    3    3    0  502 -0.37096146709E+03 -0.17858489712E+03 -0.87992144958E+02  0.42103406408E+03  0.46999998093E+01 0. -1.
</event>
<event>
 5   0  0.2464780E-02  0.7903810E+03  0.7818609E-02  0.9574046E-01
        2   -1    0    0  501    0  0.00000000000E+00  0.00000000000E+00  0.22994653373E+04  0.22994653373E+04  0.25500000920E-02 0.  1.
       -2   -1    0    0    0  501  0.00000000000E+00  0.00000000000E+00 -0.67918192511E+02  0.67918192559E+02  0.25500000920E-02 0. -1.
    10030    2    1    2    0    0  0.00000000000E+00  0.00000000000E+00  0.22315471448E+04  0.23673835299E+04  0.79038099549E+03 0.  0.
        3    1    3    3  502    0  0.24150799632E+02 -0.66093219346E+02 -0.49002428074E+02  0.85748603047E+02  0.10100000352E+00 0. -1.
       -3    1    3    3    0  502 -0.24150799632E+02  0.66093219346E+02  0.22805495729E+04  0.22816349268E+04  0.10100000352E+00 0.  1.
</event>
<event>
 5   0  0.1498375E-02  0.8015956E+03  0.7818609E-02  0.9557710E-01
        1   -1    0    0  501    0  0.00000000000E+00  0.00000000000E+00  0.23076913701E+03  0.23076913707E+03  0.50400001928E-02 0.  1.
       -1   -1    0    0    0  501  0.00000000000E+00  0.00000000000E+00 -0.69610203778E+03  0.69610203779E+03  0.50400001928E-02 0. -1.
    10030    2    1    2    0    0  0.00000000000E+00  0.00000000000E+00 -0.46533290077E+03  0.92687117486E+03  0.80159557525E+03 0.  0.
        4    1    3    3  502    0 -0.37391753494E+03 -0.47390841020E+02 -0.39026503406E+03  0.54255748494E+03  0.12699999809E+01 0. -1.
       -4    1    3    3    0  502  0.37391753494E+03  0.47390841020E+02 -0.75067866702E+02  0.38431368992E+03  0.12699999809E+01 0.  1.
</event>
<event>
 5   0  0.1523811E-02  0.7986584E+03  0.7818609E-02  0.9561961E-01
       -1   -1    0    0    0  501  0.00000000000E+00  0.00000000000E+00  0.17479886822E+03  0.17479886829E+03  0.50400001928E-02 0. -1.
        1   -1    0    0  501    0  0.00000000000E+00  0.00000000000E+00 -0.91227028320E+03  0.91227028322E+03  0.50400001928E-02 0.  1.
    10030    2    1    2    0    0  0.00000000000E+00  0.00000000000E+00 -0.73747141498E+03  0.10870691515E+04  0.79865840773E+03 0.  0.
        1    1    3    3  502    0  0.16722180229E+03 -0.17563348578E+01 -0.86231281914E+03  0.87837896944E+03  0.50400001928E-02 0.  1.
       -1    1    3    3    0  502 -0.16722180229E+03  0.17563348578E+01  0.12484140416E+03  0.20869018207E+03  0.50400001928E-02 0. -1.
</event>
<event>
 5   0  0.2460312E-02  0.8103357E+03  0.7818609E-02  0.9545176E-01
       -2   -1    0    0    0  501  0.00000000000E+00  0.00000000000E+00  0.29580741410E+03  0.29580741412E+03  0.25500000920E-02 0. -1.
        2   -1    0    0  501    0  0.00000000000E+00  0.00000000000E+00 -0.55495895052E+03  0.55495895053E+03  0.25500000920E-02 0.  1.
    10030    2    1    2    0    0  0.00000000000E+00  0.00000000000E+00 -0.25915153641E+03  0.85076636464E+03  0.81033566402E+03 0.  0.
        2    1    3    3  502    0  0.43816665165E+02  0.23934508053E+03 -0.46970733048E+03  0.52899049522E+03  0.25500000920E-02 0.  1.
       -2    1    3    3    0  502 -0.43816665165E+02 -0.23934508053E+03  0.21055579406E+03  0.32177586942E+03  0.25500000920E-02 0. -1.
</event>
<event>
 5   0  0.2422031E-02  0.8051352E+03  0.7818609E-02  0.9552614E-01
       -2   -1    0    0    0  501  0.00000000000E+00  0.00000000000E+00  0.27590826632E+03  0.27590826634E+03  0.25500000920E-02 0.  1.
        2   -1    0    0  501    0  0.00000000000E+00  0.00000000000E+00 -0.58737160491E+03  0.58737160491E+03  0.25500000920E-02 0. -1.
    10030    2    1    2    0    0  0.00000000000E+00  0.00000000000E+00 -0.31146333858E+03  0.86327987125E+03  0.80513522145E+03 0.  0.
        4    1    3    3  502    0 -0.98908934367E+02  0.25503334268E+03  0.16095216489E+03  0.31738335725E+03  0.12699999809E+01 0.  1.
       -4    1    3    3    0  502  0.98908934367E+02 -0.25503334268E+03 -0.47241550347E+03  0.54589651400E+03  0.12699999809E+01 0. -1.
</event>
<event>
 5   0  0.1509629E-02  0.8018079E+03  0.7818609E-02  0.9557404E-01
        1   -1    0    0  501    0  0.00000000000E+00  0.00000000000E+00  0.39519748288E+03  0.39519748291E+03  0.50400001928E-02 0. -1.
       -1   -1    0    0    0  501  0.00000000000E+00  0.00000000000E+00 -0.40669278644E+03  0.40669278647E+03  0.50400001928E-02 0.  1.
    10030    2    1    2    0    0  0.00000000000E+00  0.00000000000E+00 -0.11495303563E+02  0.80189026939E+03  0.80180787108E+03 0.  0.
        5    1    3    3  502    0  0.35135474916E+03  0.33591734773E+02 -0.19582851875E+03  0.40366999288E+03  0.46999998093E+01 0.  1.
       -5    1    3    3    0  502 -0.35135474916E+03 -0.33591734773E+02  0.18433321518E+03  0.39822027650E+03  0.46999998093E+01 0. -1.
</event>
<event>
 5   0  0.9919125E-03  0.7763912E+03  0.7818609E-02  0.9594833E-01
       -3   -1    0    0    0  501  0.00000000000E+00  0.00000000000E+00  0.11259452118E+03  0.11259456648E+03  0.10100000352E+00 0. -1.
        3   -1    0    0  501    0  0.00000000000E+00  0.00000000000E+00 -0.13383937602E+04  0.13383937640E+04  0.10100000352E+00 0.  1.
    10030    2    1    2    0    0  0.00000000000E+00  0.00000000000E+00 -0.12257992390E+04  0.14509883304E+04  0.77639124212E+03 0.  0.
        2    1    3    3  502    0  0.15825990429E+03 -0.30480392353E+03 -0.27471756547E+03  0.43979696439E+03  0.25500000920E-02 0. -1.
       -2    1    3    3    0  502 -0.15825990429E+03  0.30480392353E+03 -0.95108167350E+03  0.10111913661E+04  0.25500000920E-02 0.  1.
</event>
<event>
 5   0  0.2422031E-02  0.7963237E+03  0.7818609E-02  0.9565354E-01
        2   -1    0    0  501    0  0.00000000000E+00  0.00000000000E+00  0.15504902779E+04  0.15504902779E+04  0.25500000920E-02 0.  1.
       -2   -1    0    0    0  501  0.00000000000E+00  0.00000000000E+00 -0.10224691208E+03  0.10224691212E+03  0.25500000920E-02 0. -1.
    10030    2    1    2    0    0  0.00000000000E+00  0.00000000000E+00  0.14482433658E+04  0.16527371900E+04  0.79632366072E+03 0.  0.
        4    1    3    3  502    0 -0.95245933010E+02  0.38317668434E+03  0.61758225829E+03  0.73301133540E+03  0.12699999809E+01 0. -1.
       -4    1    3    3    0  502  0.95245933010E+02 -0.38317668434E+03  0.83066110748E+03  0.91972585457E+03  0.12699999809E+01 0.  1.
</event>
<event>
 5   0  0.1509629E-02  0.7901358E+03  0.7818609E-02  0.9574406E-01
       -1   -1    0    0    0  501  0.00000000000E+00  0.00000000000E+00  0.35760879245E+03  0.35760879248E+03  0.50400001928E-02 0.  1.
        1   -1    0    0  501    0  0.00000000000E+00  0.00000000000E+00 -0.43645083720E+03  0.43645083723E+03  0.50400001928E-02 0. -1.
    10030    2    1    2    0    0  0.00000000000E+00  0.00000000000E+00 -0.78842044755E+02  0.79405962971E+03  0.79013582852E+03 0.  0.
        5    1    3    3  502    0 -0.28333571242E+03  0.24786757384E+03  0.80919643773E+02  0.38508121071E+03  0.46999998093E+01 0. -1.
       -5    1    3    3    0  502  0.28333571242E+03 -0.24786757384E+03 -0.15976168853E+03  0.40897841901E+03  0.46999998093E+01 0.  1.
</event>
<event>
 5   0  0.1498375E-02  0.8038279E+03  0.7818609E-02  0.9554493E-01
        1   -1    0    0  501    0  0.00000000000E+00  0.00000000000E+00  0.17190820843E+03  0.17190820850E+03  0.50400001928E-02 0.  1.
       -1   -1    0    0    0  501  0.00000000000E+00  0.00000000000E+00 -0.93965736445E+03  0.93965736446E+03  0.50400001928E-02 0. -1.
    10030    2    1    2    0    0  0.00000000000E+00  0.00000000000E+00 -0.76774915602E+03  0.11115655730E+04  0.80382787736E+03 0.  0.
        4    1    3    3  502    0 -0.37237297270E+03 -0.14502825793E+03 -0.44316561609E+03  0.59673461654E+03  0.12699999809E+01 0.  1.
       -4    1    3    3    0  502  0.37237297270E+03  0.14502825793E+03 -0.32458353994E+03  0.51483095643E+03  0.12699999809E+01 0. -1.
</event>
<event>
 5   0  0.1498375E-02  0.8000961E+03  0.7818609E-02  0.9559878E-01
        1   -1    0    0  501    0  0.00000000000E+00  0.00000000000E+00  0.16002165494E+03  0.16002165501E+03  0.50400001928E-02 0.  1.
       -1   -1    0    0    0  501  0.00000000000E+00  0.00000000000E+00 -0.10001049357E+04  0.10001049357E+04  0.50400001928E-02 0. -1.
    10030    2    1    2    0    0  0.00000000000E+00  0.00000000000E+00 -0.84008328073E+03  0.11601265907E+04  0.80009611164E+03 0.  0.
        4    1    3    3  502    0 -0.34323090526E+03 -0.65038764665E+01 -0.12222226312E+03  0.36440314110E+03  0.12699999809E+01 0.  1.
       -4    1    3    3    0  502  0.34323090526E+03  0.65038764665E+01 -0.71786101761E+03  0.79572344960E+03  0.12699999809E+01 0. -1.
</event>
<event>
 5   0  0.1523811E-02  0.8016392E+03  0.7818609E-02  0.9557647E-01
        1   -1    0    0  501    0  0.00000000000E+00  0.00000000000E+00  0.15527816557E+04  0.15527816557E+04  0.50400001928E-02 0.  1.
       -1   -1    0    0    0  501  0.00000000000E+00  0.00000000000E+00 -0.10346358690E+03  0.10346358703E+03  0.50400001928E-02 0. -1.
    10030    2    1    2    0    0  0.00000000000E+00  0.00000000000E+00  0.14493180688E+04  0.16562452428E+04  0.80163922031E+03 0.  0.
        1    1    3    3  502    0 -0.31826719829E+03  0.13776465710E+03  0.11398484930E+04  0.11914393385E+04  0.50400001928E-02 0.  1.
       -1    1    3    3    0  502  0.31826719829E+03 -0.13776465710E+03  0.30946957577E+03  0.46480590423E+03  0.50400001928E-02 0. -1.
</event>
<event>
 5   0  0.1523811E-02  0.7893517E+03  0.7818609E-02  0.9575559E-01
        1   -1    0    0  501    0  0.00000000000E+00  0.00000000000E+00  0.10319033213E+04  0.10319033213E+04  0.50400001928E-02 0.  1.
       -1   -1    0    0    0  501  0.00000000000E+00  0.00000000000E+00 -0.15095312390E+03  0.15095312398E+03  0.50400001928E-02 0. -1.
    10030    2    1    2    0    0  0.00000000000E+00  0.00000000000E+00  0.88095019742E+03  0.11828564453E+04  0.78935170860E+03 0.  0.
        1    1    3    3  502    0 -0.87021172160E+02  0.68120318242E+02 -0.12729447188E+03  0.16857326229E+03  0.50400001928E-02 0. -1.
       -1    1    3    3    0  502  0.87021172160E+02 -0.68120318242E+02  0.10082446693E+04  0.10142831830E+04  0.50400001928E-02 0.  1.
</event>
<event>
 5   0  0.9919125E-03  0.7836198E+03  0.7818609E-02  0.9584034E-01
        4   -1    0    0  501    0  0.00000000000E+00  0.00000000000E+00  0.22928673679E+03  0.22929025397E+03  0.12699999809E+01 0. -1.
       -4   -1    0    0    0  501  0.00000000000E+00  0.00000000000E+00 -0.66952365291E+03  0.66952485742E+03  0.12699999809E+01 0.  1.
    10030    2    1    2    0    0  0.00000000000E+00  0.00000000000E+00 -0.44023691612E+03  0.89881511140E+03  0.78361984543E+03 0.  0.
        4    1    3    3  502    0 -0.22937025577E+03  0.16056303411E+03 -0.53449424514E+03  0.60338786294E+03  0.12699999809E+01 0.  1.
       -4    1    3    3    0  502  0.22937025577E+03 -0.16056303411E+03  0.94257329019E+02  0.29542724845E+03  0.12699999809E+01 0. -1.
</event>
<event>
 5   0  0.1509629E-02  0.8242123E+03  0.7818609E-02  0.9525617E-01
        1   -1    0    0  501    0  0.00000000000E+00  0.00000000000E+00  0.17668199234E+04  0.17668199234E+04  0.50400001928E-02 0.  1.
       -1   -1    0    0    0  501  0.00000000000E+00  0.00000000000E+00 -0.96122680230E+02  0.96122680362E+02  0.50400001928E-02 0. -1.
    10030    2    1    2    0    0  0.00000000000E+00  0.00000000000E+00  0.16706972431E+04  0.18629426037E+04  0.82421227035E+03 0.  0.
        5    1    3    3  502    0  0.61643293626E+02 -0.19716479836E+03  0.29425053165E+02  0.20871458290E+03  0.46999998093E+01 0. -1.
       -5    1    3    3    0  502 -0.61643293626E+02  0.19716479836E+03  0.16412721900E+04  0.16542280208E+04  0.46999998093E+01 0.  1.
</event>
<event>
 5   0  0.2464780E-02  0.7619834E+03  0.7818609E-02  0.9616736E-01
        2   -1    0    0  501    0  0.00000000000E+00  0.00000000000E+00  0.11179505034E+04  0.11179505034E+04  0.25500000920E-02 0. -1.
       -2   -1    0    0    0  501  0.00000000000E+00  0.00000000000E+00 -0.12983997795E+03  0.12983997798E+03  0.25500000920E-02 0.  1.
    10030    2    1    2    0    0  0.00000000000E+00  0.00000000000E+00  0.98811052543E+03  0.12477904814E+04  0.76198338230E+03 0.  0.
        3    1    3    3  502    0 -0.28087252144E+03 -0.30762201461E+02  0.75535626285E+02  0.29247449013E+03  0.10100000352E+00 0.  1.
       -3    1    3    3    0  502  0.28087252144E+03  0.30762201461E+02  0.91257489914E+03  0.95531599123E+03  0.10100000352E+00 0. -1.
</event>
<event>
 5   0  0.1624094E-02  0.7762002E+03  0.7818609E-02  0.9595120E-01
        1   -1    0    0  501    0  0.00000000000E+00  0.00000000000E+00  0.23102563296E+04  0.23102563296E+04  0.50400001928E-02 0.  1.
       -1   -1    0    0    0  501  0.00000000000E+00  0.00000000000E+00 -0.65196958416E+02  0.65196958611E+02  0.50400001928E-02 0. -1.
    10030    2    1    2    0    0  0.00000000000E+00  0.00000000000E+00  0.22450593712E+04  0.23754532882E+04  0.77620019605E+03 0.  0.
        3    1    3    3  502    0  0.26525747734E+03 -0.10708562691E+03  0.19252130966E+04  0.19463489765E+04  0.10100000352E+00 0.  1.
       -3    1    3    3    0  502 -0.26525747734E+03  0.10708562691E+03  0.31984627458E+03  0.42910431172E+03  0.10100000352E+00 0. -1.
</event>
<event>
 5   0  0.9919125E-03  0.8077889E+03  0.7818609E-02  0.9548811E-01
        4   -1    0    0  501    0  0.00000000000E+00  0.00000000000E+00  0.53055105520E+03  0.53055257522E+03  0.12699999809E+01 0.  1.
       -4   -1    0    0    0  501  0.00000000000E+00  0.00000000000E+00 -0.30747087552E+03  0.30747349836E+03  0.12699999809E+01 0. -1.
    10030    2    1    2    0    0  0.00000000000E+00  0.00000000000E+00  0.22308017968E+03  0.83802607357E+03  0.80778891638E+03 0.  0.
        3    1    3    3  502    0  0.35101066587E+03 -0.18236174463E+03  0.26835627002E+02  0.39646494743E+03  0.10100000352E+00 0.  1.
       -3    1    3    3    0  502 -0.35101066587E+03  0.18236174463E+03  0.19624455268E+03  0.44156112614E+03  0.10100000352E+00 0. -1.
</event>
<event>
 5   0  0.2454354E-02  0.8061775E+03  0.7818609E-02  0.9551118E-01
        2   -1    0    0  501    0  0.00000000000E+00  0.00000000000E+00  0.21750197412E+04  0.21750197412E+04  0.25500000920E-02 0.  1.
       -2   -1    0    0    0  501  0.00000000000E+00  0.00000000000E+00 -0.74703021664E+02  0.74703021707E+02  0.25500000920E-02 0. -1.
    10030    2    1    2    0    0  0.00000000000E+00  0.00000000000E+00  0.21003167195E+04  0.22497227629E+04  0.80617751616E+03 0.  0.
        5    1    3    3  502    0  0.70645573169E+02  0.23675431878E+03  0.16146992052E+03  0.29519151360E+03  0.46999998093E+01 0. -1.
       -5    1    3    3    0  502 -0.70645573169E+02 -0.23675431878E+03  0.19388467990E+04  0.19545312493E+04  0.46999998093E+01 0.  1.
</event>
<event>
 5   0  0.2464780E-02  0.8071477E+03  0.7818609E-02  0.9549728E-01
        2   -1    0    0  501    0  0.00000000000E+00  0.00000000000E+00  0.66305090178E+03  0.66305090179E+03  0.25500000920E-02 0.  1.
       -2   -1    0    0    0  501  0.00000000000E+00  0.00000000000E+00 -0.24564004520E+03  0.24564004521E+03  0.25500000920E-02 0. -1.
    10030    2    1    2    0    0  0.00000000000E+00  0.00000000000E+00  0.41741085659E+03  0.90869094700E+03  0.80714770269E+03 0.  0.
        3    1    3    3  502    0 -0.18314079418E+03  0.64798020997E+02  0.60694853121E+03  0.63728005127E+03  0.10100000352E+00 0.  1.
       -3    1    3    3    0  502  0.18314079418E+03 -0.64798020997E+02 -0.18953767462E+03  0.27141089573E+03  0.10100000352E+00 0. -1.
</event>
<event>
 5   0  0.1523811E-02  0.7967082E+03  0.7818609E-02  0.9564794E-01
        1   -1    0    0  501    0  0.00000000000E+00  0.00000000000E+00  0.59623007696E+03  0.59623007698E+03  0.50400001928E-02 0.  1.
       -1   -1    0    0    0  501  0.00000000000E+00  0.00000000000E+00 -0.26614893813E+03  0.26614893818E+03  0.50400001928E-02 0. -1.
    10030    2    1    2    0    0  0.00000000000E+00  0.00000000000E+00  0.33008113882E+03  0.86237901516E+03  0.79670823240E+03 0.  0.
        1    1    3    3  502    0  0.50744158951E+02  0.16122439105E+03 -0.22541094427E+03  0.28174166849E+03  0.50400001928E-02 0. -1.
       -1    1    3    3    0  502 -0.50744158951E+02 -0.16122439105E+03  0.55549208310E+03  0.58063734667E+03  0.50400001928E-02 0.  1.
</event>
<event>
 5   0  0.2422031E-02  0.7986887E+03  0.7818609E-02  0.9561917E-01
       -2   -1    0    0    0  501  0.00000000000E+00  0.00000000000E+00  0.10145293065E+03  0.10145293068E+03  0.25500000920E-02 0.  1.
        2   -1    0    0  501    0  0.00000000000E+00  0.00000000000E+00 -0.15719203496E+04  0.15719203496E+04  0.25500000920E-02 0. -1.
    10030    2    1    2    0    0  0.00000000000E+00  0.00000000000E+00 -0.14704674190E+04  0.16733732803E+04  0.79868874100E+03 0.  0.
        4    1    3    3  502    0  0.13821544115E+03 -0.15737377390E+03 -0.14475981999E+04  0.14626729553E+04  0.12699999809E+01 0. -1.
       -4    1    3    3    0  502 -0.13821544115E+03  0.15737377390E+03 -0.22869219075E+02  0.21070032502E+03  0.12699999809E+01 0.  1.
</event>
<event>
 5   0  0.2571778E-02  0.8058183E+03  0.7818609E-02  0.9551633E-01
       -2   -1    0    0    0  501  0.00000000000E+00  0.00000000000E+00  0.42560809854E+03  0.42560809855E+03  0.25500000920E-02 0.  1.
        2   -1    0    0  501    0  0.00000000000E+00  0.00000000000E+00 -0.38142077068E+03  0.38142077068E+03  0.25500000920E-02 0. -1.
    10030    2    1    2    0    0  0.00000000000E+00  0.00000000000E+00  0.44187327864E+02  0.80702886923E+03  0.80581826477E+03 0.  0.
        1    1    3    3  502    0  0.22936952727E+03  0.28971453764E+03  0.18293030952E+03  0.41232073866E+03  0.50400001928E-02 0. -1.
       -1    1    3    3    0  502 -0.22936952727E+03 -0.28971453764E+03 -0.13874298165E+03  0.39470813058E+03  0.50400001928E-02 0.  1.
</event>
<event>
 5   0  0.2464780E-02  0.8062176E+03  0.7818609E-02  0.9551061E-01
        2   -1    0    0  501    0  0.00000000000E+00  0.00000000000E+00  0.85315729717E+03  0.85315729718E+03  0.25500000920E-02 0. -1.
       -2   -1    0    0    0  501  0.00000000000E+00  0.00000000000E+00 -0.19046513590E+03  0.19046513592E+03  0.25500000920E-02 0.  1.
    10030    2    1    2    0    0  0.00000000000E+00  0.00000000000E+00  0.66269216127E+03  0.10436224331E+04  0.80621763951E+03 0.  0.
        3    1    3    3  502    0  0.18089662045E+03 -0.36015552398E+02 -0.13263697256E+03  0.22718557171E+03  0.10100000352E+00 0.  1.
       -3    1    3    3    0  502 -0.18089662045E+03  0.36015552398E+02  0.79532913383E+03  0.81643686138E+03  0.10100000352E+00 0. -1.
</event>
<event>
 5   0  0.1509629E-02  0.7984432E+03  0.7818609E-02  0.9562273E-01
        1   -1    0    0  501    0  0.00000000000E+00  0.00000000000E+00  0.39336413612E+03  0.39336413615E+03  0.50400001928E-02 0. -1.
       -1   -1    0    0    0  501  0.00000000000E+00  0.00000000000E+00 -0.40516624338E+03  0.40516624341E+03  0.50400001928E-02 0.  1.
    10030    2    1    2    0    0  0.00000000000E+00  0.00000000000E+00 -0.11802107264E+02  0.79853037956E+03  0.79844315849E+03 0.  0.
        5    1    3    3  502    0 -0.39101391158E+03 -0.54035170739E+02  0.53637798897E+02  0.39838521835E+03  0.46999998093E+01 0. -1.
       -5    1    3    3    0  502  0.39101391158E+03  0.54035170739E+02 -0.65439906161E+02  0.40014516122E+03  0.46999998093E+01 0.  1.
</event>
<event>
 5   0  0.1471290E-02  0.7768066E+03  0.7818609E-02  0.9594209E-01
        1   -1    0    0  501    0  0.00000000000E+00  0.00000000000E+00  0.40436878016E+03  0.40436878020E+03  0.50400001928E-02 0. -1.
       -1   -1    0    0    0  501  0.00000000000E+00  0.00000000000E+00 -0.37306821509E+03  0.37306821512E+03  0.50400001928E-02 0.  1.
    10030    2    1    2    0    0  0.00000000000E+00  0.00000000000E+00  0.31300565074E+02  0.77743699532E+03  0.77680664024E+03 0.  0.
        2    1    3    3  502    0  0.31530088466E+03  0.22567851984E+03 -0.69887916792E+01  0.38780702082E+03  0.25500000920E-02 0.  1.
       -2    1    3    3    0  502 -0.31530088466E+03 -0.22567851984E+03  0.38289356753E+02  0.38962997450E+03  0.25500000920E-02 0. -1.
</event>
<event>
 5   0  0.1523811E-02  0.8123455E+03  0.7818609E-02  0.9542317E-01
        1   -1    0    0  501    0  0.00000000000E+00  0.00000000000E+00  0.98302598326E+03  0.98302598327E+03  0.50400001928E-02 0. -1.
       -1   -1    0    0    0  501  0.00000000000E+00  0.00000000000E+00 -0.16782496036E+03  0.16782496043E+03  0.50400001928E-02 0.  1.
    10030    2    1    2    0    0  0.00000000000E+00  0.00000000000E+00  0.81520102290E+03  0.11508509437E+04  0.81234548493E+03 0.  0.
        1    1    3    3  502    0  0.10549226671E+03 -0.36093374747E+03  0.19008029395E+03  0.42134582776E+03  0.50400001928E-02 0. -1.
       -1    1    3    3    0  502 -0.10549226671E+03  0.36093374747E+03  0.62512072895E+03  0.72950511594E+03  0.50400001928E-02 0.  1.
</event>
<event>
 5   0  0.2460312E-02  0.8009654E+03  0.7818609E-02  0.9558621E-01
        2   -1    0    0  501    0  0.00000000000E+00  0.00000000000E+00  0.12415170987E+04  0.12415170987E+04  0.25500000920E-02 0. -1.
       -2   -1    0    0    0  501  0.00000000000E+00  0.00000000000E+00 -0.12918580530E+03  0.12918580533E+03  0.25500000920E-02 0.  1.
    10030    2    1    2    0    0  0.00000000000E+00  0.00000000000E+00  0.11123312934E+04  0.13707029040E+04  0.80096538304E+03 0.  0.
        2    1    3    3  502    0  0.24808266805E+03 -0.22987549590E+03  0.18913523906E+03  0.38750469993E+03  0.25500000920E-02 0.  1.
       -2    1    3    3    0  502 -0.24808266805E+03  0.22987549590E+03  0.92319605430E+03  0.98319820407E+03  0.25500000920E-02 0. -1.
</event>
<event>
 5   0  0.2422031E-02  0.7989501E+03  0.7818609E-02  0.9561538E-01
        2   -1    0    0  501    0  0.00000000000E+00  0.00000000000E+00  0.15156748908E+04  0.15156748908E+04  0.25500000920E-02 0.  1.
       -2   -1    0    0    0  501  0.00000000000E+00  0.00000000000E+00 -0.10528664174E+03  0.10528664177E+03  0.25500000920E-02 0. -1.
    10030    2    1    2    0    0  0.00000000000E+00  0.00000000000E+00  0.14103882490E+04  0.16209615326E+04  0.79895010922E+03 0.  0.
        4    1    3    3  502    0 -0.39110266615E+03 -0.56745987800E+02  0.82344932199E+03  0.91337385631E+03  0.12699999809E+01 0.  1.
       -4    1    3    3    0  502  0.39110266615E+03  0.56745987800E+02  0.58693892706E+03  0.70758767626E+03  0.12699999809E+01 0. -1.
</event>
<event>
 5   0  0.1471290E-02  0.7566866E+03  0.7818609E-02  0.9624918E-01
       -1   -1    0    0    0  501  0.00000000000E+00  0.00000000000E+00  0.21806367352E+03  0.21806367357E+03  0.50400001928E-02 0.  1.
        1   -1    0    0  501    0  0.00000000000E+00  0.00000000000E+00 -0.65643053499E+03  0.65643053500E+03  0.50400001928E-02 0. -1.
    10030    2    1    2    0    0  0.00000000000E+00  0.00000000000E+00 -0.43836686147E+03  0.87449420858E+03  0.75668660329E+03 0.  0.
        2    1    3    3  502    0  0.12755533774E+03 -0.35324742554E+03 -0.16635510257E+03  0.41076529550E+03  0.25500000920E-02 0.  1.
       -2    1    3    3    0  502 -0.12755533774E+03  0.35324742554E+03 -0.27201175890E+03  0.46372891307E+03  0.25500000920E-02 0. -1.
</event>
<event>
 5   0  0.9919125E-03  0.7514221E+03  0.7818609E-02  0.9633122E-01
        3   -1    0    0  501    0  0.00000000000E+00  0.00000000000E+00  0.28166415463E+03  0.28166417274E+03  0.10100000352E+00 0.  1.
       -3   -1    0    0    0  501  0.00000000000E+00  0.00000000000E+00 -0.50115996600E+03  0.50115997618E+03  0.10100000352E+00 0. -1.
    10030    2    1    2    0    0  0.00000000000E+00  0.00000000000E+00 -0.21949581137E+03  0.78282414892E+03  0.75142214295E+03 0.  0.
        3    1    3    3  502    0  0.33364254105E+02 -0.83147476830E+01  0.28002152629E+03  0.28212474877E+03  0.10100000352E+00 0.  1.
       -3    1    3    3    0  502 -0.33364254105E+02  0.83147476830E+01 -0.49951733767E+03  0.50069940015E+03  0.10100000352E+00 0. -1.
</event>
<event>
 5   0  0.1509629E-02  0.7990447E+03  0.7818609E-02  0.9561401E-01
        1   -1    0    0  501    0  0.00000000000E+00  0.00000000000E+00  0.36867296059E+03  0.36867296062E+03  0.50400001928E-02 0.  1.
       -1   -1    0    0    0  501  0.00000000000E+00  0.00000000000E+00 -0.43295310206E+03  0.43295310209E+03  0.50400001928E-02 0. -1.
    10030    2    1    2    0    0  0.00000000000E+00  0.00000000000E+00 -0.64280141472E+02  0.80162606271E+03  0.79904468450E+03 0.  0.
        5    1    3    3  502    0  0.23452251741E+03  0.32087532373E+03  0.84161059436E+01  0.39756094550E+03  0.46999998093E+01 0.  1.
       -5    1    3    3    0  502 -0.23452251741E+03 -0.32087532373E+03 -0.72696247415E+02  0.40406511720E+03  0.46999998093E+01 0. -1.
</event>
<event>
 5   0  0.1471290E-02  0.7986665E+03  0.7818609E-02  0.9561949E-01
       -1   -1    0    0    0  501  0.00000000000E+00  0.00000000000E+00  0.11321879924E+03  0.11321879935E+03  0.50400001928E-02 0.  1.
        1   -1    0    0  501    0  0.00000000000E+00  0.00000000000E+00 -0.14084855967E+04  0.14084855967E+04  0.50400001928E-02 0. -1.
    10030    2    1    2    0    0  0.00000000000E+00  0.00000000000E+00 -0.12952667975E+04  0.15217043961E+04  0.79866650888E+03 0.  0.
        2    1    3    3  502    0 -0.30912780816E+03  0.47604590987E+02 -0.11206747742E+04  0.11635025347E+04  0.25500000920E-02 0.  1.
       -2    1    3    3    0  502  0.30912780816E+03 -0.47604590987E+02 -0.17459202330E+03  0.35820186134E+03  0.25500000920E-02 0. -1.
</event>
<event>
 5   0  0.9919125E-03  0.7915663E+03  0.7818609E-02  0.9572305E-01
       -3   -1    0    0    0  501  0.00000000000E+00  0.00000000000E+00  0.42451247158E+03  0.42451248359E+03  0.10100000352E+00 0. -1.
        3   -1    0    0  501    0  0.00000000000E+00  0.00000000000E+00 -0.36899808545E+03  0.36899809928E+03  0.10100000352E+00 0.  1.
    10030    2    1    2    0    0  0.00000000000E+00  0.00000000000E+00  0.55514386125E+02  0.79351058287E+03  0.79156629417E+03 0.  0.
        2    1    3    3  502    0  0.21208159531E+03 -0.25661753801E+03 -0.18680857661E+03  0.38174416588E+03  0.25500000920E-02 0.  1.
       -2    1    3    3    0  502 -0.21208159531E+03  0.25661753801E+03  0.24232296274E+03  0.41176641699E+03  0.25500000920E-02 0. -1.
</event>
<event>
 5   0  0.2460312E-02  0.8080383E+03  0.7818609E-02  0.9548454E-01
        2   -1    0    0  501    0  0.00000000000E+00  0.00000000000E+00  0.14566170538E+04  0.14566170538E+04  0.25500000920E-02 0. -1.
       -2   -1    0    0    0  501  0.00000000000E+00  0.00000000000E+00 -0.11206204722E+03  0.11206204725E+03  0.25500000920E-02 0.  1.
    10030    2    1    2    0    0  0.00000000000E+00  0.00000000000E+00  0.13445550066E+04  0.15686791010E+04  0.80803833843E+03 0.  0.
        2    1    3    3  502    0 -0.38009031052E+02 -0.28935390746E+02  0.14511153034E+04  0.14519013628E+04  0.25500000920E-02 0. -1.
       -2    1    3    3    0  502  0.38009031052E+02  0.28935390746E+02 -0.10656029689E+03  0.11677773828E+03  0.25500000920E-02 0.  1.
</event>
<event>
 5   0  0.2464780E-02  0.8162396E+03  0.7818609E-02  0.9536804E-01
        2   -1    0    0  501    0  0.00000000000E+00  0.00000000000E+00  0.79272747966E+03  0.79272747966E+03  0.25500000920E-02 0. -1.
       -2   -1    0    0    0  501  0.00000000000E+00  0.00000000000E+00 -0.21011225283E+03  0.21011225285E+03  0.25500000920E-02 0.  1.
    10030    2    1    2    0    0  0.00000000000E+00  0.00000000000E+00  0.58261522682E+03  0.10028397325E+04  0.81623956444E+03 0.  0.
        3    1    3    3  502    0  0.16144167192E+03 -0.12498255693E+03  0.72547412764E+03  0.75365560639E+03  0.10100000352E+00 0. -1.
       -3    1    3    3    0  502 -0.16144167192E+03  0.12498255693E+03 -0.14285890081E+03  0.24918412612E+03  0.10100000352E+00 0.  1.
</event>
<event>
 5   0  0.2460312E-02  0.7913788E+03  0.7818609E-02  0.9572580E-01
        2   -1    0    0  501    0  0.00000000000E+00  0.00000000000E+00  0.12887265916E+04  0.12887265916E+04  0.25500000920E-02 0.  1.
       -2   -1    0    0    0  501  0.00000000000E+00  0.00000000000E+00 -0.12149211001E+03  0.12149211003E+03  0.25500000920E-02 0. -1.
    10030    2    1    2    0    0  0.00000000000E+00  0.00000000000E+00  0.11672344816E+04  0.14102187016E+04  0.79137882927E+03 0.  0.
        2    1    3    3  502    0  0.22125777787E+03 -0.32518363320E+03  0.66069084281E+03  0.76890297785E+03  0.25500000920E-02 0. -1.
       -2    1    3    3    0  502 -0.22125777787E+03  0.32518363320E+03  0.50654363876E+03  0.64131572377E+03  0.25500000920E-02 0.  1.
</event>
<event>
 5   0  0.1624094E-02  0.8122713E+03  0.7818609E-02  0.9542423E-01
       -1   -1    0    0    0  501  0.00000000000E+00  0.00000000000E+00  0.36984023396E+03  0.36984023399E+03  0.50400001928E-02 0.  1.
        1   -1    0    0  501    0  0.00000000000E+00  0.00000000000E+00 -0.44599303088E+03  0.44599303091E+03  0.50400001928E-02 0. -1.
    10030    2    1    2    0    0  0.00000000000E+00  0.00000000000E+00 -0.76152796927E+02  0.81583326490E+03  0.81227130175E+03 0.  0.
        3    1    3    3  502    0  0.71172091900E+02 -0.31075309456E+03 -0.29080095703E+03  0.43150684729E+03  0.10100000352E+00 0. -1.
       -3    1    3    3    0  502 -0.71172091900E+02  0.31075309456E+03  0.21464816010E+03  0.38432641762E+03  0.10100000352E+00 0.  1.
</event>
<event>
 5   0  0.1509629E-02  0.8018151E+03  0.7818609E-02  0.9557394E-01
       -1   -1    0    0    0  501  0.00000000000E+00  0.00000000000E+00  0.12115585776E+03  0.12115585787E+03  0.50400001928E-02 0.  1.
        1   -1    0    0  501    0  0.00000000000E+00  0.00000000000E+00 -0.13266122840E+04  0.13266122840E+04  0.50400001928E-02 0. -1.
    10030    2    1    2    0    0  0.00000000000E+00  0.00000000000E+00 -0.12054564263E+04  0.14477681419E+04  0.80181506414E+03 0.  0.
        5    1    3    3  502    0 -0.26491500871E+03 -0.21503837596E+02 -0.60856450744E+02  0.27270492197E+03  0.46999998093E+01 0.  1.
       -5    1    3    3    0  502  0.26491500871E+03  0.21503837596E+02 -0.11445999755E+04  0.11750632199E+04  0.46999998093E+01 0. -1.
</event>
<event>
 5   0  0.2454354E-02  0.7971679E+03  0.7818609E-02  0.9564126E-01
       -2   -1    0    0    0  501  0.00000000000E+00  0.00000000000E+00  0.16242854111E+03  0.16242854113E+03  0.25500000920E-02 0. -1.
        2   -1    0    0  501    0  0.00000000000E+00  0.00000000000E+00 -0.97808653962E+03  0.97808653962E+03  0.25500000920E-02 0.  1.
    10030    2    1    2    0    0  0.00000000000E+00  0.00000000000E+00 -0.81565799851E+03  0.11405150808E+04  0.79716791135E+03 0.  0.
        5    1    3    3  502    0  0.12980245019E+02  0.13707843577E+03  0.12727919594E+03  0.18756616974E+03  0.46999998093E+01 0. -1.
       -5    1    3    3    0  502 -0.12980245019E+02 -0.13707843577E+03 -0.94293719445E+03  0.95294891101E+03  0.46999998093E+01 0.  1.
</event>
<event>
 5   0  0.1509629E-02  0.8020444E+03  0.7818609E-02  0.9557063E-01
        1   -1    0    0  501    0  0.00000000000E+00  0.00000000000E+00  0.66888527833E+03  0.66888527835E+03  0.50400001928E-02 0.  1.
       -1   -1    0    0    0  501  0.00000000000E+00  0.00000000000E+00 -0.24042806997E+03  0.24042807003E+03  0.50400001928E-02 0. -1.
    10030    2    1    2    0    0  0.00000000000E+00  0.00000000000E+00  0.42845720836E+03  0.90931334838E+03  0.80204437916E+03 0.  0.
        5    1    3    3  502    0 -0.63021570845E+02 -0.29691567025E+03 -0.82860190629E+02  0.31467210684E+03  0.46999998093E+01 0. -1.
       -5    1    3    3    0  502  0.63021570845E+02  0.29691567025E+03  0.51131739899E+03  0.59464124154E+03  0.46999998093E+01 0.  1.
</event>
<event>
 5   0  0.1471290E-02  0.7868236E+03  0.7818609E-02  0.9579288E-01
       -1   -1    0    0    0  501  0.00000000000E+00  0.00000000000E+00  0.90431933046E+02  0.90431933186E+02  0.50400001928E-02 0.  1.
        1   -1    0    0  501    0  0.00000000000E+00  0.00000000000E+00 -0.17114845008E+04  0.17114845008E+04  0.50400001928E-02 0. -1.
    10030    2    1    2    0    0  0.00000000000E+00  0.00000000000E+00 -0.16210525678E+04  0.18019164340E+04  0.78682361917E+03 0.  0.
        2    1    3    3  502    0  0.33619893542E+03  0.17229076525E+03 -0.55904060153E+03  0.67471492212E+03  0.25500000920E-02 0.  1.
       -2    1    3    3    0  502 -0.33619893542E+03 -0.17229076525E+03 -0.10620119663E+04  0.11272015119E+04  0.25500000920E-02 0. -1.
</event>
<event>
 5   0  0.2454354E-02  0.8126853E+03  0.7818609E-02  0.9541835E-01
       -2   -1    0    0    0  501  0.00000000000E+00  0.00000000000E+00  0.27383222519E+03  0.27383222520E+03  0.25500000920E-02 0.  1.
        2   -1    0    0  501    0  0.00000000000E+00  0.00000000000E+00 -0.60297639325E+03  0.60297639326E+03  0.25500000920E-02 0. -1.
    10030    2    1    2    0    0  0.00000000000E+00  0.00000000000E+00 -0.32914416806E+03  0.87680861846E+03  0.81268534503E+03 0.  0.
        5    1    3    3  502    0 -0.32761550371E+03 -0.16290473222E+03  0.26068594578E+02  0.36683992649E+03  0.46999998093E+01 0. -1.
       -5    1    3    3    0  502  0.32761550371E+03  0.16290473222E+03 -0.35521276264E+03  0.50996869197E+03  0.46999998093E+01 0.  1.
</event>
<event>
 5   0  0.1523811E-02  0.8022252E+03  0.7818609E-02  0.9556802E-01
       -1   -1    0    0    0  501  0.00000000000E+00  0.00000000000E+00  0.13663566375E+03  0.13663566384E+03  0.50400001928E-02 0.  1.
        1   -1    0    0  501    0  0.00000000000E+00  0.00000000000E+00 -0.11775207011E+04  0.11775207011E+04  0.50400001928E-02 0. -1.
    10030    2    1    2    0    0  0.00000000000E+00  0.00000000000E+00 -0.10408850373E+04  0.13141563650E+04  0.80222521188E+03 0.  0.
        1    1    3    3  502    0 -0.25839057491E+03 -0.10685782300E+03 -0.99155213902E+03  0.10302232418E+04  0.50400001928E-02 0. -1.
       -1    1    3    3    0  502  0.25839057491E+03  0.10685782300E+03 -0.49332898327E+02  0.28393312315E+03  0.50400001928E-02 0.  1.
</event>
<event>
 5   0  0.2464780E-02  0.8919863E+03  0.7818609E-02  0.9435655E-01
        2   -1    0    0  501    0  0.00000000000E+00  0.00000000000E+00  0.92223453220E+03  0.92223453220E+03  0.25500000920E-02 0.  1.
       -2   -1    0    0    0  501  0.00000000000E+00  0.00000000000E+00 -0.21568254611E+03  0.21568254613E+03  0.25500000920E-02 0. -1.
    10030    2    1    2    0    0  0.00000000000E+00  0.00000000000E+00  0.70655198609E+03  0.11379170783E+04  0.89198630489E+03 0.  0.
        3    1    3    3  502    0 -0.75884622088E+02 -0.98861001499E+02 -0.19301738528E+03  0.22975572835E+03  0.10100000352E+00 0. -1.
       -3    1    3    3    0  502  0.75884622088E+02  0.98861001499E+02  0.89956937137E+03  0.90816134998E+03  0.10100000352E+00 0.  1.
</event>
<event>
 5   0  0.2571778E-02  0.8266786E+03  0.7818609E-02  0.9522184E-01
       -2   -1    0    0    0  501  0.00000000000E+00  0.00000000000E+00  0.22239593424E+03  0.22239593425E+03  0.25500000920E-02 0.  1.
        2   -1    0    0  501    0  0.00000000000E+00  0.00000000000E+00 -0.76822159909E+03  0.76822159909E+03  0.25500000920E-02 0. -1.
    10030    2    1    2    0    0  0.00000000000E+00  0.00000000000E+00 -0.54582566485E+03  0.99061753334E+03  0.82667855963E+03 0.  0.
        1    1    3    3  502    0 -0.37277291682E+03  0.85124948436E+02 -0.46102640944E+03  0.59895847484E+03  0.50400001928E-02 0. -1.
       -1    1    3    3    0  502  0.37277291682E+03 -0.85124948436E+02 -0.84799255411E+02  0.39165905850E+03  0.50400001928E-02 0.  1.
</event>
<event>
 5   0  0.2464780E-02  0.8019413E+03  0.7818609E-02  0.9557211E-01
       -2   -1    0    0    0  501  0.00000000000E+00  0.00000000000E+00  0.95054375333E+02  0.95054375367E+02  0.25500000920E-02 0. -1.
        2   -1    0    0  501    0  0.00000000000E+00  0.00000000000E+00 -0.16914264110E+04  0.16914264110E+04  0.25500000920E-02 0.  1.
    10030    2    1    2    0    0  0.00000000000E+00  0.00000000000E+00 -0.15963720356E+04  0.17864807863E+04  0.80194134685E+03 0.  0.
        3    1    3    3  502    0 -0.54961178302E+02  0.23857675428E+03 -0.15055901300E+04  0.15253659392E+04  0.10100000352E+00 0.  1.
       -3    1    3    3    0  502  0.54961178302E+02 -0.23857675428E+03 -0.90781905676E+02  0.26111484715E+03  0.10100000352E+00 0. -1.
</event>
<event>
 5   0  0.9919125E-03  0.8015877E+03  0.7818609E-02  0.9557722E-01
       -4   -1    0    0    0  501  0.00000000000E+00  0.00000000000E+00  0.53796012287E+03  0.53796162196E+03  0.12699999809E+01 0.  1.
        4   -1    0    0  501    0  0.00000000000E+00  0.00000000000E+00 -0.29859828854E+03  0.29860098932E+03  0.12699999809E+01 0. -1.
    10030    2    1    2    0    0  0.00000000000E+00  0.00000000000E+00  0.23936183433E+03  0.83656261128E+03  0.80158774620E+03 0.  0.
        4    1    3    3  502    0 -0.36373143071E+03 -0.13100646648E+03  0.22998480968E+03  0.44984205398E+03  0.12699999809E+01 0.  1.
       -4    1    3    3    0  502  0.36373143071E+03  0.13100646648E+03  0.93770246514E+01  0.38672055730E+03  0.12699999809E+01 0. -1.
</event>
<event>
 5   0  0.2422031E-02  0.8070898E+03  0.7818609E-02  0.9549811E-01
        2   -1    0    0  501    0  0.00000000000E+00  0.00000000000E+00  0.84151926149E+03  0.84151926150E+03  0.25500000920E-02 0. -1.
       -2   -1    0    0    0  501  0.00000000000E+00  0.00000000000E+00 -0.19351723605E+03  0.19351723606E+03  0.25500000920E-02 0.  1.
    10030    2    1    2    0    0  0.00000000000E+00  0.00000000000E+00  0.64800202545E+03  0.10350364976E+04  0.80708978825E+03 0.  0.
        4    1    3    3  502    0  0.58396116667E+02  0.36465265866E+02  0.83392967650E+03  0.83676767403E+03  0.12699999809E+01 0. -1.
       -4    1    3    3    0  502 -0.58396116667E+02 -0.36465265866E+02 -0.18592765105E+03  0.19826882353E+03  0.12699999809E+01 0.  1.
</event>
<event>
 5   0  0.1509629E-02  0.7829418E+03  0.7818609E-02  0.9585042E-01
       -1   -1    0    0    0  501  0.00000000000E+00  0.00000000000E+00  0.36032904952E+03  0.36032904956E+03  0.50400001928E-02 0.  1.
        1   -1    0    0  501    0  0.00000000000E+00  0.00000000000E+00 -0.42530426440E+03  0.42530426443E+03  0.50400001928E-02 0. -1.
    10030    2    1    2    0    0  0.00000000000E+00  0.00000000000E+00 -0.64975214882E+02  0.78563331399E+03  0.78294184043E+03 0.  0.
        5    1    3    3  502    0  0.36111006021E+03  0.56188969450E+02 -0.17321849538E+03  0.40445569969E+03  0.46999998093E+01 0.  1.
       -5    1    3    3    0  502 -0.36111006021E+03 -0.56188969450E+02  0.10824328050E+03  0.38117761430E+03  0.46999998093E+01 0. -1.
</event>
<event>
 5   0  0.9919125E-03  0.8240049E+03  0.7818609E-02  0.9525907E-01
        4   -1    0    0  501    0  0.00000000000E+00  0.00000000000E+00  0.72559845838E+03  0.72559956980E+03  0.12699999809E+01 0. -1.
       -4   -1    0    0    0  501  0.00000000000E+00  0.00000000000E+00 -0.23393631279E+03  0.23393976008E+03  0.12699999809E+01 0.  1.
    10030    2    1    2    0    0  0.00000000000E+00  0.00000000000E+00  0.49166214558E+03  0.95953932988E+03  0.82400489088E+03 0.  0.
        2    1    3    3  502    0  0.30078862767E+03  0.27447454045E+03  0.31888732673E+03  0.51720324733E+03  0.25500000920E-02 0.  1.
       -2    1    3    3    0  502 -0.30078862767E+03 -0.27447454045E+03  0.17277481885E+03  0.44233608255E+03  0.25500000920E-02 0. -1.
</event>
<event>
 5   0  0.9919125E-03  0.8841773E+03  0.7818609E-02  0.9445580E-01
        3   -1    0    0  501    0  0.00000000000E+00  0.00000000000E+00  0.28339562746E+03  0.28339564545E+03  0.10100000352E+00 0.  1.
       -3   -1    0    0    0  501  0.00000000000E+00  0.00000000000E+00 -0.68964487002E+03  0.68964487742E+03  0.10100000352E+00 0. -1.
    10030    2    1    2    0    0  0.00000000000E+00  0.00000000000E+00 -0.40624924257E+03  0.97304052287E+03  0.88417725150E+03 0.  0.
        1    1    3    3  502    0  0.22314823427E+02 -0.39666894234E+03  0.10265759699E+02  0.39742871940E+03  0.50400001928E-02 0. -1.
       -1    1    3    3    0  502 -0.22314823427E+02  0.39666894234E+03 -0.41651500227E+03  0.57561180347E+03  0.50400001928E-02 0.  1.
</event>
<event>
 5   0  0.9919125E-03  0.8023822E+03  0.7818609E-02  0.9556575E-01
        3   -1    0    0  501    0  0.00000000000E+00  0.00000000000E+00  0.24000515944E+03  0.24000518070E+03  0.10100000352E+00 0.  1.
       -3   -1    0    0    0  501  0.00000000000E+00  0.00000000000E+00 -0.67062847774E+03  0.67062848535E+03  0.10100000352E+00 0. -1.
    10030    2    1    2    0    0  0.00000000000E+00  0.00000000000E+00 -0.43062331830E+03  0.91063366605E+03  0.80238222280E+03 0.  0.
        1    1    3    3  502    0 -0.59540648800E+02  0.22692580335E+03  0.15403900262E+03  0.28065712790E+03  0.50400001928E-02 0.  1.
       -1    1    3    3    0  502  0.59540648800E+02 -0.22692580335E+03 -0.58466232092E+03  0.62997653815E+03  0.50400001928E-02 0. -1.
</event>
<event>
 5   0  0.1509629E-02  0.8164309E+03  0.7818609E-02  0.9536534E-01
        1   -1    0    0  501    0  0.00000000000E+00  0.00000000000E+00  0.37103140367E+03  0.37103140370E+03  0.50400001928E-02 0.  1.
       -1   -1    0    0    0  501  0.00000000000E+00  0.00000000000E+00 -0.44912604011E+03  0.44912604013E+03  0.50400001928E-02 0. -1.
    10030    2    1    2    0    0  0.00000000000E+00  0.00000000000E+00 -0.78094636441E+02  0.82015744383E+03  0.81643092815E+03 0.  0.
        5    1    3    3  502    0 -0.20272955191E+03 -0.87976664831E+01 -0.39484057929E+03  0.44395702855E+03  0.46999998093E+01 0. -1.
       -5    1    3    3    0  502  0.20272955191E+03  0.87976664831E+01  0.31674594285E+03  0.37620041528E+03  0.46999998093E+01 0.  1.
</event>
<event>
 5   0  0.9919125E-03  0.7931656E+03  0.7818609E-02  0.9569963E-01
       -4   -1    0    0    0  501  0.00000000000E+00  0.00000000000E+00  0.50739650180E+03  0.50739809119E+03  0.12699999809E+01 0.  1.
        4   -1    0    0  501    0  0.00000000000E+00  0.00000000000E+00 -0.30996707785E+03  0.30996967956E+03  0.12699999809E+01 0. -1.
    10030    2    1    2    0    0  0.00000000000E+00  0.00000000000E+00  0.19742942396E+03  0.81736777075E+03  0.79316561651E+03 0.  0.
        3    1    3    3  502    0  0.30074564457E+03  0.21317471044E+03 -0.51988888095E+02  0.37228249298E+03  0.10100000352E+00 0.  1.
       -3    1    3    3    0  502 -0.30074564457E+03 -0.21317471044E+03  0.24941831205E+03  0.44508527777E+03  0.10100000352E+00 0. -1.
</event>
<event>
 5   0  0.1624094E-02  0.7864829E+03  0.7818609E-02  0.9579791E-01
        1   -1    0    0  501    0  0.00000000000E+00  0.00000000000E+00  0.71382616106E+03  0.71382616108E+03  0.50400001928E-02 0. -1.
       -1   -1    0    0    0  501  0.00000000000E+00  0.00000000000E+00 -0.21663376237E+03  0.21663376243E+03  0.50400001928E-02 0.  1.
    10030    2    1    2    0    0  0.00000000000E+00  0.00000000000E+00  0.49719239869E+03  0.93045992351E+03  0.78648292286E+03 0.  0.
        3    1    3    3  502    0 -0.34378894057E+03  0.38592614364E+00  0.22733587713E+02  0.34453999885E+03  0.10100000352E+00 0.  1.
       -3    1    3    3    0  502  0.34378894057E+03 -0.38592614364E+00  0.47445881098E+03  0.58591992466E+03  0.10100000352E+00 0. -1.
</event>
<event>
 5   0  0.1509629E-02  0.9063049E+03  0.7818609E-02  0.9417734E-01
       -1   -1    0    0    0  501  0.00000000000E+00  0.00000000000E+00  0.31432287444E+03  0.31432287448E+03  0.50400001928E-02 0. -1.
        1   -1    0    0  501    0  0.00000000000E+00  0.00000000000E+00 -0.65330004916E+03  0.65330004918E+03  0.50400001928E-02 0.  1.
    10030    2    1    2    0    0  0.00000000000E+00  0.00000000000E+00 -0.33897717472E+03  0.96762292365E+03  0.90630491414E+03 0.  0.
        5    1    3    3  502    0 -0.18701013727E+03  0.35989605070E+03 -0.38521637179E+03  0.55938511049E+03  0.46999998093E+01 0.  1.
       -5    1    3    3    0  502  0.18701013727E+03 -0.35989605070E+03  0.46239197072E+02  0.40823781316E+03  0.46999998093E+01 0. -1.
</event>
<event>
 5   0  0.2454354E-02  0.8206590E+03  0.7818609E-02  0.9530586E-01
       -2   -1    0    0    0  501  0.00000000000E+00  0.00000000000E+00  0.24239303241E+03  0.24239303242E+03  0.25500000920E-02 0. -1.
        2   -1    0    0  501    0  0.00000000000E+00  0.00000000000E+00 -0.69461696939E+03  0.69461696939E+03  0.25500000920E-02 0.  1.
    10030    2    1    2    0    0  0.00000000000E+00  0.00000000000E+00 -0.45222393698E+03  0.93701000181E+03  0.82065903658E+03 0.  0.
        5    1    3    3  502    0  0.13058937429E+03 -0.22998465854E+03  0.13205271625E+03  0.29564596684E+03  0.46999998093E+01 0. -1.
       -5    1    3    3    0  502 -0.13058937429E+03  0.22998465854E+03 -0.58427665323E+03  0.64136403497E+03  0.46999998093E+01 0.  1.
</event>
<event>
 5   0  0.1523811E-02  0.8262079E+03  0.7818609E-02  0.9522838E-01
       -1   -1    0    0    0  501  0.00000000000E+00  0.00000000000E+00  0.17818956953E+03  0.17818956960E+03  0.50400001928E-02 0.  1.
        1   -1    0    0  501    0  0.00000000000E+00  0.00000000000E+00 -0.95771522115E+03  0.95771522116E+03  0.50400001928E-02 0. -1.
    10030    2    1    2    0    0  0.00000000000E+00  0.00000000000E+00 -0.77952565162E+03  0.11359047908E+04  0.82620787466E+03 0.  0.
        1    1    3    3  502    0 -0.24680481153E+03 -0.21258049506E+03 -0.73906936527E+03  0.80766738734E+03  0.50400001928E-02 0. -1.
       -1    1    3    3    0  502  0.24680481153E+03  0.21258049506E+03 -0.40456286349E+02  0.32823740342E+03  0.50400001928E-02 0.  1.
</event>
<event>
 5   0  0.1509629E-02  0.8067101E+03  0.7818609E-02  0.9550355E-01
        1   -1    0    0  501    0  0.00000000000E+00  0.00000000000E+00  0.20306100200E+03  0.20306100206E+03  0.50400001928E-02 0.  1.
       -1   -1    0    0    0  501  0.00000000000E+00  0.00000000000E+00 -0.80121382786E+03  0.80121382787E+03  0.50400001928E-02 0. -1.
    10030    2    1    2    0    0  0.00000000000E+00  0.00000000000E+00 -0.59815282586E+03  0.10042748299E+04  0.80671006624E+03 0.  0.
        5    1    3    3  502    0 -0.17414263510E+03  0.53560820772E+02  0.14887858969E+03  0.23533241032E+03  0.46999998093E+01 0.  1.
       -5    1    3    3    0  502  0.17414263510E+03 -0.53560820772E+02 -0.74703141554E+03  0.76894241962E+03  0.46999998093E+01 0. -1.
</event>
<event>
 5   0  0.1498375E-02  0.7991498E+03  0.7818609E-02  0.9561248E-01
       -1   -1    0    0    0  501  0.00000000000E+00  0.00000000000E+00  0.44537952665E+03  0.44537952668E+03  0.50400001928E-02 0.  1.
        1   -1    0    0  501    0  0.00000000000E+00  0.00000000000E+00 -0.35848104623E+03  0.35848104626E+03  0.50400001928E-02 0. -1.
    10030    2    1    2    0    0  0.00000000000E+00  0.00000000000E+00  0.86898480421E+02  0.80386057294E+03  0.79914984504E+03 0.  0.
        4    1    3    3  502    0  0.14417216135E+03  0.25977558784E+03  0.31221243405E+03  0.43098397305E+03  0.12699999809E+01 0.  1.
       -4    1    3    3    0  502 -0.14417216135E+03 -0.25977558784E+03 -0.22531395363E+03  0.37287659989E+03  0.12699999809E+01 0. -1.
</event>
<event>
 5   0  0.1471290E-02  0.8034466E+03  0.7818609E-02  0.9555042E-01
       -1   -1    0    0    0  501  0.00000000000E+00  0.00000000000E+00  0.83174793212E+03  0.83174793213E+03  0.50400001928E-02 0.  1.
        1   -1    0    0  501    0  0.00000000000E+00  0.00000000000E+00 -0.19402708576E+03  0.19402708582E+03  0.50400001928E-02 0. -1.
    10030    2    1    2    0    0  0.00000000000E+00  0.00000000000E+00  0.63772084636E+03  0.10257750180E+04  0.80344664389E+03 0.  0.
        2    1    3    3  502    0  0.24249085274E+03  0.29826905705E+03  0.46783426351E+03  0.60550403977E+03  0.25500000920E-02 0.  1.
       -2    1    3    3    0  502 -0.24249085274E+03 -0.29826905705E+03  0.16988658285E+03  0.42027097818E+03  0.25500000920E-02 0. -1.
</event>
<event>
 5   0  0.2460312E-02  0.7980440E+03  0.7818609E-02  0.9562853E-01
       -2   -1    0    0    0  501  0.00000000000E+00  0.00000000000E+00  0.10339968071E+03  0.10339968074E+03  0.25500000920E-02 0.  1.
        2   -1    0    0  501    0  0.00000000000E+00  0.00000000000E+00 -0.15398361966E+04  0.15398361966E+04  0.25500000920E-02 0. -1.
    10030    2    1    2    0    0  0.00000000000E+00  0.00000000000E+00 -0.14364365159E+04  0.16432358773E+04  0.79804403664E+03 0.  0.
        2    1    3    3  502    0 -0.29007831365E+03  0.10542239534E+03 -0.19747366117E+03  0.36640845562E+03  0.25500000920E-02 0.  1.
       -2    1    3    3    0  502  0.29007831365E+03 -0.10542239534E+03 -0.12389628547E+04  0.12768274217E+04  0.25500000920E-02 0. -1.
</event>
<event>
 5   0  0.2464780E-02  0.8001073E+03  0.7818609E-02  0.9559862E-01
        2   -1    0    0  501    0  0.00000000000E+00  0.00000000000E+00  0.11204967173E+04  0.11204967173E+04  0.25500000920E-02 0. -1.
       -2   -1    0    0    0  501  0.00000000000E+00  0.00000000000E+00 -0.14283213639E+03  0.14283213641E+03  0.25500000920E-02 0.  1.
    10030    2    1    2    0    0  0.00000000000E+00  0.00000000000E+00  0.97766458096E+03  0.12633288538E+04  0.80010734272E+03 0.  0.
        3    1    3    3  502    0 -0.35289715148E+03 -0.88791063987E+02  0.22640980566E+03  0.42858098753E+03  0.10100000352E+00 0. -1.
       -3    1    3    3    0  502  0.35289715148E+03  0.88791063987E+02  0.75125477529E+03  0.83474786623E+03  0.10100000352E+00 0.  1.
</event>
<event>
 5   0  0.2422031E-02  0.8040072E+03  0.7818609E-02  0.9554235E-01
        2   -1    0    0  501    0  0.00000000000E+00  0.00000000000E+00  0.38241369392E+03  0.38241369393E+03  0.25500000920E-02 0.  1.
       -2   -1    0    0    0  501  0.00000000000E+00  0.00000000000E+00 -0.42259702616E+03  0.42259702617E+03  0.25500000920E-02 0. -1.
    10030    2    1    2    0    0  0.00000000000E+00  0.00000000000E+00 -0.40183332234E+02  0.80501072010E+03  0.80400718858E+03 0.  0.
        4    1    3    3  502    0 -0.13883132465E+03 -0.21975559655E+03  0.28694825871E+03  0.38717899606E+03  0.12699999809E+01 0.  1.
       -4    1    3    3    0  502  0.13883132465E+03  0.21975559655E+03 -0.32713159094E+03  0.41783172403E+03  0.12699999809E+01 0. -1.
</event>
<event>
 5   0  0.1624094E-02  0.7992789E+03  0.7818609E-02  0.9561061E-01
       -1   -1    0    0    0  501  0.00000000000E+00  0.00000000000E+00  0.16717948005E+04  0.16717948005E+04  0.50400001928E-02 0. -1.
        1   -1    0    0  501    0  0.00000000000E+00  0.00000000000E+00 -0.95533069881E+02  0.95533070014E+02  0.50400001928E-02 0.  1.
    10030    2    1    2    0    0  0.00000000000E+00  0.00000000000E+00  0.15762617306E+04  0.17673278705E+04  0.79927889907E+03 0.  0.
        3    1    3    3  502    0 -0.85111915484E+02  0.38571553898E+03  0.65379237479E+03  0.76384880356E+03  0.10100000352E+00 0.  1.
       -3    1    3    3    0  502  0.85111915484E+02 -0.38571553898E+03  0.92246935579E+03  0.10034790669E+04  0.10100000352E+00 0. -1.
</event>
<event>
 5   0  0.2571778E-02  0.7549894E+03  0.7818609E-02  0.9627555E-01
       -2   -1    0    0    0  501  0.00000000000E+00  0.00000000000E+00  0.15083862192E+03  0.15083862194E+03  0.25500000920E-02 0.  1.
        2   -1    0    0  501    0  0.00000000000E+00  0.00000000000E+00 -0.94473306867E+03  0.94473306867E+03  0.25500000920E-02 0. -1.
    10030    2    1    2    0    0  0.00000000000E+00  0.00000000000E+00 -0.79389444675E+03  0.10955716906E+04  0.75498936197E+03 0.  0.
        1    1    3    3  502    0 -0.10035007037E+03  0.31788187439E+03 -0.13987884330E+03  0.36150396059E+03  0.50400001928E-02 0.  1.
       -1    1    3    3    0  502  0.10035007037E+03 -0.31788187439E+03 -0.65401560344E+03  0.73406773003E+03  0.50400001928E-02 0. -1.
</event>
<event>
 5   0  0.2454354E-02  0.8025271E+03  0.7818609E-02  0.9556366E-01
       -2   -1    0    0    0  501  0.00000000000E+00  0.00000000000E+00  0.91169485349E+02  0.91169485385E+02  0.25500000920E-02 0.  1.
        2   -1    0    0  501    0  0.00000000000E+00  0.00000000000E+00 -0.17660782193E+04  0.17660782193E+04  0.25500000920E-02 0. -1.
    10030    2    1    2    0    0  0.00000000000E+00  0.00000000000E+00 -0.16749087339E+04  0.18572477047E+04  0.80252711449E+03 0.  0.
        5    1    3    3  502    0 -0.59939870598E+02  0.39494803833E+03 -0.75044317435E+03  0.85015515583E+03  0.46999998093E+01 0. -1.
       -5    1    3    3    0  502  0.59939870598E+02 -0.39494803833E+03 -0.92446555959E+03  0.10070925488E+04  0.46999998093E+01 0.  1.
</event>
<event>
 5   0  0.1498375E-02  0.7226133E+03  0.7818609E-02  0.9679323E-01
       -1   -1    0    0    0  501  0.00000000000E+00  0.00000000000E+00  0.22316224028E+03  0.22316224034E+03  0.50400001928E-02 0. -1.
        1   -1    0    0  501    0  0.00000000000E+00  0.00000000000E+00 -0.58496674691E+03  0.58496674693E+03  0.50400001928E-02 0.  1.
    10030    2    1    2    0    0  0.00000000000E+00  0.00000000000E+00 -0.36180450663E+03  0.80812898727E+03  0.72261328458E+03 0.  0.
        4    1    3    3  502    0  0.68130861338E+02 -0.17593891749E+02 -0.57722722721E+03  0.58150171456E+03  0.12699999809E+01 0.  1.
       -4    1    3    3    0  502 -0.68130861338E+02  0.17593891749E+02  0.21542272059E+03  0.22662727271E+03  0.12699999809E+01 0. -1.
</event>
<event>
 5   0  0.1471290E-02  0.8003883E+03  0.7818609E-02  0.9559455E-01
       -1   -1    0    0    0  501  0.00000000000E+00  0.00000000000E+00  0.19875726582E+03  0.19875726588E+03  0.50400001928E-02 0. -1.
        1   -1    0    0  501    0  0.00000000000E+00  0.00000000000E+00 -0.80578368606E+03  0.80578368607E+03  0.50400001928E-02 0.  1.
    10030    2    1    2    0    0  0.00000000000E+00  0.00000000000E+00 -0.60702642023E+03  0.10045409520E+04  0.80038831157E+03 0.  0.
        2    1    3    3  502    0 -0.32800160982E+03 -0.33456629271E+01 -0.59124703664E+03  0.67614296406E+03  0.25500000920E-02 0.  1.
       -2    1    3    3    0  502  0.32800160982E+03  0.33456629271E+01 -0.15779383596E+02  0.32839798790E+03  0.25500000920E-02 0. -1.
</event>
<event>
 5   0  0.1471290E-02  0.8012822E+03  0.7818609E-02  0.9558163E-01
       -1   -1    0    0    0  501  0.00000000000E+00  0.00000000000E+00  0.22252011854E+03  0.22252011860E+03  0.50400001928E-02 0.  1.
        1   -1    0    0  501    0  0.00000000000E+00  0.00000000000E+00 -0.72134280666E+03  0.72134280668E+03  0.50400001928E-02 0. -1.
    10030    2    1    2    0    0  0.00000000000E+00  0.00000000000E+00 -0.49882268812E+03  0.94386292528E+03  0.80128218970E+03 0.  0.
        2    1    3    3  502    0 -0.21490889624E+03 -0.99128365015E+02 -0.63019973833E+03  0.67317455138E+03  0.25500000920E-02 0. -1.
       -2    1    3    3    0  502  0.21490889624E+03  0.99128365015E+02  0.13137705020E+03  0.27068837389E+03  0.25500000920E-02 0.  1.
</event>
<event>
 5   0  0.1624094E-02  0.8938287E+03  0.7818609E-02  0.9433329E-01
        1   -1    0    0  501    0  0.00000000000E+00  0.00000000000E+00  0.45746663895E+03  0.45746663898E+03  0.50400001928E-02 0.  1.
       -1   -1    0    0    0  501  0.00000000000E+00  0.00000000000E+00 -0.43660544136E+03  0.43660544139E+03  0.50400001928E-02 0. -1.
    10030    2    1    2    0    0  0.00000000000E+00  0.00000000000E+00  0.20861197596E+02  0.89407208037E+03  0.89382867224E+03 0.  0.
        3    1    3    3  502    0  0.12164968011E+03  0.22071246587E+03 -0.35874954344E+03  0.43842203683E+03  0.10100000352E+00 0. -1.
       -3    1    3    3    0  502 -0.12164968011E+03 -0.22071246587E+03  0.37961074104E+03  0.45565004353E+03  0.10100000352E+00 0.  1.
</event>
<event>
 5   0  0.1471290E-02  0.8051281E+03  0.7818609E-02  0.9552624E-01
        1   -1    0    0  501    0  0.00000000000E+00  0.00000000000E+00  0.61660594795E+03  0.61660594797E+03  0.50400001928E-02 0.  1.
       -1   -1    0    0    0  501  0.00000000000E+00  0.00000000000E+00 -0.26282231872E+03  0.26282231877E+03  0.50400001928E-02 0. -1.
    10030    2    1    2    0    0  0.00000000000E+00  0.00000000000E+00  0.35378362923E+03  0.87942826674E+03  0.80512807679E+03 0.  0.
        2    1    3    3  502    0  0.35090760470E+03 -0.80833893315E+01 -0.38419208403E+02  0.35309704587E+03  0.25500000920E-02 0.  1.
       -2    1    3    3    0  502 -0.35090760470E+03  0.80833893315E+01  0.39220283763E+03  0.52633122088E+03  0.25500000920E-02 0. -1.
</event>
<event>
 5   0  0.2460312E-02  0.8073018E+03  0.7818609E-02  0.9549508E-01
        2   -1    0    0  501    0  0.00000000000E+00  0.00000000000E+00  0.63890992474E+03  0.63890992475E+03  0.25500000920E-02 0.  1.
       -2   -1    0    0    0  501  0.00000000000E+00  0.00000000000E+00 -0.25501879923E+03  0.25501879925E+03  0.25500000920E-02 0. -1.
    10030    2    1    2    0    0  0.00000000000E+00  0.00000000000E+00  0.38389112551E+03  0.89392872399E+03  0.80730178207E+03 0.  0.
        2    1    3    3  502    0  0.18742304419E+03  0.30504889340E+03  0.39836744762E+03  0.53561072449E+03  0.25500000920E-02 0.  1.
       -2    1    3    3    0  502 -0.18742304419E+03 -0.30504889340E+03 -0.14476322109E+02  0.35831799950E+03  0.25500000920E-02 0. -1.
</event>
<event>
 5   0  0.2460312E-02  0.7830263E+03  0.7818609E-02  0.9584916E-01
        2   -1    0    0  501    0  0.00000000000E+00  0.00000000000E+00  0.30694923244E+03  0.30694923245E+03  0.25500000920E-02 0. -1.
       -2   -1    0    0    0  501  0.00000000000E+00  0.00000000000E+00 -0.49937425398E+03  0.49937425399E+03  0.25500000920E-02 0.  1.
    10030    2    1    2    0    0  0.00000000000E+00  0.00000000000E+00 -0.19242502154E+03  0.80632348645E+03  0.78302629322E+03 0.  0.
        2    1    3    3  502    0 -0.26822001793E+03  0.82473272041E+02 -0.37735335554E+03  0.47025458378E+03  0.25500000920E-02 0.  1.
       -2    1    3    3    0  502  0.26822001793E+03 -0.82473272041E+02  0.18492833400E+03  0.33606890267E+03  0.25500000920E-02 0. -1.
</event>
<event>
 5   0  0.2464780E-02  0.8176506E+03  0.7818609E-02  0.9534814E-01
        2   -1    0    0  501    0  0.00000000000E+00  0.00000000000E+00  0.11218030292E+04  0.11218030292E+04  0.25500000920E-02 0. -1.
       -2   -1    0    0    0  501  0.00000000000E+00  0.00000000000E+00 -0.14899060058E+03  0.14899060060E+03  0.25500000920E-02 0.  1.
    10030    2    1    2    0    0  0.00000000000E+00  0.00000000000E+00  0.97281242859E+03  0.12707936298E+04  0.81765055388E+03 0.  0.
        3    1    3    3  502    0 -0.12115279898E+03  0.21976817774E+02 -0.11948742430E+03  0.17157574417E+03  0.10100000352E+00 0.  1.
       -3    1    3    3    0  502  0.12115279898E+03 -0.21976817774E+02  0.10922998529E+04  0.10992178856E+04  0.10100000352E+00 0. -1.
</event>
<event>
 5   0  0.9919125E-03  0.8100873E+03  0.7818609E-02  0.9545530E-01
        3   -1    0    0  501    0  0.00000000000E+00  0.00000000000E+00  0.78797581900E+03  0.78797582548E+03  0.10100000352E+00 0. -1.
       -3   -1    0    0    0  501  0.00000000000E+00  0.00000000000E+00 -0.20820481388E+03  0.20820483838E+03  0.10100000352E+00 0.  1.
    10030    2    1    2    0    0  0.00000000000E+00  0.00000000000E+00  0.57977100512E+03  0.99618066386E+03  0.81008733891E+03 0.  0.
        3    1    3    3  502    0  0.25455950773E+03 -0.22150595045E+02 -0.96585550016E+02  0.27316656184E+03  0.10100000352E+00 0.  1.
       -3    1    3    3    0  502 -0.25455950773E+03  0.22150595045E+02  0.67635655513E+03  0.72301410201E+03  0.10100000352E+00 0. -1.
</event>
<event>
 5   0  0.1498375E-02  0.7928748E+03  0.7818609E-02  0.9570388E-01
       -1   -1    0    0    0  501  0.00000000000E+00  0.00000000000E+00  0.16483572846E+03  0.16483572854E+03  0.50400001928E-02 0. -1.
        1   -1    0    0  501    0  0.00000000000E+00  0.00000000000E+00 -0.95344995980E+03  0.95344995981E+03  0.50400001928E-02 0.  1.
    10030    2    1    2    0    0  0.00000000000E+00  0.00000000000E+00 -0.78861423134E+03  0.11182856884E+04  0.79287481667E+03 0.  0.
        4    1    3    3  502    0 -0.25086027666E+02  0.37261219802E+03 -0.20670629690E+03  0.42684688704E+03  0.12699999809E+01 0.  1.
       -4    1    3    3    0  502  0.25086027666E+02 -0.37261219802E+03 -0.58190793444E+03  0.69143880131E+03  0.12699999809E+01 0. -1.
</event>
<event>
 5   0  0.1471290E-02  0.8288039E+03  0.7818609E-02  0.9519236E-01
        1   -1    0    0  501    0  0.00000000000E+00  0.00000000000E+00  0.27437486798E+03  0.27437486802E+03  0.50400001928E-02 0. -1.
       -1   -1    0    0    0  501  0.00000000000E+00  0.00000000000E+00 -0.62589176830E+03  0.62589176832E+03  0.50400001928E-02 0.  1.
    10030    2    1    2    0    0  0.00000000000E+00  0.00000000000E+00 -0.35151690032E+03  0.90026663634E+03  0.82880388833E+03 0.  0.
        2    1    3    3  502    0 -0.36801737629E+03  0.11917417179E+01  0.31168672182E+02  0.36933683222E+03  0.25500000920E-02 0. -1.
       -2    1    3    3    0  502  0.36801737629E+03 -0.11917417179E+01 -0.38268557250E+03  0.53092980413E+03  0.25500000920E-02 0.  1.
</event>
<event>
 5   0  0.1471290E-02  0.8002956E+03  0.7818609E-02  0.9559589E-01
        1   -1    0    0  501    0  0.00000000000E+00  0.00000000000E+00  0.25057596762E+03  0.25057596767E+03  0.50400001928E-02 0.  1.
       -1   -1    0    0    0  501  0.00000000000E+00  0.00000000000E+00 -0.63900080785E+03  0.63900080787E+03  0.50400001928E-02 0. -1.
    10030    2    1    2    0    0  0.00000000000E+00  0.00000000000E+00 -0.38842484023E+03  0.88957677554E+03  0.80029555983E+03 0.  0.
        2    1    3    3  502    0  0.11724536376E+03  0.21084248182E+03  0.16064738491E+03  0.28984238777E+03  0.25500000920E-02 0.  1.
       -2    1    3    3    0  502 -0.11724536376E+03 -0.21084248182E+03 -0.54907222514E+03  0.59973438778E+03  0.25500000920E-02 0. -1.
</event>
<event>
 5   0  0.2464780E-02  0.8126432E+03  0.7818609E-02  0.9541895E-01
       -2   -1    0    0    0  501  0.00000000000E+00  0.00000000000E+00  0.13038003184E+03  0.13038003186E+03  0.25500000920E-02 0.  1.
        2   -1    0    0  501    0  0.00000000000E+00  0.00000000000E+00 -0.12662770497E+04  0.12662770497E+04  0.25500000920E-02 0. -1.
    10030    2    1    2    0    0  0.00000000000E+00  0.00000000000E+00 -0.11358970179E+04  0.13966570816E+04  0.81264319865E+03 0.  0.
        3    1    3    3  502    0  0.20976230795E+03 -0.27678868139E+03 -0.20545783638E+03  0.40351596339E+03  0.10100000352E+00 0.  1.
       -3    1    3    3    0  502 -0.20976230795E+03  0.27678868139E+03 -0.93043918151E+03  0.99314111821E+03  0.10100000352E+00 0. -1.
</event>
<event>
 5   0  0.2460312E-02  0.7995580E+03  0.7818609E-02  0.9560657E-01
        2   -1    0    0  501    0  0.00000000000E+00  0.00000000000E+00  0.44094957116E+03  0.44094957117E+03  0.25500000920E-02 0. -1.
       -2   -1    0    0    0  501  0.00000000000E+00  0.00000000000E+00 -0.36245242529E+03  0.36245242530E+03  0.25500000920E-02 0.  1.
    10030    2    1    2    0    0  0.00000000000E+00  0.00000000000E+00  0.78497145867E+02  0.80340199647E+03  0.79955798165E+03 0.  0.
        2    1    3    3  502    0 -0.45725703547E+02  0.15283737503E+03 -0.32908319180E+03  0.36571279757E+03  0.25500000920E-02 0.  1.
       -2    1    3    3    0  502  0.45725703547E+02 -0.15283737503E+03  0.40758033767E+03  0.43768919890E+03  0.25500000920E-02 0. -1.
</event>
<event>
 5   0  0.2460312E-02  0.8067320E+03  0.7818609E-02  0.9550324E-01
        2   -1    0    0  501    0  0.00000000000E+00  0.00000000000E+00  0.23366683110E+04  0.23366683110E+04  0.25500000920E-02 0.  1.
       -2   -1    0    0    0  501  0.00000000000E+00  0.00000000000E+00 -0.69630820368E+02  0.69630820415E+02  0.25500000920E-02 0. -1.
    10030    2    1    2    0    0  0.00000000000E+00  0.00000000000E+00  0.22670374906E+04  0.24062991314E+04  0.80673200378E+03 0.  0.
        2    1    3    3  502    0  0.30881401535E+03 -0.12452509495E+03  0.45444433020E+03  0.56337575792E+03  0.25500000920E-02 0. -1.
       -2    1    3    3    0  502 -0.30881401535E+03  0.12452509495E+03  0.18125931604E+04  0.18429233735E+04  0.25500000920E-02 0.  1.
</event>
<event>
 5   0  0.1471290E-02  0.7971966E+03  0.7818609E-02  0.9564084E-01
        1   -1    0    0  501    0  0.00000000000E+00  0.00000000000E+00  0.22646008659E+04  0.22646008659E+04  0.50400001928E-02 0.  1.
       -1   -1    0    0    0  501  0.00000000000E+00  0.00000000000E+00 -0.70158319334E+02  0.70158319515E+02  0.50400001928E-02 0. -1.
    10030    2    1    2    0    0  0.00000000000E+00  0.00000000000E+00  0.21944425465E+04  0.23347591854E+04  0.79719656529E+03 0.  0.
        2    1    3    3  502    0 -0.23242889493E+03 -0.81124830139E+02  0.17909848526E+03  0.30443504511E+03  0.25500000920E-02 0. -1.
       -2    1    3    3    0  502  0.23242889493E+03  0.81124830139E+02  0.20153440613E+04  0.20303241403E+04  0.25500000920E-02 0.  1.
</event>
<event>
 5   0  0.1509629E-02  0.8026138E+03  0.7818609E-02  0.9556241E-01
       -1   -1    0    0    0  501  0.00000000000E+00  0.00000000000E+00  0.12499790121E+03  0.12499790131E+03  0.50400001928E-02 0.  1.
        1   -1    0    0  501    0  0.00000000000E+00  0.00000000000E+00 -0.12883995945E+04  0.12883995946E+04  0.50400001928E-02 0. -1.
    10030    2    1    2    0    0  0.00000000000E+00  0.00000000000E+00 -0.11634016933E+04  0.14133974959E+04  0.80261384317E+03 0.  0.
        5    1    3    3  502    0  0.13604278222E+03  0.18903298697E+03 -0.11571551719E+04  0.11803691332E+04  0.46999998093E+01 0. -1.
       -5    1    3    3    0  502 -0.13604278222E+03 -0.18903298697E+03 -0.62465213912E+01  0.23302836262E+03  0.46999998093E+01 0.  1.
</event>
<event>
 5   0  0.2571778E-02  0.8353454E+03  0.7818609E-02  0.9510220E-01
        2   -1    0    0  501    0  0.00000000000E+00  0.00000000000E+00  0.57590484804E+03  0.57590484805E+03  0.25500000920E-02 0. -1.
       -2   -1    0    0    0  501  0.00000000000E+00  0.00000000000E+00 -0.30291546712E+03  0.30291546713E+03  0.25500000920E-02 0.  1.
    10030    2    1    2    0    0  0.00000000000E+00  0.00000000000E+00  0.27298938092E+03  0.87882031518E+03  0.83534540418E+03 0.  0.
        1    1    3    3  502    0 -0.52853673586E+02  0.52685893268E+02 -0.29584451199E+03  0.30511192940E+03  0.50400001928E-02 0.  1.
       -1    1    3    3    0  502  0.52853673586E+02 -0.52685893268E+02  0.56883389291E+03  0.57370838578E+03  0.50400001928E-02 0. -1.
</event>
<event>
 5   0  0.2464780E-02  0.7927942E+03  0.7818609E-02  0.9570506E-01
        2   -1    0    0  501    0  0.00000000000E+00  0.00000000000E+00  0.77020545339E+03  0.77020545340E+03  0.25500000920E-02 0. -1.
       -2   -1    0    0    0  501  0.00000000000E+00  0.00000000000E+00 -0.20401137782E+03  0.20401137784E+03  0.25500000920E-02 0.  1.
    10030    2    1    2    0    0  0.00000000000E+00  0.00000000000E+00  0.56619407557E+03  0.97421683124E+03  0.79279423753E+03 0.  0.
        3    1    3    3  502    0  0.69822933799E+02 -0.37900421659E+03  0.16906479402E+03  0.42083530395E+03  0.10100000352E+00 0.  1.
       -3    1    3    3    0  502 -0.69822933799E+02  0.37900421659E+03  0.39712928155E+03  0.55338152728E+03  0.10100000352E+00 0. -1.
</event>
<event>
 5   0  0.9919125E-03  0.7974952E+03  0.7818609E-02  0.9563650E-01
        4   -1    0    0  501    0  0.00000000000E+00  0.00000000000E+00  0.20438130266E+03  0.20438524843E+03  0.12699999809E+01 0.  1.
       -4   -1    0    0    0  501  0.00000000000E+00  0.00000000000E+00 -0.77794389065E+03  0.77794492730E+03  0.12699999809E+01 0. -1.
    10030    2    1    2    0    0  0.00000000000E+00  0.00000000000E+00 -0.57356258800E+03  0.98233017573E+03  0.79749516098E+03 0.  0.
        4    1    3    3  502    0 -0.11522696193E+03 -0.37967713434E+03 -0.33552639623E+03  0.51962636054E+03  0.12699999809E+01 0.  1.
       -4    1    3    3    0  502  0.11522696193E+03  0.37967713434E+03 -0.23803619177E+03  0.46270381519E+03  0.12699999809E+01 0. -1.
</event>
<event>
 5   0  0.2464780E-02  0.8090114E+03  0.7818609E-02  0.9547064E-01
        2   -1    0    0  501    0  0.00000000000E+00  0.00000000000E+00  0.13737383947E+04  0.13737383947E+04  0.25500000920E-02 0.  1.
       -2   -1    0    0    0  501  0.00000000000E+00  0.00000000000E+00 -0.11910917272E+03  0.11910917275E+03  0.25500000920E-02 0. -1.
    10030    2    1    2    0    0  0.00000000000E+00  0.00000000000E+00  0.12546292220E+04  0.14928475675E+04  0.80901135654E+03 0.  0.
        3    1    3    3  502    0 -0.21393967504E+03 -0.25574498624E+03  0.20471404142E+03  0.39125890596E+03  0.10100000352E+00 0. -1.
       -3    1    3    3    0  502  0.21393967504E+03  0.25574498624E+03  0.10499151806E+04  0.11015886615E+04  0.10100000352E+00 0.  1.
</event>
<event>
 5   0  0.2460312E-02  0.7844456E+03  0.7818609E-02  0.9582808E-01
        2   -1    0    0  501    0  0.00000000000E+00  0.00000000000E+00  0.87131352038E+03  0.87131352038E+03  0.25500000920E-02 0. -1.
       -2   -1    0    0    0  501  0.00000000000E+00  0.00000000000E+00 -0.17655954962E+03  0.17655954964E+03  0.25500000920E-02 0.  1.
    10030    2    1    2    0    0  0.00000000000E+00  0.00000000000E+00  0.69475397076E+03  0.10478730700E+04  0.78444559467E+03 0.  0.
        2    1    3    3  502    0 -0.36875161708E+03  0.11905571049E+03  0.42848524279E+03  0.57771240301E+03  0.25500000920E-02 0. -1.
       -2    1    3    3    0  502  0.36875161708E+03 -0.11905571049E+03  0.26626872797E+03  0.47016066701E+03  0.25500000920E-02 0.  1.
</event>
<event>
 5   0  0.2464780E-02  0.7984548E+03  0.7818609E-02  0.9562256E-01
        2   -1    0    0  501    0  0.00000000000E+00  0.00000000000E+00  0.11521047932E+04  0.11521047932E+04  0.25500000920E-02 0.  1.
       -2   -1    0    0    0  501  0.00000000000E+00  0.00000000000E+00 -0.13834028406E+03  0.13834028408E+03  0.25500000920E-02 0. -1.
    10030    2    1    2    0    0  0.00000000000E+00  0.00000000000E+00  0.10137645092E+04  0.12904450773E+04  0.79845476860E+03 0.  0.
        3    1    3    3  502    0  0.88193465899E+02  0.34691893094E+03  0.22117204071E+03  0.42077061906E+03  0.10100000352E+00 0. -1.
       -3    1    3    3    0  502 -0.88193465899E+02 -0.34691893094E+03  0.79259246847E+03  0.86967445826E+03  0.10100000352E+00 0.  1.
</event>
<event>
 5   0  0.1624094E-02  0.7977212E+03  0.7818609E-02  0.9563321E-01
       -1   -1    0    0    0  501  0.00000000000E+00  0.00000000000E+00  0.18802505232E+03  0.18802505239E+03  0.50400001928E-02 0. -1.
        1   -1    0    0  501    0  0.00000000000E+00  0.00000000000E+00 -0.84610956245E+03  0.84610956246E+03  0.50400001928E-02 0.  1.
    10030    2    1    2    0    0  0.00000000000E+00  0.00000000000E+00 -0.65808451013E+03  0.10341346148E+04  0.79772124151E+03 0.  0.
        3    1    3    3  502    0  0.24555722480E+03  0.25634118240E+03 -0.56482543396E+03  0.66711088546E+03  0.10100000352E+00 0.  1.
       -3    1    3    3    0  502 -0.24555722480E+03 -0.25634118240E+03 -0.93259076170E+02  0.36702372939E+03  0.10100000352E+00 0. -1.
</event>
<event>
 5   0  0.1509629E-02  0.7533131E+03  0.7818609E-02  0.9630167E-01
        1   -1    0    0  501    0  0.00000000000E+00  0.00000000000E+00  0.71582497409E+03  0.71582497410E+03  0.50400001928E-02 0. -1.
       -1   -1    0    0    0  501  0.00000000000E+00  0.00000000000E+00 -0.19819112838E+03  0.19819112845E+03  0.50400001928E-02 0.  1.
    10030    2    1    2    0    0  0.00000000000E+00  0.00000000000E+00  0.51763384570E+03  0.91401610255E+03  0.75331310722E+03 0.  0.
        5    1    3    3  502    0 -0.53385341745E+02  0.28173375826E+03 -0.37454303242E+02  0.28922105747E+03  0.46999998093E+01 0. -1.
       -5    1    3    3    0  502  0.53385341745E+02 -0.28173375826E+03  0.55508814894E+03  0.62479504508E+03  0.46999998093E+01 0.  1.
</event>
<event>
 5   0  0.2571778E-02  0.8235683E+03  0.7818609E-02  0.9526516E-01
       -2   -1    0    0    0  501  0.00000000000E+00  0.00000000000E+00  0.34861769159E+03  0.34861769160E+03  0.25500000920E-02 0. -1.
        2   -1    0    0  501    0  0.00000000000E+00  0.00000000000E+00 -0.48639585737E+03  0.48639585737E+03  0.25500000920E-02 0.  1.
    10030    2    1    2    0    0  0.00000000000E+00  0.00000000000E+00 -0.13777816578E+03  0.83501354897E+03  0.82356833596E+03 0.  0.
        1    1    3    3  502    0  0.24217581410E+03  0.26617819259E+03  0.13405818414E+03  0.38402024934E+03  0.50400001928E-02 0. -1.
       -1    1    3    3    0  502 -0.24217581410E+03 -0.26617819259E+03 -0.27183634992E+03  0.45099329963E+03  0.50400001928E-02 0.  1.
</event>
<event>
 5   0  0.1471290E-02  0.8025854E+03  0.7818609E-02  0.9556282E-01
        1   -1    0    0  501    0  0.00000000000E+00  0.00000000000E+00  0.24570125092E+03  0.24570125097E+03  0.50400001928E-02 0. -1.
       -1   -1    0    0    0  501  0.00000000000E+00  0.00000000000E+00 -0.65541312529E+03  0.65541312531E+03  0.50400001928E-02 0.  1.
    10030    2    1    2    0    0  0.00000000000E+00  0.00000000000E+00 -0.40971187438E+03  0.90111437629E+03  0.80258538433E+03 0.  0.
        2    1    3    3  502    0 -0.39072326129E+03 -0.83325925782E+02 -0.24728318509E+03  0.46984768857E+03  0.25500000920E-02 0.  1.
       -2    1    3    3    0  502  0.39072326129E+03  0.83325925782E+02 -0.16242868929E+03  0.43126668772E+03  0.25500000920E-02 0. -1.
</event>
<event>
 5   0  0.2460312E-02  0.7923665E+03  0.7818609E-02  0.9571133E-01
        2   -1    0    0  501    0  0.00000000000E+00  0.00000000000E+00  0.43079345392E+03  0.43079345393E+03  0.25500000920E-02 0. -1.
       -2   -1    0    0    0  501  0.00000000000E+00  0.00000000000E+00 -0.36435361937E+03  0.36435361938E+03  0.25500000920E-02 0.  1.
    10030    2    1    2    0    0  0.00000000000E+00  0.00000000000E+00  0.66439834555E+02  0.79514707330E+03  0.79236646608E+03 0.  0.
        2    1    3    3  502    0 -0.18327727526E+03 -0.30924256976E+03 -0.13391673161E+03  0.38360815632E+03  0.25500000920E-02 0.  1.
       -2    1    3    3    0  502  0.18327727526E+03  0.30924256976E+03  0.20035656617E+03  0.41153891699E+03  0.25500000920E-02 0. -1.
</event>
<event>
 5   0  0.1523811E-02  0.7972013E+03  0.7818609E-02  0.9564077E-01
        1   -1    0    0  501    0  0.00000000000E+00  0.00000000000E+00  0.88495497503E+02  0.88495497647E+02  0.50400001928E-02 0.  1.
       -1   -1    0    0    0  501  0.00000000000E+00  0.00000000000E+00 -0.17953733682E+04  0.17953733682E+04  0.50400001928E-02 0. -1.
    10030    2    1    2    0    0  0.00000000000E+00  0.00000000000E+00 -0.17068778707E+04  0.18838688659E+04  0.79720125330E+03 0.  0.
        1    1    3    3  502    0 -0.19761836012E+03 -0.30399666304E+03 -0.12447125485E+04  0.12964475754E+04  0.50400001928E-02 0. -1.
       -1    1    3    3    0  502  0.19761836012E+03  0.30399666304E+03 -0.46216532224E+03  0.58742129048E+03  0.50400001928E-02 0.  1.
</event>
<event>
 5   0  0.2422031E-02  0.8112419E+03  0.7818609E-02  0.9543886E-01
       -2   -1    0    0    0  501  0.00000000000E+00  0.00000000000E+00  0.77460340662E+02  0.77460340704E+02  0.25500000920E-02 0. -1.
        2   -1    0    0  501    0  0.00000000000E+00  0.00000000000E+00 -0.21240333618E+04  0.21240333618E+04  0.25500000920E-02 0.  1.
    10030    2    1    2    0    0  0.00000000000E+00  0.00000000000E+00 -0.20465730212E+04  0.22014937025E+04  0.81124188214E+03 0.  0.
        4    1    3    3  502    0 -0.13875551968E+03  0.35826013123E+03 -0.13763150816E+04  0.14289325500E+04  0.12699999809E+01 0. -1.
       -4    1    3    3    0  502  0.13875551968E+03 -0.35826013123E+03 -0.67025793961E+03  0.77256115252E+03  0.12699999809E+01 0.  1.
</event>
<event>
 5   0  0.1498375E-02  0.7734760E+03  0.7818609E-02  0.9599223E-01
        1   -1    0    0  501    0  0.00000000000E+00  0.00000000000E+00  0.25752685730E+03  0.25752685735E+03  0.50400001928E-02 0. -1.
       -1   -1    0    0    0  501  0.00000000000E+00  0.00000000000E+00 -0.58077930275E+03  0.58077930277E+03  0.50400001928E-02 0.  1.
    10030    2    1    2    0    0  0.00000000000E+00  0.00000000000E+00 -0.32325244544E+03  0.83830616012E+03  0.77347596899E+03 0.  0.
        4    1    3    3  502    0  0.36990625791E+03 -0.10424146073E+03 -0.11478660503E+03  0.40109163463E+03  0.12699999809E+01 0. -1.
       -4    1    3    3    0  502 -0.36990625791E+03  0.10424146073E+03 -0.20846584042E+03  0.43721452549E+03  0.12699999809E+01 0.  1.
</event>
<event>
 5   0  0.2454354E-02  0.8018359E+03  0.7818609E-02  0.9557364E-01
        2   -1    0    0  501    0  0.00000000000E+00  0.00000000000E+00  0.54391860436E+03  0.54391860436E+03  0.25500000920E-02 0. -1.
       -2   -1    0    0    0  501  0.00000000000E+00  0.00000000000E+00 -0.29551331164E+03  0.29551331166E+03  0.25500000920E-02 0.  1.
    10030    2    1    2    0    0  0.00000000000E+00  0.00000000000E+00  0.24840529271E+03  0.83943191602E+03  0.80183586362E+03 0.  0.
        5    1    3    3  502    0  0.68876776102E+02  0.34536486999E+03 -0.76330811717E+02  0.36037395373E+03  0.46999998093E+01 0.  1.
       -5    1    3    3    0  502 -0.68876776102E+02 -0.34536486999E+03  0.32473610443E+03  0.47905796229E+03  0.46999998093E+01 0. -1.
</event>
<event>
 5   0  0.1471290E-02  0.7996790E+03  0.7818609E-02  0.9560482E-01
        1   -1    0    0  501    0  0.00000000000E+00  0.00000000000E+00  0.94592609937E+03  0.94592609939E+03  0.50400001928E-02 0. -1.
       -1   -1    0    0    0  501  0.00000000000E+00  0.00000000000E+00 -0.16901069341E+03  0.16901069348E+03  0.50400001928E-02 0.  1.
    10030    2    1    2    0    0  0.00000000000E+00  0.00000000000E+00  0.77691540596E+03  0.11149367929E+04  0.79967900065E+03 0.  0.
        2    1    3    3  502    0 -0.29825700951E+02  0.38134509928E+02 -0.16490919593E+03  0.17186871790E+03  0.25500000920E-02 0.  1.
       -2    1    3    3    0  502  0.29825700951E+02 -0.38134509928E+02  0.94182460189E+03  0.94306807497E+03  0.25500000920E-02 0. -1.
</event>
<event>
 5   0  0.1624094E-02  0.8591795E+03  0.7818609E-02  0.9478099E-01
       -1   -1    0    0    0  501  0.00000000000E+00  0.00000000000E+00  0.22367401643E+03  0.22367401648E+03  0.50400001928E-02 0. -1.
        1   -1    0    0  501    0  0.00000000000E+00  0.00000000000E+00 -0.82507273285E+03  0.82507273287E+03  0.50400001928E-02 0.  1.
    10030    2    1    2    0    0  0.00000000000E+00  0.00000000000E+00 -0.60139871643E+03  0.10487467494E+04  0.85917945050E+03 0.  0.
        3    1    3    3  502    0 -0.12344230390E+03 -0.10414050612E+03 -0.78660523949E+03  0.80301373612E+03  0.10100000352E+00 0.  1.
       -3    1    3    3    0  502  0.12344230390E+03  0.10414050612E+03  0.18520652306E+03  0.24573301323E+03  0.10100000352E+00 0. -1.
</event>
<event>
 5   0  0.2571778E-02  0.8141943E+03  0.7818609E-02  0.9539696E-01
       -2   -1    0    0    0  501  0.00000000000E+00  0.00000000000E+00  0.28695260749E+03  0.28695260750E+03  0.25500000920E-02 0. -1.
        2   -1    0    0  501    0  0.00000000000E+00  0.00000000000E+00 -0.57754522738E+03  0.57754522739E+03  0.25500000920E-02 0.  1.
    10030    2    1    2    0    0  0.00000000000E+00  0.00000000000E+00 -0.29059261989E+03  0.86449783489E+03  0.81419434768E+03 0.  0.
        1    1    3    3  502    0  0.29289134869E+03 -0.14328386220E+03 -0.40410255181E+03  0.51924414269E+03  0.50400001928E-02 0.  1.
       -1    1    3    3    0  502 -0.29289134869E+03  0.14328386220E+03  0.11350993192E+03  0.34525369220E+03  0.50400001928E-02 0. -1.
</event>
<event>
 5   0  0.1624094E-02  0.7998524E+03  0.7818609E-02  0.9560231E-01
        1   -1    0    0  501    0  0.00000000000E+00  0.00000000000E+00  0.54357014102E+03  0.54357014104E+03  0.50400001928E-02 0. -1.
       -1   -1    0    0    0  501  0.00000000000E+00  0.00000000000E+00 -0.29424163694E+03  0.29424163699E+03  0.50400001928E-02 0.  1.
    10030    2    1    2    0    0  0.00000000000E+00  0.00000000000E+00  0.24932850408E+03  0.83781177803E+03  0.79985240667E+03 0.  0.
        3    1    3    3  502    0 -0.28157998002E+03  0.87487768432E+02  0.40767096429E+03  0.50312724047E+03  0.10100000352E+00 0. -1.
       -3    1    3    3    0  502  0.28157998002E+03 -0.87487768432E+02 -0.15834246022E+03  0.33468453756E+03  0.10100000352E+00 0.  1.
</event>
<event>
 5   0  0.2571778E-02  0.8017478E+03  0.7818609E-02  0.9557491E-01
        2   -1    0    0  501    0  0.00000000000E+00  0.00000000000E+00  0.13665675602E+04  0.13665675602E+04  0.25500000920E-02 0.  1.
       -2   -1    0    0    0  501  0.00000000000E+00  0.00000000000E+00 -0.11759381040E+03  0.11759381043E+03  0.25500000920E-02 0. -1.
    10030    2    1    2    0    0  0.00000000000E+00  0.00000000000E+00  0.12489737498E+04  0.14841613706E+04  0.80174780721E+03 0.  0.
        1    1    3    3  502    0  0.16294949973E+03 -0.13651024796E+03  0.12536415922E+04  0.12715364049E+04  0.50400001928E-02 0.  1.
       -1    1    3    3    0  502 -0.16294949973E+03  0.13651024796E+03 -0.46678424299E+01  0.21262496570E+03  0.50400001928E-02 0. -1.
</event>
<event>
 5   0  0.1624094E-02  0.7942030E+03  0.7818609E-02  0.9568446E-01
        1   -1    0    0  501    0  0.00000000000E+00  0.00000000000E+00  0.50734156110E+03  0.50734156113E+03  0.50400001928E-02 0. -1.
       -1   -1    0    0    0  501  0.00000000000E+00  0.00000000000E+00 -0.31081547823E+03  0.31081547827E+03  0.50400001928E-02 0.  1.
    10030    2    1    2    0    0  0.00000000000E+00  0.00000000000E+00  0.19652608287E+03  0.81815703940E+03  0.79420302182E+03 0.  0.
        3    1    3    3  502    0  0.11470942963E+03 -0.36062449525E+02  0.48813627061E+03  0.50272833857E+03  0.10100000352E+00 0. -1.
       -3    1    3    3    0  502 -0.11470942963E+03  0.36062449525E+02 -0.29161018774E+03  0.31542870083E+03  0.10100000352E+00 0.  1.
</event>
<event>
 5   0  0.1509629E-02  0.8015248E+03  0.7818609E-02  0.9557813E-01
       -1   -1    0    0    0  501  0.00000000000E+00  0.00000000000E+00  0.30933469295E+03  0.30933469299E+03  0.50400001928E-02 0.  1.
        1   -1    0    0  501    0  0.00000000000E+00  0.00000000000E+00 -0.51921270764E+03  0.51921270766E+03  0.50400001928E-02 0. -1.
    10030    2    1    2    0    0  0.00000000000E+00  0.00000000000E+00 -0.20987801469E+03  0.82854740065E+03  0.80152480565E+03 0.  0.
        5    1    3    3  502    0  0.12811455452E+03  0.34365573727E+03 -0.27186320011E+03  0.45655700017E+03  0.46999998093E+01 0. -1.
       -5    1    3    3    0  502 -0.12811455452E+03 -0.34365573727E+03  0.61985185418E+02  0.37199040048E+03  0.46999998093E+01 0.  1.
</event>
<event>
 5   0  0.2422031E-02  0.8041948E+03  0.7818609E-02  0.9553965E-01
       -2   -1    0    0    0  501  0.00000000000E+00  0.00000000000E+00  0.10043341311E+03  0.10043341314E+03  0.25500000920E-02 0. -1.
        2   -1    0    0  501    0  0.00000000000E+00  0.00000000000E+00 -0.16098459734E+04  0.16098459734E+04  0.25500000920E-02 0.  1.
    10030    2    1    2    0    0  0.00000000000E+00  0.00000000000E+00 -0.15094125603E+04  0.17102793865E+04  0.80419481647E+03 0.  0.
        4    1    3    3  502    0 -0.29621817788E+03  0.60931455992E+02 -0.19113993090E+03  0.35776240344E+03  0.12699999809E+01 0. -1.
       -4    1    3    3    0  502  0.29621817788E+03 -0.60931455992E+02 -0.13182726294E+04  0.13525169831E+04  0.12699999809E+01 0.  1.
</event>
<event>
 5   0  0.2460312E-02  0.7929234E+03  0.7818609E-02  0.9570317E-01
       -2   -1    0    0    0  501  0.00000000000E+00  0.00000000000E+00  0.13869232904E+04  0.13869232904E+04  0.25500000920E-02 0.  1.
        2   -1    0    0  501    0  0.00000000000E+00  0.00000000000E+00 -0.11333135006E+03  0.11333135009E+03  0.25500000920E-02 0. -1.
    10030    2    1    2    0    0  0.00000000000E+00  0.00000000000E+00  0.12735919403E+04  0.15002546405E+04  0.79292342368E+03 0.  0.
        2    1    3    3  502    0 -0.10940538853E+03 -0.56543591282E+02  0.13498149716E+04  0.13554214010E+04  0.25500000920E-02 0.  1.
       -2    1    3    3    0  502  0.10940538853E+03  0.56543591282E+02 -0.76223031271E+02  0.14483323947E+03  0.25500000920E-02 0. -1.
</event>
<event>
 5   0  0.1498375E-02  0.7600881E+03  0.7818609E-02  0.9619655E-01
       -1   -1    0    0    0  501  0.00000000000E+00  0.00000000000E+00  0.10802403914E+04  0.10802403914E+04  0.50400001928E-02 0.  1.
        1   -1    0    0  501    0  0.00000000000E+00  0.00000000000E+00 -0.13370493538E+03  0.13370493547E+03  0.50400001928E-02 0. -1.
    10030    2    1    2    0    0  0.00000000000E+00  0.00000000000E+00  0.94653545599E+03  0.12139453268E+04  0.76008807854E+03 0.  0.
        4    1    3    3  502    0 -0.40775468612E+02  0.13485744922E+03 -0.90453067212E+02  0.16742921106E+03  0.12699999809E+01 0. -1.
       -4    1    3    3    0  502  0.40775468612E+02 -0.13485744922E+03  0.10369885232E+04  0.10465161158E+04  0.12699999809E+01 0.  1.
</event>
<event>
 5   0  0.9919125E-03  0.7920549E+03  0.7818609E-02  0.9571589E-01
        3   -1    0    0  501    0  0.00000000000E+00  0.00000000000E+00  0.22789061535E+03  0.22789063773E+03  0.10100000352E+00 0. -1.
       -3   -1    0    0    0  501  0.00000000000E+00  0.00000000000E+00 -0.68821500983E+03  0.68821501725E+03  0.10100000352E+00 0.  1.
    10030    2    1    2    0    0  0.00000000000E+00  0.00000000000E+00 -0.46032439448E+03  0.91610565498E+03  0.79205493681E+03 0.  0.
        1    1    3    3  502    0 -0.53517380360E+00 -0.49847983988E+02 -0.68457159093E+03  0.68638427361E+03  0.50400001928E-02 0.  1.
       -1    1    3    3    0  502  0.53517380360E+00  0.49847983988E+02  0.22424719645E+03  0.22972138137E+03  0.50400001928E-02 0. -1.
</event>
<event>
 5   0  0.2454354E-02  0.8130342E+03  0.7818609E-02  0.9541340E-01
       -2   -1    0    0    0  501  0.00000000000E+00  0.00000000000E+00  0.17643122259E+03  0.17643122261E+03  0.25500000920E-02 0.  1.
        2   -1    0    0  501    0  0.00000000000E+00  0.00000000000E+00 -0.93666037748E+03  0.93666037748E+03  0.25500000920E-02 0. -1.
    10030    2    1    2    0    0  0.00000000000E+00  0.00000000000E+00 -0.76022915489E+03  0.11130916001E+04  0.81303415811E+03 0.  0.
        5    1    3    3  502    0  0.18011731380E+03  0.86437107605E+02 -0.86476996330E+03  0.88756002598E+03  0.46999998093E+01 0. -1.
       -5    1    3    3    0  502 -0.18011731380E+03 -0.86437107605E+02  0.10454080841E+03  0.22553157411E+03  0.46999998093E+01 0.  1.
</event>
<event>
 5   0  0.1498375E-02  0.7964672E+03  0.7818609E-02  0.9565145E-01
       -1   -1    0    0    0  501  0.00000000000E+00  0.00000000000E+00  0.35133433427E+03  0.35133433431E+03  0.50400001928E-02 0.  1.
        1   -1    0    0  501    0  0.00000000000E+00  0.00000000000E+00 -0.45139341225E+03  0.45139341227E+03  0.50400001928E-02 0. -1.
    10030    2    1    2    0    0  0.00000000000E+00  0.00000000000E+00 -0.10005907798E+03  0.80272774658E+03  0.79646720965E+03 0.  0.
        4    1    3    3  502    0 -0.17537986462E+03 -0.28535846295E+03  0.16707220089E+03  0.37430239446E+03  0.12699999809E+01 0. -1.
       -4    1    3    3    0  502  0.17537986462E+03  0.28535846295E+03 -0.26713127886E+03  0.42842535212E+03  0.12699999809E+01 0.  1.
</event>
<event>
 5   0  0.2422031E-02  0.8053670E+03  0.7818609E-02  0.9552281E-01
        2   -1    0    0  501    0  0.00000000000E+00  0.00000000000E+00  0.93520650376E+03  0.93520650376E+03  0.25500000920E-02 0.  1.
       -2   -1    0    0    0  501  0.00000000000E+00  0.00000000000E+00 -0.17338845814E+03  0.17338845816E+03  0.25500000920E-02 0. -1.
    10030    2    1    2    0    0  0.00000000000E+00  0.00000000000E+00  0.76181804562E+03  0.11085949619E+04  0.80536703121E+03 0.  0.
        4    1    3    3  502    0 -0.31776572334E+03  0.16220179372E+03  0.63794392481E+03  0.73092991519E+03  0.12699999809E+01 0.  1.
       -4    1    3    3    0  502  0.31776572334E+03 -0.16220179372E+03  0.12387412081E+03  0.37766504673E+03  0.12699999809E+01 0. -1.
</event>
<event>
 5   0  0.1471290E-02  0.8149653E+03  0.7818609E-02  0.9538605E-01
        1   -1    0    0  501    0  0.00000000000E+00  0.00000000000E+00  0.46944752916E+03  0.46944752919E+03  0.50400001928E-02 0.  1.
       -1   -1    0    0    0  501  0.00000000000E+00  0.00000000000E+00 -0.35369685998E+03  0.35369686001E+03  0.50400001928E-02 0. -1.
    10030    2    1    2    0    0  0.00000000000E+00  0.00000000000E+00  0.11575066918E+03  0.82314438920E+03  0.81496531709E+03 0.  0.
        2    1    3    3  502    0  0.13543659910E+03 -0.35847516442E+03  0.19781036336E+03  0.43124987622E+03  0.25500000920E-02 0.  1.
       -2    1    3    3    0  502 -0.13543659910E+03  0.35847516442E+03 -0.82059694175E+02  0.39189451298E+03  0.25500000920E-02 0. -1.
</event>
<event>
 5   0  0.1471290E-02  0.8206150E+03  0.7818609E-02  0.9530648E-01
        1   -1    0    0  501    0  0.00000000000E+00  0.00000000000E+00  0.11506154874E+03  0.11506154885E+03  0.50400001928E-02 0.  1.
       -1   -1    0    0    0  501  0.00000000000E+00  0.00000000000E+00 -0.14631495091E+04  0.14631495091E+04  0.50400001928E-02 0. -1.
    10030    2    1    2    0    0  0.00000000000E+00  0.00000000000E+00 -0.13480879603E+04  0.15782110579E+04  0.82061500997E+03 0.  0.
        2    1    3    3  502    0 -0.12756467532E+03  0.72468979553E+02  0.62891890143E+02  0.15962421257E+03  0.25500000920E-02 0.  1.
       -2    1    3    3    0  502  0.12756467532E+03 -0.72468979553E+02 -0.14109798505E+04  0.14185868453E+04  0.25500000920E-02 0. -1.
</event>
<event>
 5   0  0.2460312E-02  0.8053048E+03  0.7818609E-02  0.9552370E-01
        2   -1    0    0  501    0  0.00000000000E+00  0.00000000000E+00  0.71722480820E+03  0.71722480820E+03  0.25500000920E-02 0.  1.
       -2   -1    0    0    0  501  0.00000000000E+00  0.00000000000E+00 -0.22605038897E+03  0.22605038898E+03  0.25500000920E-02 0. -1.
    10030    2    1    2    0    0  0.00000000000E+00  0.00000000000E+00  0.49117441923E+03  0.94327519719E+03  0.80530477927E+03 0.  0.
        2    1    3    3  502    0 -0.67887187508E+02  0.13235469645E+03 -0.19268713706E+03  0.24342302417E+03  0.25500000920E-02 0. -1.
       -2    1    3    3    0  502  0.67887187508E+02 -0.13235469645E+03  0.68386155629E+03  0.69985217302E+03  0.25500000920E-02 0.  1.
</event>
<event>
 5   0  0.1509629E-02  0.8388491E+03  0.7818609E-02  0.9505427E-01
       -1   -1    0    0    0  501  0.00000000000E+00  0.00000000000E+00  0.33920284238E+03  0.33920284242E+03  0.50400001928E-02 0. -1.
        1   -1    0    0  501    0  0.00000000000E+00  0.00000000000E+00 -0.51861880779E+03  0.51861880781E+03  0.50400001928E-02 0.  1.
    10030    2    1    2    0    0  0.00000000000E+00  0.00000000000E+00 -0.17941596541E+03  0.85782165023E+03  0.83884914911E+03 0.  0.
        5    1    3    3  502    0 -0.52116342957E+02 -0.29025392279E+03  0.21525053964E+03  0.36512783750E+03  0.46999998093E+01 0. -1.
       -5    1    3    3    0  502  0.52116342957E+02  0.29025392279E+03 -0.39466650505E+03  0.49269381273E+03  0.46999998093E+01 0.  1.
</event>
<event>
 5   0  0.1498375E-02  0.8024830E+03  0.7818609E-02  0.9556430E-01
       -1   -1    0    0    0  501  0.00000000000E+00  0.00000000000E+00  0.43919550147E+03  0.43919550150E+03  0.50400001928E-02 0. -1.
        1   -1    0    0  501    0  0.00000000000E+00  0.00000000000E+00 -0.36656741776E+03  0.36656741779E+03  0.50400001928E-02 0.  1.
    10030    2    1    2    0    0  0.00000000000E+00  0.00000000000E+00  0.72628083719E+02  0.80576291929E+03  0.80248304877E+03 0.  0.
        4    1    3    3  502    0 -0.23674339963E+03  0.18793849274E+03  0.30125767992E+03  0.42676236589E+03  0.12699999809E+01 0. -1.
       -4    1    3    3    0  502  0.23674339963E+03 -0.18793849274E+03 -0.22862959620E+03  0.37900055341E+03  0.12699999809E+01 0.  1.
</event>
<event>
 5   0  0.1509629E-02  0.7966627E+03  0.7818609E-02  0.9564860E-01
        1   -1    0    0  501    0  0.00000000000E+00  0.00000000000E+00  0.11748160815E+04  0.11748160815E+04  0.50400001928E-02 0. -1.
       -1   -1    0    0    0  501  0.00000000000E+00  0.00000000000E+00 -0.13505761685E+03  0.13505761694E+03  0.50400001928E-02 0.  1.
    10030    2    1    2    0    0  0.00000000000E+00  0.00000000000E+00  0.10397584647E+04  0.13098736985E+04  0.79666268967E+03 0.  0.
        5    1    3    3  502    0 -0.22169413207E+03  0.17299449044E+03  0.98367916636E+03  0.10230944112E+04  0.46999998093E+01 0. -1.
       -5    1    3    3    0  502  0.22169413207E+03 -0.17299449044E+03  0.56079298329E+02  0.28677928729E+03  0.46999998093E+01 0.  1.
</event>
<event>
 5   0  0.2460312E-02  0.8040594E+03  0.7818609E-02  0.9554160E-01
        2   -1    0    0  501    0  0.00000000000E+00  0.00000000000E+00  0.45699920103E+03  0.45699920103E+03  0.25500000920E-02 0.  1.
       -2   -1    0    0    0  501  0.00000000000E+00  0.00000000000E+00 -0.35367216918E+03  0.35367216919E+03  0.25500000920E-02 0. -1.
    10030    2    1    2    0    0  0.00000000000E+00  0.00000000000E+00  0.10332703184E+03  0.81067137023E+03  0.80405944743E+03 0.  0.
        2    1    3    3  502    0  0.13362147932E+03 -0.87839235601E+02  0.42355639989E+03  0.45273662867E+03  0.25500000920E-02 0.  1.
       -2    1    3    3    0  502 -0.13362147932E+03  0.87839235601E+02 -0.32022936805E+03  0.35793474156E+03  0.25500000920E-02 0. -1.
</event>
<event>
 5   0  0.2460312E-02  0.8143067E+03  0.7818609E-02  0.9539537E-01
       -2   -1    0    0    0  501  0.00000000000E+00  0.00000000000E+00  0.17054717015E+03  0.17054717017E+03  0.25500000920E-02 0.  1.
        2   -1    0    0  501    0  0.00000000000E+00  0.00000000000E+00 -0.97201170201E+03  0.97201170202E+03  0.25500000920E-02 0. -1.
    10030    2    1    2    0    0  0.00000000000E+00  0.00000000000E+00 -0.80146453186E+03  0.11425588722E+04  0.81430668706E+03 0.  0.
        2    1    3    3  502    0  0.35310222076E+03  0.30902755717E+02 -0.11962844151E+03  0.37409507166E+03  0.25500000920E-02 0. -1.
       -2    1    3    3    0  502 -0.35310222076E+03 -0.30902755717E+02 -0.68183609035E+03  0.76846380053E+03  0.25500000920E-02 0.  1.
</event>
<event>
 5   0  0.1498375E-02  0.7939428E+03  0.7818609E-02  0.9568826E-01
       -1   -1    0    0    0  501  0.00000000000E+00  0.00000000000E+00  0.20314966909E+03  0.20314966915E+03  0.50400001928E-02 0. -1.
        1   -1    0    0  501    0  0.00000000000E+00  0.00000000000E+00 -0.77571519553E+03  0.77571519555E+03  0.50400001928E-02 0.  1.
    10030    2    1    2    0    0  0.00000000000E+00  0.00000000000E+00 -0.57256552644E+03  0.97886486470E+03  0.79394278212E+03 0.  0.
        4    1    3    3  502    0  0.11044563456E+03 -0.29834643960E+03 -0.57902139171E+03  0.66066347044E+03  0.12699999809E+01 0.  1.
       -4    1    3    3    0  502 -0.11044563456E+03  0.29834643960E+03  0.64558652718E+01  0.31820139426E+03  0.12699999809E+01 0. -1.
</event>
<event>
 5   0  0.2464780E-02  0.8871433E+03  0.7818609E-02  0.9441797E-01
       -2   -1    0    0    0  501  0.00000000000E+00  0.00000000000E+00  0.26393582955E+03  0.26393582957E+03  0.25500000920E-02 0.  1.
        2   -1    0    0  501    0  0.00000000000E+00  0.00000000000E+00 -0.74546829560E+03  0.74546829560E+03  0.25500000920E-02 0. -1.
    10030    2    1    2    0    0  0.00000000000E+00  0.00000000000E+00 -0.48153246605E+03  0.10094041252E+04  0.88714326467E+03 0.  0.
        3    1    3    3  502    0  0.21065295982E+03  0.93283924128E+02 -0.67205515263E+03  0.71044683008E+03  0.10100000352E+00 0. -1.
       -3    1    3    3    0  502 -0.21065295982E+03 -0.93283924128E+02  0.19052268659E+03  0.29895729509E+03  0.10100000352E+00 0.  1.
</event>
<event>
 5   0  0.2464780E-02  0.7560378E+03  0.7818609E-02  0.9625925E-01
        2   -1    0    0  501    0  0.00000000000E+00  0.00000000000E+00  0.14774816311E+03  0.14774816313E+03  0.25500000920E-02 0.  1.
       -2   -1    0    0    0  501  0.00000000000E+00  0.00000000000E+00 -0.96717462113E+03  0.96717462113E+03  0.25500000920E-02 0. -1.
    10030    2    1    2    0    0  0.00000000000E+00  0.00000000000E+00 -0.81942645802E+03  0.11149227843E+04  0.75603776015E+03 0.  0.
        3    1    3    3  502    0 -0.19595692122E+03 -0.89860920241E+02  0.48211654849E+02  0.22090376598E+03  0.10100000352E+00 0.  1.
       -3    1    3    3    0  502  0.19595692122E+03  0.89860920241E+02 -0.86763811287E+03  0.89401901829E+03  0.10100000352E+00 0. -1.
</event>
<event>
 5   0  0.2422031E-02  0.7933238E+03  0.7818609E-02  0.9569731E-01
        2   -1    0    0  501    0  0.00000000000E+00  0.00000000000E+00  0.16369857464E+03  0.16369857466E+03  0.25500000920E-02 0. -1.
       -2   -1    0    0    0  501  0.00000000000E+00  0.00000000000E+00 -0.96116089155E+03  0.96116089155E+03  0.25500000920E-02 0.  1.
    10030    2    1    2    0    0  0.00000000000E+00  0.00000000000E+00 -0.79746231690E+03  0.11248594662E+04  0.79332381274E+03 0.  0.
        4    1    3    3  502    0 -0.95493988934E+02  0.20888276526E+03 -0.85728315515E+03  0.88751739845E+03  0.12699999809E+01 0.  1.
       -4    1    3    3    0  502  0.95493988934E+02 -0.20888276526E+03  0.59820838243E+02  0.23734206777E+03  0.12699999809E+01 0. -1.
</event>
<event>
 5   0  0.1498375E-02  0.8029896E+03  0.7818609E-02  0.9555700E-01
        1   -1    0    0  501    0  0.00000000000E+00  0.00000000000E+00  0.60909472931E+03  0.60909472933E+03  0.50400001928E-02 0. -1.
       -1   -1    0    0    0  501  0.00000000000E+00  0.00000000000E+00 -0.26465187338E+03  0.26465187342E+03  0.50400001928E-02 0.  1.
    10030    2    1    2    0    0  0.00000000000E+00  0.00000000000E+00  0.34444285593E+03  0.87374660276E+03  0.80298956707E+03 0.  0.
        4    1    3    3  502    0 -0.22659526415E+03  0.20621229283E+03  0.45456111041E+03  0.54817546411E+03  0.12699999809E+01 0.  1.
       -4    1    3    3    0  502  0.22659526415E+03 -0.20621229283E+03 -0.11011825448E+03  0.32557113865E+03  0.12699999809E+01 0. -1.
</event>
<event>
 5   0  0.1498375E-02  0.7790566E+03  0.7818609E-02  0.9590837E-01
        1   -1    0    0  501    0  0.00000000000E+00  0.00000000000E+00  0.45433342779E+03  0.45433342781E+03  0.50400001928E-02 0.  1.
       -1   -1    0    0    0  501  0.00000000000E+00  0.00000000000E+00 -0.33396681397E+03  0.33396681401E+03  0.50400001928E-02 0. -1.
    10030    2    1    2    0    0  0.00000000000E+00  0.00000000000E+00  0.12036661382E+03  0.78830024182E+03  0.77905657659E+03 0.  0.
        4    1    3    3  502    0  0.12863835383E+03 -0.18327528115E+03 -0.26233516716E+03  0.34490434556E+03  0.12699999809E+01 0. -1.
       -4    1    3    3    0  502 -0.12863835383E+03  0.18327528115E+03  0.38270178098E+03  0.44339589626E+03  0.12699999809E+01 0.  1.
</event>
<event>
 5   0  0.2454354E-02  0.8008697E+03  0.7818609E-02  0.9558759E-01
       -2   -1    0    0    0  501  0.00000000000E+00  0.00000000000E+00  0.22790337590E+03  0.22790337592E+03  0.25500000920E-02 0.  1.
        2   -1    0    0  501    0  0.00000000000E+00  0.00000000000E+00 -0.70357922430E+03  0.70357922431E+03  0.25500000920E-02 0. -1.
    10030    2    1    2    0    0  0.00000000000E+00  0.00000000000E+00 -0.47567584840E+03  0.93148260022E+03  0.80086972834E+03 0.  0.
        5    1    3    3  502    0 -0.31395849356E+03  0.85475381513E+02  0.33563339873E+02  0.32714609016E+03  0.46999998093E+01 0.  1.
       -5    1    3    3    0  502  0.31395849356E+03 -0.85475381513E+02 -0.50923918827E+03  0.60433651006E+03  0.46999998093E+01 0. -1.
</event>
<event>
 5   0  0.1498375E-02  0.7890523E+03  0.7818609E-02  0.9576000E-01
        1   -1    0    0  501    0  0.00000000000E+00  0.00000000000E+00  0.53770871922E+03  0.53770871925E+03  0.50400001928E-02 0.  1.
       -1   -1    0    0    0  501  0.00000000000E+00  0.00000000000E+00 -0.28947062790E+03  0.28947062794E+03  0.50400001928E-02 0. -1.
    10030    2    1    2    0    0  0.00000000000E+00  0.00000000000E+00  0.24823809133E+03  0.82717934719E+03  0.78905229385E+03 0.  0.
        4    1    3    3  502    0 -0.29513981672E+03  0.85647423807E+02  0.38347240088E+03  0.49142210751E+03  0.12699999809E+01 0.  1.
       -4    1    3    3    0  502  0.29513981672E+03 -0.85647423807E+02 -0.13523430955E+03  0.33575723968E+03  0.12699999809E+01 0. -1.
</event>
<event>
 5   0  0.2464780E-02  0.8025050E+03  0.7818609E-02  0.9556398E-01
        2   -1    0    0  501    0  0.00000000000E+00  0.00000000000E+00  0.89742591753E+03  0.89742591754E+03  0.25500000920E-02 0. -1.
       -2   -1    0    0    0  501  0.00000000000E+00  0.00000000000E+00 -0.17940596965E+03  0.17940596967E+03  0.25500000920E-02 0.  1.
    10030    2    1    2    0    0  0.00000000000E+00  0.00000000000E+00  0.71801994788E+03  0.10768318872E+04  0.80250499546E+03 0.  0.
        3    1    3    3  502    0 -0.13977449845E+03  0.33296542001E+03  0.59373839042E+03  0.69493033305E+03  0.10100000352E+00 0.  1.
       -3    1    3    3    0  502  0.13977449845E+03 -0.33296542001E+03  0.12428155747E+03  0.38190155415E+03  0.10100000352E+00 0. -1.
</event>
<event>
 5   0  0.2464780E-02  0.8091037E+03  0.7818609E-02  0.9546933E-01
        2   -1    0    0  501    0  0.00000000000E+00  0.00000000000E+00  0.85149577299E+03  0.85149577300E+03  0.25500000920E-02 0. -1.
       -2   -1    0    0    0  501  0.00000000000E+00  0.00000000000E+00 -0.19220555518E+03  0.19220555520E+03  0.25500000920E-02 0.  1.
    10030    2    1    2    0    0  0.00000000000E+00  0.00000000000E+00  0.65929021781E+03  0.10437013282E+04  0.80910374562E+03 0.  0.
        3    1    3    3  502    0 -0.23923589866E+03 -0.16276563063E+03 -0.35060573011E+02  0.29147164476E+03  0.10100000352E+00 0.  1.
       -3    1    3    3    0  502  0.23923589866E+03  0.16276563063E+03  0.69435079082E+03  0.75222968343E+03  0.10100000352E+00 0. -1.
</event>
<event>
 5   0  0.1498375E-02  0.7999137E+03  0.7818609E-02  0.9560142E-01
       -1   -1    0    0    0  501  0.00000000000E+00  0.00000000000E+00  0.10094958635E+03  0.10094958648E+03  0.50400001928E-02 0.  1.
        1   -1    0    0  501    0  0.00000000000E+00  0.00000000000E+00 -0.15846076180E+04  0.15846076180E+04  0.50400001928E-02 0. -1.
    10030    2    1    2    0    0  0.00000000000E+00  0.00000000000E+00 -0.14836580316E+04  0.16855572044E+04  0.79991370455E+03 0.  0.
        4    1    3    3  502    0  0.21742485454E+03 -0.95764776102E+02 -0.63857800963E+02  0.24601603882E+03  0.12699999809E+01 0.  1.
       -4    1    3    3    0  502 -0.21742485454E+03  0.95764776102E+02 -0.14198002306E+04  0.14395411656E+04  0.12699999809E+01 0. -1.
</event>
<event>
 5   0  0.1624094E-02  0.7933364E+03  0.7818609E-02  0.9569713E-01
       -1   -1    0    0    0  501  0.00000000000E+00  0.00000000000E+00  0.84194943416E+02  0.84194943567E+02  0.50400001928E-02 0. -1.
        1   -1    0    0  501    0  0.00000000000E+00  0.00000000000E+00 -0.18688254390E+04  0.18688254391E+04  0.50400001928E-02 0.  1.
    10030    2    1    2    0    0  0.00000000000E+00  0.00000000000E+00 -0.17846304956E+04  0.19530203826E+04  0.79333637821E+03 0.  0.
        3    1    3    3  502    0 -0.47322314466E+02 -0.26825611434E+02  0.74969291713E+02  0.92625157361E+02  0.10100000352E+00 0. -1.
       -3    1    3    3    0  502  0.47322314466E+02  0.26825611434E+02 -0.18595997873E+04  0.18603952253E+04  0.10100000352E+00 0.  1.
</event>
<event>
 5   0  0.1498375E-02  0.7877808E+03  0.7818609E-02  0.9577874E-01
        1   -1    0    0  501    0  0.00000000000E+00  0.00000000000E+00  0.16313079103E+04  0.16313079103E+04  0.50400001928E-02 0.  1.
       -1   -1    0    0    0  501  0.00000000000E+00  0.00000000000E+00 -0.95107522089E+02  0.95107522223E+02  0.50400001928E-02 0. -1.
    10030    2    1    2    0    0  0.00000000000E+00  0.00000000000E+00  0.15362003882E+04  0.17264154325E+04  0.78778081529E+03 0.  0.
        4    1    3    3  502    0  0.32754181011E+03 -0.29984833148E+02  0.12430290076E+04  0.12858092604E+04  0.12699999809E+01 0.  1.
       -4    1    3    3    0  502 -0.32754181011E+03  0.29984833148E+02  0.29317138064E+03  0.44060617213E+03  0.12699999809E+01 0. -1.
</event>
<event>
 5   0  0.2454354E-02  0.8197912E+03  0.7818609E-02  0.9531804E-01
       -2   -1    0    0    0  501  0.00000000000E+00  0.00000000000E+00  0.62360566437E+03  0.62360566438E+03  0.25500000920E-02 0. -1.
        2   -1    0    0  501    0  0.00000000000E+00  0.00000000000E+00 -0.26942409734E+03  0.26942409735E+03  0.25500000920E-02 0.  1.
    10030    2    1    2    0    0  0.00000000000E+00  0.00000000000E+00  0.35418156703E+03  0.89302976173E+03  0.81979117641E+03 0.  0.
        5    1    3    3  502    0 -0.36492881026E+03  0.31395499558E+01 -0.26150076352E+02  0.36590819863E+03  0.46999998093E+01 0.  1.
       -5    1    3    3    0  502  0.36492881026E+03 -0.31395499558E+01  0.38033164339E+03  0.52712156310E+03  0.46999998093E+01 0. -1.
</event>
<event>
 5   0  0.1498375E-02  0.8023130E+03  0.7818609E-02  0.9556675E-01
       -1   -1    0    0    0  501  0.00000000000E+00  0.00000000000E+00  0.32952650683E+03  0.32952650687E+03  0.50400001928E-02 0.  1.
        1   -1    0    0  501    0  0.00000000000E+00  0.00000000000E+00 -0.48835689211E+03  0.48835689214E+03  0.50400001928E-02 0. -1.
    10030    2    1    2    0    0  0.00000000000E+00  0.00000000000E+00 -0.15883038528E+03  0.81788339901E+03  0.80231300817E+03 0.  0.
        4    1    3    3  502    0 -0.34541833608E+03 -0.16838159223E+03  0.37966047289E+02  0.38614663167E+03  0.12699999809E+01 0. -1.
       -4    1    3    3    0  502  0.34541833608E+03  0.16838159223E+03 -0.19679643257E+03  0.43173676734E+03  0.12699999809E+01 0.  1.
</event>
<event>
 5   0  0.9919125E-03  0.8182348E+03  0.7818609E-02  0.9533992E-01
       -3   -1    0    0    0  501  0.00000000000E+00  0.00000000000E+00  0.72560646776E+03  0.72560647479E+03  0.10100000352E+00 0. -1.
        3   -1    0    0  501    0  0.00000000000E+00  0.00000000000E+00 -0.23067189181E+03  0.23067191392E+03  0.10100000352E+00 0.  1.
    10030    2    1    2    0    0  0.00000000000E+00  0.00000000000E+00  0.49493457595E+03  0.95627838871E+03  0.81823475986E+03 0.  0.
        4    1    3    3  502    0  0.35394317694E+03 -0.12969934486E+03  0.43327999454E+03  0.57430902755E+03  0.12699999809E+01 0. -1.
       -4    1    3    3    0  502 -0.35394317694E+03  0.12969934486E+03  0.61654581410E+02  0.38196936116E+03  0.12699999809E+01 0.  1.
</event>
<event>
 5   0  0.1471290E-02  0.8017489E+03  0.7818609E-02  0.9557489E-01
        1   -1    0    0  501    0  0.00000000000E+00  0.00000000000E+00  0.14088811328E+04  0.14088811328E+04  0.50400001928E-02 0. -1.
       -1   -1    0    0    0  501  0.00000000000E+00  0.00000000000E+00 -0.11406236562E+03  0.11406236573E+03  0.50400001928E-02 0.  1.
    10030    2    1    2    0    0  0.00000000000E+00  0.00000000000E+00  0.12948187672E+04  0.15229434985E+04  0.80174887584E+03 0.  0.
        2    1    3    3  502    0 -0.16687000597E+03 -0.23074017162E+03  0.11833779333E+04  0.12171565054E+04  0.25500000920E-02 0. -1.
       -2    1    3    3    0  502  0.16687000597E+03  0.23074017162E+03  0.11144083388E+03  0.30578699310E+03  0.25500000920E-02 0.  1.
</event>
<event>
 5   0  0.1509629E-02  0.8112436E+03  0.7818609E-02  0.9543884E-01
       -1   -1    0    0    0  501  0.00000000000E+00  0.00000000000E+00  0.57553308182E+03  0.57553308184E+03  0.50400001928E-02 0. -1.
        1   -1    0    0  501    0  0.00000000000E+00  0.00000000000E+00 -0.28587243363E+03  0.28587243367E+03  0.50400001928E-02 0.  1.
    10030    2    1    2    0    0  0.00000000000E+00  0.00000000000E+00  0.28966064820E+03  0.86140551551E+03  0.81124359538E+03 0.  0.
        5    1    3    3  502    0  0.35643810084E+02 -0.21593607023E+03 -0.21776374732E+03  0.30877501076E+03  0.46999998093E+01 0.  1.
       -5    1    3    3    0  502 -0.35643810084E+02  0.21593607023E+03  0.50742439552E+03  0.55263050476E+03  0.46999998093E+01 0. -1.
</event>
<event>
 5   0  0.2460312E-02  0.8100105E+03  0.7818609E-02  0.9545639E-01
        2   -1    0    0  501    0  0.00000000000E+00  0.00000000000E+00  0.87274067587E+03  0.87274067587E+03  0.25500000920E-02 0. -1.
       -2   -1    0    0    0  501  0.00000000000E+00  0.00000000000E+00 -0.18794732040E+03  0.18794732041E+03  0.25500000920E-02 0.  1.
    10030    2    1    2    0    0  0.00000000000E+00  0.00000000000E+00  0.68479335548E+03  0.10606879963E+04  0.81001054670E+03 0.  0.
        2    1    3    3  502    0 -0.19786503469E+03 -0.33978441504E+03  0.46952532844E+03  0.61241983533E+03  0.25500000920E-02 0.  1.
       -2    1    3    3    0  502  0.19786503469E+03  0.33978441504E+03  0.21526802704E+03  0.44826816096E+03  0.25500000920E-02 0. -1.
</event>
<event>
 5   0  0.2422031E-02  0.7940395E+03  0.7818609E-02  0.9568685E-01
       -2   -1    0    0    0  501  0.00000000000E+00  0.00000000000E+00  0.32230391775E+03  0.32230391776E+03  0.25500000920E-02 0.  1.
        2   -1    0    0  501    0  0.00000000000E+00  0.00000000000E+00 -0.48905611328E+03  0.48905611329E+03  0.25500000920E-02 0. -1.
    10030    2    1    2    0    0  0.00000000000E+00  0.00000000000E+00 -0.16675219553E+03  0.81136003105E+03  0.79403954894E+03 0.  0.
        4    1    3    3  502    0 -0.90556572669E+02  0.37987767994E+03 -0.15645926859E+03  0.42070020228E+03  0.12699999809E+01 0. -1.
       -4    1    3    3    0  502  0.90556572669E+02 -0.37987767994E+03 -0.10292926948E+02  0.39065982877E+03  0.12699999809E+01 0.  1.
</event>
<event>
 5   0  0.2464780E-02  0.7940527E+03  0.7818609E-02  0.9568666E-01
       -2   -1    0    0    0  501  0.00000000000E+00  0.00000000000E+00  0.13221475423E+03  0.13221475425E+03  0.25500000920E-02 0. -1.
        2   -1    0    0  501    0  0.00000000000E+00  0.00000000000E+00 -0.11922265021E+04  0.11922265021E+04  0.25500000920E-02 0.  1.
    10030    2    1    2    0    0  0.00000000000E+00  0.00000000000E+00 -0.10600117479E+04  0.13244412564E+04  0.79405272868E+03 0.  0.
        3    1    3    3  502    0 -0.16179791986E+03  0.30982112608E+03 -0.84410473327E+03  0.91360850914E+03  0.10100000352E+00 0.  1.
       -3    1    3    3    0  502  0.16179791986E+03 -0.30982112608E+03 -0.21590701462E+03  0.41083274724E+03  0.10100000352E+00 0. -1.
</event>
<event>
 5   0  0.1498375E-02  0.7944160E+03  0.7818609E-02  0.9568135E-01
        1   -1    0    0  501    0  0.00000000000E+00  0.00000000000E+00  0.36691476104E+03  0.36691476107E+03  0.50400001928E-02 0. -1.
       -1   -1    0    0    0  501  0.00000000000E+00  0.00000000000E+00 -0.43000230384E+03  0.43000230387E+03  0.50400001928E-02 0.  1.
    10030    2    1    2    0    0  0.00000000000E+00  0.00000000000E+00 -0.63087542804E+02  0.79691706494E+03  0.79441599326E+03 0.  0.
        4    1    3    3  502    0  0.38660423544E+03 -0.46184581209E+02 -0.11038337492E+03  0.40469983044E+03  0.12699999809E+01 0.  1.
       -4    1    3    3    0  502 -0.38660423544E+03  0.46184581209E+02  0.47295832116E+02  0.39221723450E+03  0.12699999809E+01 0. -1.
</event>
<event>
 5   0  0.1624094E-02  0.8031436E+03  0.7818609E-02  0.9555478E-01
        1   -1    0    0  501    0  0.00000000000E+00  0.00000000000E+00  0.19055082355E+03  0.19055082361E+03  0.50400001928E-02 0. -1.
       -1   -1    0    0    0  501  0.00000000000E+00  0.00000000000E+00 -0.84628300828E+03  0.84628300829E+03  0.50400001928E-02 0.  1.
    10030    2    1    2    0    0  0.00000000000E+00  0.00000000000E+00 -0.65573218473E+03  0.10368338319E+04  0.80314363403E+03 0.  0.
        3    1    3    3  502    0  0.19389559897E+03 -0.34137523411E+03 -0.43685449661E+03  0.58734522657E+03  0.10100000352E+00 0.  1.
       -3    1    3    3    0  502 -0.19389559897E+03  0.34137523411E+03 -0.21887768812E+03  0.44948860533E+03  0.10100000352E+00 0. -1.
</event>
<event>
 5   0  0.1509629E-02  0.7915541E+03  0.7818609E-02  0.9572323E-01
       -1   -1    0    0    0  501  0.00000000000E+00  0.00000000000E+00  0.44850917164E+03  0.44850917167E+03  0.50400001928E-02 0.  1.
        1   -1    0    0  501    0  0.00000000000E+00  0.00000000000E+00 -0.34924475651E+03  0.34924475655E+03  0.50400001928E-02 0. -1.
    10030    2    1    2    0    0  0.00000000000E+00  0.00000000000E+00  0.99264415129E+02  0.79775392821E+03  0.79155410799E+03 0.  0.
        5    1    3    3  502    0  0.76691641235E+01 -0.39521682901E+03  0.68813577722E+02  0.40126369944E+03  0.46999998093E+01 0. -1.
       -5    1    3    3    0  502 -0.76691641235E+01  0.39521682901E+03  0.30450837406E+02  0.39649022877E+03  0.46999998093E+01 0.  1.
</event>
<event>
 5   0  0.1509629E-02  0.7983382E+03  0.7818609E-02  0.9562426E-01
       -1   -1    0    0    0  501  0.00000000000E+00  0.00000000000E+00  0.32797400052E+03  0.32797400056E+03  0.50400001928E-02 0.  1.
        1   -1    0    0  501    0  0.00000000000E+00  0.00000000000E+00 -0.48581889249E+03  0.48581889251E+03  0.50400001928E-02 0. -1.
    10030    2    1    2    0    0  0.00000000000E+00  0.00000000000E+00 -0.15784489197E+03  0.81379289307E+03  0.79833818829E+03 0.  0.
        5    1    3    3  502    0  0.33278125206E+03  0.12827631513E+03 -0.26160021181E+03  0.44232899019E+03  0.46999998093E+01 0. -1.
       -5    1    3    3    0  502 -0.33278125206E+03 -0.12827631513E+03  0.10375531985E+03  0.37146390288E+03  0.46999998093E+01 0.  1.
</event>
<event>
 5   0  0.2460312E-02  0.7907719E+03  0.7818609E-02  0.9573471E-01
       -2   -1    0    0    0  501  0.00000000000E+00  0.00000000000E+00  0.25593925341E+03  0.25593925342E+03  0.25500000920E-02 0.  1.
        2   -1    0    0  501    0  0.00000000000E+00  0.00000000000E+00 -0.61080923985E+03  0.61080923986E+03  0.25500000920E-02 0. -1.
    10030    2    1    2    0    0  0.00000000000E+00  0.00000000000E+00 -0.35486998644E+03  0.86674849328E+03  0.79077192876E+03 0.  0.
        2    1    3    3  502    0  0.71129950377E+02 -0.29220393274E+03 -0.45878259004E+03  0.54856546836E+03  0.25500000920E-02 0. -1.
       -2    1    3    3    0  502 -0.71129950377E+02  0.29220393274E+03  0.10391260360E+03  0.31818302491E+03  0.25500000920E-02 0.  1.
</event>
<event>
 5   0  0.2460312E-02  0.8083013E+03  0.7818609E-02  0.9548078E-01
       -2   -1    0    0    0  501  0.00000000000E+00  0.00000000000E+00  0.16687496578E+03  0.16687496580E+03  0.25500000920E-02 0.  1.
        2   -1    0    0  501    0  0.00000000000E+00  0.00000000000E+00 -0.97880318864E+03  0.97880318864E+03  0.25500000920E-02 0. -1.
    10030    2    1    2    0    0  0.00000000000E+00  0.00000000000E+00 -0.81192822286E+03  0.11456781544E+04  0.80830130180E+03 0.  0.
        2    1    3    3  502    0  0.34264959991E+03  0.19004764311E+03 -0.54635652416E+03  0.67233347862E+03  0.25500000920E-02 0. -1.
       -2    1    3    3    0  502 -0.34264959991E+03 -0.19004764311E+03 -0.26557169870E+03  0.47334467582E+03  0.25500000920E-02 0.  1.
</event>
<event>
 5   0  0.1523811E-02  0.7968677E+03  0.7818609E-02  0.9564562E-01
       -1   -1    0    0    0  501  0.00000000000E+00  0.00000000000E+00  0.49604434131E+03  0.49604434133E+03  0.50400001928E-02 0.  1.
        1   -1    0    0  501    0  0.00000000000E+00  0.00000000000E+00 -0.32003090756E+03  0.32003090760E+03  0.50400001928E-02 0. -1.
    10030    2    1    2    0    0  0.00000000000E+00  0.00000000000E+00  0.17601343375E+03  0.81607524893E+03  0.79686766973E+03 0.  0.
        1    1    3    3  502    0 -0.15478523318E+03 -0.13697998938E+03  0.43684531428E+03  0.48327612659E+03  0.50400001928E-02 0.  1.
       -1    1    3    3    0  502  0.15478523318E+03  0.13697998938E+03 -0.26083188053E+03  0.33279912234E+03  0.50400001928E-02 0. -1.
</event>
<event>
 5   0  0.1498375E-02  0.8499194E+03  0.7818609E-02  0.9490445E-01
        1   -1    0    0  501    0  0.00000000000E+00  0.00000000000E+00  0.27860887875E+03  0.27860887879E+03  0.50400001928E-02 0.  1.
       -1   -1    0    0    0  501  0.00000000000E+00  0.00000000000E+00 -0.64818738999E+03  0.64818739001E+03  0.50400001928E-02 0. -1.
    10030    2    1    2    0    0  0.00000000000E+00  0.00000000000E+00 -0.36957851124E+03  0.92679626880E+03  0.84991943612E+03 0.  0.
        4    1    3    3  502    0  0.26581622843E+03 -0.21862720754E+03  0.87022207309E+02  0.35500788814E+03  0.12699999809E+01 0.  1.
       -4    1    3    3    0  502 -0.26581622843E+03  0.21862720754E+03 -0.45660071855E+03  0.57178838066E+03  0.12699999809E+01 0. -1.
</event>
<event>
 5   0  0.2571778E-02  0.7975703E+03  0.7818609E-02  0.9563541E-01
       -2   -1    0    0    0  501  0.00000000000E+00  0.00000000000E+00  0.28209851171E+03  0.28209851173E+03  0.25500000920E-02 0.  1.
        2   -1    0    0  501    0  0.00000000000E+00  0.00000000000E+00 -0.56373783639E+03  0.56373783640E+03  0.25500000920E-02 0. -1.
    10030    2    1    2    0    0  0.00000000000E+00  0.00000000000E+00 -0.28163932468E+03  0.84583634812E+03  0.79757032204E+03 0.  0.
        1    1    3    3  502    0 -0.19952925480E+03  0.34050151675E+03 -0.80115887598E+02  0.40270555236E+03  0.50400001928E-02 0.  1.
       -1    1    3    3    0  502  0.19952925480E+03 -0.34050151675E+03 -0.20152343708E+03  0.44313079576E+03  0.50400001928E-02 0. -1.
</event>
<event>
 5   0  0.2454354E-02  0.7624701E+03  0.7818609E-02  0.9615987E-01
       -2   -1    0    0    0  501  0.00000000000E+00  0.00000000000E+00  0.29787263656E+03  0.29787263657E+03  0.25500000920E-02 0.  1.
        2   -1    0    0  501    0  0.00000000000E+00  0.00000000000E+00 -0.48792719166E+03  0.48792719167E+03  0.25500000920E-02 0. -1.
    10030    2    1    2    0    0  0.00000000000E+00  0.00000000000E+00 -0.19005455510E+03  0.78579982824E+03  0.76247008869E+03 0.  0.
        5    1    3    3  502    0  0.21564671209E+03 -0.22130049123E+03 -0.32510840583E+03  0.44854763114E+03  0.46999998093E+01 0. -1.
       -5    1    3    3    0  502 -0.21564671209E+03  0.22130049123E+03  0.13505385073E+03  0.33725219710E+03  0.46999998093E+01 0.  1.
</event>
<event>
 5   0  0.1471290E-02  0.7406342E+03  0.7818609E-02  0.9650159E-01
       -1   -1    0    0    0  501  0.00000000000E+00  0.00000000000E+00  0.29344389218E+03  0.29344389222E+03  0.50400001928E-02 0. -1.
        1   -1    0    0  501    0  0.00000000000E+00  0.00000000000E+00 -0.46732869943E+03  0.46732869946E+03  0.50400001928E-02 0.  1.
    10030    2    1    2    0    0  0.00000000000E+00  0.00000000000E+00 -0.17388480726E+03  0.76077259168E+03  0.74063419450E+03 0.  0.
        2    1    3    3  502    0  0.18767862407E+02 -0.13039105500E+03  0.26856161037E+03  0.29913107236E+03  0.25500000920E-02 0. -1.
       -2    1    3    3    0  502 -0.18767862407E+02  0.13039105500E+03 -0.44244641762E+03  0.46164151932E+03  0.25500000920E-02 0.  1.
</event>
<event>
 5   0  0.1471290E-02  0.8072343E+03  0.7818609E-02  0.9549604E-01
       -1   -1    0    0    0  501  0.00000000000E+00  0.00000000000E+00  0.22579884831E+03  0.22579884837E+03  0.50400001928E-02 0.  1.
        1   -1    0    0  501    0  0.00000000000E+00  0.00000000000E+00 -0.72146872825E+03  0.72146872827E+03  0.50400001928E-02 0. -1.
    10030    2    1    2    0    0  0.00000000000E+00  0.00000000000E+00 -0.49566987994E+03  0.94726757664E+03  0.80723431039E+03 0.  0.
        2    1    3    3  502    0  0.92182740719E+02 -0.13500897303E+03  0.18520951222E+03  0.24703773782E+03  0.25500000920E-02 0.  1.
       -2    1    3    3    0  502 -0.92182740719E+02  0.13500897303E+03 -0.68087939216E+03  0.70022983881E+03  0.25500000920E-02 0. -1.
</event>
<event>
 5   0  0.1624094E-02  0.7847843E+03  0.7818609E-02  0.9582306E-01
       -1   -1    0    0    0  501  0.00000000000E+00  0.00000000000E+00  0.23638977825E+03  0.23638977830E+03  0.50400001928E-02 0. -1.
        1   -1    0    0  501    0  0.00000000000E+00  0.00000000000E+00 -0.65134631658E+03  0.65134631660E+03  0.50400001928E-02 0.  1.
    10030    2    1    2    0    0  0.00000000000E+00  0.00000000000E+00 -0.41495653833E+03  0.88773609490E+03  0.78478433055E+03 0.  0.
        3    1    3    3  502    0  0.31660813205E+03  0.22954407573E+03 -0.17099148020E+03  0.42681294320E+03  0.10100000352E+00 0.  1.
       -3    1    3    3    0  502 -0.31660813205E+03 -0.22954407573E+03 -0.24396505813E+03  0.46092315170E+03  0.10100000352E+00 0. -1.
</event>
<event>
 5   0  0.2464780E-02  0.8317530E+03  0.7818609E-02  0.9515160E-01
       -2   -1    0    0    0  501  0.00000000000E+00  0.00000000000E+00  0.21277966762E+03  0.21277966763E+03  0.25500000920E-02 0. -1.
        2   -1    0    0  501    0  0.00000000000E+00  0.00000000000E+00 -0.81282789160E+03  0.81282789160E+03  0.25500000920E-02 0.  1.
    10030    2    1    2    0    0  0.00000000000E+00  0.00000000000E+00 -0.60004822398E+03  0.10256075592E+04  0.83175296480E+03 0.  0.
        3    1    3    3  502    0 -0.73639922408E+02  0.10425530021E+03 -0.78807782955E+03  0.79834746910E+03  0.10100000352E+00 0.  1.
       -3    1    3    3    0  502  0.73639922408E+02 -0.10425530021E+03  0.18802960557E+03  0.22726009013E+03  0.10100000352E+00 0. -1.
</event>
<event>
 5   0  0.1509629E-02  0.8019958E+03  0.7818609E-02  0.9557133E-01
        1   -1    0    0  501    0  0.00000000000E+00  0.00000000000E+00  0.14746242026E+04  0.14746242026E+04  0.50400001928E-02 0.  1.
       -1   -1    0    0    0  501  0.00000000000E+00  0.00000000000E+00 -0.10904427917E+03  0.10904427929E+03  0.50400001928E-02 0. -1.
    10030    2    1    2    0    0  0.00000000000E+00  0.00000000000E+00  0.13655799234E+04  0.15836684819E+04  0.80199584369E+03 0.  0.
        5    1    3    3  502    0 -0.22570320295E+03 -0.25940160551E+03  0.10900971817E+04  0.11430507794E+04  0.46999998093E+01 0.  1.
       -5    1    3    3    0  502  0.22570320295E+03  0.25940160551E+03  0.27548274174E+03  0.44061770250E+03  0.46999998093E+01 0. -1.
</event>
<event>
 5   0  0.1471290E-02  0.8159396E+03  0.7818609E-02  0.9537227E-01
       -1   -1    0    0    0  501  0.00000000000E+00  0.00000000000E+00  0.16939903122E+03  0.16939903130E+03  0.50400001928E-02 0. -1.
        1   -1    0    0  501    0  0.00000000000E+00  0.00000000000E+00 -0.98252847256E+03  0.98252847258E+03  0.50400001928E-02 0.  1.
    10030    2    1    2    0    0  0.00000000000E+00  0.00000000000E+00 -0.81312944134E+03  0.11519275039E+04  0.81593963367E+03 0.  0.
        2    1    3    3  502    0  0.13959992869E+03  0.20719527775E+03 -0.86189691454E+03  0.89737635054E+03  0.25500000920E-02 0.  1.
       -2    1    3    3    0  502 -0.13959992869E+03 -0.20719527775E+03  0.48767473196E+02  0.25455115333E+03  0.25500000920E-02 0. -1.
</event>
<event>
 5   0  0.2464780E-02  0.7954227E+03  0.7818609E-02  0.9566666E-01
        2   -1    0    0  501    0  0.00000000000E+00  0.00000000000E+00  0.17829757726E+04  0.17829757726E+04  0.25500000920E-02 0.  1.
       -2   -1    0    0    0  501  0.00000000000E+00  0.00000000000E+00 -0.88713674622E+02  0.88713674659E+02  0.25500000920E-02 0. -1.
    10030    2    1    2    0    0  0.00000000000E+00  0.00000000000E+00  0.16942620980E+04  0.18716894473E+04  0.79542273688E+03 0.  0.
        3    1    3    3  502    0 -0.24343673699E+03 -0.15551345442E+03  0.14903795125E+04  0.15181162606E+04  0.10100000352E+00 0.  1.
       -3    1    3    3    0  502  0.24343673699E+03  0.15551345442E+03  0.20388258550E+03  0.35357318662E+03  0.10100000352E+00 0. -1.
</event>
<event>
 5   0  0.2454354E-02  0.8045601E+03  0.7818609E-02  0.9553440E-01
       -2   -1    0    0    0  501  0.00000000000E+00  0.00000000000E+00  0.14264350960E+03  0.14264350962E+03  0.25500000920E-02 0.  1.
        2   -1    0    0  501    0  0.00000000000E+00  0.00000000000E+00 -0.11345012021E+04  0.11345012021E+04  0.25500000920E-02 0. -1.
    10030    2    1    2    0    0  0.00000000000E+00  0.00000000000E+00 -0.99185769250E+03  0.12771447117E+04  0.80456008634E+03 0.  0.
        5    1    3    3  502    0 -0.22611047691E+03  0.86080534747E+02  0.14190183900E+02  0.24240308898E+03  0.46999998093E+01 0.  1.
       -5    1    3    3    0  502  0.22611047691E+03 -0.86080534747E+02 -0.10060478764E+04  0.10347416227E+04  0.46999998093E+01 0. -1.
</event>
<event>
 5   0  0.2454354E-02  0.7633437E+03  0.7818609E-02  0.9614646E-01
       -2   -1    0    0    0  501  0.00000000000E+00  0.00000000000E+00  0.14874145745E+03  0.14874145747E+03  0.25500000920E-02 0.  1.
        2   -1    0    0  501    0  0.00000000000E+00  0.00000000000E+00 -0.97937320330E+03  0.97937320331E+03  0.25500000920E-02 0. -1.
    10030    2    1    2    0    0  0.00000000000E+00  0.00000000000E+00 -0.83063174586E+03  0.11281146608E+04  0.76334369103E+03 0.  0.
        5    1    3    3  502    0  0.25079503527E+03 -0.28764978214E+03 -0.42016378828E+03  0.56762685442E+03  0.46999998093E+01 0. -1.
       -5    1    3    3    0  502 -0.25079503527E+03  0.28764978214E+03 -0.41046795758E+03  0.56048780636E+03  0.46999998093E+01 0.  1.
</event>
<event>
 5   0  0.2454354E-02  0.8110424E+03  0.7818609E-02  0.9544170E-01
       -2   -1    0    0    0  501  0.00000000000E+00  0.00000000000E+00  0.11714577332E+03  0.11714577335E+03  0.25500000920E-02 0.  1.
        2   -1    0    0  501    0  0.00000000000E+00  0.00000000000E+00 -0.14037847965E+04  0.14037847965E+04  0.25500000920E-02 0. -1.
    10030    2    1    2    0    0  0.00000000000E+00  0.00000000000E+00 -0.12866390232E+04  0.15209305699E+04  0.81104242944E+03 0.  0.
        5    1    3    3  502    0 -0.12584342772E+02 -0.16264774765E+03  0.52842708405E+02  0.17154328121E+03  0.46999998093E+01 0.  1.
       -5    1    3    3    0  502  0.12584342772E+02  0.16264774765E+03 -0.13394817316E+04  0.13493872887E+04  0.46999998093E+01 0. -1.
</event>
<event>
 5   0  0.2460312E-02  0.8052933E+03  0.7818609E-02  0.9552387E-01
       -2   -1    0    0    0  501  0.00000000000E+00  0.00000000000E+00  0.86094992523E+02  0.86094992560E+02  0.25500000920E-02 0.  1.
        2   -1    0    0  501    0  0.00000000000E+00  0.00000000000E+00 -0.18830865475E+04  0.18830865475E+04  0.25500000920E-02 0. -1.
    10030    2    1    2    0    0  0.00000000000E+00  0.00000000000E+00 -0.17969915550E+04  0.19691815401E+04  0.80529329382E+03 0.  0.
        2    1    3    3  502    0  0.13186084625E+03  0.88298372066E+02 -0.18033894014E+04  0.18103583122E+04  0.25500000920E-02 0. -1.
       -2    1    3    3    0  502 -0.13186084625E+03 -0.88298372066E+02  0.63978464115E+01  0.15882322792E+03  0.25500000920E-02 0.  1.
</event>
<event>
 5   0  0.2422031E-02  0.8423706E+03  0.7818609E-02  0.9500634E-01
        2   -1    0    0  501    0  0.00000000000E+00  0.00000000000E+00  0.24453951448E+03  0.24453951450E+03  0.25500000920E-02 0. -1.
       -2   -1    0    0    0  501  0.00000000000E+00  0.00000000000E+00 -0.72543308829E+03  0.72543308830E+03  0.25500000920E-02 0.  1.
    10030    2    1    2    0    0  0.00000000000E+00  0.00000000000E+00 -0.48089357381E+03  0.96997260279E+03  0.84237059590E+03 0.  0.
        4    1    3    3  502    0 -0.25495243649E+03  0.10491153069E+03  0.12620188927E+03  0.30320901025E+03  0.12699999809E+01 0. -1.
       -4    1    3    3    0  502  0.25495243649E+03 -0.10491153069E+03 -0.60709546308E+03  0.66676359254E+03  0.12699999809E+01 0.  1.
</event>
<event>
 5   0  0.2464780E-02  0.8067383E+03  0.7818609E-02  0.9550315E-01
       -2   -1    0    0    0  501  0.00000000000E+00  0.00000000000E+00  0.13175875859E+03  0.13175875862E+03  0.25500000920E-02 0. -1.
        2   -1    0    0  501    0  0.00000000000E+00  0.00000000000E+00 -0.12348832925E+04  0.12348832925E+04  0.25500000920E-02 0.  1.
    10030    2    1    2    0    0  0.00000000000E+00  0.00000000000E+00 -0.11031245340E+04  0.13666420512E+04  0.80673834581E+03 0.  0.
        3    1    3    3  502    0  0.13391037903E+03  0.38046421675E+03 -0.55944810085E+03  0.68968630375E+03  0.10100000352E+00 0. -1.
       -3    1    3    3    0  502 -0.13391037903E+03 -0.38046421675E+03 -0.54367643311E+03  0.67695574741E+03  0.10100000352E+00 0.  1.
</event>
<event>
 5   0  0.2454354E-02  0.8040444E+03  0.7818609E-02  0.9554181E-01
        2   -1    0    0  501    0  0.00000000000E+00  0.00000000000E+00  0.29855258323E+03  0.29855258324E+03  0.25500000920E-02 0.  1.
       -2   -1    0    0    0  501  0.00000000000E+00  0.00000000000E+00 -0.54135133772E+03  0.54135133772E+03  0.25500000920E-02 0. -1.
    10030    2    1    2    0    0  0.00000000000E+00  0.00000000000E+00 -0.24279875448E+03  0.83990392096E+03  0.80404437767E+03 0.  0.
        5    1    3    3  502    0  0.31399752040E+03  0.23548896729E+03 -0.21216687518E+03  0.44619095627E+03  0.46999998093E+01 0. -1.
       -5    1    3    3    0  502 -0.31399752040E+03 -0.23548896729E+03 -0.30631879301E+02  0.39371296469E+03  0.46999998093E+01 0.  1.
</event>
<event>
 5   0  0.2422031E-02  0.7927838E+03  0.7818609E-02  0.9570521E-01
        2   -1    0    0  501    0  0.00000000000E+00  0.00000000000E+00  0.23529244567E+04  0.23529244567E+04  0.25500000920E-02 0.  1.
       -2   -1    0    0    0  501  0.00000000000E+00  0.00000000000E+00 -0.66779252168E+02  0.66779252217E+02  0.25500000920E-02 0. -1.
    10030    2    1    2    0    0  0.00000000000E+00  0.00000000000E+00  0.22861452045E+04  0.24197037089E+04  0.79278379319E+03 0.  0.
        4    1    3    3  502    0  0.93751817650E+02  0.36397892979E+03  0.75875647692E+03  0.84674852749E+03  0.12699999809E+01 0. -1.
       -4    1    3    3    0  502 -0.93751817650E+02 -0.36397892979E+03  0.15273887276E+04  0.15729551814E+04  0.12699999809E+01 0.  1.
</event>
<event>
 5   0  0.1509629E-02  0.8243062E+03  0.7818609E-02  0.9525486E-01
       -1   -1    0    0    0  501  0.00000000000E+00  0.00000000000E+00  0.67050948916E+02  0.67050949106E+02  0.50400001928E-02 0.  1.
        1   -1    0    0  501    0  0.00000000000E+00  0.00000000000E+00 -0.25334493691E+04  0.25334493691E+04  0.50400001928E-02 0. -1.
    10030    2    1    2    0    0  0.00000000000E+00  0.00000000000E+00 -0.24663984202E+04  0.26005003182E+04  0.82430621611E+03 0.  0.
        5    1    3    3  502    0 -0.35558901587E+02  0.23445118470E+03 -0.22965796298E+04  0.23087944646E+04  0.46999998093E+01 0. -1.
       -5    1    3    3    0  502  0.35558901587E+02 -0.23445118470E+03 -0.16981879034E+03  0.29170585363E+03  0.46999998093E+01 0.  1.
</event>
<event>
 5   0  0.2571778E-02  0.7951627E+03  0.7818609E-02  0.9567045E-01
        2   -1    0    0  501    0  0.00000000000E+00  0.00000000000E+00  0.73677267036E+03  0.73677267036E+03  0.25500000920E-02 0.  1.
       -2   -1    0    0    0  501  0.00000000000E+00  0.00000000000E+00 -0.21454507459E+03  0.21454507461E+03  0.25500000920E-02 0. -1.
    10030    2    1    2    0    0  0.00000000000E+00  0.00000000000E+00  0.52222759577E+03  0.95131774497E+03  0.79516274442E+03 0.  0.
        1    1    3    3  502    0  0.76966543571E+02 -0.38750657909E+03  0.20780095507E+03  0.44639269105E+03  0.50400001928E-02 0.  1.
       -1    1    3    3    0  502 -0.76966543571E+02  0.38750657909E+03  0.31442664070E+03  0.50492505392E+03  0.50400001928E-02 0. -1.
</event>
<event>
 5   0  0.1471290E-02  0.8612946E+03  0.7818609E-02  0.9475302E-01
        1   -1    0    0  501    0  0.00000000000E+00  0.00000000000E+00  0.22364680231E+03  0.22364680236E+03  0.50400001928E-02 0. -1.
       -1   -1    0    0    0  501  0.00000000000E+00  0.00000000000E+00 -0.82924104432E+03  0.82924104434E+03  0.50400001928E-02 0.  1.
    10030    2    1    2    0    0  0.00000000000E+00  0.00000000000E+00 -0.60559424202E+03  0.10528878467E+04  0.86129462542E+03 0.  0.
        2    1    3    3  502    0  0.26795384547E+03 -0.27505958696E+02 -0.71354921219E+03  0.76269805250E+03  0.25500000920E-02 0.  1.
       -2    1    3    3    0  502 -0.26795384547E+03  0.27505958696E+02  0.10795497017E+03  0.29018979420E+03  0.25500000920E-02 0. -1.
</event>
<event>
 5   0  0.2464780E-02  0.8004222E+03  0.7818609E-02  0.9559406E-01
        2   -1    0    0  501    0  0.00000000000E+00  0.00000000000E+00  0.14275546018E+04  0.14275546018E+04  0.25500000920E-02 0. -1.
       -2   -1    0    0    0  501  0.00000000000E+00  0.00000000000E+00 -0.11219811520E+03  0.11219811523E+03  0.25500000920E-02 0.  1.
    10030    2    1    2    0    0  0.00000000000E+00  0.00000000000E+00  0.13153564866E+04  0.15397527171E+04  0.80042222781E+03 0.  0.
        3    1    3    3  502    0  0.43179750236E+02  0.72152962590E+02  0.14103699706E+04  0.14128743770E+04  0.10100000352E+00 0. -1.
       -3    1    3    3    0  502 -0.43179750236E+02 -0.72152962590E+02 -0.95013484001E+02  0.12687834009E+03  0.10100000352E+00 0.  1.
</event>
<event>
 5   0  0.1498375E-02  0.8039337E+03  0.7818609E-02  0.9554341E-01
       -1   -1    0    0    0  501  0.00000000000E+00  0.00000000000E+00  0.40305198650E+03  0.40305198654E+03  0.50400001928E-02 0.  1.
        1   -1    0    0  501    0  0.00000000000E+00  0.00000000000E+00 -0.40088465257E+03  0.40088465260E+03  0.50400001928E-02 0. -1.
    10030    2    1    2    0    0  0.00000000000E+00  0.00000000000E+00  0.21673339384E+01  0.80393663913E+03  0.80393371767E+03 0.  0.
        4    1    3    3  502    0  0.17044818326E+03  0.32957211082E+03  0.15569788702E+03  0.40238514426E+03  0.12699999809E+01 0.  1.
       -4    1    3    3    0  502 -0.17044818326E+03 -0.32957211082E+03 -0.15353055308E+03  0.40155149487E+03  0.12699999809E+01 0. -1.
</event>
<event>
 5   0  0.1523811E-02  0.7996521E+03  0.7818609E-02  0.9560521E-01
       -1   -1    0    0    0  501  0.00000000000E+00  0.00000000000E+00  0.15032639533E+03  0.15032639542E+03  0.50400001928E-02 0. -1.
        1   -1    0    0  501    0  0.00000000000E+00  0.00000000000E+00 -0.10634250280E+04  0.10634250280E+04  0.50400001928E-02 0.  1.
    10030    2    1    2    0    0  0.00000000000E+00  0.00000000000E+00 -0.91309863262E+03  0.12137514234E+04  0.79965205237E+03 0.  0.
        1    1    3    3  502    0  0.29031137978E+03  0.16625516418E+03 -0.12421523820E+03  0.35686258178E+03  0.50400001928E-02 0. -1.
       -1    1    3    3    0  502 -0.29031137978E+03 -0.16625516418E+03 -0.78888339442E+03  0.85688884160E+03  0.50400001928E-02 0.  1.
</event>
<event>
 5   0  0.1509629E-02  0.7930554E+03  0.7818609E-02  0.9570124E-01
       -1   -1    0    0    0  501  0.00000000000E+00  0.00000000000E+00  0.16054636539E+03  0.16054636547E+03  0.50400001928E-02 0.  1.
        1   -1    0    0  501    0  0.00000000000E+00  0.00000000000E+00 -0.97936952945E+03  0.97936952946E+03  0.50400001928E-02 0. -1.
    10030    2    1    2    0    0  0.00000000000E+00  0.00000000000E+00 -0.81882316405E+03  0.11399158949E+04  0.79305540382E+03 0.  0.
        5    1    3    3  502    0  0.31022512566E+03 -0.11326206769E+02 -0.76396276067E+03  0.82463877015E+03  0.46999998093E+01 0. -1.
       -5    1    3    3    0  502 -0.31022512566E+03  0.11326206769E+02 -0.54860403386E+02  0.31527712478E+03  0.46999998093E+01 0.  1.
</event>
<event>
 5   0  0.2422031E-02  0.7669559E+03  0.7818609E-02  0.9609118E-01
       -2   -1    0    0    0  501  0.00000000000E+00  0.00000000000E+00  0.21102326519E+03  0.21102326521E+03  0.25500000920E-02 0.  1.
        2   -1    0    0  501    0  0.00000000000E+00  0.00000000000E+00 -0.69686791921E+03  0.69686791921E+03  0.25500000920E-02 0. -1.
    10030    2    1    2    0    0  0.00000000000E+00  0.00000000000E+00 -0.48584465402E+03  0.90789118442E+03  0.76695591458E+03 0.  0.
        4    1    3    3  502    0  0.15885443668E+03 -0.34818031274E+03 -0.21418186576E+03  0.43856555582E+03  0.12699999809E+01 0. -1.
       -4    1    3    3    0  502 -0.15885443668E+03  0.34818031274E+03 -0.27166278825E+03  0.46932562859E+03  0.12699999809E+01 0.  1.
</event>
<event>
 5   0  0.1471290E-02  0.7302246E+03  0.7818609E-02  0.9666896E-01
        1   -1    0    0  501    0  0.00000000000E+00  0.00000000000E+00  0.66645329072E+03  0.66645329073E+03  0.50400001928E-02 0.  1.
       -1   -1    0    0    0  501  0.00000000000E+00  0.00000000000E+00 -0.20002450163E+03  0.20002450169E+03  0.50400001928E-02 0. -1.
    10030    2    1    2    0    0  0.00000000000E+00  0.00000000000E+00  0.46642878909E+03  0.86647779242E+03  0.73022458838E+03 0.  0.
        2    1    3    3  502    0  0.54542405377E+02 -0.36082273476E+03  0.24720748825E+03  0.44077143981E+03  0.25500000920E-02 0.  1.
       -2    1    3    3    0  502 -0.54542405377E+02  0.36082273476E+03  0.21922130084E+03  0.42570635261E+03  0.25500000920E-02 0. -1.
</event>
<event>
 5   0  0.2460312E-02  0.7849843E+03  0.7818609E-02  0.9582010E-01
        2   -1    0    0  501    0  0.00000000000E+00  0.00000000000E+00  0.41492100163E+03  0.41492100163E+03  0.25500000920E-02 0. -1.
       -2   -1    0    0    0  501  0.00000000000E+00  0.00000000000E+00 -0.37127574069E+03  0.37127574070E+03  0.25500000920E-02 0.  1.
    10030    2    1    2    0    0  0.00000000000E+00  0.00000000000E+00  0.43645260935E+02  0.78619674233E+03  0.78498433669E+03 0.  0.
        2    1    3    3  502    0 -0.27848773839E+03 -0.71781313547E+02 -0.24568936986E+03  0.37824759600E+03  0.25500000920E-02 0.  1.
       -2    1    3    3    0  502  0.27848773839E+03  0.71781313547E+02  0.28933463080E+03  0.40794914633E+03  0.25500000920E-02 0. -1.
</event>
<event>
 5   0  0.9919125E-03  0.7683540E+03  0.7818609E-02  0.9606988E-01
        3   -1    0    0  501    0  0.00000000000E+00  0.00000000000E+00  0.79270086947E+03  0.79270087590E+03  0.10100000352E+00 0. -1.
       -3   -1    0    0    0  501  0.00000000000E+00  0.00000000000E+00 -0.18618871755E+03  0.18618874494E+03  0.10100000352E+00 0.  1.
    10030    2    1    2    0    0  0.00000000000E+00  0.00000000000E+00  0.60651215192E+03  0.97888962084E+03  0.76835401956E+03 0.  0.
        5    1    3    3  502    0 -0.12856722718E+02  0.32649199220E+03  0.45895087696E+02  0.32998600783E+03  0.46999998093E+01 0.  1.
       -5    1    3    3    0  502  0.12856722718E+02 -0.32649199220E+03  0.56061706423E+03  0.64890361302E+03  0.46999998093E+01 0. -1.
</event>
<event>
 5   0  0.2571778E-02  0.7993686E+03  0.7818609E-02  0.9560932E-01
        2   -1    0    0  501    0  0.00000000000E+00  0.00000000000E+00  0.88934236669E+03  0.88934236670E+03  0.25500000920E-02 0. -1.
       -2   -1    0    0    0  501  0.00000000000E+00  0.00000000000E+00 -0.17962433243E+03  0.17962433244E+03  0.25500000920E-02 0.  1.
    10030    2    1    2    0    0  0.00000000000E+00  0.00000000000E+00  0.70971803427E+03  0.10689666991E+04  0.79936857313E+03 0.  0.
        1    1    3    3  502    0 -0.29857485424E+03  0.23706183064E+03  0.51534334844E+03  0.64103355758E+03  0.50400001928E-02 0. -1.
       -1    1    3    3    0  502  0.29857485424E+03 -0.23706183064E+03  0.19437468583E+03  0.42793314156E+03  0.50400001928E-02 0.  1.
</event>
<event>
 5   0  0.2454354E-02  0.8060694E+03  0.7818609E-02  0.9551273E-01
       -2   -1    0    0    0  501  0.00000000000E+00  0.00000000000E+00  0.16386909861E+03  0.16386909863E+03  0.25500000920E-02 0.  1.
        2   -1    0    0  501    0  0.00000000000E+00  0.00000000000E+00 -0.99126047013E+03  0.99126047014E+03  0.25500000920E-02 0. -1.
    10030    2    1    2    0    0  0.00000000000E+00  0.00000000000E+00 -0.82739137152E+03  0.11551295688E+04  0.80606937603E+03 0.  0.
        5    1    3    3  502    0 -0.13814156825E+03 -0.51734149436E+02  0.12375226854E+03  0.19260381373E+03  0.46999998093E+01 0.  1.
       -5    1    3    3    0  502  0.13814156825E+03  0.51734149436E+02 -0.95114364006E+03  0.96252575504E+03  0.46999998093E+01 0. -1.
</event>
<event>
 5   0  0.1471290E-02  0.7988129E+03  0.7818609E-02  0.9561737E-01
       -1   -1    0    0    0  501  0.00000000000E+00  0.00000000000E+00  0.10454635757E+03  0.10454635769E+03  0.50400001928E-02 0.  1.
        1   -1    0    0  501    0  0.00000000000E+00  0.00000000000E+00 -0.15258830120E+04  0.15258830120E+04  0.50400001928E-02 0. -1.
    10030    2    1    2    0    0  0.00000000000E+00  0.00000000000E+00 -0.14213366545E+04  0.16304293697E+04  0.79881289698E+03 0.  0.
        2    1    3    3  502    0  0.35871396462E+03  0.16281673087E+03 -0.57619766503E+03  0.69798907259E+03  0.25500000920E-02 0. -1.
       -2    1    3    3    0  502 -0.35871396462E+03 -0.16281673087E+03 -0.84513898944E+03  0.93244029715E+03  0.25500000920E-02 0.  1.
</event>
<event>
 5   0  0.1498375E-02  0.8016423E+03  0.7818609E-02  0.9557643E-01
        1   -1    0    0  501    0  0.00000000000E+00  0.00000000000E+00  0.90222861159E+02  0.90222861300E+02  0.50400001928E-02 0. -1.
       -1   -1    0    0    0  501  0.00000000000E+00  0.00000000000E+00 -0.17806749450E+04  0.17806749450E+04  0.50400001928E-02 0.  1.
    10030    2    1    2    0    0  0.00000000000E+00  0.00000000000E+00 -0.16904520839E+04  0.18708978063E+04  0.80164228549E+03 0.  0.
        4    1    3    3  502    0  0.20813587165E+03  0.18985555453E+03 -0.17981681433E+03  0.33421755230E+03  0.12699999809E+01 0. -1.
       -4    1    3    3    0  502 -0.20813587165E+03 -0.18985555453E+03 -0.15106352695E+04  0.15366802540E+04  0.12699999809E+01 0.  1.
</event>
<event>
 5   0  0.2422031E-02  0.7948091E+03  0.7818609E-02  0.9567561E-01
       -2   -1    0    0    0  501  0.00000000000E+00  0.00000000000E+00  0.27980487080E+03  0.27980487081E+03  0.25500000920E-02 0.  1.
        2   -1    0    0  501    0  0.00000000000E+00  0.00000000000E+00 -0.56443046747E+03  0.56443046747E+03  0.25500000920E-02 0. -1.
    10030    2    1    2    0    0  0.00000000000E+00  0.00000000000E+00 -0.28462559667E+03  0.84423533828E+03  0.79480914446E+03 0.  0.
        4    1    3    3  502    0  0.89409788995E+02  0.35419393672E+02 -0.55188186522E+03  0.56019983030E+03  0.12699999809E+01 0. -1.
       -4    1    3    3    0  502 -0.89409788995E+02 -0.35419393672E+02  0.26725626855E+03  0.28403550798E+03  0.12699999809E+01 0.  1.
</event>
<event>
 5   0  0.2464780E-02  0.7856214E+03  0.7818609E-02  0.9581066E-01
        2   -1    0    0  501    0  0.00000000000E+00  0.00000000000E+00  0.55148369358E+03  0.55148369359E+03  0.25500000920E-02 0.  1.
       -2   -1    0    0    0  501  0.00000000000E+00  0.00000000000E+00 -0.27979110009E+03  0.27979110010E+03  0.25500000920E-02 0. -1.
    10030    2    1    2    0    0  0.00000000000E+00  0.00000000000E+00  0.27169259349E+03  0.83127479369E+03  0.78562135744E+03 0.  0.
        3    1    3    3  502    0 -0.26455994056E+03  0.19815665853E+03 -0.88718205478E+02  0.34224107534E+03  0.10100000352E+00 0. -1.
       -3    1    3    3    0  502  0.26455994056E+03 -0.19815665853E+03  0.36041079897E+03  0.48903371835E+03  0.10100000352E+00 0.  1.
</event>
<event>
 5   0  0.1523811E-02  0.8052620E+03  0.7818609E-02  0.9552432E-01
       -1   -1    0    0    0  501  0.00000000000E+00  0.00000000000E+00  0.39729218935E+03  0.39729218939E+03  0.50400001928E-02 0.  1.
        1   -1    0    0  501    0  0.00000000000E+00  0.00000000000E+00 -0.40804153330E+03  0.40804153333E+03  0.50400001928E-02 0. -1.
    10030    2    1    2    0    0  0.00000000000E+00  0.00000000000E+00 -0.10749343943E+02  0.80533372272E+03  0.80526198007E+03 0.  0.
        1    1    3    3  502    0 -0.14543811707E+03  0.18952927629E+03 -0.32949939897E+03  0.40699317736E+03  0.50400001928E-02 0. -1.
       -1    1    3    3    0  502  0.14543811707E+03 -0.18952927629E+03  0.31875005503E+03  0.39834054536E+03  0.50400001928E-02 0.  1.
</event>
<event>
 5   0  0.1523811E-02  0.7935703E+03  0.7818609E-02  0.9569371E-01
        1   -1    0    0  501    0  0.00000000000E+00  0.00000000000E+00  0.40204293925E+03  0.40204293928E+03  0.50400001928E-02 0.  1.
       -1   -1    0    0    0  501  0.00000000000E+00  0.00000000000E+00 -0.39159614712E+03  0.39159614715E+03  0.50400001928E-02 0. -1.
    10030    2    1    2    0    0  0.00000000000E+00  0.00000000000E+00  0.10446792127E+02  0.79363908643E+03  0.79357032709E+03 0.  0.
        1    1    3    3  502    0  0.26634375814E+03  0.27664462414E+03 -0.94621221825E+02  0.39550527331E+03  0.50400001928E-02 0. -1.
       -1    1    3    3    0  502 -0.26634375814E+03 -0.27664462414E+03  0.10506801395E+03  0.39813381312E+03  0.50400001928E-02 0.  1.
</event>
<event>
 5   0  0.1471290E-02  0.8217411E+03  0.7818609E-02  0.9529070E-01
        1   -1    0    0  501    0  0.00000000000E+00  0.00000000000E+00  0.24351518891E+03  0.24351518896E+03  0.50400001928E-02 0.  1.
       -1   -1    0    0    0  501  0.00000000000E+00  0.00000000000E+00 -0.69324058473E+03  0.69324058474E+03  0.50400001928E-02 0. -1.
    10030    2    1    2    0    0  0.00000000000E+00  0.00000000000E+00 -0.44972539582E+03  0.93675577370E+03  0.82174110760E+03 0.  0.
        2    1    3    3  502    0 -0.10077393033E+03 -0.30597838459E+03  0.65853878899E+02  0.32880828798E+03  0.25500000920E-02 0.  1.
       -2    1    3    3    0  502  0.10077393033E+03  0.30597838459E+03 -0.51557927472E+03  0.60794748572E+03  0.25500000920E-02 0. -1.
</event>
<event>
 5   0  0.1471290E-02  0.7985823E+03  0.7818609E-02  0.9562071E-01
        1   -1    0    0  501    0  0.00000000000E+00  0.00000000000E+00  0.68457923476E+03  0.68457923477E+03  0.50400001928E-02 0.  1.
       -1   -1    0    0    0  501  0.00000000000E+00  0.00000000000E+00 -0.23289255359E+03  0.23289255365E+03  0.50400001928E-02 0. -1.
    10030    2    1    2    0    0  0.00000000000E+00  0.00000000000E+00  0.45168668116E+03  0.91747178842E+03  0.79858225914E+03 0.  0.
        2    1    3    3  502    0  0.36103877508E+03  0.15701661651E+03  0.14937453709E+03  0.42108902539E+03  0.25500000920E-02 0. -1.
       -2    1    3    3    0  502 -0.36103877508E+03 -0.15701661651E+03  0.30231214407E+03  0.49638276303E+03  0.25500000920E-02 0.  1.
</event>
<event>
 5   0  0.2454354E-02  0.7965397E+03  0.7818609E-02  0.9565039E-01
       -2   -1    0    0    0  501  0.00000000000E+00  0.00000000000E+00  0.27603559428E+03  0.27603559429E+03  0.25500000920E-02 0. -1.
        2   -1    0    0  501    0  0.00000000000E+00  0.00000000000E+00 -0.57463195550E+03  0.57463195551E+03  0.25500000920E-02 0.  1.
    10030    2    1    2    0    0  0.00000000000E+00  0.00000000000E+00 -0.29859636122E+03  0.85066754980E+03  0.79653969980E+03 0.  0.
        5    1    3    3  502    0  0.16199922971E+03 -0.29776941632E+03 -0.37251432741E+03  0.50368580469E+03  0.46999998093E+01 0.  1.
       -5    1    3    3    0  502 -0.16199922971E+03  0.29776941632E+03  0.73917966189E+02  0.34698174512E+03  0.46999998093E+01 0. -1.
</event>
<event>
 5   0  0.1509629E-02  0.7776817E+03  0.7818609E-02  0.9592896E-01
        1   -1    0    0  501    0  0.00000000000E+00  0.00000000000E+00  0.86268153444E+03  0.86268153446E+03  0.50400001928E-02 0.  1.
       -1   -1    0    0    0  501  0.00000000000E+00  0.00000000000E+00 -0.17526423410E+03  0.17526423417E+03  0.50400001928E-02 0. -1.
    10030    2    1    2    0    0  0.00000000000E+00  0.00000000000E+00  0.68741730034E+03  0.10379457686E+04  0.77768173040E+03 0.  0.
        5    1    3    3  502    0  0.37236584708E+03  0.17257183967E+02  0.19616312879E+03  0.42125550152E+03  0.46999998093E+01 0. -1.
       -5    1    3    3    0  502 -0.37236584708E+03 -0.17257183967E+02  0.49125417156E+03  0.61669026710E+03  0.46999998093E+01 0.  1.
</event>
<event>
 5   0  0.1624094E-02  0.8003158E+03  0.7818609E-02  0.9559560E-01
       -1   -1    0    0    0  501  0.00000000000E+00  0.00000000000E+00  0.12649847513E+03  0.12649847523E+03  0.50400001928E-02 0. -1.
        1   -1    0    0  501    0  0.00000000000E+00  0.00000000000E+00 -0.12658361633E+04  0.12658361633E+04  0.50400001928E-02 0.  1.
    10030    2    1    2    0    0  0.00000000000E+00  0.00000000000E+00 -0.11393376882E+04  0.13923346385E+04  0.80031579892E+03 0.  0.
        3    1    3    3  502    0  0.22769826351E+03 -0.28919536996E+03 -0.84278937073E+03  0.91965993434E+03  0.10100000352E+00 0.  1.
       -3    1    3    3    0  502 -0.22769826351E+03  0.28919536996E+03 -0.29654831744E+03  0.47267470420E+03  0.10100000352E+00 0. -1.
</event>
<event>
 5   0  0.1624094E-02  0.7910315E+03  0.7818609E-02  0.9573090E-01
        1   -1    0    0  501    0  0.00000000000E+00  0.00000000000E+00  0.17581349818E+04  0.17581349818E+04  0.50400001928E-02 0.  1.
       -1   -1    0    0    0  501  0.00000000000E+00  0.00000000000E+00 -0.88976516229E+02  0.88976516372E+02  0.50400001928E-02 0. -1.
    10030    2    1    2    0    0  0.00000000000E+00  0.00000000000E+00  0.16691584655E+04  0.18471114982E+04  0.79103154394E+03 0.  0.
        3    1    3    3  502    0  0.31609420683E+03 -0.21625166561E+03  0.10651768063E+04  0.11319372639E+04  0.10100000352E+00 0.  1.
       -3    1    3    3    0  502 -0.31609420683E+03  0.21625166561E+03  0.60398165926E+03  0.71517423429E+03  0.10100000352E+00 0. -1.
</event>
<event>
 5   0  0.1498375E-02  0.7929121E+03  0.7818609E-02  0.9570334E-01
        1   -1    0    0  501    0  0.00000000000E+00  0.00000000000E+00  0.11249400684E+04  0.11249400684E+04  0.50400001928E-02 0.  1.
       -1   -1    0    0    0  501  0.00000000000E+00  0.00000000000E+00 -0.13972069505E+03  0.13972069514E+03  0.50400001928E-02 0. -1.
    10030    2    1    2    0    0  0.00000000000E+00  0.00000000000E+00  0.98521937335E+03  0.12646607635E+04  0.79291212202E+03 0.  0.
        4    1    3    3  502    0  0.68548467086E+02 -0.81151609748E+02  0.11018150430E+04  0.11069247842E+04  0.12699999809E+01 0.  1.
       -4    1    3    3    0  502 -0.68548467086E+02  0.81151609748E+02 -0.11659566962E+03  0.15773597934E+03  0.12699999809E+01 0. -1.
</event>
<event>
 5   0  0.2460312E-02  0.7924941E+03  0.7818609E-02  0.9570946E-01
       -2   -1    0    0    0  501  0.00000000000E+00  0.00000000000E+00  0.10673739751E+03  0.10673739754E+03  0.25500000920E-02 0. -1.
        2   -1    0    0  501    0  0.00000000000E+00  0.00000000000E+00 -0.14710096433E+04  0.14710096433E+04  0.25500000920E-02 0.  1.
    10030    2    1    2    0    0  0.00000000000E+00  0.00000000000E+00 -0.13642722458E+04  0.15777470409E+04  0.79249414148E+03 0.  0.
        2    1    3    3  502    0 -0.28097796967E+03  0.19997762319E+03 -0.29367767587E+03  0.45297488510E+03  0.25500000920E-02 0. -1.
       -2    1    3    3    0  502  0.28097796967E+03 -0.19997762319E+03 -0.10705945699E+04  0.11247721558E+04  0.25500000920E-02 0.  1.
</event>
<event>
 5   0  0.2571778E-02  0.8059238E+03  0.7818609E-02  0.9551482E-01
        2   -1    0    0  501    0  0.00000000000E+00  0.00000000000E+00  0.21657966936E+03  0.21657966938E+03  0.25500000920E-02 0. -1.
       -2   -1    0    0    0  501  0.00000000000E+00  0.00000000000E+00 -0.74973939582E+03  0.74973939583E+03  0.25500000920E-02 0.  1.
    10030    2    1    2    0    0  0.00000000000E+00  0.00000000000E+00 -0.53315972646E+03  0.96631906521E+03  0.80592384371E+03 0.  0.
        1    1    3    3  502    0  0.37919468243E+03 -0.95753597403E+02 -0.15020104704E+03  0.41894834187E+03  0.50400001928E-02 0. -1.
       -1    1    3    3    0  502 -0.37919468243E+03  0.95753597403E+02 -0.38295867942E+03  0.54737072334E+03  0.50400001928E-02 0.  1.
</event>
<event>
 5   0  0.1509629E-02  0.8809548E+03  0.7818609E-02  0.9449707E-01
        1   -1    0    0  501    0  0.00000000000E+00  0.00000000000E+00  0.10173104411E+04  0.10173104412E+04  0.50400001928E-02 0. -1.
       -1   -1    0    0    0  501  0.00000000000E+00  0.00000000000E+00 -0.19071892324E+03  0.19071892331E+03  0.50400001928E-02 0.  1.
    10030    2    1    2    0    0  0.00000000000E+00  0.00000000000E+00  0.82659151790E+03  0.12080293645E+04  0.88095482741E+03 0.  0.
        5    1    3    3  502    0 -0.63549135978E+02  0.12853835914E+03  0.98437392155E+03  0.99477369783E+03  0.46999998093E+01 0. -1.
       -5    1    3    3    0  502  0.63549135978E+02 -0.12853835914E+03 -0.15778240365E+03  0.21325566664E+03  0.46999998093E+01 0.  1.
</event>
<event>
 5   0  0.1471290E-02  0.8003600E+03  0.7818609E-02  0.9559496E-01
        1   -1    0    0  501    0  0.00000000000E+00  0.00000000000E+00  0.61175783940E+03  0.61175783942E+03  0.50400001928E-02 0. -1.
       -1   -1    0    0    0  501  0.00000000000E+00  0.00000000000E+00 -0.26177686571E+03  0.26177686576E+03  0.50400001928E-02 0.  1.
    10030    2    1    2    0    0  0.00000000000E+00  0.00000000000E+00  0.34998097369E+03  0.87353470518E+03  0.80036004348E+03 0.  0.
        2    1    3    3  502    0  0.23567433459E+03 -0.18114177340E+03 -0.11744136321E+03  0.31960476819E+03  0.25500000920E-02 0.  1.
       -2    1    3    3    0  502 -0.23567433459E+03  0.18114177340E+03  0.46742233690E+03  0.55392993699E+03  0.25500000920E-02 0. -1.
</event>
<event>
 5   0  0.1624094E-02  0.7997392E+03  0.7818609E-02  0.9560395E-01
        1   -1    0    0  501    0  0.00000000000E+00  0.00000000000E+00  0.11135180043E+04  0.11135180043E+04  0.50400001928E-02 0. -1.
       -1   -1    0    0    0  501  0.00000000000E+00  0.00000000000E+00 -0.14359508724E+03  0.14359508733E+03  0.50400001928E-02 0.  1.
    10030    2    1    2    0    0  0.00000000000E+00  0.00000000000E+00  0.96992291707E+03  0.12571130916E+04  0.79973924508E+03 0.  0.
        3    1    3    3  502    0 -0.19837161529E+03  0.13847615519E+02 -0.60361485356E+02  0.20781379483E+03  0.10100000352E+00 0.  1.
       -3    1    3    3    0  502  0.19837161529E+03 -0.13847615519E+02  0.10302844024E+04  0.10492992968E+04  0.10100000352E+00 0. -1.
</event>
<event>
 5   0  0.2460312E-02  0.7832322E+03  0.7818609E-02  0.9584610E-01
        2   -1    0    0  501    0  0.00000000000E+00  0.00000000000E+00  0.15171475603E+04  0.15171475603E+04  0.25500000920E-02 0.  1.
       -2   -1    0    0    0  501  0.00000000000E+00  0.00000000000E+00 -0.10108650899E+03  0.10108650902E+03  0.25500000920E-02 0. -1.
    10030    2    1    2    0    0  0.00000000000E+00  0.00000000000E+00  0.14160610513E+04  0.16182340693E+04  0.78323215080E+03 0.  0.
        2    1    3    3  502    0 -0.27480559772E+03  0.19017016312E+03  0.11298401416E+04  0.11782281414E+04  0.25500000920E-02 0.  1.
       -2    1    3    3    0  502  0.27480559772E+03 -0.19017016312E+03  0.28622090966E+03  0.44000592792E+03  0.25500000920E-02 0. -1.
</event>
<event>
 5   0  0.2571778E-02  0.7877922E+03  0.7818609E-02  0.9577857E-01
       -2   -1    0    0    0  501  0.00000000000E+00  0.00000000000E+00  0.19236139881E+03  0.19236139883E+03  0.25500000920E-02 0.  1.
        2   -1    0    0  501    0  0.00000000000E+00  0.00000000000E+00 -0.80657633224E+03  0.80657633225E+03  0.25500000920E-02 0. -1.
    10030    2    1    2    0    0  0.00000000000E+00  0.00000000000E+00 -0.61421493343E+03  0.99893773107E+03  0.78779223537E+03 0.  0.
        1    1    3    3  502    0  0.35123035715E+02 -0.33089828688E+03 -0.39837924191E+02  0.33513335276E+03  0.50400001928E-02 0.  1.
       -1    1    3    3    0  502 -0.35123035715E+02  0.33089828688E+03 -0.57437700924E+03  0.66380437832E+03  0.50400001928E-02 0. -1.
</event>
<event>
 5   0  0.1523811E-02  0.8195414E+03  0.7818609E-02  0.9532155E-01
        1   -1    0    0  501    0  0.00000000000E+00  0.00000000000E+00  0.81640463948E+03  0.81640463949E+03  0.50400001928E-02 0. -1.
       -1   -1    0    0    0  501  0.00000000000E+00  0.00000000000E+00 -0.20567257186E+03  0.20567257193E+03  0.50400001928E-02 0.  1.
    10030    2    1    2    0    0  0.00000000000E+00  0.00000000000E+00  0.61073206761E+03  0.10220772114E+04  0.81954143745E+03 0.  0.
        1    1    3    3  502    0  0.15173038267E+03  0.18661476392E+03  0.71911520447E+03  0.75827030568E+03  0.50400001928E-02 0. -1.
       -1    1    3    3    0  502 -0.15173038267E+03 -0.18661476392E+03 -0.10838313686E+03  0.26380690574E+03  0.50400001928E-02 0.  1.
</event>
<event>
 5   0  0.2460312E-02  0.7978202E+03  0.7818609E-02  0.9563178E-01
        2   -1    0    0  501    0  0.00000000000E+00  0.00000000000E+00  0.20565958456E+04  0.20565958456E+04  0.25500000920E-02 0. -1.
       -2   -1    0    0    0  501  0.00000000000E+00  0.00000000000E+00 -0.77375074248E+02  0.77375074290E+02  0.25500000920E-02 0.  1.
    10030    2    1    2    0    0  0.00000000000E+00  0.00000000000E+00  0.19792207713E+04  0.21339709199E+04  0.79782017096E+03 0.  0.
        2    1    3    3  502    0  0.28175241627E+03  0.92212580163E+02  0.27568876037E+03  0.40483561679E+03  0.25500000920E-02 0.  1.
       -2    1    3    3    0  502 -0.28175241627E+03 -0.92212580163E+02  0.17035320110E+04  0.17291353031E+04  0.25500000920E-02 0. -1.
</event>
<event>
 5   0  0.1471290E-02  0.8019441E+03  0.7818609E-02  0.9557207E-01
        1   -1    0    0  501    0  0.00000000000E+00  0.00000000000E+00  0.38140859941E+03  0.38140859945E+03  0.50400001928E-02 0.  1.
       -1   -1    0    0    0  501  0.00000000000E+00  0.00000000000E+00 -0.42153893813E+03  0.42153893816E+03  0.50400001928E-02 0. -1.
    10030    2    1    2    0    0  0.00000000000E+00  0.00000000000E+00 -0.40130338720E+02  0.80294753761E+03  0.80194407789E+03 0.  0.
        2    1    3    3  502    0  0.95933822954E+02  0.45967919582E+02  0.36702203189E+03  0.38212762255E+03  0.25500000920E-02 0.  1.
       -2    1    3    3    0  502 -0.95933822954E+02 -0.45967919582E+02 -0.40715237061E+03  0.42081991506E+03  0.25500000920E-02 0. -1.
</event>
<event>
 5   0  0.9919125E-03  0.7937678E+03  0.7818609E-02  0.9569082E-01
       -3   -1    0    0    0  501  0.00000000000E+00  0.00000000000E+00  0.40331938126E+03  0.40331939391E+03  0.10100000352E+00 0. -1.
        3   -1    0    0  501    0  0.00000000000E+00  0.00000000000E+00 -0.39055111402E+03  0.39055112708E+03  0.10100000352E+00 0.  1.
    10030    2    1    2    0    0  0.00000000000E+00  0.00000000000E+00  0.12768267239E+02  0.79387052099E+03  0.79376783473E+03 0.  0.
        4    1    3    3  502    0 -0.24766197939E+03 -0.20067163533E+03  0.24286697912E+03  0.40073874745E+03  0.12699999809E+01 0. -1.
       -4    1    3    3    0  502  0.24766197939E+03  0.20067163533E+03 -0.23009871188E+03  0.39313177354E+03  0.12699999809E+01 0.  1.
</event>
<event>
 5   0  0.1624094E-02  0.7839173E+03  0.7818609E-02  0.9583592E-01
       -1   -1    0    0    0  501  0.00000000000E+00  0.00000000000E+00  0.28276862556E+03  0.28276862560E+03  0.50400001928E-02 0.  1.
        1   -1    0    0  501    0  0.00000000000E+00  0.00000000000E+00 -0.54331205219E+03  0.54331205222E+03  0.50400001928E-02 0. -1.
    10030    2    1    2    0    0  0.00000000000E+00  0.00000000000E+00 -0.26054342663E+03  0.82608067782E+03  0.78391734839E+03 0.  0.
        3    1    3    3  502    0  0.24136802047E+03 -0.30745245436E+03 -0.99620156758E+02  0.40337292773E+03  0.10100000352E+00 0.  1.
       -3    1    3    3    0  502 -0.24136802047E+03  0.30745245436E+03 -0.16092326987E+03  0.42270775009E+03  0.10100000352E+00 0. -1.
</event>
<event>
 5   0  0.2454354E-02  0.7976649E+03  0.7818609E-02  0.9563403E-01
        2   -1    0    0  501    0  0.00000000000E+00  0.00000000000E+00  0.18857259315E+04  0.18857259315E+04  0.25500000920E-02 0. -1.
       -2   -1    0    0    0  501  0.00000000000E+00  0.00000000000E+00 -0.84353364876E+02  0.84353364914E+02  0.25500000920E-02 0.  1.
    10030    2    1    2    0    0  0.00000000000E+00  0.00000000000E+00  0.18013725667E+04  0.19700792964E+04  0.79766491109E+03 0.  0.
        5    1    3    3  502    0 -0.37662428073E+03 -0.22918225434E+02  0.58176390869E+03  0.69342802752E+03  0.46999998093E+01 0.  1.
       -5    1    3    3    0  502  0.37662428073E+03  0.22918225434E+02  0.12196086580E+04  0.12766512689E+04  0.46999998093E+01 0. -1.
</event>
<event>
 5   0  0.2460312E-02  0.8152416E+03  0.7818609E-02  0.9538214E-01
       -2   -1    0    0    0  501  0.00000000000E+00  0.00000000000E+00  0.16050144698E+03  0.16050144700E+03  0.25500000920E-02 0. -1.
        2   -1    0    0  501    0  0.00000000000E+00  0.00000000000E+00 -0.10352225253E+04  0.10352225253E+04  0.25500000920E-02 0.  1.
    10030    2    1    2    0    0  0.00000000000E+00  0.00000000000E+00 -0.87472107832E+03  0.11957239723E+04  0.81524159185E+03 0.  0.
        2    1    3    3  502    0  0.22017742033E+03  0.21701535308E+03 -0.82702281978E+03  0.88291591011E+03  0.25500000920E-02 0.  1.
       -2    1    3    3    0  502 -0.22017742033E+03 -0.21701535308E+03 -0.47698258547E+02  0.31280806219E+03  0.25500000920E-02 0. -1.
</event>
<event>
 5   0  0.1509629E-02  0.7995957E+03  0.7818609E-02  0.9560602E-01
       -1   -1    0    0    0  501  0.00000000000E+00  0.00000000000E+00  0.27326972935E+03  0.27326972940E+03  0.50400001928E-02 0.  1.
        1   -1    0    0  501    0  0.00000000000E+00  0.00000000000E+00 -0.58491048876E+03  0.58491048878E+03  0.50400001928E-02 0. -1.
    10030    2    1    2    0    0  0.00000000000E+00  0.00000000000E+00 -0.31164075941E+03  0.85818021817E+03  0.79959572531E+03 0.  0.
        5    1    3    3  502    0  0.12049898153E+03 -0.32825181531E+03 -0.36378791939E+03  0.50461173103E+03  0.46999998093E+01 0. -1.
       -5    1    3    3    0  502 -0.12049898153E+03  0.32825181531E+03  0.52147159978E+02  0.35356848714E+03  0.46999998093E+01 0.  1.
</event>
<event>
 5   0  0.1509629E-02  0.6565060E+03  0.7818609E-02  0.9794647E-01
       -1   -1    0    0    0  501  0.00000000000E+00  0.00000000000E+00  0.69852470461E+02  0.69852470642E+02  0.50400001928E-02 0.  1.
        1   -1    0    0  501    0  0.00000000000E+00  0.00000000000E+00 -0.15425371403E+04  0.15425371403E+04  0.50400001928E-02 0. -1.
    10030    2    1    2    0    0  0.00000000000E+00  0.00000000000E+00 -0.14726846698E+04  0.16123896109E+04  0.65650599442E+03 0.  0.
        5    1    3    3  502    0  0.26113594044E+03  0.13730137472E+03 -0.38311716810E+03  0.48357471127E+03  0.46999998093E+01 0.  1.
       -5    1    3    3    0  502 -0.26113594044E+03 -0.13730137472E+03 -0.10895675017E+04  0.11288148996E+04  0.46999998093E+01 0. -1.
</event>
<event>
 5   0  0.1471290E-02  0.8197433E+03  0.7818609E-02  0.9531871E-01
        1   -1    0    0  501    0  0.00000000000E+00  0.00000000000E+00  0.14124920093E+04  0.14124920093E+04  0.50400001928E-02 0. -1.
       -1   -1    0    0    0  501  0.00000000000E+00  0.00000000000E+00 -0.11893502034E+03  0.11893502044E+03  0.50400001928E-02 0.  1.
    10030    2    1    2    0    0  0.00000000000E+00  0.00000000000E+00  0.12935569890E+04  0.15314270298E+04  0.81974329139E+03 0.  0.
        2    1    3    3  502    0  0.15706797844E+03 -0.60245492126E+02 -0.51467909123E+02  0.17592275250E+03  0.25500000920E-02 0.  1.
       -2    1    3    3    0  502 -0.15706797844E+03  0.60245492126E+02  0.13450248981E+04  0.13555042773E+04  0.25500000920E-02 0. -1.
</event>
<event>
 5   0  0.1523811E-02  0.7864000E+03  0.7818609E-02  0.9579914E-01
       -1   -1    0    0    0  501  0.00000000000E+00  0.00000000000E+00  0.39110969189E+03  0.39110969192E+03  0.50400001928E-02 0. -1.
        1   -1    0    0  501    0  0.00000000000E+00  0.00000000000E+00 -0.39530152551E+03  0.39530152554E+03  0.50400001928E-02 0.  1.
    10030    2    1    2    0    0  0.00000000000E+00  0.00000000000E+00 -0.41918336209E+01  0.78641121746E+03  0.78640004545E+03 0.  0.
        1    1    3    3  502    0  0.22385762418E+03 -0.32263832105E+03  0.17867726449E+02  0.39309919587E+03  0.50400001928E-02 0.  1.
       -1    1    3    3    0  502 -0.22385762418E+03  0.32263832105E+03 -0.22059560070E+02  0.39331202160E+03  0.50400001928E-02 0. -1.
</event>
<event>
 5   0  0.2460312E-02  0.7376764E+03  0.7818609E-02  0.9654885E-01
        2   -1    0    0  501    0  0.00000000000E+00  0.00000000000E+00  0.75259292902E+03  0.75259292902E+03  0.25500000920E-02 0.  1.
       -2   -1    0    0    0  501  0.00000000000E+00  0.00000000000E+00 -0.18076386926E+03  0.18076386928E+03  0.25500000920E-02 0. -1.
    10030    2    1    2    0    0  0.00000000000E+00  0.00000000000E+00  0.57182905976E+03  0.93335679830E+03  0.73767637847E+03 0.  0.
        2    1    3    3  502    0 -0.20693184940E+03  0.16279854623E+03  0.61272920301E+03  0.66690421589E+03  0.25500000920E-02 0.  1.
       -2    1    3    3    0  502  0.20693184940E+03 -0.16279854623E+03 -0.40900143247E+02  0.26645258241E+03  0.25500000920E-02 0. -1.
</event>
<event>
 5   0  0.1523811E-02  0.8073125E+03  0.7818609E-02  0.9549492E-01
        1   -1    0    0  501    0  0.00000000000E+00  0.00000000000E+00  0.30401961012E+03  0.30401961017E+03  0.50400001928E-02 0.  1.
       -1   -1    0    0    0  501  0.00000000000E+00  0.00000000000E+00 -0.53594689206E+03  0.53594689208E+03  0.50400001928E-02 0. -1.
    10030    2    1    2    0    0  0.00000000000E+00  0.00000000000E+00 -0.23192728194E+03  0.83996650225E+03  0.80731249265E+03 0.  0.
        1    1    3    3  502    0  0.32681573095E+03  0.22401324841E+03 -0.19620576287E+03  0.44213929804E+03  0.50400001928E-02 0. -1.
       -1    1    3    3    0  502 -0.32681573095E+03 -0.22401324841E+03 -0.35721519061E+02  0.39782720421E+03  0.50400001928E-02 0.  1.
</event>
<event>
 5   0  0.9919125E-03  0.7543356E+03  0.7818609E-02  0.9628573E-01
        3   -1    0    0  501    0  0.00000000000E+00  0.00000000000E+00  0.23055704854E+03  0.23055707067E+03  0.10100000352E+00 0. -1.
       -3   -1    0    0    0  501  0.00000000000E+00  0.00000000000E+00 -0.61700799815E+03  0.61700800641E+03  0.10100000352E+00 0.  1.
    10030    2    1    2    0    0  0.00000000000E+00  0.00000000000E+00 -0.38645094960E+03  0.84756507708E+03  0.75433561724E+03 0.  0.
        3    1    3    3  502    0  0.11635667013E+03  0.35394327862E+03 -0.25913373183E+03  0.45383369237E+03  0.10100000352E+00 0.  1.
       -3    1    3    3    0  502 -0.11635667013E+03 -0.35394327862E+03 -0.12731721778E+03  0.39373138471E+03  0.10100000352E+00 0. -1.
</event>
<event>
 5   0  0.2454354E-02  0.8168857E+03  0.7818609E-02  0.9535892E-01
       -2   -1    0    0    0  501  0.00000000000E+00  0.00000000000E+00  0.29598349135E+03  0.29598349136E+03  0.25500000920E-02 0. -1.
        2   -1    0    0  501    0  0.00000000000E+00  0.00000000000E+00 -0.56363127448E+03  0.56363127449E+03  0.25500000920E-02 0.  1.
    10030    2    1    2    0    0  0.00000000000E+00  0.00000000000E+00 -0.26764778313E+03  0.85961476585E+03  0.81688567734E+03 0.  0.
        5    1    3    3  502    0 -0.23765697833E+03 -0.28749223195E+03  0.41222738551E+02  0.37530524504E+03  0.46999998093E+01 0. -1.
       -5    1    3    3    0  502  0.23765697833E+03  0.28749223195E+03 -0.30887052168E+03  0.48430952081E+03  0.46999998093E+01 0.  1.
</event>
<event>
 5   0  0.1624094E-02  0.8029761E+03  0.7818609E-02  0.9555719E-01
        1   -1    0    0  501    0  0.00000000000E+00  0.00000000000E+00  0.43763893269E+03  0.43763893272E+03  0.50400001928E-02 0.  1.
       -1   -1    0    0    0  501  0.00000000000E+00  0.00000000000E+00 -0.36832336741E+03  0.36832336745E+03  0.50400001928E-02 0. -1.
    10030    2    1    2    0    0  0.00000000000E+00  0.00000000000E+00  0.69315565277E+02  0.80596230017E+03  0.80297607791E+03 0.  0.
        3    1    3    3  502    0 -0.36744933517E+03  0.48531515321E+02  0.18956356253E+03  0.41630358675E+03  0.10100000352E+00 0.  1.
       -3    1    3    3    0  502  0.36744933517E+03 -0.48531515321E+02 -0.12024799725E+03  0.38965871342E+03  0.10100000352E+00 0. -1.
</event>
<event>
 5   0  0.1509629E-02  0.7940067E+03  0.7818609E-02  0.9568733E-01
       -1   -1    0    0    0  501  0.00000000000E+00  0.00000000000E+00  0.28099542692E+03  0.28099542696E+03  0.50400001928E-02 0.  1.
        1   -1    0    0  501    0  0.00000000000E+00  0.00000000000E+00 -0.56090478438E+03  0.56090478440E+03  0.50400001928E-02 0. -1.
    10030    2    1    2    0    0  0.00000000000E+00  0.00000000000E+00 -0.27990935746E+03  0.84190021136E+03  0.79400674902E+03 0.  0.
        5    1    3    3  502    0 -0.34502586748E+03 -0.12947488639E+03 -0.29644778460E+03  0.47297988797E+03  0.46999998093E+01 0. -1.
       -5    1    3    3    0  502  0.34502586748E+03  0.12947488639E+03  0.16538427135E+02  0.36892032339E+03  0.46999998093E+01 0.  1.
</event>
<event>
 5   0  0.1509629E-02  0.7973681E+03  0.7818609E-02  0.9563834E-01
       -1   -1    0    0    0  501  0.00000000000E+00  0.00000000000E+00  0.52342587718E+03  0.52342587720E+03  0.50400001928E-02 0.  1.
        1   -1    0    0  501    0  0.00000000000E+00  0.00000000000E+00 -0.30367047475E+03  0.30367047479E+03  0.50400001928E-02 0. -1.
    10030    2    1    2    0    0  0.00000000000E+00  0.00000000000E+00  0.21975540243E+03  0.82709635200E+03  0.79736813241E+03 0.  0.
        5    1    3    3  502    0 -0.14007525318E+03  0.34241951245E+03 -0.44167354831E+02  0.37261916791E+03  0.46999998093E+01 0. -1.
       -5    1    3    3    0  502  0.14007525318E+03 -0.34241951245E+03  0.26392275726E+03  0.45447718409E+03  0.46999998093E+01 0.  1.
</event>
<event>
 5   0  0.2460312E-02  0.8377938E+03  0.7818609E-02  0.9506868E-01
        2   -1    0    0  501    0  0.00000000000E+00  0.00000000000E+00  0.85316252965E+03  0.85316252965E+03  0.25500000920E-02 0.  1.
       -2   -1    0    0    0  501  0.00000000000E+00  0.00000000000E+00 -0.20567548212E+03  0.20567548214E+03  0.25500000920E-02 0. -1.
    10030    2    1    2    0    0  0.00000000000E+00  0.00000000000E+00  0.64748704753E+03  0.10588380118E+04  0.83779380428E+03 0.  0.
        2    1    3    3  502    0  0.16920945403E+03 -0.37811187698E+03  0.24507835325E+03  0.48131468924E+03  0.25500000920E-02 0. -1.
       -2    1    3    3    0  502 -0.16920945403E+03  0.37811187698E+03  0.40240869428E+03  0.57752332254E+03  0.25500000920E-02 0.  1.
</event>
<event>
 5   0  0.1509629E-02  0.8076724E+03  0.7818609E-02  0.9548978E-01
       -1   -1    0    0    0  501  0.00000000000E+00  0.00000000000E+00  0.16408069798E+03  0.16408069806E+03  0.50400001928E-02 0. -1.
        1   -1    0    0  501    0  0.00000000000E+00  0.00000000000E+00 -0.99392357039E+03  0.99392357041E+03  0.50400001928E-02 0.  1.
    10030    2    1    2    0    0  0.00000000000E+00  0.00000000000E+00 -0.82984287241E+03  0.11580042685E+04  0.80767239206E+03 0.  0.
        5    1    3    3  502    0  0.65987701383E+02 -0.39484801656E+03 -0.49081909605E+03  0.63339151238E+03  0.46999998093E+01 0.  1.
       -5    1    3    3    0  502 -0.65987701383E+02  0.39484801656E+03 -0.33902377637E+03  0.52461275609E+03  0.46999998093E+01 0. -1.
</event>
<event>
 5   0  0.1523811E-02  0.8194968E+03  0.7818609E-02  0.9532217E-01
        1   -1    0    0  501    0  0.00000000000E+00  0.00000000000E+00  0.55065461028E+03  0.55065461030E+03  0.50400001928E-02 0.  1.
       -1   -1    0    0    0  501  0.00000000000E+00  0.00000000000E+00 -0.30489847279E+03  0.30489847283E+03  0.50400001928E-02 0. -1.
    10030    2    1    2    0    0  0.00000000000E+00  0.00000000000E+00  0.24575613749E+03  0.85555308313E+03  0.81949679618E+03 0.  0.
        1    1    3    3  502    0  0.45413687232E+02 -0.38968053732E+03  0.24631920090E+03  0.46323479243E+03  0.50400001928E-02 0. -1.
       -1    1    3    3    0  502 -0.45413687232E+02  0.38968053732E+03 -0.56306341130E+00  0.39231829071E+03  0.50400001928E-02 0.  1.
</event>
<event>
 5   0  0.2460312E-02  0.8020199E+03  0.7818609E-02  0.9557098E-01
       -2   -1    0    0    0  501  0.00000000000E+00  0.00000000000E+00  0.19886978704E+03  0.19886978706E+03  0.25500000920E-02 0. -1.
        2   -1    0    0  501    0  0.00000000000E+00  0.00000000000E+00 -0.80861452877E+03  0.80861452877E+03  0.25500000920E-02 0.  1.
    10030    2    1    2    0    0  0.00000000000E+00  0.00000000000E+00 -0.60974474173E+03  0.10074843158E+04  0.80201994775E+03 0.  0.
        2    1    3    3  502    0  0.31924502150E+03  0.10202192672E+03 -0.28274710916E+02  0.33634107179E+03  0.25500000920E-02 0. -1.
       -2    1    3    3    0  502 -0.31924502150E+03 -0.10202192672E+03 -0.58147003081E+03  0.67114324405E+03  0.25500000920E-02 0.  1.
</event>
<event>
 5   0  0.9919125E-03  0.8004171E+03  0.7818609E-02  0.9559414E-01
       -4   -1    0    0    0  501  0.00000000000E+00  0.00000000000E+00  0.43567765943E+03  0.43567951045E+03  0.12699999809E+01 0.  1.
        4   -1    0    0  501    0  0.00000000000E+00  0.00000000000E+00 -0.36762328293E+03  0.36762547661E+03  0.12699999809E+01 0. -1.
    10030    2    1    2    0    0  0.00000000000E+00  0.00000000000E+00  0.68054376497E+02  0.80330498706E+03  0.80041708132E+03 0.  0.
        1    1    3    3  502    0 -0.17154945110E+03 -0.26173276186E+03  0.28439394182E+03  0.42286305936E+03  0.50400001928E-02 0.  1.
       -1    1    3    3    0  502  0.17154945110E+03  0.26173276186E+03 -0.21633956532E+03  0.38044192770E+03  0.50400001928E-02 0. -1.
</event>
<event>
 5   0  0.1471290E-02  0.8064680E+03  0.7818609E-02  0.9550702E-01
       -1   -1    0    0    0  501  0.00000000000E+00  0.00000000000E+00  0.22261137350E+03  0.22261137355E+03  0.50400001928E-02 0. -1.
        1   -1    0    0  501    0  0.00000000000E+00  0.00000000000E+00 -0.73041037308E+03  0.73041037310E+03  0.50400001928E-02 0.  1.
    10030    2    1    2    0    0  0.00000000000E+00  0.00000000000E+00 -0.50779899959E+03  0.95302174665E+03  0.80646799417E+03 0.  0.
        2    1    3    3  502    0 -0.30480588111E+03 -0.26217913354E+03 -0.29038266141E+03  0.49595021250E+03  0.25500000920E-02 0. -1.
       -2    1    3    3    0  502  0.30480588111E+03  0.26217913354E+03 -0.21741633818E+03  0.45707153416E+03  0.25500000920E-02 0.  1.
</event>
<event>
 5   0  0.1471290E-02  0.7622886E+03  0.7818609E-02  0.9616266E-01
        1   -1    0    0  501    0  0.00000000000E+00  0.00000000000E+00  0.58086847839E+03  0.58086847842E+03  0.50400001928E-02 0. -1.
       -1   -1    0    0    0  501  0.00000000000E+00  0.00000000000E+00 -0.25009275108E+03  0.25009275113E+03  0.50400001928E-02 0.  1.
    10030    2    1    2    0    0  0.00000000000E+00  0.00000000000E+00  0.33077572731E+03  0.83096122955E+03  0.76228864824E+03 0.  0.
        2    1    3    3  502    0 -0.73445793294E+02  0.36563178730E+03  0.25115292444E+03  0.44962059550E+03  0.25500000920E-02 0. -1.
       -2    1    3    3    0  502  0.73445793294E+02 -0.36563178730E+03  0.79622802873E+02  0.38134063405E+03  0.25500000920E-02 0.  1.
</event>
<event>
 5   0  0.1498375E-02  0.8053216E+03  0.7818609E-02  0.9552346E-01
        1   -1    0    0  501    0  0.00000000000E+00  0.00000000000E+00  0.47036323185E+03  0.47036323188E+03  0.50400001928E-02 0. -1.
       -1   -1    0    0    0  501  0.00000000000E+00  0.00000000000E+00 -0.34470320091E+03  0.34470320095E+03  0.50400001928E-02 0.  1.
    10030    2    1    2    0    0  0.00000000000E+00  0.00000000000E+00  0.12566003094E+03  0.81506643283E+03  0.80532157959E+03 0.  0.
        4    1    3    3  502    0  0.33451393522E+03 -0.11168667369E+03 -0.13384228055E+03  0.37721194957E+03  0.12699999809E+01 0.  1.
       -4    1    3    3    0  502 -0.33451393522E+03  0.11168667369E+03  0.25950231149E+03  0.43785448325E+03  0.12699999809E+01 0. -1.
</event>
<event>
 5   0  0.1509629E-02  0.6661154E+03  0.7818609E-02  0.9777001E-01
        1   -1    0    0  501    0  0.00000000000E+00  0.00000000000E+00  0.16088601165E+03  0.16088601173E+03  0.50400001928E-02 0. -1.
       -1   -1    0    0    0  501  0.00000000000E+00  0.00000000000E+00 -0.68947850759E+03  0.68947850761E+03  0.50400001928E-02 0.  1.
    10030    2    1    2    0    0  0.00000000000E+00  0.00000000000E+00 -0.52859249594E+03  0.85036451934E+03  0.66611544719E+03 0.  0.
        5    1    3    3  502    0 -0.16653398098E+03 -0.11655954830E+03 -0.60105237671E+03  0.63451221002E+03  0.46999998093E+01 0.  1.
       -5    1    3    3    0  502  0.16653398098E+03  0.11655954830E+03  0.72459880766E+02  0.21585230932E+03  0.46999998093E+01 0. -1.
</event>
<event>
 5   0  0.1624094E-02  0.8378706E+03  0.7818609E-02  0.9506763E-01
        1   -1    0    0  501    0  0.00000000000E+00  0.00000000000E+00  0.26057715100E+03  0.26057715105E+03  0.50400001928E-02 0. -1.
       -1   -1    0    0    0  501  0.00000000000E+00  0.00000000000E+00 -0.67353092612E+03  0.67353092614E+03  0.50400001928E-02 0.  1.
    10030    2    1    2    0    0  0.00000000000E+00  0.00000000000E+00 -0.41295377513E+03  0.93410807719E+03  0.83787056248E+03 0.  0.
        3    1    3    3  502    0  0.38423571155E+03 -0.27583427768E+02 -0.22917922939E+02  0.38590564768E+03  0.10100000352E+00 0. -1.
       -3    1    3    3    0  502 -0.38423571155E+03  0.27583427768E+02 -0.39003585219E+03  0.54820242950E+03  0.10100000352E+00 0.  1.
</event>
<event>
 5   0  0.2454354E-02  0.7458533E+03  0.7818609E-02  0.9641878E-01
        2   -1    0    0  501    0  0.00000000000E+00  0.00000000000E+00  0.32720466873E+03  0.32720466874E+03  0.25500000920E-02 0.  1.
       -2   -1    0    0    0  501  0.00000000000E+00  0.00000000000E+00 -0.42503761341E+03  0.42503761342E+03  0.25500000920E-02 0. -1.
    10030    2    1    2    0    0  0.00000000000E+00  0.00000000000E+00 -0.97832944683E+02  0.75224228216E+03  0.74585331400E+03 0.  0.
        5    1    3    3  502    0  0.18557531802E+03  0.27286634662E+03  0.12623157319E+03  0.35334224463E+03  0.46999998093E+01 0.  1.
       -5    1    3    3    0  502 -0.18557531802E+03 -0.27286634662E+03 -0.22406451787E+03  0.39890003753E+03  0.46999998093E+01 0. -1.
</event>
<event>
 5   0  0.1509629E-02  0.8182697E+03  0.7818609E-02  0.9533943E-01
        1   -1    0    0  501    0  0.00000000000E+00  0.00000000000E+00  0.12805639985E+04  0.12805639985E+04  0.50400001928E-02 0. -1.
       -1   -1    0    0    0  501  0.00000000000E+00  0.00000000000E+00 -0.13071687472E+03  0.13071687482E+03  0.50400001928E-02 0.  1.
    10030    2    1    2    0    0  0.00000000000E+00  0.00000000000E+00  0.11498471238E+04  0.14112808733E+04  0.81826969599E+03 0.  0.
        5    1    3    3  502    0 -0.33797873320E+03 -0.10812264873E+03  0.22378821152E+03  0.41955140910E+03  0.46999998093E+01 0.  1.
       -5    1    3    3    0  502  0.33797873320E+03  0.10812264873E+03  0.92605891225E+03  0.99172946423E+03  0.46999998093E+01 0. -1.
</event>
<event>
 5   0  0.2571778E-02  0.8153461E+03  0.7818609E-02  0.9538066E-01
       -2   -1    0    0    0  501  0.00000000000E+00  0.00000000000E+00  0.11986326957E+03  0.11986326959E+03  0.25500000920E-02 0. -1.
        2   -1    0    0  501    0  0.00000000000E+00  0.00000000000E+00 -0.13865573346E+04  0.13865573346E+04  0.25500000920E-02 0.  1.
    10030    2    1    2    0    0  0.00000000000E+00  0.00000000000E+00 -0.12666940650E+04  0.15064206042E+04  0.81534605067E+03 0.  0.
        1    1    3    3  502    0 -0.18103546822E+03 -0.36329924585E+03 -0.70338760703E+03  0.81210486302E+03  0.50400001928E-02 0. -1.
       -1    1    3    3    0  502  0.18103546822E+03  0.36329924585E+03 -0.56330645799E+03  0.69431574117E+03  0.50400001928E-02 0.  1.
</event>
<event>
 5   0  0.1624094E-02  0.7822676E+03  0.7818609E-02  0.9586045E-01
        1   -1    0    0  501    0  0.00000000000E+00  0.00000000000E+00  0.86780772043E+02  0.86780772189E+02  0.50400001928E-02 0. -1.
       -1   -1    0    0    0  501  0.00000000000E+00  0.00000000000E+00 -0.17628977971E+04  0.17628977971E+04  0.50400001928E-02 0.  1.
    10030    2    1    2    0    0  0.00000000000E+00  0.00000000000E+00 -0.16761170250E+04  0.18496785693E+04  0.78226755526E+03 0.  0.
        3    1    3    3  502    0  0.34828215467E+03  0.83918158311E+02 -0.12092405062E+04  0.12611920269E+04  0.10100000352E+00 0.  1.
       -3    1    3    3    0  502 -0.34828215467E+03 -0.83918158311E+02 -0.46687651876E+03  0.58848654235E+03  0.10100000352E+00 0. -1.
</event>
<event>
 5   0  0.1471290E-02  0.8016581E+03  0.7818609E-02  0.9557620E-01
        1   -1    0    0  501    0  0.00000000000E+00  0.00000000000E+00  0.16462269540E+03  0.16462269548E+03  0.50400001928E-02 0. -1.
       -1   -1    0    0    0  501  0.00000000000E+00  0.00000000000E+00 -0.97595255420E+03  0.97595255421E+03  0.50400001928E-02 0.  1.
    10030    2    1    2    0    0  0.00000000000E+00  0.00000000000E+00 -0.81132985880E+03  0.11405752497E+04  0.80165813190E+03 0.  0.
        2    1    3    3  502    0  0.36754790944E+03  0.76192971226E+02 -0.20562979560E+03  0.42799584979E+03  0.25500000920E-02 0. -1.
       -2    1    3    3    0  502 -0.36754790944E+03 -0.76192971226E+02 -0.60570006320E+03  0.71257939990E+03  0.25500000920E-02 0.  1.
</event>
<event>
 5   0  0.9919125E-03  0.8044844E+03  0.7818609E-02  0.9553549E-01
        3   -1    0    0  501    0  0.00000000000E+00  0.00000000000E+00  0.24827967246E+03  0.24827969300E+03  0.10100000352E+00 0.  1.
       -3   -1    0    0    0  501  0.00000000000E+00  0.00000000000E+00 -0.65167945311E+03  0.65167946094E+03  0.10100000352E+00 0. -1.
    10030    2    1    2    0    0  0.00000000000E+00  0.00000000000E+00 -0.40339978065E+03  0.89995915394E+03  0.80448436637E+03 0.  0.
        4    1    3    3  502    0  0.21755612166E+03 -0.20864240066E+03 -0.49964413297E+03  0.58353079605E+03  0.12699999809E+01 0. -1.
       -4    1    3    3    0  502 -0.21755612166E+03  0.20864240066E+03  0.96244352316E+02  0.31642835789E+03  0.12699999809E+01 0.  1.
</event>
<event>
 5   0  0.2571778E-02  0.7762026E+03  0.7818609E-02  0.9595116E-01
       -2   -1    0    0    0  501  0.00000000000E+00  0.00000000000E+00  0.18500992110E+03  0.18500992112E+03  0.25500000920E-02 0. -1.
        2   -1    0    0  501    0  0.00000000000E+00  0.00000000000E+00 -0.81413264603E+03  0.81413264604E+03  0.25500000920E-02 0.  1.
    10030    2    1    2    0    0  0.00000000000E+00  0.00000000000E+00 -0.62912272493E+03  0.99914256716E+03  0.77620259371E+03 0.  0.
        1    1    3    3  502    0  0.27255083202E+03  0.98124226479E+02 -0.64702856451E+03  0.70891345253E+03  0.50400001928E-02 0. -1.
       -1    1    3    3    0  502 -0.27255083202E+03 -0.98124226479E+02  0.17905839582E+02  0.29022911462E+03  0.50400001928E-02 0.  1.
</event>
<event>
 5   0  0.2464780E-02  0.7987710E+03  0.7818609E-02  0.9561798E-01
       -2   -1    0    0    0  501  0.00000000000E+00  0.00000000000E+00  0.89990359208E+03  0.89990359208E+03  0.25500000920E-02 0. -1.
        2   -1    0    0  501    0  0.00000000000E+00  0.00000000000E+00 -0.17725095398E+03  0.17725095400E+03  0.25500000920E-02 0.  1.
    10030    2    1    2    0    0  0.00000000000E+00  0.00000000000E+00  0.72265263809E+03  0.10771545461E+04  0.79877098145E+03 0.  0.
        3    1    3    3  502    0 -0.66097990233E+01 -0.10748747176E+03  0.87995523962E+03  0.88652043403E+03  0.10100000352E+00 0. -1.
       -3    1    3    3    0  502  0.66097990233E+01  0.10748747176E+03 -0.15730260152E+03  0.19063411205E+03  0.10100000352E+00 0.  1.
</event>
<event>
 5   0  0.2571778E-02  0.7963676E+03  0.7818609E-02  0.9565290E-01
        2   -1    0    0  501    0  0.00000000000E+00  0.00000000000E+00  0.20617211978E+04  0.20617211978E+04  0.25500000920E-02 0. -1.
       -2   -1    0    0    0  501  0.00000000000E+00  0.00000000000E+00 -0.76901927284E+02  0.76901927326E+02  0.25500000920E-02 0.  1.
    10030    2    1    2    0    0  0.00000000000E+00  0.00000000000E+00  0.19848192706E+04  0.21386231252E+04  0.79636758770E+03 0.  0.
        1    1    3    3  502    0  0.95903636394E+02  0.63636158575E+02 -0.31256579593E+02  0.11926458798E+03  0.50400001928E-02 0.  1.
       -1    1    3    3    0  502 -0.95903636394E+02 -0.63636158575E+02  0.20160758502E+04  0.20193585372E+04  0.50400001928E-02 0. -1.
</event>
<event>
 5   0  0.2464780E-02  0.7929934E+03  0.7818609E-02  0.9570215E-01
        2   -1    0    0  501    0  0.00000000000E+00  0.00000000000E+00  0.12759970623E+04  0.12759970623E+04  0.25500000920E-02 0.  1.
       -2   -1    0    0    0  501  0.00000000000E+00  0.00000000000E+00 -0.12320531311E+03  0.12320531313E+03  0.25500000920E-02 0. -1.
    10030    2    1    2    0    0  0.00000000000E+00  0.00000000000E+00  0.11527917491E+04  0.13992023754E+04  0.79299336088E+03 0.  0.
        3    1    3    3  502    0 -0.25676381619E+02  0.19441860946E+03 -0.31642465075E+02  0.19864321804E+03  0.10100000352E+00 0. -1.
       -3    1    3    3    0  502  0.25676381619E+02 -0.19441860946E+03  0.11844342142E+04  0.12005591574E+04  0.10100000352E+00 0.  1.
</event>
<event>
 5   0  0.2460312E-02  0.7775812E+03  0.7818609E-02  0.9593047E-01
        2   -1    0    0  501    0  0.00000000000E+00  0.00000000000E+00  0.52476293172E+03  0.52476293173E+03  0.25500000920E-02 0.  1.
       -2   -1    0    0    0  501  0.00000000000E+00  0.00000000000E+00 -0.28805031971E+03  0.28805031972E+03  0.25500000920E-02 0. -1.
    10030    2    1    2    0    0  0.00000000000E+00  0.00000000000E+00  0.23671261202E+03  0.81281325145E+03  0.77758119900E+03 0.  0.
        2    1    3    3  502    0  0.12742684331E+03  0.25097079862E+03 -0.16200152872E+03  0.32475904525E+03  0.25500000920E-02 0. -1.
       -2    1    3    3    0  502 -0.12742684331E+03 -0.25097079862E+03  0.39871414074E+03  0.48805420620E+03  0.25500000920E-02 0.  1.
</event>
<event>
 5   0  0.2571778E-02  0.7709798E+03  0.7818609E-02  0.9602999E-01
       -2   -1    0    0    0  501  0.00000000000E+00  0.00000000000E+00  0.18074647319E+03  0.18074647321E+03  0.25500000920E-02 0. -1.
        2   -1    0    0  501    0  0.00000000000E+00  0.00000000000E+00 -0.82215971490E+03  0.82215971491E+03  0.25500000920E-02 0.  1.
    10030    2    1    2    0    0  0.00000000000E+00  0.00000000000E+00 -0.64141324171E+03  0.10029061881E+04  0.77097981524E+03 0.  0.
        1    1    3    3  502    0  0.17332505788E+02 -0.21186980863E+03  0.97610239947E+02  0.23391663159E+03  0.50400001928E-02 0. -1.
       -1    1    3    3    0  502 -0.17332505788E+02  0.21186980863E+03 -0.73902348166E+03  0.76898955652E+03  0.50400001928E-02 0.  1.
</event>
<event>
 5   0  0.1509629E-02  0.8216663E+03  0.7818609E-02  0.9529175E-01
        1   -1    0    0  501    0  0.00000000000E+00  0.00000000000E+00  0.73302811516E+03  0.73302811518E+03  0.50400001928E-02 0. -1.
       -1   -1    0    0    0  501  0.00000000000E+00  0.00000000000E+00 -0.23025566874E+03  0.23025566879E+03  0.50400001928E-02 0.  1.
    10030    2    1    2    0    0  0.00000000000E+00  0.00000000000E+00  0.50277244643E+03  0.96328378397E+03  0.82166630427E+03 0.  0.
        5    1    3    3  502    0 -0.22228521096E+03 -0.17820919346E+03  0.59835658176E+03  0.66273819913E+03  0.46999998093E+01 0. -1.
       -5    1    3    3    0  502  0.22228521096E+03  0.17820919346E+03 -0.95584135336E+02  0.30054558485E+03  0.46999998093E+01 0.  1.
</event>
<event>
 5   0  0.1624094E-02  0.8028233E+03  0.7818609E-02  0.9555939E-01
        1   -1    0    0  501    0  0.00000000000E+00  0.00000000000E+00  0.63252907187E+03  0.63252907189E+03  0.50400001928E-02 0. -1.
       -1   -1    0    0    0  501  0.00000000000E+00  0.00000000000E+00 -0.25474136923E+03  0.25474136928E+03  0.50400001928E-02 0.  1.
    10030    2    1    2    0    0  0.00000000000E+00  0.00000000000E+00  0.37778770264E+03  0.88727044117E+03  0.80282332273E+03 0.  0.
        3    1    3    3  502    0  0.31715252622E+03 -0.16264768336E+03 -0.15166170170E+02  0.35674923505E+03  0.10100000352E+00 0.  1.
       -3    1    3    3    0  502 -0.31715252622E+03  0.16264768336E+03  0.39295387281E+03  0.53052120612E+03  0.10100000352E+00 0. -1.
</event>
<event>
 5   0  0.2460312E-02  0.8262525E+03  0.7818609E-02  0.9522776E-01
        2   -1    0    0  501    0  0.00000000000E+00  0.00000000000E+00  0.60552713842E+03  0.60552713842E+03  0.25500000920E-02 0. -1.
       -2   -1    0    0    0  501  0.00000000000E+00  0.00000000000E+00 -0.28185900792E+03  0.28185900793E+03  0.25500000920E-02 0.  1.
    10030    2    1    2    0    0  0.00000000000E+00  0.00000000000E+00  0.32366813049E+03  0.88738614635E+03  0.82625245176E+03 0.  0.
        2    1    3    3  502    0 -0.14616327239E+03  0.66647958554E+02  0.57061022057E+03  0.59279142740E+03  0.25500000920E-02 0. -1.
       -2    1    3    3    0  502  0.14616327239E+03 -0.66647958554E+02 -0.24694209008E+03  0.29459471895E+03  0.25500000920E-02 0.  1.
</event>
<event>
 5   0  0.1624094E-02  0.7918437E+03  0.7818609E-02  0.9571899E-01
        1   -1    0    0  501    0  0.00000000000E+00  0.00000000000E+00  0.65324716523E+03  0.65324716525E+03  0.50400001928E-02 0. -1.
       -1   -1    0    0    0  501  0.00000000000E+00  0.00000000000E+00 -0.23996140355E+03  0.23996140360E+03  0.50400001928E-02 0.  1.
    10030    2    1    2    0    0  0.00000000000E+00  0.00000000000E+00  0.41328576168E+03  0.89320856885E+03  0.79184368828E+03 0.  0.
        3    1    3    3  502    0  0.96191346153E+01  0.39574860935E+03  0.19910907355E+03  0.44311840734E+03  0.10100000352E+00 0. -1.
       -3    1    3    3    0  502 -0.96191346153E+01 -0.39574860935E+03  0.21417668813E+03  0.45009016151E+03  0.10100000352E+00 0.  1.
</event>
<event>
 5   0  0.1624094E-02  0.7965034E+03  0.7818609E-02  0.9565092E-01
        1   -1    0    0  501    0  0.00000000000E+00  0.00000000000E+00  0.13597188124E+04  0.13597188125E+04  0.50400001928E-02 0.  1.
       -1   -1    0    0    0  501  0.00000000000E+00  0.00000000000E+00 -0.11664502565E+03  0.11664502575E+03  0.50400001928E-02 0. -1.
    10030    2    1    2    0    0  0.00000000000E+00  0.00000000000E+00  0.12430737868E+04  0.14763638382E+04  0.79650344842E+03 0.  0.
        3    1    3    3  502    0  0.12937026305E+03 -0.22168679920E+03  0.57121527067E+02  0.26295357187E+03  0.10100000352E+00 0. -1.
       -3    1    3    3    0  502 -0.12937026305E+03  0.22168679920E+03  0.11859522597E+04  0.12134102663E+04  0.10100000352E+00 0.  1.
</event>
<event>
 5   0  0.2454354E-02  0.7937352E+03  0.7818609E-02  0.9569130E-01
        2   -1    0    0  501    0  0.00000000000E+00  0.00000000000E+00  0.45186061422E+03  0.45186061422E+03  0.25500000920E-02 0.  1.
       -2   -1    0    0    0  501  0.00000000000E+00  0.00000000000E+00 -0.34856744755E+03  0.34856744756E+03  0.25500000920E-02 0. -1.
    10030    2    1    2    0    0  0.00000000000E+00  0.00000000000E+00  0.10329316667E+03  0.80042806178E+03  0.79373522273E+03 0.  0.
        5    1    3    3  502    0  0.17261420890E+02 -0.13717382911E+03  0.42676053853E+03  0.44862151452E+03  0.46999998093E+01 0.  1.
       -5    1    3    3    0  502 -0.17261420890E+02  0.13717382911E+03 -0.32346737186E+03  0.35180654726E+03  0.46999998093E+01 0. -1.
</event>
<event>
 5   0  0.2464780E-02  0.7831945E+03  0.7818609E-02  0.9584666E-01
       -2   -1    0    0    0  501  0.00000000000E+00  0.00000000000E+00  0.21028240722E+03  0.21028240723E+03  0.25500000920E-02 0. -1.
        2   -1    0    0  501    0  0.00000000000E+00  0.00000000000E+00 -0.72924980260E+03  0.72924980261E+03  0.25500000920E-02 0.  1.
    10030    2    1    2    0    0  0.00000000000E+00  0.00000000000E+00 -0.51896739539E+03  0.93953220984E+03  0.78319449427E+03 0.  0.
        3    1    3    3  502    0  0.22518565759E+03  0.29501505314E+03 -0.40934410206E+03  0.55254417566E+03  0.10100000352E+00 0.  1.
       -3    1    3    3    0  502 -0.22518565759E+03 -0.29501505314E+03 -0.10962329332E+03  0.38698803418E+03  0.10100000352E+00 0. -1.
</event>
<event>
 5   0  0.1509629E-02  0.8040317E+03  0.7818609E-02  0.9554200E-01
       -1   -1    0    0    0  501  0.00000000000E+00  0.00000000000E+00  0.41745774786E+03  0.41745774789E+03  0.50400001928E-02 0. -1.
        1   -1    0    0  501    0  0.00000000000E+00  0.00000000000E+00 -0.38714513667E+03  0.38714513670E+03  0.50400001928E-02 0.  1.
    10030    2    1    2    0    0  0.00000000000E+00  0.00000000000E+00  0.30312611189E+02  0.80460288459E+03  0.80403168314E+03 0.  0.
        5    1    3    3  502    0  0.18173118704E+03 -0.33395416149E+03  0.14579804719E+03  0.40722323961E+03  0.46999998093E+01 0. -1.
       -5    1    3    3    0  502 -0.18173118704E+03  0.33395416149E+03 -0.11548543600E+03  0.39737964498E+03  0.46999998093E+01 0.  1.
</event>
<event>
 5   0  0.2460312E-02  0.7795082E+03  0.7818609E-02  0.9590161E-01
       -2   -1    0    0    0  501  0.00000000000E+00  0.00000000000E+00  0.70458733232E+02  0.70458733278E+02  0.25500000920E-02 0.  1.
        2   -1    0    0  501    0  0.00000000000E+00  0.00000000000E+00 -0.21559892346E+04  0.21559892346E+04  0.25500000920E-02 0. -1.
    10030    2    1    2    0    0  0.00000000000E+00  0.00000000000E+00 -0.20855305014E+04  0.22264479679E+04  0.77950823057E+03 0.  0.
        2    1    3    3  502    0  0.55052194281E+02  0.81874694781E+02 -0.21197313399E+04  0.21220261928E+04  0.25500000920E-02 0. -1.
       -2    1    3    3    0  502 -0.55052194281E+02 -0.81874694781E+02  0.34200838527E+02  0.10442177504E+03  0.25500000920E-02 0.  1.
</event>
<event>
 5   0  0.1523811E-02  0.7586358E+03  0.7818609E-02  0.9621899E-01
        1   -1    0    0  501    0  0.00000000000E+00  0.00000000000E+00  0.41366959916E+03  0.41366959919E+03  0.50400001928E-02 0. -1.
       -1   -1    0    0    0  501  0.00000000000E+00  0.00000000000E+00 -0.34781879475E+03  0.34781879479E+03  0.50400001928E-02 0.  1.
    10030    2    1    2    0    0  0.00000000000E+00  0.00000000000E+00  0.65850804414E+02  0.76148839398E+03  0.75863577936E+03 0.  0.
        1    1    3    3  502    0 -0.25589035629E+03 -0.15345318658E+03  0.26801603856E+03  0.40107399799E+03  0.50400001928E-02 0. -1.
       -1    1    3    3    0  502  0.25589035629E+03  0.15345318658E+03 -0.20216523414E+03  0.36041439599E+03  0.50400001928E-02 0.  1.
</event>
<event>
 5   0  0.9919125E-03  0.6936013E+03  0.7818609E-02  0.9728238E-01
       -3   -1    0    0    0  501  0.00000000000E+00  0.00000000000E+00  0.13966227398E+03  0.13966231050E+03  0.10100000352E+00 0.  1.
        3   -1    0    0  501    0  0.00000000000E+00  0.00000000000E+00 -0.86115357299E+03  0.86115357892E+03  0.10100000352E+00 0. -1.
    10030    2    1    2    0    0  0.00000000000E+00  0.00000000000E+00 -0.72149129902E+03  0.10008158894E+04  0.69360129033E+03 0.  0.
        2    1    3    3  502    0  0.13105008144E+03  0.80388093988E+02 -0.80929475231E+03  0.82376839319E+03  0.25500000920E-02 0. -1.
       -2    1    3    3    0  502 -0.13105008144E+03 -0.80388093988E+02  0.87803453297E+02  0.17704749622E+03  0.25500000920E-02 0.  1.
</event>
<event>
 5   0  0.2571778E-02  0.8057173E+03  0.7818609E-02  0.9551778E-01
       -2   -1    0    0    0  501  0.00000000000E+00  0.00000000000E+00  0.12631886453E+03  0.12631886456E+03  0.25500000920E-02 0. -1.
        2   -1    0    0  501    0  0.00000000000E+00  0.00000000000E+00 -0.12848048053E+04  0.12848048053E+04  0.25500000920E-02 0.  1.
    10030    2    1    2    0    0  0.00000000000E+00  0.00000000000E+00 -0.11584859408E+04  0.14111236699E+04  0.80571728086E+03 0.  0.
        1    1    3    3  502    0 -0.11665920519E+03 -0.22698603699E+03 -0.33317980760E+02  0.25737544368E+03  0.50400001928E-02 0. -1.
       -1    1    3    3    0  502  0.11665920519E+03  0.22698603699E+03 -0.11251679600E+04  0.11537482262E+04  0.50400001928E-02 0.  1.
</event>
<event>
 5   0  0.1471290E-02  0.7986360E+03  0.7818609E-02  0.9561994E-01
        1   -1    0    0  501    0  0.00000000000E+00  0.00000000000E+00  0.53620589328E+03  0.53620589330E+03  0.50400001928E-02 0. -1.
       -1   -1    0    0    0  501  0.00000000000E+00  0.00000000000E+00 -0.29737617502E+03  0.29737617506E+03  0.50400001928E-02 0.  1.
    10030    2    1    2    0    0  0.00000000000E+00  0.00000000000E+00  0.23882971826E+03  0.83358206836E+03  0.79863598114E+03 0.  0.
        2    1    3    3  502    0 -0.21794050915E+02  0.55350285212E+02  0.53155521681E+03  0.53487342732E+03  0.25500000920E-02 0. -1.
       -2    1    3    3    0  502  0.21794050915E+02 -0.55350285212E+02 -0.29272549855E+03  0.29870864105E+03  0.25500000920E-02 0.  1.
</event>
<event>
 5   0  0.1624094E-02  0.8391420E+03  0.7818609E-02  0.9505027E-01
        1   -1    0    0  501    0  0.00000000000E+00  0.00000000000E+00  0.12428871507E+04  0.12428871507E+04  0.50400001928E-02 0. -1.
       -1   -1    0    0    0  501  0.00000000000E+00  0.00000000000E+00 -0.14163783423E+03  0.14163783432E+03  0.50400001928E-02 0.  1.
    10030    2    1    2    0    0  0.00000000000E+00  0.00000000000E+00  0.11012493165E+04  0.13845249850E+04  0.83914204825E+03 0.  0.
        3    1    3    3  502    0  0.84417128028E+02 -0.70135035623E+02  0.12187841871E+04  0.12237156857E+04  0.10100000352E+00 0. -1.
       -3    1    3    3    0  502 -0.84417128028E+02  0.70135035623E+02 -0.11753487060E+03  0.16080929927E+03  0.10100000352E+00 0.  1.
</event>
<event>
 5   0  0.1509629E-02  0.8105378E+03  0.7818609E-02  0.9544888E-01
        1   -1    0    0  501    0  0.00000000000E+00  0.00000000000E+00  0.25299890371E+04  0.25299890371E+04  0.50400001928E-02 0. -1.
       -1   -1    0    0    0  501  0.00000000000E+00  0.00000000000E+00 -0.64918412158E+02  0.64918412353E+02  0.50400001928E-02 0.  1.
    10030    2    1    2    0    0  0.00000000000E+00  0.00000000000E+00  0.24650706249E+04  0.25949074494E+04  0.81053777537E+03 0.  0.
        5    1    3    3  502    0  0.16774137122E+03 -0.15489137518E+03  0.16067928205E+03  0.27922827113E+03  0.46999998093E+01 0.  1.
       -5    1    3    3    0  502 -0.16774137122E+03  0.15489137518E+03  0.23043913429E+04  0.23156791783E+04  0.46999998093E+01 0. -1.
</event>
<event>
 5   0  0.1471290E-02  0.8045545E+03  0.7818609E-02  0.9553448E-01
       -1   -1    0    0    0  501  0.00000000000E+00  0.00000000000E+00  0.22943281312E+03  0.22943281318E+03  0.50400001928E-02 0.  1.
        1   -1    0    0  501    0  0.00000000000E+00  0.00000000000E+00 -0.70533493151E+03  0.70533493153E+03  0.50400001928E-02 0. -1.
    10030    2    1    2    0    0  0.00000000000E+00  0.00000000000E+00 -0.47590211838E+03  0.93476774471E+03  0.80455447936E+03 0.  0.
        2    1    3    3  502    0  0.35564844284E+03  0.73402336027E+01 -0.19699489877E+02  0.35626922942E+03  0.25500000920E-02 0. -1.
       -2    1    3    3    0  502 -0.35564844284E+03 -0.73402336027E+01 -0.45620262851E+03  0.57849851529E+03  0.25500000920E-02 0.  1.
</event>
<event>
 5   0  0.9919125E-03  0.8059800E+03  0.7818609E-02  0.9551401E-01
        3   -1    0    0  501    0  0.00000000000E+00  0.00000000000E+00  0.84747524659E+03  0.84747525260E+03  0.10100000352E+00 0.  1.
       -3   -1    0    0    0  501  0.00000000000E+00  0.00000000000E+00 -0.19162909914E+03  0.19162912576E+03  0.10100000352E+00 0. -1.
    10030    2    1    2    0    0  0.00000000000E+00  0.00000000000E+00  0.65584614744E+03  0.10391043784E+04  0.80597998736E+03 0.  0.
        5    1    3    3  502    0 -0.15375984225E+03 -0.24807784608E+02  0.80706623271E+03  0.82197050387E+03  0.46999998093E+01 0.  1.
       -5    1    3    3    0  502  0.15375984225E+03  0.24807784608E+02 -0.15122008527E+03  0.21713387449E+03  0.46999998093E+01 0. -1.
</event>
<event>
 5   0  0.2422031E-02  0.7820640E+03  0.7818609E-02  0.9586348E-01
       -2   -1    0    0    0  501  0.00000000000E+00  0.00000000000E+00  0.70921601515E+03  0.70921601515E+03  0.25500000920E-02 0.  1.
        2   -1    0    0  501    0  0.00000000000E+00  0.00000000000E+00 -0.21559866689E+03  0.21559866690E+03  0.25500000920E-02 0. -1.
    10030    2    1    2    0    0  0.00000000000E+00  0.00000000000E+00  0.49361734826E+03  0.92481468205E+03  0.78206400610E+03 0.  0.
        4    1    3    3  502    0  0.89157146537E+02  0.28150619149E+03  0.54993740409E+03  0.62420148505E+03  0.12699999809E+01 0.  1.
       -4    1    3    3    0  502 -0.89157146537E+02 -0.28150619149E+03 -0.56320055824E+02  0.30061319700E+03  0.12699999809E+01 0. -1.
</event>
<event>
 5   0  0.1498375E-02  0.7867507E+03  0.7818609E-02  0.9579395E-01
        1   -1    0    0  501    0  0.00000000000E+00  0.00000000000E+00  0.44604127945E+03  0.44604127948E+03  0.50400001928E-02 0.  1.
       -1   -1    0    0    0  501  0.00000000000E+00  0.00000000000E+00 -0.34692791699E+03  0.34692791703E+03  0.50400001928E-02 0. -1.
    10030    2    1    2    0    0  0.00000000000E+00  0.00000000000E+00  0.99113362458E+02  0.79296919650E+03  0.78675071528E+03 0.  0.
        4    1    3    3  502    0  0.10769417601E+03  0.37605342545E+03  0.91458643307E+02  0.40172193203E+03  0.12699999809E+01 0.  1.
       -4    1    3    3    0  502 -0.10769417601E+03 -0.37605342545E+03  0.76547191507E+01  0.39124726448E+03  0.12699999809E+01 0. -1.
</event>
<event>
 5   0  0.1624094E-02  0.6593542E+03  0.7818609E-02  0.9789383E-01
       -1   -1    0    0    0  501  0.00000000000E+00  0.00000000000E+00  0.20911928525E+03  0.20911928531E+03  0.50400001928E-02 0. -1.
        1   -1    0    0  501    0  0.00000000000E+00  0.00000000000E+00 -0.51973675152E+03  0.51973675154E+03  0.50400001928E-02 0.  1.
    10030    2    1    2    0    0  0.00000000000E+00  0.00000000000E+00 -0.31061746626E+03  0.72885603686E+03  0.65935416288E+03 0.  0.
        3    1    3    3  502    0  0.90959646967E+02 -0.29443587193E+03 -0.25825612028E+02  0.30924603877E+03  0.10100000352E+00 0. -1.
       -3    1    3    3    0  502 -0.90959646967E+02  0.29443587193E+03 -0.28479185424E+03  0.41960999809E+03  0.10100000352E+00 0.  1.
</event>
<event>
 5   0  0.9919125E-03  0.7973203E+03  0.7818609E-02  0.9563904E-01
       -4   -1    0    0    0  501  0.00000000000E+00  0.00000000000E+00  0.52163959335E+03  0.52164113934E+03  0.12699999809E+01 0. -1.
        4   -1    0    0  501    0  0.00000000000E+00  0.00000000000E+00 -0.30467050129E+03  0.30467314823E+03  0.12699999809E+01 0.  1.
    10030    2    1    2    0    0  0.00000000000E+00  0.00000000000E+00  0.21696909207E+03  0.82631428757E+03  0.79732033395E+03 0.  0.
        2    1    3    3  502    0  0.23367173113E+03 -0.17310046838E+03  0.39109801431E+03  0.48736424457E+03  0.25500000920E-02 0. -1.
       -2    1    3    3    0  502 -0.23367173113E+03  0.17310046838E+03 -0.17412892224E+03  0.33895004300E+03  0.25500000920E-02 0.  1.
</event>
<event>
 5   0  0.2571778E-02  0.7984122E+03  0.7818609E-02  0.9562318E-01
       -2   -1    0    0    0  501  0.00000000000E+00  0.00000000000E+00  0.24476462019E+03  0.24476462021E+03  0.25500000920E-02 0. -1.
        2   -1    0    0  501    0  0.00000000000E+00  0.00000000000E+00 -0.65109698465E+03  0.65109698465E+03  0.25500000920E-02 0.  1.
    10030    2    1    2    0    0  0.00000000000E+00  0.00000000000E+00 -0.40633236445E+03  0.89586160486E+03  0.79841218970E+03 0.  0.
        1    1    3    3  502    0 -0.35061702103E+03 -0.90361579416E+02 -0.14514243364E+02  0.36236469717E+03  0.50400001928E-02 0. -1.
       -1    1    3    3    0  502  0.35061702103E+03  0.90361579416E+02 -0.39181812109E+03  0.53349690768E+03  0.50400001928E-02 0.  1.
</event>
<event>
 5   0  0.2464780E-02  0.8035386E+03  0.7818609E-02  0.9554909E-01
       -2   -1    0    0    0  501  0.00000000000E+00  0.00000000000E+00  0.89415470670E+02  0.89415470706E+02  0.25500000920E-02 0.  1.
        2   -1    0    0  501    0  0.00000000000E+00  0.00000000000E+00 -0.18052642725E+04  0.18052642725E+04  0.25500000920E-02 0. -1.
    10030    2    1    2    0    0  0.00000000000E+00  0.00000000000E+00 -0.17158488019E+04  0.18946797432E+04  0.80353856074E+03 0.  0.
        3    1    3    3  502    0 -0.14480996026E+03  0.82596358115E+02 -0.17198610026E+04  0.17279218621E+04  0.10100000352E+00 0. -1.
       -3    1    3    3    0  502  0.14480996026E+03 -0.82596358115E+02  0.40122007704E+01  0.16675788114E+03  0.10100000352E+00 0.  1.
</event>
<event>
 5   0  0.2464780E-02  0.7992847E+03  0.7818609E-02  0.9561053E-01
       -2   -1    0    0    0  501  0.00000000000E+00  0.00000000000E+00  0.27415231506E+03  0.27415231507E+03  0.25500000920E-02 0.  1.
        2   -1    0    0  501    0  0.00000000000E+00  0.00000000000E+00 -0.58257396257E+03  0.58257396257E+03  0.25500000920E-02 0. -1.
    10030    2    1    2    0    0  0.00000000000E+00  0.00000000000E+00 -0.30842164751E+03  0.85672627764E+03  0.79928468155E+03 0.  0.
        3    1    3    3  502    0 -0.12892027846E+03 -0.21624360706E+03  0.17846899824E+03  0.30859833007E+03  0.10100000352E+00 0.  1.
       -3    1    3    3    0  502  0.12892027846E+03  0.21624360706E+03 -0.48689064575E+03  0.54812794757E+03  0.10100000352E+00 0. -1.
</event>
<event>
 5   0  0.1498375E-02  0.7973316E+03  0.7818609E-02  0.9563888E-01
       -1   -1    0    0    0  501  0.00000000000E+00  0.00000000000E+00  0.12610234690E+03  0.12610234701E+03  0.50400001928E-02 0. -1.
        1   -1    0    0  501    0  0.00000000000E+00  0.00000000000E+00 -0.12603606326E+04  0.12603606326E+04  0.50400001928E-02 0.  1.
    10030    2    1    2    0    0  0.00000000000E+00  0.00000000000E+00 -0.11342582857E+04  0.13864629796E+04  0.79733163436E+03 0.  0.
        4    1    3    3  502    0 -0.11054039636E+03  0.34840726403E+03 -0.29040136499E+03  0.46684190745E+03  0.12699999809E+01 0.  1.
       -4    1    3    3    0  502  0.11054039636E+03 -0.34840726403E+03 -0.84385692066E+03  0.91962107213E+03  0.12699999809E+01 0. -1.
</event>
<event>
 5   0  0.2571778E-02  0.8253499E+03  0.7818609E-02  0.9524032E-01
       -2   -1    0    0    0  501  0.00000000000E+00  0.00000000000E+00  0.17519211556E+03  0.17519211558E+03  0.25500000920E-02 0.  1.
        2   -1    0    0  501    0  0.00000000000E+00  0.00000000000E+00 -0.97207928235E+03  0.97207928236E+03  0.25500000920E-02 0. -1.
    10030    2    1    2    0    0  0.00000000000E+00  0.00000000000E+00 -0.79688716679E+03  0.11472713979E+04  0.82534992816E+03 0.  0.
        1    1    3    3  502    0 -0.11574463275E+02  0.29013709051E+03 -0.80605352382E+03  0.85675888252E+03  0.50400001928E-02 0. -1.
       -1    1    3    3    0  502  0.11574463275E+02 -0.29013709051E+03  0.91663570223E+01  0.29051251542E+03  0.50400001928E-02 0.  1.
</event>
<event>
 5   0  0.1471290E-02  0.8080109E+03  0.7818609E-02  0.9548494E-01
        1   -1    0    0  501    0  0.00000000000E+00  0.00000000000E+00  0.41588662639E+03  0.41588662642E+03  0.50400001928E-02 0.  1.
       -1   -1    0    0    0  501  0.00000000000E+00  0.00000000000E+00 -0.39246367326E+03  0.39246367329E+03  0.50400001928E-02 0. -1.
    10030    2    1    2    0    0  0.00000000000E+00  0.00000000000E+00  0.23422953134E+02  0.80835029972E+03  0.80801087389E+03 0.  0.
        2    1    3    3  502    0  0.40183524603E+03  0.20855338404E+01 -0.30073025346E+02  0.40296439206E+03  0.25500000920E-02 0. -1.
       -2    1    3    3    0  502 -0.40183524603E+03 -0.20855338404E+01  0.53495978480E+02  0.40538590766E+03  0.25500000920E-02 0.  1.
</event>
<event>
 5   0  0.1523811E-02  0.8120642E+03  0.7818609E-02  0.9542717E-01
        1   -1    0    0  501    0  0.00000000000E+00  0.00000000000E+00  0.65973137745E+03  0.65973137747E+03  0.50400001928E-02 0.  1.
       -1   -1    0    0    0  501  0.00000000000E+00  0.00000000000E+00 -0.24989270996E+03  0.24989271001E+03  0.50400001928E-02 0. -1.
    10030    2    1    2    0    0  0.00000000000E+00  0.00000000000E+00  0.40983866749E+03  0.90962408748E+03  0.81206418906E+03 0.  0.
        1    1    3    3  502    0  0.17507640097E+03  0.35403842523E+03  0.31039751138E+03  0.50233611041E+03  0.50400001928E-02 0. -1.
       -1    1    3    3    0  502 -0.17507640097E+03 -0.35403842523E+03  0.99441156107E+02  0.40728797708E+03  0.50400001928E-02 0.  1.
</event>
<event>
 5   0  0.1509629E-02  0.7017904E+03  0.7818609E-02  0.9714175E-01
        1   -1    0    0  501    0  0.00000000000E+00  0.00000000000E+00  0.35635756987E+03  0.35635756991E+03  0.50400001928E-02 0. -1.
       -1   -1    0    0    0  501  0.00000000000E+00  0.00000000000E+00 -0.34551656722E+03  0.34551656725E+03  0.50400001928E-02 0.  1.
    10030    2    1    2    0    0  0.00000000000E+00  0.00000000000E+00  0.10841002653E+02  0.70187413716E+03  0.70179040823E+03 0.  0.
        5    1    3    3  502    0  0.15533774368E+03  0.43827293966E+02 -0.30615271330E+03  0.34612457320E+03  0.46999998093E+01 0.  1.
       -5    1    3    3    0  502 -0.15533774368E+03 -0.43827293966E+02  0.31699371595E+03  0.35574956397E+03  0.46999998093E+01 0. -1.
</event>
<event>
 5   0  0.2460312E-02  0.8054025E+03  0.7818609E-02  0.9552230E-01
        2   -1    0    0  501    0  0.00000000000E+00  0.00000000000E+00  0.40043306716E+03  0.40043306717E+03  0.25500000920E-02 0.  1.
       -2   -1    0    0    0  501  0.00000000000E+00  0.00000000000E+00 -0.40498228077E+03  0.40498228077E+03  0.25500000920E-02 0. -1.
    10030    2    1    2    0    0  0.00000000000E+00  0.00000000000E+00 -0.45492136021E+01  0.80541534794E+03  0.80540250022E+03 0.  0.
        2    1    3    3  502    0 -0.13263801510E+03 -0.45375199332E+02 -0.37979426448E+03  0.40484001174E+03  0.25500000920E-02 0. -1.
       -2    1    3    3    0  502  0.13263801510E+03  0.45375199332E+02  0.37524505088E+03  0.40057533621E+03  0.25500000920E-02 0.  1.
</event>
<event>
 5   0  0.2571778E-02  0.8138168E+03  0.7818609E-02  0.9540230E-01
        2   -1    0    0  501    0  0.00000000000E+00  0.00000000000E+00  0.57722783903E+03  0.57722783904E+03  0.25500000920E-02 0.  1.
       -2   -1    0    0    0  501  0.00000000000E+00  0.00000000000E+00 -0.28684415436E+03  0.28684415438E+03  0.25500000920E-02 0. -1.
    10030    2    1    2    0    0  0.00000000000E+00  0.00000000000E+00  0.29038368467E+03  0.86407199342E+03  0.81381676407E+03 0.  0.
        1    1    3    3  502    0 -0.27173867602E+03 -0.27378109313E+03  0.28271415078E+03  0.47825232469E+03  0.50400001928E-02 0.  1.
       -1    1    3    3    0  502  0.27173867602E+03  0.27378109313E+03  0.76695338920E+01  0.38581966872E+03  0.50400001928E-02 0. -1.
</event>
<event>
 5   0  0.2464780E-02  0.8153196E+03  0.7818609E-02  0.9538104E-01
       -2   -1    0    0    0  501  0.00000000000E+00  0.00000000000E+00  0.24459028288E+03  0.24459028289E+03  0.25500000920E-02 0.  1.
        2   -1    0    0  501    0  0.00000000000E+00  0.00000000000E+00 -0.67944854362E+03  0.67944854363E+03  0.25500000920E-02 0. -1.
    10030    2    1    2    0    0  0.00000000000E+00  0.00000000000E+00 -0.43485826074E+03  0.92403882652E+03  0.81531959745E+03 0.  0.
        3    1    3    3  502    0  0.37442927861E+03 -0.13199277025E+03 -0.11252806577E+03  0.41265233777E+03  0.10100000352E+00 0.  1.
       -3    1    3    3    0  502 -0.37442927861E+03  0.13199277025E+03 -0.32233019497E+03  0.51138648875E+03  0.10100000352E+00 0. -1.
</event>
<event>
 5   0  0.1509629E-02  0.7562931E+03  0.7818609E-02  0.9625529E-01
        1   -1    0    0  501    0  0.00000000000E+00  0.00000000000E+00  0.74206751365E+03  0.74206751366E+03  0.50400001928E-02 0.  1.
       -1   -1    0    0    0  501  0.00000000000E+00  0.00000000000E+00 -0.19269784468E+03  0.19269784474E+03  0.50400001928E-02 0. -1.
    10030    2    1    2    0    0  0.00000000000E+00  0.00000000000E+00  0.54936966897E+03  0.93476535841E+03  0.75629309272E+03 0.  0.
        5    1    3    3  502    0  0.67951955014E+02  0.79864863631E+02 -0.17433069789E+03  0.20349237543E+03  0.46999998093E+01 0. -1.
       -5    1    3    3    0  502 -0.67951955014E+02 -0.79864863631E+02  0.72370036686E+03  0.73127298297E+03  0.46999998093E+01 0.  1.
</event>
<event>
 5   0  0.9919125E-03  0.7950028E+03  0.7818609E-02  0.9567279E-01
       -4   -1    0    0    0  501  0.00000000000E+00  0.00000000000E+00  0.47483478409E+03  0.47483648246E+03  0.12699999809E+01 0. -1.
        4   -1    0    0  501    0  0.00000000000E+00  0.00000000000E+00 -0.33275927961E+03  0.33276170313E+03  0.12699999809E+01 0.  1.
    10030    2    1    2    0    0  0.00000000000E+00  0.00000000000E+00  0.14207550448E+03  0.80759818559E+03  0.79500275496E+03 0.  0.
        2    1    3    3  502    0 -0.43118629803E+02  0.38617016051E+03 -0.14079583629E+02  0.38882495263E+03  0.25500000920E-02 0.  1.
       -2    1    3    3    0  502  0.43118629803E+02 -0.38617016051E+03  0.15615508810E+03  0.41877323297E+03  0.25500000920E-02 0. -1.
</event>
<event>
 5   0  0.2422031E-02  0.8089621E+03  0.7818609E-02  0.9547135E-01
       -2   -1    0    0    0  501  0.00000000000E+00  0.00000000000E+00  0.26542445189E+03  0.26542445190E+03  0.25500000920E-02 0. -1.
        2   -1    0    0  501    0  0.00000000000E+00  0.00000000000E+00 -0.61638974131E+03  0.61638974131E+03  0.25500000920E-02 0.  1.
    10030    2    1    2    0    0  0.00000000000E+00  0.00000000000E+00 -0.35096528942E+03  0.88181419321E+03  0.80896207388E+03 0.  0.
        4    1    3    3  502    0  0.18107501647E+03 -0.15222613614E+03  0.18215274268E+03  0.29856689817E+03  0.12699999809E+01 0. -1.
       -4    1    3    3    0  502 -0.18107501647E+03  0.15222613614E+03 -0.53311803211E+03  0.58324729504E+03  0.12699999809E+01 0.  1.
</event>
<event>
 5   0  0.2571778E-02  0.7901526E+03  0.7818609E-02  0.9574381E-01
       -2   -1    0    0    0  501  0.00000000000E+00  0.00000000000E+00  0.22431132218E+03  0.22431132220E+03  0.25500000920E-02 0.  1.
        2   -1    0    0  501    0  0.00000000000E+00  0.00000000000E+00 -0.69584223104E+03  0.69584223105E+03  0.25500000920E-02 0. -1.
    10030    2    1    2    0    0  0.00000000000E+00  0.00000000000E+00 -0.47153090886E+03  0.92015355324E+03  0.79015262041E+03 0.  0.
        1    1    3    3  502    0 -0.33116315507E+03 -0.19102245940E+03 -0.35179036365E+03  0.51953351697E+03  0.50400001928E-02 0.  1.
       -1    1    3    3    0  502  0.33116315507E+03  0.19102245940E+03 -0.11974054521E+03  0.40062003627E+03  0.50400001928E-02 0. -1.
</event>
<event>
 5   0  0.1498375E-02  0.7728300E+03  0.7818609E-02  0.9600199E-01
       -1   -1    0    0    0  501  0.00000000000E+00  0.00000000000E+00  0.14712327805E+03  0.14712327814E+03  0.50400001928E-02 0. -1.
        1   -1    0    0  501    0  0.00000000000E+00  0.00000000000E+00 -0.10149077819E+04  0.10149077819E+04  0.50400001928E-02 0.  1.
    10030    2    1    2    0    0  0.00000000000E+00  0.00000000000E+00 -0.86778450384E+03  0.11620310600E+04  0.77283001973E+03 0.  0.
        4    1    3    3  502    0 -0.16731703811E+03 -0.13017374854E+03  0.51878630351E+02  0.21825031784E+03  0.12699999809E+01 0. -1.
       -4    1    3    3    0  502  0.16731703811E+03  0.13017374854E+03 -0.91966313419E+03  0.94378074220E+03  0.12699999809E+01 0.  1.
</event>
<event>
 5   0  0.1509629E-02  0.7716861E+03  0.7818609E-02  0.9601929E-01
       -1   -1    0    0    0  501  0.00000000000E+00  0.00000000000E+00  0.11990560703E+03  0.11990560714E+03  0.50400001928E-02 0. -1.
        1   -1    0    0  501    0  0.00000000000E+00  0.00000000000E+00 -0.12416003434E+04  0.12416003434E+04  0.50400001928E-02 0.  1.
    10030    2    1    2    0    0  0.00000000000E+00  0.00000000000E+00 -0.11216947364E+04  0.13615059506E+04  0.77168605781E+03 0.  0.
        5    1    3    3  502    0 -0.24955399566E+03 -0.27639474046E+03 -0.38282078744E+03  0.53408341539E+03  0.46999998093E+01 0.  1.
       -5    1    3    3    0  502  0.24955399566E+03  0.27639474046E+03 -0.73887394896E+03  0.82742253519E+03  0.46999998093E+01 0. -1.
</event>
<event>
 5   0  0.2454354E-02  0.7938016E+03  0.7818609E-02  0.9569033E-01
       -2   -1    0    0    0  501  0.00000000000E+00  0.00000000000E+00  0.16545272777E+03  0.16545272779E+03  0.25500000920E-02 0. -1.
        2   -1    0    0  501    0  0.00000000000E+00  0.00000000000E+00 -0.95211633510E+03  0.95211633510E+03  0.25500000920E-02 0.  1.
    10030    2    1    2    0    0  0.00000000000E+00  0.00000000000E+00 -0.78666360733E+03  0.11175690629E+04  0.79380159942E+03 0.  0.
        5    1    3    3  502    0 -0.17180839759E+03  0.22485107452E+03 -0.15694448269E+01  0.28302064297E+03  0.46999998093E+01 0. -1.
       -5    1    3    3    0  502  0.17180839759E+03 -0.22485107452E+03 -0.78509416250E+03  0.83454841992E+03  0.46999998093E+01 0.  1.
</event>
<event>
 5   0  0.2454354E-02  0.8374249E+03  0.7818609E-02  0.9507372E-01
       -2   -1    0    0    0  501  0.00000000000E+00  0.00000000000E+00  0.23865459884E+03  0.23865459885E+03  0.25500000920E-02 0.  1.
        2   -1    0    0  501    0  0.00000000000E+00  0.00000000000E+00 -0.73461869549E+03  0.73461869550E+03  0.25500000920E-02 0. -1.
    10030    2    1    2    0    0  0.00000000000E+00  0.00000000000E+00 -0.49596409666E+03  0.97327329435E+03  0.83742493414E+03 0.  0.
        5    1    3    3  502    0 -0.13899305318E+03 -0.14597511875E+03  0.17852354369E+03  0.26929639763E+03  0.46999998093E+01 0.  1.
       -5    1    3    3    0  502  0.13899305318E+03  0.14597511875E+03 -0.67448764035E+03  0.70397689671E+03  0.46999998093E+01 0. -1.
</event>
<event>
 5   0  0.2454354E-02  0.7857884E+03  0.7818609E-02  0.9580819E-01
       -2   -1    0    0    0  501  0.00000000000E+00  0.00000000000E+00  0.26670292072E+03  0.26670292074E+03  0.25500000920E-02 0.  1.
        2   -1    0    0  501    0  0.00000000000E+00  0.00000000000E+00 -0.57879330768E+03  0.57879330769E+03  0.25500000920E-02 0. -1.
    10030    2    1    2    0    0  0.00000000000E+00  0.00000000000E+00 -0.31209038696E+03  0.84549622842E+03  0.78578843377E+03 0.  0.
        5    1    3    3  502    0  0.28076101940E+03  0.73585323545E+02  0.12884135679E+03  0.31759051478E+03  0.46999998093E+01 0.  1.
       -5    1    3    3    0  502 -0.28076101940E+03 -0.73585323545E+02 -0.44093174375E+03  0.52790571365E+03  0.46999998093E+01 0. -1.
</event>
<event>
 5   0  0.2422031E-02  0.7878054E+03  0.7818609E-02  0.9577838E-01
       -2   -1    0    0    0  501  0.00000000000E+00  0.00000000000E+00  0.23784700291E+03  0.23784700292E+03  0.25500000920E-02 0. -1.
        2   -1    0    0  501    0  0.00000000000E+00  0.00000000000E+00 -0.65234942612E+03  0.65234942612E+03  0.25500000920E-02 0.  1.
    10030    2    1    2    0    0  0.00000000000E+00  0.00000000000E+00 -0.41450242321E+03  0.89019642904E+03  0.78780544771E+03 0.  0.
        4    1    3    3  502    0 -0.13405797302E+03 -0.52312383357E+02  0.20707904931E+03  0.25217349414E+03  0.12699999809E+01 0. -1.
       -4    1    3    3    0  502  0.13405797302E+03  0.52312383357E+02 -0.62158147252E+03  0.63802293490E+03  0.12699999809E+01 0.  1.
</event>
<event>
 5   0  0.2422031E-02  0.7955582E+03  0.7818609E-02  0.9566469E-01
       -2   -1    0    0    0  501  0.00000000000E+00  0.00000000000E+00  0.13537719919E+03  0.13537719922E+03  0.25500000920E-02 0.  1.
        2   -1    0    0  501    0  0.00000000000E+00  0.00000000000E+00 -0.11687951054E+04  0.11687951054E+04  0.25500000920E-02 0. -1.
    10030    2    1    2    0    0  0.00000000000E+00  0.00000000000E+00 -0.10334179062E+04  0.13041723046E+04  0.79555818849E+03 0.  0.
        4    1    3    3  502    0  0.28724962410E+03 -0.24828371153E+03 -0.71115608266E+03  0.80616483102E+03  0.12699999809E+01 0.  1.
       -4    1    3    3    0  502 -0.28724962410E+03  0.24828371153E+03 -0.32226182357E+03  0.49800747363E+03  0.12699999809E+01 0. -1.
</event>
<event>
 5   0  0.1509629E-02  0.8003270E+03  0.7818609E-02  0.9559544E-01
        1   -1    0    0  501    0  0.00000000000E+00  0.00000000000E+00  0.13363680460E+04  0.13363680460E+04  0.50400001928E-02 0.  1.
       -1   -1    0    0    0  501  0.00000000000E+00  0.00000000000E+00 -0.11982539591E+03  0.11982539602E+03  0.50400001928E-02 0. -1.
    10030    2    1    2    0    0  0.00000000000E+00  0.00000000000E+00  0.12165426501E+04  0.14561934420E+04  0.80032700886E+03 0.  0.
        5    1    3    3  502    0 -0.23645336568E+03  0.27789037091E+03  0.30943302887E+03  0.47843927696E+03  0.46999998093E+01 0. -1.
       -5    1    3    3    0  502  0.23645336568E+03 -0.27789037091E+03  0.90710962120E+03  0.97775416504E+03  0.46999998093E+01 0.  1.
</event>
<event>
 5   0  0.2464780E-02  0.8130865E+03  0.7818609E-02  0.9541266E-01
       -2   -1    0    0    0  501  0.00000000000E+00  0.00000000000E+00  0.46126874039E+03  0.46126874039E+03  0.25500000920E-02 0. -1.
        2   -1    0    0  501    0  0.00000000000E+00  0.00000000000E+00 -0.35831046049E+03  0.35831046050E+03  0.25500000920E-02 0.  1.
    10030    2    1    2    0    0  0.00000000000E+00  0.00000000000E+00  0.10295827989E+03  0.81957920089E+03  0.81308650163E+03 0.  0.
        3    1    3    3  502    0 -0.34009492175E+03 -0.22183662672E+03  0.31285196868E+02  0.40725276979E+03  0.10100000352E+00 0. -1.
       -3    1    3    3    0  502  0.34009492175E+03  0.22183662672E+03  0.71673083026E+02  0.41232643111E+03  0.10100000352E+00 0.  1.
</event>
<event>
 5   0  0.2460312E-02  0.7856976E+03  0.7818609E-02  0.9580953E-01
       -2   -1    0    0    0  501  0.00000000000E+00  0.00000000000E+00  0.73395993199E+02  0.73395993244E+02  0.25500000920E-02 0.  1.
        2   -1    0    0  501    0  0.00000000000E+00  0.00000000000E+00 -0.21027056297E+04  0.21027056297E+04  0.25500000920E-02 0. -1.
    10030    2    1    2    0    0  0.00000000000E+00  0.00000000000E+00 -0.20293096365E+04  0.21761016230E+04  0.78569757070E+03 0.  0.
        2    1    3    3  502    0 -0.30959260820E+03 -0.19233726896E+03 -0.14206598929E+04  0.14666682445E+04  0.25500000920E-02 0. -1.
       -2    1    3    3    0  502  0.30959260820E+03  0.19233726896E+03 -0.60864974362E+03  0.70943337848E+03  0.25500000920E-02 0.  1.
</event>
<event>
 5   0  0.1523811E-02  0.7782834E+03  0.7818609E-02  0.9591994E-01
        1   -1    0    0  501    0  0.00000000000E+00  0.00000000000E+00  0.37678891772E+03  0.37678891775E+03  0.50400001928E-02 0. -1.
       -1   -1    0    0    0  501  0.00000000000E+00  0.00000000000E+00 -0.40189947341E+03  0.40189947344E+03  0.50400001928E-02 0.  1.
    10030    2    1    2    0    0  0.00000000000E+00  0.00000000000E+00 -0.25110555696E+02  0.77868839119E+03  0.77828341276E+03 0.  0.
        1    1    3    3  502    0 -0.19482727628E+03 -0.28083201036E+03 -0.19868159713E+03  0.39534625670E+03  0.50400001928E-02 0.  1.
       -1    1    3    3    0  502  0.19482727628E+03  0.28083201036E+03  0.17357104143E+03  0.38334213449E+03  0.50400001928E-02 0. -1.
</event>
<event>
 5   0  0.2454354E-02  0.8017382E+03  0.7818609E-02  0.9557505E-01
       -2   -1    0    0    0  501  0.00000000000E+00  0.00000000000E+00  0.24297254495E+03  0.24297254496E+03  0.25500000920E-02 0. -1.
        2   -1    0    0  501    0  0.00000000000E+00  0.00000000000E+00 -0.66137521371E+03  0.66137521372E+03  0.25500000920E-02 0.  1.
    10030    2    1    2    0    0  0.00000000000E+00  0.00000000000E+00 -0.41840266876E+03  0.90434775868E+03  0.80173815888E+03 0.  0.
        5    1    3    3  502    0  0.26937527773E+03 -0.17563585095E+01  0.12561766964E+03  0.29726757975E+03  0.46999998093E+01 0. -1.
       -5    1    3    3    0  502 -0.26937527773E+03  0.17563585095E+01 -0.54402033841E+03  0.60708017893E+03  0.46999998093E+01 0.  1.
</event>
<event>
 5   0  0.2460312E-02  0.8023354E+03  0.7818609E-02  0.9556643E-01
       -2   -1    0    0    0  501  0.00000000000E+00  0.00000000000E+00  0.81067063879E+02  0.81067063919E+02  0.25500000920E-02 0. -1.
        2   -1    0    0  501    0  0.00000000000E+00  0.00000000000E+00 -0.19852147544E+04  0.19852147544E+04  0.25500000920E-02 0.  1.
    10030    2    1    2    0    0  0.00000000000E+00  0.00000000000E+00 -0.19041476905E+04  0.20662818183E+04  0.80233541950E+03 0.  0.
        2    1    3    3  502    0  0.28524957121E+03  0.11848366096E+03 -0.16113283841E+04  0.16406659798E+04  0.25500000920E-02 0.  1.
       -2    1    3    3    0  502 -0.28524957121E+03 -0.11848366096E+03 -0.29281930639E+03  0.42561583851E+03  0.25500000920E-02 0. -1.
</event>
<event>
 5   0  0.1523811E-02  0.8149554E+03  0.7818609E-02  0.9538619E-01
       -1   -1    0    0    0  501  0.00000000000E+00  0.00000000000E+00  0.13247688788E+03  0.13247688797E+03  0.50400001928E-02 0.  1.
        1   -1    0    0  501    0  0.00000000000E+00  0.00000000000E+00 -0.12533361721E+04  0.12533361721E+04  0.50400001928E-02 0. -1.
    10030    2    1    2    0    0  0.00000000000E+00  0.00000000000E+00 -0.11208592842E+04  0.13858130601E+04  0.81495539906E+03 0.  0.
        1    1    3    3  502    0 -0.35652706335E+03 -0.90519919692E+02 -0.85853581897E+03  0.93401774889E+03  0.50400001928E-02 0. -1.
       -1    1    3    3    0  502  0.35652706335E+03  0.90519919692E+02 -0.26232346524E+03  0.45179531117E+03  0.50400001928E-02 0.  1.
</event>
<event>
 5   0  0.2454354E-02  0.7949545E+03  0.7818609E-02  0.9567349E-01
       -2   -1    0    0    0  501  0.00000000000E+00  0.00000000000E+00  0.18741208816E+03  0.18741208818E+03  0.25500000920E-02 0.  1.
        2   -1    0    0  501    0  0.00000000000E+00  0.00000000000E+00 -0.84299873403E+03  0.84299873403E+03  0.25500000920E-02 0. -1.
    10030    2    1    2    0    0  0.00000000000E+00  0.00000000000E+00 -0.65558664587E+03  0.10304108222E+04  0.79495447183E+03 0.  0.
        5    1    3    3  502    0  0.37308267325E+03 -0.13065404048E+02 -0.15099455899E+03  0.40271929765E+03  0.46999998093E+01 0.  1.
       -5    1    3    3    0  502 -0.37308267325E+03  0.13065404048E+02 -0.50459208688E+03  0.62769152455E+03  0.46999998093E+01 0. -1.
</event>
<event>
 5   0  0.2454354E-02  0.7539053E+03  0.7818609E-02  0.9629243E-01
        2   -1    0    0  501    0  0.00000000000E+00  0.00000000000E+00  0.37770954637E+03  0.37770954638E+03  0.25500000920E-02 0.  1.
       -2   -1    0    0    0  501  0.00000000000E+00  0.00000000000E+00 -0.37619723479E+03  0.37619723480E+03  0.25500000920E-02 0. -1.
    10030    2    1    2    0    0  0.00000000000E+00  0.00000000000E+00  0.15123115767E+01  0.75390678118E+03  0.75390526435E+03 0.  0.
        5    1    3    3  502    0 -0.72519717230E+02 -0.27577002153E+03  0.24725813803E+03  0.37744786525E+03  0.46999998093E+01 0.  1.
       -5    1    3    3    0  502  0.72519717230E+02  0.27577002153E+03 -0.24574582645E+03  0.37645891593E+03  0.46999998093E+01 0. -1.
</event>
<event>
 5   0  0.2464780E-02  0.8018488E+03  0.7818609E-02  0.9557345E-01
        2   -1    0    0  501    0  0.00000000000E+00  0.00000000000E+00  0.48281797352E+03  0.48281797353E+03  0.25500000920E-02 0.  1.
       -2   -1    0    0    0  501  0.00000000000E+00  0.00000000000E+00 -0.33292126016E+03  0.33292126017E+03  0.25500000920E-02 0. -1.
    10030    2    1    2    0    0  0.00000000000E+00  0.00000000000E+00  0.14989671337E+03  0.81573923370E+03  0.80184878419E+03 0.  0.
        3    1    3    3  502    0 -0.84914270447E+02  0.38796945992E+03  0.19137985456E+02  0.39761414442E+03  0.10100000352E+00 0.  1.
       -3    1    3    3    0  502  0.84914270447E+02 -0.38796945992E+03  0.13075872791E+03  0.41812508928E+03  0.10100000352E+00 0. -1.
</event>
<event>
 5   0  0.9919125E-03  0.7957461E+03  0.7818609E-02  0.9566195E-01
       -4   -1    0    0    0  501  0.00000000000E+00  0.00000000000E+00  0.83276408717E+03  0.83276505557E+03  0.12699999809E+01 0.  1.
        4   -1    0    0  501    0  0.00000000000E+00  0.00000000000E+00 -0.19009021797E+03  0.19009446039E+03  0.12699999809E+01 0. -1.
    10030    2    1    2    0    0  0.00000000000E+00  0.00000000000E+00  0.64267386920E+03  0.10228595160E+04  0.79574611984E+03 0.  0.
        1    1    3    3  502    0  0.20333056500E+03 -0.21618006537E+02 -0.11738575751E+03  0.23577547150E+03  0.50400001928E-02 0. -1.
       -1    1    3    3    0  502 -0.20333056500E+03  0.21618006537E+02  0.76005962670E+03  0.78708404446E+03  0.50400001928E-02 0.  1.
</event>
<event>
 5   0  0.1509629E-02  0.7733315E+03  0.7818609E-02  0.9599442E-01
        1   -1    0    0  501    0  0.00000000000E+00  0.00000000000E+00  0.24014858891E+03  0.24014858897E+03  0.50400001928E-02 0.  1.
       -1   -1    0    0    0  501  0.00000000000E+00  0.00000000000E+00 -0.62257448831E+03  0.62257448833E+03  0.50400001928E-02 0. -1.
    10030    2    1    2    0    0  0.00000000000E+00  0.00000000000E+00 -0.38242589940E+03  0.86272307730E+03  0.77333145518E+03 0.  0.
        5    1    3    3  502    0 -0.33818644262E+03  0.68759590034E+02  0.32664233484E+01  0.34515316993E+03  0.46999998093E+01 0.  1.
       -5    1    3    3    0  502  0.33818644262E+03 -0.68759590034E+02 -0.38569232275E+03  0.51756990737E+03  0.46999998093E+01 0. -1.
</event>
<event>
 5   0  0.2460312E-02  0.7042951E+03  0.7818609E-02  0.9709915E-01
        2   -1    0    0  501    0  0.00000000000E+00  0.00000000000E+00  0.69415905320E+03  0.69415905320E+03  0.25500000920E-02 0.  1.
       -2   -1    0    0    0  501  0.00000000000E+00  0.00000000000E+00 -0.17864476727E+03  0.17864476729E+03  0.25500000920E-02 0. -1.
    10030    2    1    2    0    0  0.00000000000E+00  0.00000000000E+00  0.51551428593E+03  0.87280382049E+03  0.70429505895E+03 0.  0.
        2    1    3    3  502    0 -0.21416671369E+03  0.17088044766E+03 -0.16397520884E+02  0.27447474809E+03  0.25500000920E-02 0. -1.
       -2    1    3    3    0  502  0.21416671369E+03 -0.17088044766E+03  0.53191180681E+03  0.59832907240E+03  0.25500000920E-02 0.  1.
</event>
<event>
 5   0  0.2571778E-02  0.7992095E+03  0.7818609E-02  0.9561162E-01
       -2   -1    0    0    0  501  0.00000000000E+00  0.00000000000E+00  0.30080906775E+03  0.30080906776E+03  0.25500000920E-02 0.  1.
        2   -1    0    0  501    0  0.00000000000E+00  0.00000000000E+00 -0.53084826818E+03  0.53084826819E+03  0.25500000920E-02 0. -1.
    10030    2    1    2    0    0  0.00000000000E+00  0.00000000000E+00 -0.23003920043E+03  0.83165733595E+03  0.79920954117E+03 0.  0.
        1    1    3    3  502    0 -0.29934190377E+03  0.61010062930E+02 -0.38307491145E+03  0.48997366352E+03  0.50400001928E-02 0. -1.
       -1    1    3    3    0  502  0.29934190377E+03 -0.61010062930E+02  0.15303571102E+03  0.34168367243E+03  0.50400001928E-02 0.  1.
</event>
<event>
 5   0  0.1471290E-02  0.8013796E+03  0.7818609E-02  0.9558022E-01
       -1   -1    0    0    0  501  0.00000000000E+00  0.00000000000E+00  0.12805358942E+03  0.12805358952E+03  0.50400001928E-02 0. -1.
        1   -1    0    0  501    0  0.00000000000E+00  0.00000000000E+00 -0.12537900573E+04  0.12537900573E+04  0.50400001928E-02 0.  1.
    10030    2    1    2    0    0  0.00000000000E+00  0.00000000000E+00 -0.11257364679E+04  0.13818436469E+04  0.80137960369E+03 0.  0.
        2    1    3    3  502    0 -0.24051173225E+02  0.52986306115E+01  0.12674727258E+03  0.12911779712E+03  0.25500000920E-02 0. -1.
       -2    1    3    3    0  502  0.24051173225E+02 -0.52986306115E+01 -0.12524837405E+04  0.12527258497E+04  0.25500000920E-02 0.  1.
</event>
<event>
 5   0  0.1523811E-02  0.7782343E+03  0.7818609E-02  0.9592068E-01
       -1   -1    0    0    0  501  0.00000000000E+00  0.00000000000E+00  0.14432730482E+03  0.14432730491E+03  0.50400001928E-02 0. -1.
        1   -1    0    0  501    0  0.00000000000E+00  0.00000000000E+00 -0.10490888992E+04  0.10490888993E+04  0.50400001928E-02 0.  1.
    10030    2    1    2    0    0  0.00000000000E+00  0.00000000000E+00 -0.90476159442E+03  0.11934162042E+04  0.77823434365E+03 0.  0.
        1    1    3    3  502    0 -0.18531718465E+03  0.10567323895E+03  0.46659281005E+02  0.21837211564E+03  0.50400001928E-02 0. -1.
       -1    1    3    3    0  502  0.18531718465E+03 -0.10567323895E+03 -0.95142087543E+03  0.97504408853E+03  0.50400001928E-02 0.  1.
</event>
<event>
 5   0  0.2460312E-02  0.7612719E+03  0.7818609E-02  0.9617831E-01
        2   -1    0    0  501    0  0.00000000000E+00  0.00000000000E+00  0.16091157442E+04  0.16091157442E+04  0.25500000920E-02 0. -1.
       -2   -1    0    0    0  501  0.00000000000E+00  0.00000000000E+00 -0.90039349622E+02  0.90039349659E+02  0.25500000920E-02 0.  1.
    10030    2    1    2    0    0  0.00000000000E+00  0.00000000000E+00  0.15190763946E+04  0.16991550939E+04  0.76127192280E+03 0.  0.
        2    1    3    3  502    0 -0.31946313245E+03  0.37821832943E+02  0.30541332462E+03  0.44358142759E+03  0.25500000920E-02 0.  1.
       -2    1    3    3    0  502  0.31946313245E+03 -0.37821832943E+02  0.12136630700E+04  0.12555736663E+04  0.25500000920E-02 0. -1.
</event>
<event>
 5   0  0.1523811E-02  0.7873714E+03  0.7818609E-02  0.9578479E-01
       -1   -1    0    0    0  501  0.00000000000E+00  0.00000000000E+00  0.44992069975E+03  0.44992069978E+03  0.50400001928E-02 0. -1.
        1   -1    0    0  501    0  0.00000000000E+00  0.00000000000E+00 -0.34447940772E+03  0.34447940776E+03  0.50400001928E-02 0.  1.
    10030    2    1    2    0    0  0.00000000000E+00  0.00000000000E+00  0.10544129203E+03  0.79440010754E+03  0.78737136396E+03 0.  0.
        1    1    3    3  502    0  0.21016592330E+03 -0.17123173181E+03 -0.23530702062E+03  0.35896993645E+03  0.50400001928E-02 0.  1.
       -1    1    3    3    0  502 -0.21016592330E+03  0.17123173181E+03  0.34074831265E+03  0.43543017109E+03  0.50400001928E-02 0. -1.
</event>
<event>
 5   0  0.1498375E-02  0.7538748E+03  0.7818609E-02  0.9629291E-01
       -1   -1    0    0    0  501  0.00000000000E+00  0.00000000000E+00  0.83391848795E+02  0.83391848947E+02  0.50400001928E-02 0. -1.
        1   -1    0    0  501    0  0.00000000000E+00  0.00000000000E+00 -0.17037850793E+04  0.17037850793E+04  0.50400001928E-02 0.  1.
    10030    2    1    2    0    0  0.00000000000E+00  0.00000000000E+00 -0.16203932305E+04  0.17871769283E+04  0.75387475844E+03 0.  0.
        4    1    3    3  502    0  0.30408340099E+03 -0.12673970063E+03 -0.37596853935E+03  0.49988360841E+03  0.12699999809E+01 0. -1.
       -4    1    3    3    0  502 -0.30408340099E+03  0.12673970063E+03 -0.12444246912E+04  0.12872933198E+04  0.12699999809E+01 0.  1.
</event>
<event>
 5   0  0.1471290E-02  0.7738426E+03  0.7818609E-02  0.9598670E-01
        1   -1    0    0  501    0  0.00000000000E+00  0.00000000000E+00  0.71266301985E+03  0.71266301987E+03  0.50400001928E-02 0. -1.
       -1   -1    0    0    0  501  0.00000000000E+00  0.00000000000E+00 -0.21006855370E+03  0.21006855376E+03  0.50400001928E-02 0.  1.
    10030    2    1    2    0    0  0.00000000000E+00  0.00000000000E+00  0.50259446615E+03  0.92273157363E+03  0.77384259353E+03 0.  0.
        2    1    3    3  502    0 -0.10737254304E+03  0.18439466873E+03  0.63616399935E+03  0.67099544777E+03  0.25500000920E-02 0. -1.
       -2    1    3    3    0  502  0.10737254304E+03 -0.18439466873E+03 -0.13356953320E+03  0.25173612586E+03  0.25500000920E-02 0.  1.
</event>
<event>
 5   0  0.2422031E-02  0.8022675E+03  0.7818609E-02  0.9556741E-01
       -2   -1    0    0    0  501  0.00000000000E+00  0.00000000000E+00  0.83311037623E+02  0.83311037662E+02  0.25500000920E-02 0. -1.
        2   -1    0    0  501    0  0.00000000000E+00  0.00000000000E+00 -0.19314161016E+04  0.19314161016E+04  0.25500000920E-02 0.  1.
    10030    2    1    2    0    0  0.00000000000E+00  0.00000000000E+00 -0.18481050639E+04  0.20147271392E+04  0.80226748543E+03 0.  0.
        4    1    3    3  502    0 -0.21895776072E+03  0.17936102449E+03 -0.21023693686E+03  0.35258199133E+03  0.12699999809E+01 0.  1.
       -4    1    3    3    0  502  0.21895776072E+03 -0.17936102449E+03 -0.16378681271E+04  0.16621451479E+04  0.12699999809E+01 0. -1.
</event>
<event>
 5   0  0.2454354E-02  0.7980279E+03  0.7818609E-02  0.9562876E-01
       -2   -1    0    0    0  501  0.00000000000E+00  0.00000000000E+00  0.16316584148E+03  0.16316584150E+03  0.25500000920E-02 0. -1.
        2   -1    0    0  501    0  0.00000000000E+00  0.00000000000E+00 -0.97576882531E+03  0.97576882531E+03  0.25500000920E-02 0.  1.
    10030    2    1    2    0    0  0.00000000000E+00  0.00000000000E+00 -0.81260298382E+03  0.11389346668E+04  0.79802792304E+03 0.  0.
        5    1    3    3  502    0  0.36219431325E+03  0.16417321680E+03 -0.45260232999E+03  0.60250188778E+03  0.46999998093E+01 0.  1.
       -5    1    3    3    0  502 -0.36219431325E+03 -0.16417321680E+03 -0.36000065384E+03  0.53643277904E+03  0.46999998093E+01 0. -1.
</event>
<event>
 5   0  0.2422031E-02  0.7974204E+03  0.7818609E-02  0.9563759E-01
       -2   -1    0    0    0  501  0.00000000000E+00  0.00000000000E+00  0.24885225667E+03  0.24885225668E+03  0.25500000920E-02 0.  1.
        2   -1    0    0  501    0  0.00000000000E+00  0.00000000000E+00 -0.63881200895E+03  0.63881200895E+03  0.25500000920E-02 0. -1.
    10030    2    1    2    0    0  0.00000000000E+00  0.00000000000E+00 -0.38995975228E+03  0.88766426563E+03  0.79742036598E+03 0.  0.
        4    1    3    3  502    0  0.37867544506E+03  0.96997103406E+02 -0.28238083601E+03  0.48222824493E+03  0.12699999809E+01 0. -1.
       -4    1    3    3    0  502 -0.37867544506E+03 -0.96997103406E+02 -0.10757891627E+03  0.40543602071E+03  0.12699999809E+01 0.  1.
</event>
<event>
 5   0  0.2571778E-02  0.8000268E+03  0.7818609E-02  0.9559978E-01
       -2   -1    0    0    0  501  0.00000000000E+00  0.00000000000E+00  0.52658887546E+03  0.52658887546E+03  0.25500000920E-02 0. -1.
        2   -1    0    0  501    0  0.00000000000E+00  0.00000000000E+00 -0.30386269351E+03  0.30386269352E+03  0.25500000920E-02 0.  1.
    10030    2    1    2    0    0  0.00000000000E+00  0.00000000000E+00  0.22272618194E+03  0.83045156898E+03  0.80002678474E+03 0.  0.
        1    1    3    3  502    0  0.16050846865E+03  0.24897963043E+03  0.39039213602E+03  0.49006106228E+03  0.50400001928E-02 0. -1.
       -1    1    3    3    0  502 -0.16050846865E+03 -0.24897963043E+03 -0.16766595407E+03  0.34039050670E+03  0.50400001928E-02 0.  1.
</event>
<event>
 5   0  0.2454354E-02  0.7593638E+03  0.7818609E-02  0.9620773E-01
        2   -1    0    0  501    0  0.00000000000E+00  0.00000000000E+00  0.84623707512E+03  0.84623707512E+03  0.25500000920E-02 0.  1.
       -2   -1    0    0    0  501  0.00000000000E+00  0.00000000000E+00 -0.17035219527E+03  0.17035219529E+03  0.25500000920E-02 0. -1.
    10030    2    1    2    0    0  0.00000000000E+00  0.00000000000E+00  0.67588487984E+03  0.10165892704E+04  0.75936379550E+03 0.  0.
        5    1    3    3  502    0  0.28979635125E+03 -0.17107533315E+02  0.10398163819E+02  0.29052505005E+03  0.46999998093E+01 0. -1.
       -5    1    3    3    0  502 -0.28979635125E+03  0.17107533315E+02  0.66548671602E+03  0.72606422037E+03  0.46999998093E+01 0.  1.
</event>
<event>
 5   0  0.2464780E-02  0.7972453E+03  0.7818609E-02  0.9564013E-01
       -2   -1    0    0    0  501  0.00000000000E+00  0.00000000000E+00  0.92468856158E+02  0.92468856193E+02  0.25500000920E-02 0. -1.
        2   -1    0    0  501    0  0.00000000000E+00  0.00000000000E+00 -0.17184166258E+04  0.17184166258E+04  0.25500000920E-02 0.  1.
    10030    2    1    2    0    0  0.00000000000E+00  0.00000000000E+00 -0.16259477697E+04  0.18108854820E+04  0.79724530686E+03 0.  0.
        3    1    3    3  502    0  0.40413331814E+00 -0.17137323394E+03  0.45227564925E+01  0.17143341029E+03  0.10100000352E+00 0. -1.
       -3    1    3    3    0  502 -0.40413331814E+00  0.17137323394E+03 -0.16304705262E+04  0.16394520717E+04  0.10100000352E+00 0.  1.
</event>
<event>
 5   0  0.2422031E-02  0.7998567E+03  0.7818609E-02  0.9560225E-01
        2   -1    0    0  501    0  0.00000000000E+00  0.00000000000E+00  0.11574460353E+04  0.11574460353E+04  0.25500000920E-02 0.  1.
       -2   -1    0    0    0  501  0.00000000000E+00  0.00000000000E+00 -0.13818585515E+03  0.13818585518E+03  0.25500000920E-02 0. -1.
    10030    2    1    2    0    0  0.00000000000E+00  0.00000000000E+00  0.10192601802E+04  0.12956318905E+04  0.79985666266E+03 0.  0.
        4    1    3    3  502    0  0.37179382284E+03 -0.67706349721E+02  0.72161294609E+03  0.81458066106E+03  0.12699999809E+01 0.  1.
       -4    1    3    3    0  502 -0.37179382284E+03  0.67706349721E+02  0.29764723408E+03  0.48105122945E+03  0.12699999809E+01 0. -1.
</event>
<event>
 5   0  0.1624094E-02  0.8027564E+03  0.7818609E-02  0.9556036E-01
       -1   -1    0    0    0  501  0.00000000000E+00  0.00000000000E+00  0.12604390340E+03  0.12604390350E+03  0.50400001928E-02 0.  1.
        1   -1    0    0  501    0  0.00000000000E+00  0.00000000000E+00 -0.12781613362E+04  0.12781613362E+04  0.50400001928E-02 0. -1.
    10030    2    1    2    0    0  0.00000000000E+00  0.00000000000E+00 -0.11521174328E+04  0.14042052397E+04  0.80275636171E+03 0.  0.
        3    1    3    3  502    0 -0.29644549022E+03 -0.19256435309E+03 -0.90861241825E+03  0.97495512489E+03  0.10100000352E+00 0. -1.
       -3    1    3    3    0  502  0.29644549022E+03  0.19256435309E+03 -0.24350501453E+03  0.42925011480E+03  0.10100000352E+00 0.  1.
</event>
<event>
 5   0  0.1471290E-02  0.7973125E+03  0.7818609E-02  0.9563915E-01
       -1   -1    0    0    0  501  0.00000000000E+00  0.00000000000E+00  0.67366598049E+03  0.67366598051E+03  0.50400001928E-02 0.  1.
        1   -1    0    0  501    0  0.00000000000E+00  0.00000000000E+00 -0.23591337733E+03  0.23591337739E+03  0.50400001928E-02 0. -1.
    10030    2    1    2    0    0  0.00000000000E+00  0.00000000000E+00  0.43775260316E+03  0.90957935790E+03  0.79731252765E+03 0.  0.
        2    1    3    3  502    0 -0.23765784734E+03  0.42358663135E+02  0.58080391523E+03  0.62897432118E+03  0.25500000920E-02 0.  1.
       -2    1    3    3    0  502  0.23765784734E+03 -0.42358663135E+02 -0.14305131207E+03  0.28060503672E+03  0.25500000920E-02 0. -1.
</event>
<event>
 5   0  0.1624094E-02  0.7600958E+03  0.7818609E-02  0.9619643E-01
       -1   -1    0    0    0  501  0.00000000000E+00  0.00000000000E+00  0.42497963028E+03  0.42497963031E+03  0.50400001928E-02 0.  1.
        1   -1    0    0  501    0  0.00000000000E+00  0.00000000000E+00 -0.33986661908E+03  0.33986661912E+03  0.50400001928E-02 0. -1.
    10030    2    1    2    0    0  0.00000000000E+00  0.00000000000E+00  0.85113011197E+02  0.76484624942E+03  0.76009575751E+03 0.  0.
        3    1    3    3  502    0  0.71568962285E+02 -0.11372481446E+03 -0.31516628215E+03  0.34261530234E+03  0.10100000352E+00 0. -1.
       -3    1    3    3    0  502 -0.71568962285E+02  0.11372481446E+03  0.40027929335E+03  0.42223094708E+03  0.10100000352E+00 0.  1.
</event>
<event>
 5   0  0.2422031E-02  0.8006639E+03  0.7818609E-02  0.9559057E-01
        2   -1    0    0  501    0  0.00000000000E+00  0.00000000000E+00  0.66165527248E+03  0.66165527249E+03  0.25500000920E-02 0.  1.
       -2   -1    0    0    0  501  0.00000000000E+00  0.00000000000E+00 -0.24221926602E+03  0.24221926603E+03  0.25500000920E-02 0. -1.
    10030    2    1    2    0    0  0.00000000000E+00  0.00000000000E+00  0.41943600646E+03  0.90387453852E+03  0.80066386073E+03 0.  0.
        4    1    3    3  502    0 -0.12044999716E+03  0.24383667015E+03 -0.12191833529E+03  0.29804398485E+03  0.12699999809E+01 0. -1.
       -4    1    3    3    0  502  0.12044999716E+03 -0.24383667015E+03  0.54135434176E+03  0.60583055367E+03  0.12699999809E+01 0.  1.
</event>
<event>
 5   0  0.1523811E-02  0.7969344E+03  0.7818609E-02  0.9564465E-01
        1   -1    0    0  501    0  0.00000000000E+00  0.00000000000E+00  0.31046856204E+03  0.31046856208E+03  0.50400001928E-02 0.  1.
       -1   -1    0    0    0  501  0.00000000000E+00  0.00000000000E+00 -0.51140795430E+03  0.51140795432E+03  0.50400001928E-02 0. -1.
    10030    2    1    2    0    0  0.00000000000E+00  0.00000000000E+00 -0.20093939226E+03  0.82187651641E+03  0.79693435668E+03 0.  0.
        1    1    3    3  502    0  0.13748249343E+03  0.33946418268E+03  0.61410281344E+02  0.37136045832E+03  0.50400001928E-02 0.  1.
       -1    1    3    3    0  502 -0.13748249343E+03 -0.33946418268E+03 -0.26234967360E+03  0.45051605808E+03  0.50400001928E-02 0. -1.
</event>
<event>
 5   0  0.1509629E-02  0.7975248E+03  0.7818609E-02  0.9563607E-01
       -1   -1    0    0    0  501  0.00000000000E+00  0.00000000000E+00  0.31841268235E+03  0.31841268239E+03  0.50400001928E-02 0. -1.
        1   -1    0    0  501    0  0.00000000000E+00  0.00000000000E+00 -0.49938793171E+03  0.49938793173E+03  0.50400001928E-02 0.  1.
    10030    2    1    2    0    0  0.00000000000E+00  0.00000000000E+00 -0.18097524936E+03  0.81780061412E+03  0.79752479810E+03 0.  0.
        5    1    3    3  502    0  0.30550775405E+03 -0.19355049803E+02  0.17150706874E+03  0.35092217137E+03  0.46999998093E+01 0. -1.
       -5    1    3    3    0  502 -0.30550775405E+03  0.19355049803E+02 -0.35248231810E+03  0.46687844275E+03  0.46999998093E+01 0.  1.
</event>
<event>
 5   0  0.1523811E-02  0.7792847E+03  0.7818609E-02  0.9590495E-01
       -1   -1    0    0    0  501  0.00000000000E+00  0.00000000000E+00  0.55970755026E+03  0.55970755028E+03  0.50400001928E-02 0. -1.
        1   -1    0    0  501    0  0.00000000000E+00  0.00000000000E+00 -0.27125086255E+03  0.27125086260E+03  0.50400001928E-02 0.  1.
    10030    2    1    2    0    0  0.00000000000E+00  0.00000000000E+00  0.28845668771E+03  0.83095841288E+03  0.77928468691E+03 0.  0.
        1    1    3    3  502    0 -0.31114341464E+02 -0.21309454334E+02  0.55775695645E+03  0.55903042635E+03  0.50400001928E-02 0. -1.
       -1    1    3    3    0  502  0.31114341464E+02  0.21309454334E+02 -0.26930026874E+03  0.27192798653E+03  0.50400001928E-02 0.  1.
</event>
<event>
 5   0  0.1471290E-02  0.8038661E+03  0.7818609E-02  0.9554438E-01
        1   -1    0    0  501    0  0.00000000000E+00  0.00000000000E+00  0.16362246218E+03  0.16362246226E+03  0.50400001928E-02 0. -1.
       -1   -1    0    0    0  501  0.00000000000E+00  0.00000000000E+00 -0.98733487743E+03  0.98733487744E+03  0.50400001928E-02 0.  1.
    10030    2    1    2    0    0  0.00000000000E+00  0.00000000000E+00 -0.82371241524E+03  0.11509573397E+04  0.80386606768E+03 0.  0.
        2    1    3    3  502    0  0.12607554104E+03 -0.14956770461E+03  0.90868217657E+02  0.21569092076E+03  0.25500000920E-02 0. -1.
       -2    1    3    3    0  502 -0.12607554104E+03  0.14956770461E+03 -0.91458063290E+03  0.93526641894E+03  0.25500000920E-02 0.  1.
</event>
<event>
 5   0  0.2454354E-02  0.8041691E+03  0.7818609E-02  0.9554002E-01
        2   -1    0    0  501    0  0.00000000000E+00  0.00000000000E+00  0.16465379964E+04  0.16465379964E+04  0.25500000920E-02 0.  1.
       -2   -1    0    0    0  501  0.00000000000E+00  0.00000000000E+00 -0.98189033114E+02  0.98189033147E+02  0.25500000920E-02 0. -1.
    10030    2    1    2    0    0  0.00000000000E+00  0.00000000000E+00  0.15483489633E+04  0.17447270295E+04  0.80416907148E+03 0.  0.
        5    1    3    3  502    0 -0.12437145212E+03  0.17447954864E+03  0.15122810535E+04  0.15273923680E+04  0.46999998093E+01 0.  1.
       -5    1    3    3    0  502  0.12437145212E+03 -0.17447954864E+03  0.36067909769E+02  0.21733466155E+03  0.46999998093E+01 0. -1.
</event>
<event>
 5   0  0.2422031E-02  0.7888711E+03  0.7818609E-02  0.9576267E-01
        2   -1    0    0  501    0  0.00000000000E+00  0.00000000000E+00  0.90023579203E+03  0.90023579203E+03  0.25500000920E-02 0. -1.
       -2   -1    0    0    0  501  0.00000000000E+00  0.00000000000E+00 -0.17282071518E+03  0.17282071520E+03  0.25500000920E-02 0.  1.
    10030    2    1    2    0    0  0.00000000000E+00  0.00000000000E+00  0.72741507684E+03  0.10730565072E+04  0.78887107545E+03 0.  0.
        4    1    3    3  502    0 -0.20101715121E+03  0.32975272797E+03  0.25460769174E+03  0.46257047709E+03  0.12699999809E+01 0.  1.
       -4    1    3    3    0  502  0.20101715121E+03 -0.32975272797E+03  0.47280738510E+03  0.61048603014E+03  0.12699999809E+01 0. -1.
</event>
<event>
 5   0  0.1624094E-02  0.7193457E+03  0.7818609E-02  0.9684709E-01
       -1   -1    0    0    0  501  0.00000000000E+00  0.00000000000E+00  0.13018814344E+03  0.13018814354E+03  0.50400001928E-02 0. -1.
        1   -1    0    0  501    0  0.00000000000E+00  0.00000000000E+00 -0.99367376888E+03  0.99367376890E+03  0.50400001928E-02 0.  1.
    10030    2    1    2    0    0  0.00000000000E+00  0.00000000000E+00 -0.86348562544E+03  0.11238619124E+04  0.71934565605E+03 0.  0.
        3    1    3    3  502    0  0.23539867657E+03  0.27079143680E+03 -0.47076984073E+03  0.59191620380E+03  0.10100000352E+00 0. -1.
       -3    1    3    3    0  502 -0.23539867657E+03 -0.27079143680E+03 -0.39271578471E+03  0.53194570864E+03  0.10100000352E+00 0.  1.
</event>
<event>
 5   0  0.9919125E-03  0.8135734E+03  0.7818609E-02  0.9540575E-01
       -4   -1    0    0    0  501  0.00000000000E+00  0.00000000000E+00  0.10647828684E+04  0.10647836258E+04  0.12699999809E+01 0. -1.
        4   -1    0    0  501    0  0.00000000000E+00  0.00000000000E+00 -0.15540425154E+03  0.15540944082E+03  0.12699999809E+01 0.  1.
    10030    2    1    2    0    0  0.00000000000E+00  0.00000000000E+00  0.90937861687E+03  0.12201930666E+04  0.81357338391E+03 0.  0.
        3    1    3    3  502    0  0.38117716703E+03 -0.13428408823E+03  0.52418587843E+03  0.66189054561E+03  0.10100000352E+00 0.  1.
       -3    1    3    3    0  502 -0.38117716703E+03  0.13428408823E+03  0.38519273844E+03  0.55830252101E+03  0.10100000352E+00 0. -1.
</event>
<event>
 5   0  0.2422031E-02  0.7927126E+03  0.7818609E-02  0.9570626E-01
       -2   -1    0    0    0  501  0.00000000000E+00  0.00000000000E+00  0.96111983038E+02  0.96111983072E+02  0.25500000920E-02 0.  1.
        2   -1    0    0  501    0  0.00000000000E+00  0.00000000000E+00 -0.16345340165E+04  0.16345340165E+04  0.25500000920E-02 0. -1.
    10030    2    1    2    0    0  0.00000000000E+00  0.00000000000E+00 -0.15384220334E+04  0.17306459996E+04  0.79271257262E+03 0.  0.
        4    1    3    3  502    0 -0.11357243069E+03 -0.35652840200E+03 -0.10545796736E+04  0.11189955761E+04  0.12699999809E+01 0. -1.
       -4    1    3    3    0  502  0.11357243069E+03  0.35652840200E+03 -0.48384235988E+03  0.61165042350E+03  0.12699999809E+01 0.  1.
</event>
<event>
 5   0  0.1498375E-02  0.7744080E+03  0.7818609E-02  0.9597817E-01
       -1   -1    0    0    0  501  0.00000000000E+00  0.00000000000E+00  0.46349245456E+03  0.46349245458E+03  0.50400001928E-02 0. -1.
        1   -1    0    0  501    0  0.00000000000E+00  0.00000000000E+00 -0.32347223940E+03  0.32347223944E+03  0.50400001928E-02 0.  1.
    10030    2    1    2    0    0  0.00000000000E+00  0.00000000000E+00  0.14002021516E+03  0.78696469402E+03  0.77440801195E+03 0.  0.
        4    1    3    3  502    0  0.23187170708E+03 -0.19895967825E+03 -0.17170349875E+03  0.35047560043E+03  0.12699999809E+01 0.  1.
       -4    1    3    3    0  502 -0.23187170708E+03  0.19895967825E+03  0.31172371390E+03  0.43648909359E+03  0.12699999809E+01 0. -1.
</event>
<event>
 5   0  0.2422031E-02  0.6699475E+03  0.7818609E-02  0.9770053E-01
        2   -1    0    0  501    0  0.00000000000E+00  0.00000000000E+00  0.15606612629E+04  0.15606612629E+04  0.25500000920E-02 0. -1.
       -2   -1    0    0    0  501  0.00000000000E+00  0.00000000000E+00 -0.71897345950E+02  0.71897345995E+02  0.25500000920E-02 0.  1.
    10030    2    1    2    0    0  0.00000000000E+00  0.00000000000E+00  0.14887639170E+04  0.16325586089E+04  0.66994746890E+03 0.  0.
        4    1    3    3  502    0 -0.29795900476E+03  0.13234940401E+03  0.93171591376E+03  0.98711300777E+03  0.12699999809E+01 0.  1.
       -4    1    3    3    0  502  0.29795900476E+03 -0.13234940401E+03  0.55704800321E+03  0.64544560115E+03  0.12699999809E+01 0. -1.
</event>
<event>
 5   0  0.1498375E-02  0.8073998E+03  0.7818609E-02  0.9549368E-01
       -1   -1    0    0    0  501  0.00000000000E+00  0.00000000000E+00  0.29609609491E+03  0.29609609495E+03  0.50400001928E-02 0. -1.
        1   -1    0    0  501    0  0.00000000000E+00  0.00000000000E+00 -0.55040780933E+03  0.55040780935E+03  0.50400001928E-02 0.  1.
    10030    2    1    2    0    0  0.00000000000E+00  0.00000000000E+00 -0.25431171442E+03  0.84650390430E+03  0.80739978444E+03 0.  0.
        4    1    3    3  502    0  0.20246264395E+03  0.14590030097E+03  0.20553592112E+03  0.32330271850E+03  0.12699999809E+01 0. -1.
       -4    1    3    3    0  502 -0.20246264395E+03 -0.14590030097E+03 -0.45984763553E+03  0.52320118580E+03  0.12699999809E+01 0.  1.
</event>
<event>
 5   0  0.1523811E-02  0.8004286E+03  0.7818609E-02  0.9559397E-01
        1   -1    0    0  501    0  0.00000000000E+00  0.00000000000E+00  0.11714099502E+04  0.11714099502E+04  0.50400001928E-02 0. -1.
       -1   -1    0    0    0  501  0.00000000000E+00  0.00000000000E+00 -0.13673394123E+03  0.13673394132E+03  0.50400001928E-02 0.  1.
    10030    2    1    2    0    0  0.00000000000E+00  0.00000000000E+00  0.10346760090E+04  0.13081438916E+04  0.80042863357E+03 0.  0.
        1    1    3    3  502    0 -0.22555497800E+03  0.32795665401E+03  0.58552755986E+03  0.70800645364E+03  0.50400001928E-02 0.  1.
       -1    1    3    3    0  502  0.22555497800E+03 -0.32795665401E+03  0.44914844914E+03  0.60013743793E+03  0.50400001928E-02 0. -1.
</event>
<event>
 5   0  0.2464780E-02  0.7652550E+03  0.7818609E-02  0.9611717E-01
        2   -1    0    0  501    0  0.00000000000E+00  0.00000000000E+00  0.66152873349E+03  0.66152873350E+03  0.25500000920E-02 0. -1.
       -2   -1    0    0    0  501  0.00000000000E+00  0.00000000000E+00 -0.22131132254E+03  0.22131132255E+03  0.25500000920E-02 0.  1.
    10030    2    1    2    0    0  0.00000000000E+00  0.00000000000E+00  0.44021741096E+03  0.88284005605E+03  0.76525498735E+03 0.  0.
        3    1    3    3  502    0 -0.42499393073E+02  0.35839989354E+03  0.73512335193E+02  0.36832153851E+03  0.10100000352E+00 0.  1.
       -3    1    3    3    0  502  0.42499393073E+02 -0.35839989354E+03  0.36670507576E+03  0.51451851754E+03  0.10100000352E+00 0. -1.
</event>
<event>
 5   0  0.1509629E-02  0.8245742E+03  0.7818609E-02  0.9525113E-01
        1   -1    0    0  501    0  0.00000000000E+00  0.00000000000E+00  0.41825458616E+03  0.41825458619E+03  0.50400001928E-02 0.  1.
       -1   -1    0    0    0  501  0.00000000000E+00  0.00000000000E+00 -0.40640476107E+03  0.40640476110E+03  0.50400001928E-02 0. -1.
    10030    2    1    2    0    0  0.00000000000E+00  0.00000000000E+00  0.11849825093E+02  0.82465934729E+03  0.82457420571E+03 0.  0.
        5    1    3    3  502    0  0.28762318748E+03 -0.10863776457E+03  0.28059722833E+03  0.41627653839E+03  0.46999998093E+01 0.  1.
       -5    1    3    3    0  502 -0.28762318748E+03  0.10863776457E+03 -0.26874740323E+03  0.40838280891E+03  0.46999998093E+01 0. -1.
</event>
<event>
 5   0  0.2464780E-02  0.7659572E+03  0.7818609E-02  0.9610643E-01
        2   -1    0    0  501    0  0.00000000000E+00  0.00000000000E+00  0.22368924647E+03  0.22368924648E+03  0.25500000920E-02 0. -1.
       -2   -1    0    0    0  501  0.00000000000E+00  0.00000000000E+00 -0.65569810186E+03  0.65569810186E+03  0.25500000920E-02 0.  1.
    10030    2    1    2    0    0  0.00000000000E+00  0.00000000000E+00 -0.43200885539E+03  0.87938734834E+03  0.76595721636E+03 0.  0.
        3    1    3    3  502    0  0.16324819445E+02  0.11323652992E+03  0.20361178605E+03  0.23355252312E+03  0.10100000352E+00 0. -1.
       -3    1    3    3    0  502 -0.16324819445E+02 -0.11323652992E+03 -0.63562064144E+03  0.64583482522E+03  0.10100000352E+00 0.  1.
</event>
<event>
 5   0  0.2422031E-02  0.8006681E+03  0.7818609E-02  0.9559050E-01
       -2   -1    0    0    0  501  0.00000000000E+00  0.00000000000E+00  0.19743977832E+03  0.19743977834E+03  0.25500000920E-02 0. -1.
        2   -1    0    0  501    0  0.00000000000E+00  0.00000000000E+00 -0.81172786542E+03  0.81172786542E+03  0.25500000920E-02 0.  1.
    10030    2    1    2    0    0  0.00000000000E+00  0.00000000000E+00 -0.61428808709E+03  0.10091676438E+04  0.80066814553E+03 0.  0.
        4    1    3    3  502    0  0.30038549020E+03  0.21386476070E+03 -0.50360658162E+03  0.62417207607E+03  0.12699999809E+01 0.  1.
       -4    1    3    3    0  502 -0.30038549020E+03 -0.21386476070E+03 -0.11068150547E+03  0.38499556770E+03  0.12699999809E+01 0. -1.
</event>
<event>
 5   0  0.2464780E-02  0.8023780E+03  0.7818609E-02  0.9556581E-01
       -2   -1    0    0    0  501  0.00000000000E+00  0.00000000000E+00  0.32493094167E+03  0.32493094168E+03  0.25500000920E-02 0. -1.
        2   -1    0    0  501    0  0.00000000000E+00  0.00000000000E+00 -0.49534406084E+03  0.49534406084E+03  0.25500000920E-02 0.  1.
    10030    2    1    2    0    0  0.00000000000E+00  0.00000000000E+00 -0.17041311917E+03  0.82027500253E+03  0.80237799608E+03 0.  0.
        3    1    3    3  502    0 -0.15907976839E+03 -0.65267909141E+02  0.28535089641E+03  0.33315374373E+03  0.10100000352E+00 0. -1.
       -3    1    3    3    0  502  0.15907976839E+03  0.65267909141E+02 -0.45576401558E+03  0.48712125880E+03  0.10100000352E+00 0.  1.
</event>
<event>
 5   0  0.2571778E-02  0.8006748E+03  0.7818609E-02  0.9559041E-01
        2   -1    0    0  501    0  0.00000000000E+00  0.00000000000E+00  0.15359976422E+04  0.15359976423E+04  0.25500000920E-02 0.  1.
       -2   -1    0    0    0  501  0.00000000000E+00  0.00000000000E+00 -0.10434262210E+03  0.10434262213E+03  0.25500000920E-02 0. -1.
    10030    2    1    2    0    0  0.00000000000E+00  0.00000000000E+00  0.14316550202E+04  0.16403402644E+04  0.80067476931E+03 0.  0.
        1    1    3    3  502    0  0.35878459362E+03 -0.14869535862E+03  0.51684713186E+03  0.64650417789E+03  0.50400001928E-02 0. -1.
       -1    1    3    3    0  502 -0.35878459362E+03  0.14869535862E+03  0.91480788829E+03  0.99383608649E+03  0.50400001928E-02 0.  1.
</event>
<event>
 5   0  0.9919125E-03  0.5998668E+03  0.7818609E-02  0.9905682E-01
        4   -1    0    0  501    0  0.00000000000E+00  0.00000000000E+00  0.11683394344E+03  0.11684084577E+03  0.12699999809E+01 0. -1.
       -4   -1    0    0    0  501  0.00000000000E+00  0.00000000000E+00 -0.76995194946E+03  0.76995299687E+03  0.12699999809E+01 0.  1.
    10030    2    1    2    0    0  0.00000000000E+00  0.00000000000E+00 -0.65311800602E+03  0.88679384263E+03  0.59986680983E+03 0.  0.
        3    1    3    3  502    0 -0.20914911201E+03  0.10497504472E+03 -0.60390391554E+03  0.64765967951E+03  0.10100000352E+00 0.  1.
       -3    1    3    3    0  502  0.20914911201E+03 -0.10497504472E+03 -0.49214090489E+02  0.23913416312E+03  0.10100000352E+00 0. -1.
</event>
<event>
 5   0  0.1498375E-02  0.8117218E+03  0.7818609E-02  0.9543204E-01
       -1   -1    0    0    0  501  0.00000000000E+00  0.00000000000E+00  0.14776352025E+04  0.14776352025E+04  0.50400001928E-02 0.  1.
        1   -1    0    0  501    0  0.00000000000E+00  0.00000000000E+00 -0.11147750333E+03  0.11147750345E+03  0.50400001928E-02 0. -1.
    10030    2    1    2    0    0  0.00000000000E+00  0.00000000000E+00  0.13661576992E+04  0.15891127060E+04  0.81172183243E+03 0.  0.
        4    1    3    3  502    0 -0.39777441014E+03  0.12531800646E+02  0.83895876104E+03  0.92856606820E+03  0.12699999809E+01 0. -1.
       -4    1    3    3    0  502  0.39777441014E+03 -0.12531800646E+02  0.52719893813E+03  0.66054663776E+03  0.12699999809E+01 0.  1.
</event>
<event>
 5   0  0.2454354E-02  0.8109091E+03  0.7818609E-02  0.9544360E-01
        2   -1    0    0  501    0  0.00000000000E+00  0.00000000000E+00  0.11540078381E+03  0.11540078384E+03  0.25500000920E-02 0. -1.
       -2   -1    0    0    0  501  0.00000000000E+00  0.00000000000E+00 -0.14245430400E+04  0.14245430400E+04  0.25500000920E-02 0.  1.
    10030    2    1    2    0    0  0.00000000000E+00  0.00000000000E+00 -0.13091422562E+04  0.15399438238E+04  0.81090907852E+03 0.  0.
        5    1    3    3  502    0 -0.36301287917E+02  0.27420033612E+03 -0.12174919452E+04  0.12485240624E+04  0.46999998093E+01 0.  1.
       -5    1    3    3    0  502  0.36301287917E+02 -0.27420033612E+03 -0.91650310974E+02  0.29141976139E+03  0.46999998093E+01 0. -1.
</event>
<event>
 5   0  0.1523811E-02  0.8086924E+03  0.7818609E-02  0.9547520E-01
        1   -1    0    0  501    0  0.00000000000E+00  0.00000000000E+00  0.85050155468E+03  0.85050155470E+03  0.50400001928E-02 0.  1.
       -1   -1    0    0    0  501  0.00000000000E+00  0.00000000000E+00 -0.19223464756E+03  0.19223464763E+03  0.50400001928E-02 0. -1.
    10030    2    1    2    0    0  0.00000000000E+00  0.00000000000E+00  0.65826690712E+03  0.10427362023E+04  0.80869244254E+03 0.  0.
        1    1    3    3  502    0  0.20903289933E+02 -0.38227213579E+02 -0.18919914092E+03  0.19415092670E+03  0.50400001928E-02 0. -1.
       -1    1    3    3    0  502 -0.20903289933E+02  0.38227213579E+02  0.84746604804E+03  0.84858527562E+03  0.50400001928E-02 0.  1.
</event>
<event>
 5   0  0.1498375E-02  0.8316082E+03  0.7818609E-02  0.9515360E-01
        1   -1    0    0  501    0  0.00000000000E+00  0.00000000000E+00  0.45215400724E+03  0.45215400727E+03  0.50400001928E-02 0.  1.
       -1   -1    0    0    0  501  0.00000000000E+00  0.00000000000E+00 -0.38237648732E+03  0.38237648735E+03  0.50400001928E-02 0. -1.
    10030    2    1    2    0    0  0.00000000000E+00  0.00000000000E+00  0.69777519924E+02  0.83453049462E+03  0.83160822757E+03 0.  0.
        4    1    3    3  502    0 -0.14958631163E+03  0.26304440567E+03  0.32106277298E+03  0.44119308820E+03  0.12699999809E+01 0.  1.
       -4    1    3    3    0  502  0.14958631163E+03 -0.26304440567E+03 -0.25128525306E+03  0.39333740642E+03  0.12699999809E+01 0. -1.
</event>
<event>
 5   0  0.1509629E-02  0.7969874E+03  0.7818609E-02  0.9564388E-01
       -1   -1    0    0    0  501  0.00000000000E+00  0.00000000000E+00  0.14203743288E+03  0.14203743297E+03  0.50400001928E-02 0. -1.
        1   -1    0    0  501    0  0.00000000000E+00  0.00000000000E+00 -0.11179955087E+04  0.11179955087E+04  0.50400001928E-02 0.  1.
    10030    2    1    2    0    0  0.00000000000E+00  0.00000000000E+00 -0.97595807581E+03  0.12600329417E+04  0.79698735773E+03 0.  0.
        5    1    3    3  502    0 -0.23175383338E+03  0.32621354295E+02 -0.99783734069E+03  0.10249270416E+04  0.46999998093E+01 0.  1.
       -5    1    3    3    0  502  0.23175383338E+03 -0.32621354295E+02  0.21879264882E+02  0.23510590012E+03  0.46999998093E+01 0. -1.
</event>
<event>
 5   0  0.2422031E-02  0.8068134E+03  0.7818609E-02  0.9550207E-01
       -2   -1    0    0    0  501  0.00000000000E+00  0.00000000000E+00  0.13070365618E+03  0.13070365620E+03  0.25500000920E-02 0. -1.
        2   -1    0    0  501    0  0.00000000000E+00  0.00000000000E+00 -0.12450834776E+04  0.12450834776E+04  0.25500000920E-02 0.  1.
    10030    2    1    2    0    0  0.00000000000E+00  0.00000000000E+00 -0.11143798214E+04  0.13757871338E+04  0.80681339301E+03 0.  0.
        4    1    3    3  502    0  0.14559463927E+03 -0.17855218687E+02  0.83612761499E+02  0.16884701538E+03  0.12699999809E+01 0. -1.
       -4    1    3    3    0  502 -0.14559463927E+03  0.17855218687E+02 -0.11979925829E+04  0.12069401184E+04  0.12699999809E+01 0.  1.
</event>
<event>
 5   0  0.1523811E-02  0.8022259E+03  0.7818609E-02  0.9556801E-01
       -1   -1    0    0    0  501  0.00000000000E+00  0.00000000000E+00  0.41430042729E+03  0.41430042732E+03  0.50400001928E-02 0. -1.
        1   -1    0    0  501    0  0.00000000000E+00  0.00000000000E+00 -0.38834523693E+03  0.38834523696E+03  0.50400001928E-02 0.  1.
    10030    2    1    2    0    0  0.00000000000E+00  0.00000000000E+00  0.25955190359E+02  0.80264566428E+03  0.80222589742E+03 0.  0.
        1    1    3    3  502    0 -0.29017165010E+03 -0.21610327105E+03 -0.16029323813E+03  0.39571976511E+03  0.50400001928E-02 0.  1.
       -1    1    3    3    0  502  0.29017165010E+03  0.21610327105E+03  0.18624842849E+03  0.40692589918E+03  0.50400001928E-02 0. -1.
</event>
<event>
 5   0  0.2460312E-02  0.8048715E+03  0.7818609E-02  0.9552993E-01
        2   -1    0    0  501    0  0.00000000000E+00  0.00000000000E+00  0.77001250058E+03  0.77001250058E+03  0.25500000920E-02 0. -1.
       -2   -1    0    0    0  501  0.00000000000E+00  0.00000000000E+00 -0.21032713284E+03  0.21032713285E+03  0.25500000920E-02 0.  1.
    10030    2    1    2    0    0  0.00000000000E+00  0.00000000000E+00  0.55968536774E+03  0.98033963344E+03  0.80487147174E+03 0.  0.
        2    1    3    3  502    0  0.20968683526E+03 -0.83706991219E+02  0.68560397195E+03  0.72182285612E+03  0.25500000920E-02 0. -1.
       -2    1    3    3    0  502 -0.20968683526E+03  0.83706991219E+02 -0.12591860421E+03  0.25851677732E+03  0.25500000920E-02 0.  1.
</event>
<event>
 5   0  0.2454354E-02  0.7479955E+03  0.7818609E-02  0.9638500E-01
        2   -1    0    0  501    0  0.00000000000E+00  0.00000000000E+00  0.13406496712E+04  0.13406496712E+04  0.25500000920E-02 0.  1.
       -2   -1    0    0    0  501  0.00000000000E+00  0.00000000000E+00 -0.10433324575E+03  0.10433324578E+03  0.25500000920E-02 0. -1.
    10030    2    1    2    0    0  0.00000000000E+00  0.00000000000E+00  0.12363164254E+04  0.14449829170E+04  0.74799553912E+03 0.  0.
        5    1    3    3  502    0  0.30916170378E+03  0.19562162617E+03  0.46847793324E+03  0.59442614649E+03  0.46999998093E+01 0. -1.
       -5    1    3    3    0  502 -0.30916170378E+03 -0.19562162617E+03  0.76783849220E+03  0.85055677048E+03  0.46999998093E+01 0.  1.
</event>
<event>
 5   0  0.1624094E-02  0.8359775E+03  0.7818609E-02  0.9509353E-01
       -1   -1    0    0    0  501  0.00000000000E+00  0.00000000000E+00  0.20670254969E+03  0.20670254975E+03  0.50400001928E-02 0.  1.
        1   -1    0    0  501    0  0.00000000000E+00  0.00000000000E+00 -0.84524653828E+03  0.84524653829E+03  0.50400001928E-02 0. -1.
    10030    2    1    2    0    0  0.00000000000E+00  0.00000000000E+00 -0.63854398859E+03  0.10519490880E+04  0.83597754663E+03 0.  0.
        3    1    3    3  502    0  0.75630557246E+02 -0.38547805965E+03 -0.49900544396E+03  0.63507460897E+03  0.10100000352E+00 0. -1.
       -3    1    3    3    0  502 -0.75630557246E+02  0.38547805965E+03 -0.13953854463E+03  0.41687447907E+03  0.10100000352E+00 0.  1.
</event>
<event>
 5   0  0.9919125E-03  0.8073117E+03  0.7818609E-02  0.9549494E-01
        3   -1    0    0  501    0  0.00000000000E+00  0.00000000000E+00  0.27009901774E+03  0.27009903662E+03  0.10100000352E+00 0. -1.
       -3   -1    0    0    0  501  0.00000000000E+00  0.00000000000E+00 -0.60325299465E+03  0.60325300310E+03  0.10100000352E+00 0.  1.
    10030    2    1    2    0    0  0.00000000000E+00  0.00000000000E+00 -0.33315397691E+03  0.87335203972E+03  0.80731171982E+03 0.  0.
        4    1    3    3  502    0 -0.31128529371E+03 -0.25595314719E+03 -0.19138526844E+03  0.44613953144E+03  0.12699999809E+01 0.  1.
       -4    1    3    3    0  502  0.31128529371E+03  0.25595314719E+03 -0.14176870848E+03  0.42721250829E+03  0.12699999809E+01 0. -1.
</event>
<event>
 5   0  0.1509629E-02  0.7813299E+03  0.7818609E-02  0.9587441E-01
       -1   -1    0    0    0  501  0.00000000000E+00  0.00000000000E+00  0.18648238077E+03  0.18648238084E+03  0.50400001928E-02 0. -1.
        1   -1    0    0  501    0  0.00000000000E+00  0.00000000000E+00 -0.81841034077E+03  0.81841034078E+03  0.50400001928E-02 0.  1.
    10030    2    1    2    0    0  0.00000000000E+00  0.00000000000E+00 -0.63192795999E+03  0.10048927216E+04  0.78132991453E+03 0.  0.
        5    1    3    3  502    0  0.17975440356E+03  0.18208248666E+02  0.12947919914E+03  0.22232889809E+03  0.46999998093E+01 0. -1.
       -5    1    3    3    0  502 -0.17975440356E+03 -0.18208248666E+02 -0.76140715914E+03  0.78256382353E+03  0.46999998093E+01 0.  1.
</event>
<event>
 5   0  0.2460312E-02  0.8007019E+03  0.7818609E-02  0.9559002E-01
        2   -1    0    0  501    0  0.00000000000E+00  0.00000000000E+00  0.38395390272E+03  0.38395390273E+03  0.25500000920E-02 0. -1.
       -2   -1    0    0    0  501  0.00000000000E+00  0.00000000000E+00 -0.41744819993E+03  0.41744819994E+03  0.25500000920E-02 0.  1.
    10030    2    1    2    0    0  0.00000000000E+00  0.00000000000E+00 -0.33494297215E+02  0.80140210267E+03  0.80070185601E+03 0.  0.
        2    1    3    3  502    0 -0.24466023983E+03 -0.28874044588E+03  0.11394724484E+03  0.39523872868E+03  0.25500000920E-02 0. -1.
       -2    1    3    3    0  502  0.24466023983E+03  0.28874044588E+03 -0.14744154205E+03  0.40616337399E+03  0.25500000920E-02 0.  1.
</event>
<event>
 5   0  0.1498375E-02  0.7828921E+03  0.7818609E-02  0.9585116E-01
       -1   -1    0    0    0  501  0.00000000000E+00  0.00000000000E+00  0.55336028734E+03  0.55336028737E+03  0.50400001928E-02 0. -1.
        1   -1    0    0  501    0  0.00000000000E+00  0.00000000000E+00 -0.27690821050E+03  0.27690821055E+03  0.50400001928E-02 0.  1.
    10030    2    1    2    0    0  0.00000000000E+00  0.00000000000E+00  0.27645207684E+03  0.83026849791E+03  0.78289209208E+03 0.  0.
        4    1    3    3  502    0  0.20947908237E+03  0.27539591328E+03  0.33234366728E+03  0.47976902889E+03  0.12699999809E+01 0.  1.
       -4    1    3    3    0  502 -0.20947908237E+03 -0.27539591328E+03 -0.55891590443E+02  0.35049946902E+03  0.12699999809E+01 0. -1.
</event>
<event>
 5   0  0.2464780E-02  0.8430389E+03  0.7818609E-02  0.9499728E-01
       -2   -1    0    0    0  501  0.00000000000E+00  0.00000000000E+00  0.18399990756E+03  0.18399990758E+03  0.25500000920E-02 0.  1.
        2   -1    0    0  501    0  0.00000000000E+00  0.00000000000E+00 -0.96564535087E+03  0.96564535087E+03  0.25500000920E-02 0. -1.
    10030    2    1    2    0    0  0.00000000000E+00  0.00000000000E+00 -0.78164544330E+03  0.11496452584E+04  0.84303892036E+03 0.  0.
        3    1    3    3  502    0 -0.41823957503E+03  0.51454230752E+02 -0.37673207475E+03  0.56524237839E+03  0.10100000352E+00 0.  1.
       -3    1    3    3    0  502  0.41823957503E+03 -0.51454230752E+02 -0.40491336855E+03  0.58440288006E+03  0.10100000352E+00 0. -1.
</event>
<event>
 5   0  0.2454354E-02  0.8143923E+03  0.7818609E-02  0.9539415E-01
       -2   -1    0    0    0  501  0.00000000000E+00  0.00000000000E+00  0.12758908288E+04  0.12758908288E+04  0.25500000920E-02 0.  1.
        2   -1    0    0  501    0  0.00000000000E+00  0.00000000000E+00 -0.12995523565E+03  0.12995523567E+03  0.25500000920E-02 0. -1.
    10030    2    1    2    0    0  0.00000000000E+00  0.00000000000E+00  0.11459355932E+04  0.14058460645E+04  0.81439227241E+03 0.  0.
        5    1    3    3  502    0  0.13082734374E+03  0.30821829742E+03  0.17304220993E+03  0.37693501980E+03  0.46999998093E+01 0. -1.
       -5    1    3    3    0  502 -0.13082734374E+03 -0.30821829742E+03  0.97289338326E+03  0.10289110447E+04  0.46999998093E+01 0.  1.
</event>
<event>
 5   0  0.2422031E-02  0.8082118E+03  0.7818609E-02  0.9548206E-01
        2   -1    0    0  501    0  0.00000000000E+00  0.00000000000E+00  0.27933181148E+03  0.27933181150E+03  0.25500000920E-02 0.  1.
       -2   -1    0    0    0  501  0.00000000000E+00  0.00000000000E+00 -0.58461503944E+03  0.58461503945E+03  0.25500000920E-02 0. -1.
    10030    2    1    2    0    0  0.00000000000E+00  0.00000000000E+00 -0.30528322796E+03  0.86394685094E+03  0.80821179896E+03 0.  0.
        4    1    3    3  502    0  0.36247656435E+03 -0.10307522997E+03 -0.30860079030E+03  0.48708297385E+03  0.12699999809E+01 0. -1.
       -4    1    3    3    0  502 -0.36247656435E+03  0.10307522997E+03  0.33175623410E+01  0.37686387709E+03  0.12699999809E+01 0.  1.
</event>
<event>
 5   0  0.1498375E-02  0.7822599E+03  0.7818609E-02  0.9586056E-01
        1   -1    0    0  501    0  0.00000000000E+00  0.00000000000E+00  0.24755712013E+04  0.24755712013E+04  0.50400001928E-02 0.  1.
       -1   -1    0    0    0  501  0.00000000000E+00  0.00000000000E+00 -0.61796908073E+02  0.61796908278E+02  0.50400001928E-02 0. -1.
    10030    2    1    2    0    0  0.00000000000E+00  0.00000000000E+00  0.24137742933E+04  0.25373681096E+04  0.78225992157E+03 0.  0.
        4    1    3    3  502    0  0.10144341861E+03  0.30998926351E+03  0.50670502858E+03  0.60260742574E+03  0.12699999809E+01 0. -1.
       -4    1    3    3    0  502 -0.10144341861E+03 -0.30998926351E+03  0.19070692647E+04  0.19347606839E+04  0.12699999809E+01 0.  1.
</event>
<event>
 5   0  0.2571778E-02  0.7968011E+03  0.7818609E-02  0.9564659E-01
        2   -1    0    0  501    0  0.00000000000E+00  0.00000000000E+00  0.32992557643E+03  0.32992557644E+03  0.25500000920E-02 0.  1.
       -2   -1    0    0    0  501  0.00000000000E+00  0.00000000000E+00 -0.48108725794E+03  0.48108725795E+03  0.25500000920E-02 0. -1.
    10030    2    1    2    0    0  0.00000000000E+00  0.00000000000E+00 -0.15116168151E+03  0.81101283439E+03  0.79680108157E+03 0.  0.
        1    1    3    3  502    0  0.71356340859E+02  0.33224373454E+03 -0.28724512988E+03  0.44495774090E+03  0.50400001928E-02 0. -1.
       -1    1    3    3    0  502 -0.71356340859E+02 -0.33224373454E+03  0.13608344837E+03  0.36605509349E+03  0.50400001928E-02 0.  1.
</event>
<event>
 5   0  0.1498375E-02  0.7201900E+03  0.7818609E-02  0.9683314E-01
        1   -1    0    0  501    0  0.00000000000E+00  0.00000000000E+00  0.17641474726E+03  0.17641474733E+03  0.50400001928E-02 0. -1.
       -1   -1    0    0    0  501  0.00000000000E+00  0.00000000000E+00 -0.73502023573E+03  0.73502023575E+03  0.50400001928E-02 0.  1.
    10030    2    1    2    0    0  0.00000000000E+00  0.00000000000E+00 -0.55860548847E+03  0.91143498308E+03  0.72019000037E+03 0.  0.
        4    1    3    3  502    0  0.20456918278E+03  0.20750982452E+03 -0.54704292181E+03  0.61981162382E+03  0.12699999809E+01 0. -1.
       -4    1    3    3    0  502 -0.20456918278E+03 -0.20750982452E+03 -0.11562566656E+02  0.29162335926E+03  0.12699999809E+01 0.  1.
</event>
<event>
 5   0  0.2422031E-02  0.8092320E+03  0.7818609E-02  0.9546749E-01
        2   -1    0    0  501    0  0.00000000000E+00  0.00000000000E+00  0.13629383042E+03  0.13629383045E+03  0.25500000920E-02 0. -1.
       -2   -1    0    0    0  501  0.00000000000E+00  0.00000000000E+00 -0.12011850247E+04  0.12011850247E+04  0.25500000920E-02 0.  1.
    10030    2    1    2    0    0  0.00000000000E+00  0.00000000000E+00 -0.10648911943E+04  0.13374788551E+04  0.80923200154E+03 0.  0.
        4    1    3    3  502    0  0.17844703657E+03 -0.20813749244E+03 -0.10242620958E+04  0.10603202414E+04  0.12699999809E+01 0.  1.
       -4    1    3    3    0  502 -0.17844703657E+03  0.20813749244E+03 -0.40629098494E+02  0.27715861373E+03  0.12699999809E+01 0. -1.
</event>
<event>
 5   0  0.1523811E-02  0.7995515E+03  0.7818609E-02  0.9560666E-01
       -1   -1    0    0    0  501  0.00000000000E+00  0.00000000000E+00  0.20510548905E+03  0.20510548912E+03  0.50400001928E-02 0.  1.
        1   -1    0    0  501    0  0.00000000000E+00  0.00000000000E+00 -0.77921200078E+03  0.77921200079E+03  0.50400001928E-02 0. -1.
    10030    2    1    2    0    0  0.00000000000E+00  0.00000000000E+00 -0.57410651172E+03  0.98431748991E+03  0.79955152063E+03 0.  0.
        1    1    3    3  502    0  0.24233591392E+03 -0.25948149913E+03 -0.60843522246E+02  0.36022115123E+03  0.50400001928E-02 0.  1.
       -1    1    3    3    0  502 -0.24233591392E+03  0.25948149913E+03 -0.51326298948E+03  0.62409633868E+03  0.50400001928E-02 0. -1.
</event>
<event>
 5   0  0.2454354E-02  0.7918998E+03  0.7818609E-02  0.9571816E-01
       -2   -1    0    0    0  501  0.00000000000E+00  0.00000000000E+00  0.27487812126E+03  0.27487812127E+03  0.25500000920E-02 0.  1.
        2   -1    0    0  501    0  0.00000000000E+00  0.00000000000E+00 -0.57034853014E+03  0.57034853014E+03  0.25500000920E-02 0. -1.
    10030    2    1    2    0    0  0.00000000000E+00  0.00000000000E+00 -0.29547040888E+03  0.84522665141E+03  0.79189982304E+03 0.  0.
        5    1    3    3  502    0 -0.10189296342E+03 -0.37321935822E+03 -0.23754019257E+03  0.45400693654E+03  0.46999998093E+01 0. -1.
       -5    1    3    3    0  502  0.10189296342E+03  0.37321935822E+03 -0.57930216311E+02  0.39121971487E+03  0.46999998093E+01 0.  1.
</event>
<event>
 5   0  0.2454354E-02  0.8100449E+03  0.7818609E-02  0.9545590E-01
        2   -1    0    0  501    0  0.00000000000E+00  0.00000000000E+00  0.43254260083E+03  0.43254260084E+03  0.25500000920E-02 0. -1.
       -2   -1    0    0    0  501  0.00000000000E+00  0.00000000000E+00 -0.37925323603E+03  0.37925323604E+03  0.25500000920E-02 0.  1.
    10030    2    1    2    0    0  0.00000000000E+00  0.00000000000E+00  0.53289364802E+02  0.81179583687E+03  0.81004489034E+03 0.  0.
        5    1    3    3  502    0  0.24268251476E+03 -0.10122741333E+03 -0.28204596130E+03  0.38563429109E+03  0.46999998093E+01 0.  1.
       -5    1    3    3    0  502 -0.24268251476E+03  0.10122741333E+03  0.33533532610E+03  0.42616154579E+03  0.46999998093E+01 0. -1.
</event>
<event>
 5   0  0.2460312E-02  0.8054209E+03  0.7818609E-02  0.9552204E-01
        2   -1    0    0  501    0  0.00000000000E+00  0.00000000000E+00  0.49487339950E+03  0.49487339951E+03  0.25500000920E-02 0.  1.
       -2   -1    0    0    0  501  0.00000000000E+00  0.00000000000E+00 -0.32771148045E+03  0.32771148046E+03  0.25500000920E-02 0. -1.
    10030    2    1    2    0    0  0.00000000000E+00  0.00000000000E+00  0.16716191905E+03  0.82258487997E+03  0.80542086984E+03 0.  0.
        2    1    3    3  502    0 -0.21862557322E+03  0.83438684318E+02  0.41831002223E+03  0.47931454183E+03  0.25500000920E-02 0.  1.
       -2    1    3    3    0  502  0.21862557322E+03 -0.83438684318E+02 -0.25114810318E+03  0.34327033814E+03  0.25500000920E-02 0. -1.
</event>
<event>
 5   0  0.2460312E-02  0.7945610E+03  0.7818609E-02  0.9567923E-01
       -2   -1    0    0    0  501  0.00000000000E+00  0.00000000000E+00  0.95462433466E+02  0.95462433500E+02  0.25500000920E-02 0. -1.
        2   -1    0    0  501    0  0.00000000000E+00  0.00000000000E+00 -0.16533395122E+04  0.16533395122E+04  0.25500000920E-02 0.  1.
    10030    2    1    2    0    0  0.00000000000E+00  0.00000000000E+00 -0.15578770788E+04  0.17488019457E+04  0.79456104414E+03 0.  0.
        2    1    3    3  502    0  0.56174311615E+02  0.17464319082E+03 -0.15545285734E+04  0.15653162246E+04  0.25500000920E-02 0.  1.
       -2    1    3    3    0  502 -0.56174311615E+02 -0.17464319082E+03 -0.33485053938E+01  0.18348572119E+03  0.25500000920E-02 0. -1.
</event>
<event>
 5   0  0.2571778E-02  0.8073275E+03  0.7818609E-02  0.9549471E-01
        2   -1    0    0  501    0  0.00000000000E+00  0.00000000000E+00  0.21358744889E+04  0.21358744889E+04  0.25500000920E-02 0. -1.
       -2   -1    0    0    0  501  0.00000000000E+00  0.00000000000E+00 -0.76289331998E+02  0.76289332041E+02  0.25500000920E-02 0.  1.
    10030    2    1    2    0    0  0.00000000000E+00  0.00000000000E+00  0.20595851569E+04  0.22121638209E+04  0.80732753709E+03 0.  0.
        1    1    3    3  502    0 -0.11224129687E+03  0.25084823157E+03  0.18399634623E+04  0.18603732117E+04  0.50400001928E-02 0. -1.
       -1    1    3    3    0  502  0.11224129687E+03 -0.25084823157E+03  0.21962169454E+03  0.35179060923E+03  0.50400001928E-02 0.  1.
</event>
<event>
 5   0  0.1624094E-02  0.7718886E+03  0.7818609E-02  0.9601623E-01
       -1   -1    0    0    0  501  0.00000000000E+00  0.00000000000E+00  0.27417868098E+03  0.27417868103E+03  0.50400001928E-02 0.  1.
        1   -1    0    0  501    0  0.00000000000E+00  0.00000000000E+00 -0.54326984367E+03  0.54326984369E+03  0.50400001928E-02 0. -1.
    10030    2    1    2    0    0  0.00000000000E+00  0.00000000000E+00 -0.26909116268E+03  0.81744852472E+03  0.77188861679E+03 0.  0.
        3    1    3    3  502    0 -0.21396820552E+03  0.93061544110E+02 -0.46011605832E+03  0.51589692894E+03  0.10100000352E+00 0. -1.
       -3    1    3    3    0  502  0.21396820552E+03 -0.93061544110E+02  0.19102489564E+03  0.30155159578E+03  0.10100000352E+00 0.  1.
</event>
<event>
 5   0  0.1624094E-02  0.8091795E+03  0.7818609E-02  0.9546824E-01
        1   -1    0    0  501    0  0.00000000000E+00  0.00000000000E+00  0.58021152531E+03  0.58021152533E+03  0.50400001928E-02 0.  1.
       -1   -1    0    0    0  501  0.00000000000E+00  0.00000000000E+00 -0.28212617384E+03  0.28212617389E+03  0.50400001928E-02 0. -1.
    10030    2    1    2    0    0  0.00000000000E+00  0.00000000000E+00  0.29808535147E+03  0.86233769922E+03  0.80917947993E+03 0.  0.
        3    1    3    3  502    0 -0.93071219086E+02  0.85830568416E+02  0.55855728393E+03  0.57272627662E+03  0.10100000352E+00 0.  1.
       -3    1    3    3    0  502  0.93071219086E+02 -0.85830568416E+02 -0.26047193247E+03  0.28961142260E+03  0.10100000352E+00 0. -1.
</event>
<event>
 5   0  0.9919125E-03  0.8025242E+03  0.7818609E-02  0.9556371E-01
        3   -1    0    0  501    0  0.00000000000E+00  0.00000000000E+00  0.14469946682E+03  0.14469950207E+03  0.10100000352E+00 0. -1.
       -3   -1    0    0    0  501  0.00000000000E+00  0.00000000000E+00 -0.11127286093E+04  0.11127286139E+04  0.10100000352E+00 0.  1.
    10030    2    1    2    0    0  0.00000000000E+00  0.00000000000E+00 -0.96802914250E+03  0.12574281160E+04  0.80252417168E+03 0.  0.
        2    1    3    3  502    0 -0.36609794285E+02  0.93280632449E+02  0.12477885257E+03  0.16003535698E+03  0.25500000920E-02 0. -1.
       -2    1    3    3    0  502  0.36609794285E+02 -0.93280632449E+02 -0.10928079951E+04  0.10973927590E+04  0.25500000920E-02 0.  1.
</event>
<event>
 5   0  0.2464780E-02  0.6755950E+03  0.7818609E-02  0.9759903E-01
       -2   -1    0    0    0  501  0.00000000000E+00  0.00000000000E+00  0.23033254091E+03  0.23033254092E+03  0.25500000920E-02 0.  1.
        2   -1    0    0  501    0  0.00000000000E+00  0.00000000000E+00 -0.49540171294E+03  0.49540171295E+03  0.25500000920E-02 0. -1.
    10030    2    1    2    0    0  0.00000000000E+00  0.00000000000E+00 -0.26506917203E+03  0.72573425387E+03  0.67559495357E+03 0.  0.
        3    1    3    3  502    0  0.23567713433E+03  0.18960020844E+02  0.12662506342E+03  0.26821094483E+03  0.10100000352E+00 0.  1.
       -3    1    3    3    0  502 -0.23567713433E+03 -0.18960020844E+02 -0.39169423545E+03  0.45752330905E+03  0.10100000352E+00 0. -1.
</event>
<event>
 5   0  0.1498375E-02  0.8203313E+03  0.7818609E-02  0.9531046E-01
       -1   -1    0    0    0  501  0.00000000000E+00  0.00000000000E+00  0.10184009351E+04  0.10184009352E+04  0.50400001928E-02 0. -1.
        1   -1    0    0  501    0  0.00000000000E+00  0.00000000000E+00 -0.16519609841E+03  0.16519609849E+03  0.50400001928E-02 0.  1.
    10030    2    1    2    0    0  0.00000000000E+00  0.00000000000E+00  0.85320483673E+03  0.11835970336E+04  0.82033130175E+03 0.  0.
        4    1    3    3  502    0  0.20310999878E+03  0.35145757038E+03  0.51144945505E+03  0.65296114230E+03  0.12699999809E+01 0.  1.
       -4    1    3    3    0  502 -0.20310999878E+03 -0.35145757038E+03  0.34175538168E+03  0.53063589135E+03  0.12699999809E+01 0. -1.
</event>
<event>
 5   0  0.2460312E-02  0.6956131E+03  0.7818609E-02  0.9724764E-01
        2   -1    0    0  501    0  0.00000000000E+00  0.00000000000E+00  0.15396938318E+04  0.15396938318E+04  0.25500000920E-02 0.  1.
       -2   -1    0    0    0  501  0.00000000000E+00  0.00000000000E+00 -0.78567165582E+02  0.78567165623E+02  0.25500000920E-02 0. -1.
    10030    2    1    2    0    0  0.00000000000E+00  0.00000000000E+00  0.14611266662E+04  0.16182609974E+04  0.69561305410E+03 0.  0.
        2    1    3    3  502    0 -0.23531530250E+03  0.23555722936E+03  0.49666217510E+03  0.59794131491E+03  0.25500000920E-02 0. -1.
       -2    1    3    3    0  502  0.23531530250E+03 -0.23555722936E+03  0.96446449107E+03  0.10203196825E+04  0.25500000920E-02 0.  1.
</event>
<event>
 5   0  0.1498375E-02  0.8100076E+03  0.7818609E-02  0.9545643E-01
       -1   -1    0    0    0  501  0.00000000000E+00  0.00000000000E+00  0.24100337615E+03  0.24100337621E+03  0.50400001928E-02 0.  1.
        1   -1    0    0  501    0  0.00000000000E+00  0.00000000000E+00 -0.68060483012E+03  0.68060483013E+03  0.50400001928E-02 0. -1.
    10030    2    1    2    0    0  0.00000000000E+00  0.00000000000E+00 -0.43960145396E+03  0.92160820634E+03  0.81000756025E+03 0.  0.
        4    1    3    3  502    0  0.11099279750E+03  0.16393309413E+03  0.18219547020E+03  0.26905438615E+03  0.12699999809E+01 0.  1.
       -4    1    3    3    0  502 -0.11099279750E+03 -0.16393309413E+03 -0.62179692416E+03  0.65255382019E+03  0.12699999809E+01 0. -1.
</event>
<event>
 5   0  0.1523811E-02  0.7948525E+03  0.7818609E-02  0.9567498E-01
       -1   -1    0    0    0  501  0.00000000000E+00  0.00000000000E+00  0.12857163204E+03  0.12857163214E+03  0.50400001928E-02 0.  1.
        1   -1    0    0  501    0  0.00000000000E+00  0.00000000000E+00 -0.12284796917E+04  0.12284796918E+04  0.50400001928E-02 0. -1.
    10030    2    1    2    0    0  0.00000000000E+00  0.00000000000E+00 -0.10999080597E+04  0.13570513239E+04  0.79485253718E+03 0.  0.
        1    1    3    3  502    0  0.26074611079E+03  0.24066300148E+03 -0.24435016804E+03  0.43082968702E+03  0.50400001928E-02 0.  1.
       -1    1    3    3    0  502 -0.26074611079E+03 -0.24066300148E+03 -0.85555789167E+03  0.92622163687E+03  0.50400001928E-02 0. -1.
</event>
<event>
 5   0  0.1471290E-02  0.7982194E+03  0.7818609E-02  0.9562598E-01
       -1   -1    0    0    0  501  0.00000000000E+00  0.00000000000E+00  0.27197178079E+03  0.27197178084E+03  0.50400001928E-02 0. -1.
        1   -1    0    0  501    0  0.00000000000E+00  0.00000000000E+00 -0.58568045518E+03  0.58568045520E+03  0.50400001928E-02 0.  1.
    10030    2    1    2    0    0  0.00000000000E+00  0.00000000000E+00 -0.31370867439E+03  0.85765223604E+03  0.79821940944E+03 0.  0.
        2    1    3    3  502    0 -0.23014131088E+03  0.94966872758E+01 -0.50705694146E+03  0.55692185442E+03  0.25500000920E-02 0.  1.
       -2    1    3    3    0  502  0.23014131088E+03 -0.94966872758E+01  0.19334826707E+03  0.30073038162E+03  0.25500000920E-02 0. -1.
</event>
<event>
 5   0  0.1624094E-02  0.7933841E+03  0.7818609E-02  0.9569643E-01
        1   -1    0    0  501    0  0.00000000000E+00  0.00000000000E+00  0.37883521871E+03  0.37883521874E+03  0.50400001928E-02 0.  1.
       -1   -1    0    0    0  501  0.00000000000E+00  0.00000000000E+00 -0.41539055263E+03  0.41539055266E+03  0.50400001928E-02 0. -1.
    10030    2    1    2    0    0  0.00000000000E+00  0.00000000000E+00 -0.36555333923E+02  0.79422577140E+03  0.79338407063E+03 0.  0.
        3    1    3    3  502    0 -0.36384856902E+02 -0.29709140890E+03  0.24233945436E+03  0.38511762410E+03  0.10100000352E+00 0.  1.
       -3    1    3    3    0  502  0.36384856902E+02  0.29709140890E+03 -0.27889478828E+03  0.40910814730E+03  0.10100000352E+00 0. -1.
</event>
<event>
 5   0  0.2422031E-02  0.8041423E+03  0.7818609E-02  0.9554041E-01
        2   -1    0    0  501    0  0.00000000000E+00  0.00000000000E+00  0.13258563062E+03  0.13258563065E+03  0.25500000920E-02 0.  1.
       -2   -1    0    0    0  501  0.00000000000E+00  0.00000000000E+00 -0.12192965306E+04  0.12192965306E+04  0.25500000920E-02 0. -1.
    10030    2    1    2    0    0  0.00000000000E+00  0.00000000000E+00 -0.10867109000E+04  0.13518821612E+04  0.80414227459E+03 0.  0.
        4    1    3    3  502    0 -0.26478608474E+02 -0.40119445790E+03 -0.54539843760E+03  0.67758333686E+03  0.12699999809E+01 0.  1.
       -4    1    3    3    0  502  0.26478608474E+02  0.40119445790E+03 -0.54131246237E+03  0.67429882439E+03  0.12699999809E+01 0. -1.
</event>
<event>
 5   0  0.2422031E-02  0.8007928E+03  0.7818609E-02  0.9558870E-01
       -2   -1    0    0    0  501  0.00000000000E+00  0.00000000000E+00  0.11686028429E+04  0.11686028429E+04  0.25500000920E-02 0.  1.
        2   -1    0    0  501    0  0.00000000000E+00  0.00000000000E+00 -0.13718714081E+03  0.13718714083E+03  0.25500000920E-02 0. -1.
    10030    2    1    2    0    0  0.00000000000E+00  0.00000000000E+00  0.10314157021E+04  0.13057899838E+04  0.80079281410E+03 0.  0.
        4    1    3    3  502    0  0.26123383822E+03  0.29047882116E+03  0.65874418220E+03  0.76587634397E+03  0.12699999809E+01 0.  1.
       -4    1    3    3    0  502 -0.26123383822E+03 -0.29047882116E+03  0.37267151992E+03  0.53991363979E+03  0.12699999809E+01 0. -1.
</event>
<event>
 5   0  0.1471290E-02  0.7986179E+03  0.7818609E-02  0.9562020E-01
        1   -1    0    0  501    0  0.00000000000E+00  0.00000000000E+00  0.14499014635E+04  0.14499014635E+04  0.50400001928E-02 0.  1.
       -1   -1    0    0    0  501  0.00000000000E+00  0.00000000000E+00 -0.10997134763E+03  0.10997134774E+03  0.50400001928E-02 0. -1.
    10030    2    1    2    0    0  0.00000000000E+00  0.00000000000E+00  0.13399301159E+04  0.15598728113E+04  0.79861785096E+03 0.  0.
        2    1    3    3  502    0 -0.80431761836E+01 -0.25999342918E+03  0.12617163381E+04  0.12882505166E+04  0.25500000920E-02 0.  1.
       -2    1    3    3    0  502  0.80431761836E+01  0.25999342918E+03  0.78213777860E+02  0.27162229466E+03  0.25500000920E-02 0. -1.
</event>
<event>
 5   0  0.2422031E-02  0.8133701E+03  0.7818609E-02  0.9540864E-01
       -2   -1    0    0    0  501  0.00000000000E+00  0.00000000000E+00  0.66470128436E+02  0.66470128485E+02  0.25500000920E-02 0.  1.
        2   -1    0    0  501    0  0.00000000000E+00  0.00000000000E+00 -0.24882261351E+04  0.24882261351E+04  0.25500000920E-02 0. -1.
    10030    2    1    2    0    0  0.00000000000E+00  0.00000000000E+00 -0.24217560067E+04  0.25546962636E+04  0.81337005316E+03 0.  0.
        4    1    3    3  502    0  0.71751388173E+02 -0.34342018324E+03 -0.56485338374E+03  0.66494108159E+03  0.12699999809E+01 0.  1.
       -4    1    3    3    0  502 -0.71751388173E+02  0.34342018324E+03 -0.18569026230E+04  0.18897551820E+04  0.12699999809E+01 0. -1.
</event>
<event>
 5   0  0.2571778E-02  0.8036087E+03  0.7818609E-02  0.9554808E-01
       -2   -1    0    0    0  501  0.00000000000E+00  0.00000000000E+00  0.13541584230E+03  0.13541584233E+03  0.25500000920E-02 0.  1.
        2   -1    0    0  501    0  0.00000000000E+00  0.00000000000E+00 -0.11922292665E+04  0.11922292665E+04  0.25500000920E-02 0. -1.
    10030    2    1    2    0    0  0.00000000000E+00  0.00000000000E+00 -0.10568134242E+04  0.13276451089E+04  0.80360868677E+03 0.  0.
        1    1    3    3  502    0  0.51297619286E+01  0.31518849762E+03 -0.94003141679E+03  0.99147827412E+03  0.50400001928E-02 0.  1.
       -1    1    3    3    0  502 -0.51297619286E+01 -0.31518849762E+03 -0.11678200745E+03  0.33616683474E+03  0.50400001928E-02 0. -1.
</event>
<event>
 5   0  0.9919125E-03  0.7884752E+03  0.7818609E-02  0.9576850E-01
        3   -1    0    0  501    0  0.00000000000E+00  0.00000000000E+00  0.86769943591E+03  0.86769944179E+03  0.10100000352E+00 0.  1.
       -3   -1    0    0    0  501  0.00000000000E+00  0.00000000000E+00 -0.17912106877E+03  0.17912109724E+03  0.10100000352E+00 0. -1.
    10030    2    1    2    0    0  0.00000000000E+00  0.00000000000E+00  0.68857836714E+03  0.10468205390E+04  0.78847515702E+03 0.  0.
        5    1    3    3  502    0 -0.51874372409E+02 -0.16144345558E+03 -0.12818748606E+03  0.21262422591E+03  0.46999998093E+01 0. -1.
       -5    1    3    3    0  502  0.51874372409E+02  0.16144345558E+03  0.81676585320E+03  0.83419631312E+03  0.46999998093E+01 0.  1.
</event>
<event>
 5   0  0.2422031E-02  0.7722729E+03  0.7818609E-02  0.9601041E-01
       -2   -1    0    0    0  501  0.00000000000E+00  0.00000000000E+00  0.59002558328E+03  0.59002558328E+03  0.25500000920E-02 0.  1.
        2   -1    0    0  501    0  0.00000000000E+00  0.00000000000E+00 -0.25270321242E+03  0.25270321243E+03  0.25500000920E-02 0. -1.
    10030    2    1    2    0    0  0.00000000000E+00  0.00000000000E+00  0.33732237086E+03  0.84272879571E+03  0.77227290594E+03 0.  0.
        4    1    3    3  502    0  0.25646527814E+03  0.16099665308E+03  0.43011402137E+03  0.52601715321E+03  0.12699999809E+01 0.  1.
       -4    1    3    3    0  502 -0.25646527814E+03 -0.16099665308E+03 -0.92791650513E+02  0.31671164250E+03  0.12699999809E+01 0. -1.
</event>
<event>
 5   0  0.1624094E-02  0.7595644E+03  0.7818609E-02  0.9620464E-01
        1   -1    0    0  501    0  0.00000000000E+00  0.00000000000E+00  0.81103245834E+03  0.81103245836E+03  0.50400001928E-02 0.  1.
       -1   -1    0    0    0  501  0.00000000000E+00  0.00000000000E+00 -0.17784060247E+03  0.17784060254E+03  0.50400001928E-02 0. -1.
    10030    2    1    2    0    0  0.00000000000E+00  0.00000000000E+00  0.63319185587E+03  0.98887306090E+03  0.75956435161E+03 0.  0.
        3    1    3    3  502    0  0.14565431672E+03 -0.26632970620E+03  0.61372419703E+03  0.68469269939E+03  0.10100000352E+00 0.  1.
       -3    1    3    3    0  502 -0.14565431672E+03  0.26632970620E+03  0.19467658839E+02  0.30418036151E+03  0.10100000352E+00 0. -1.
</event>
<event>
 5   0  0.2454354E-02  0.7863493E+03  0.7818609E-02  0.9579989E-01
       -2   -1    0    0    0  501  0.00000000000E+00  0.00000000000E+00  0.36687719243E+03  0.36687719244E+03  0.25500000920E-02 0.  1.
        2   -1    0    0  501    0  0.00000000000E+00  0.00000000000E+00 -0.42135710693E+03  0.42135710694E+03  0.25500000920E-02 0. -1.
    10030    2    1    2    0    0  0.00000000000E+00  0.00000000000E+00 -0.54479914504E+02  0.78823429938E+03  0.78634931782E+03 0.  0.
        5    1    3    3  502    0  0.47635112021E+02 -0.63337372975E+02 -0.41323899534E+03  0.42079601232E+03  0.46999998093E+01 0. -1.
       -5    1    3    3    0  502 -0.47635112021E+02  0.63337372975E+02  0.35875908084E+03  0.36743828706E+03  0.46999998093E+01 0.  1.
</event>
<event>
 5   0  0.1624094E-02  0.7799053E+03  0.7818609E-02  0.9589568E-01
        1   -1    0    0  501    0  0.00000000000E+00  0.00000000000E+00  0.22152292556E+04  0.22152292556E+04  0.50400001928E-02 0. -1.
       -1   -1    0    0    0  501  0.00000000000E+00  0.00000000000E+00 -0.68644395143E+02  0.68644395328E+02  0.50400001928E-02 0.  1.
    10030    2    1    2    0    0  0.00000000000E+00  0.00000000000E+00  0.21465848605E+04  0.22838736510E+04  0.77990530854E+03 0.  0.
        3    1    3    3  502    0 -0.25944547513E+03 -0.17428076100E+02  0.22230477149E+03  0.34210395208E+03  0.10100000352E+00 0.  1.
       -3    1    3    3    0  502  0.25944547513E+03  0.17428076100E+02  0.19242800890E+04  0.19417696989E+04  0.10100000352E+00 0. -1.
</event>
<event>
 5   0  0.1624094E-02  0.8001366E+03  0.7818609E-02  0.9559819E-01
        1   -1    0    0  501    0  0.00000000000E+00  0.00000000000E+00  0.48288617028E+03  0.48288617030E+03  0.50400001928E-02 0.  1.
       -1   -1    0    0    0  501  0.00000000000E+00  0.00000000000E+00 -0.33145417758E+03  0.33145417762E+03  0.50400001928E-02 0. -1.
    10030    2    1    2    0    0  0.00000000000E+00  0.00000000000E+00  0.15143199269E+03  0.81434034793E+03  0.80013658450E+03 0.  0.
        3    1    3    3  502    0  0.39251539116E+02  0.12720297918E+03 -0.30825211379E+03  0.33576875538E+03  0.10100000352E+00 0. -1.
       -3    1    3    3    0  502 -0.39251539116E+02 -0.12720297918E+03  0.45968410648E+03  0.47857159254E+03  0.10100000352E+00 0.  1.
</event>
<event>
 5   0  0.2464780E-02  0.8054559E+03  0.7818609E-02  0.9552153E-01
       -2   -1    0    0    0  501  0.00000000000E+00  0.00000000000E+00  0.26755604999E+03  0.26755605000E+03  0.25500000920E-02 0.  1.
        2   -1    0    0  501    0  0.00000000000E+00  0.00000000000E+00 -0.60619003949E+03  0.60619003949E+03  0.25500000920E-02 0. -1.
    10030    2    1    2    0    0  0.00000000000E+00  0.00000000000E+00 -0.33863398950E+03  0.87374608949E+03  0.80545592682E+03 0.  0.
        3    1    3    3  502    0 -0.28022562905E+03 -0.47244071936E+02 -0.47887312269E+03  0.55684637320E+03  0.10100000352E+00 0. -1.
       -3    1    3    3    0  502  0.28022562905E+03  0.47244071936E+02  0.14023913319E+03  0.31689971629E+03  0.10100000352E+00 0.  1.
</event>
<event>
 5   0  0.1523811E-02  0.7938553E+03  0.7818609E-02  0.9568954E-01
        1   -1    0    0  501    0  0.00000000000E+00  0.00000000000E+00  0.38419288399E+03  0.38419288403E+03  0.50400001928E-02 0.  1.
       -1   -1    0    0    0  501  0.00000000000E+00  0.00000000000E+00 -0.41008449002E+03  0.41008449005E+03  0.50400001928E-02 0. -1.
    10030    2    1    2    0    0  0.00000000000E+00  0.00000000000E+00 -0.25891606025E+02  0.79427737407E+03  0.79385525866E+03 0.  0.
        1    1    3    3  502    0 -0.34040537381E+03 -0.39525552393E+02 -0.21333573629E+03  0.40367093556E+03  0.50400001928E-02 0. -1.
       -1    1    3    3    0  502  0.34040537381E+03  0.39525552393E+02  0.18744413026E+03  0.39060643851E+03  0.50400001928E-02 0.  1.
</event>
<event>
 5   0  0.1498375E-02  0.8035065E+03  0.7818609E-02  0.9554955E-01
       -1   -1    0    0    0  501  0.00000000000E+00  0.00000000000E+00  0.39990552557E+03  0.39990552560E+03  0.50400001928E-02 0. -1.
        1   -1    0    0  501    0  0.00000000000E+00  0.00000000000E+00 -0.40360953186E+03  0.40360953189E+03  0.50400001928E-02 0.  1.
    10030    2    1    2    0    0  0.00000000000E+00  0.00000000000E+00 -0.37040062899E+01  0.80351505750E+03  0.80350652018E+03 0.  0.
        4    1    3    3  502    0 -0.28061211804E+03 -0.19458383228E+03 -0.21350972799E+03  0.40273321867E+03  0.12699999809E+01 0.  1.
       -4    1    3    3    0  502  0.28061211804E+03  0.19458383228E+03  0.20980572170E+03  0.40078183883E+03  0.12699999809E+01 0. -1.
</event>
<event>
 5   0  0.1509629E-02  0.7633770E+03  0.7818609E-02  0.9614595E-01
        1   -1    0    0  501    0  0.00000000000E+00  0.00000000000E+00  0.55766291844E+03  0.55766291846E+03  0.50400001928E-02 0.  1.
       -1   -1    0    0    0  501  0.00000000000E+00  0.00000000000E+00 -0.26124405284E+03  0.26124405289E+03  0.50400001928E-02 0. -1.
    10030    2    1    2    0    0  0.00000000000E+00  0.00000000000E+00  0.29641886559E+03  0.81890697135E+03  0.76337702602E+03 0.  0.
        5    1    3    3  502    0 -0.16690491383E+03  0.34311475754E+03  0.15774682330E+03  0.41290572454E+03  0.46999998093E+01 0.  1.
       -5    1    3    3    0  502  0.16690491383E+03 -0.34311475754E+03  0.13867204229E+03  0.40600124681E+03  0.46999998093E+01 0. -1.
</event>
<event>
 5   0  0.1498375E-02  0.8007681E+03  0.7818609E-02  0.9558906E-01
        1   -1    0    0  501    0  0.00000000000E+00  0.00000000000E+00  0.52824236641E+03  0.52824236644E+03  0.50400001928E-02 0.  1.
       -1   -1    0    0    0  501  0.00000000000E+00  0.00000000000E+00 -0.30347318298E+03  0.30347318302E+03  0.50400001928E-02 0. -1.
    10030    2    1    2    0    0  0.00000000000E+00  0.00000000000E+00  0.22476918343E+03  0.83171554946E+03  0.80076811212E+03 0.  0.
        4    1    3    3  502    0 -0.71532205191E+02 -0.83394584451E+02 -0.28750707553E+03  0.30778798624E+03  0.12699999809E+01 0. -1.
       -4    1    3    3    0  502  0.71532205191E+02  0.83394584451E+02  0.51227625897E+03  0.52392756321E+03  0.12699999809E+01 0.  1.
</event>
<event>
 5   0  0.1523811E-02  0.8048226E+03  0.7818609E-02  0.9553063E-01
       -1   -1    0    0    0  501  0.00000000000E+00  0.00000000000E+00  0.30259206383E+03  0.30259206388E+03  0.50400001928E-02 0.  1.
        1   -1    0    0  501    0  0.00000000000E+00  0.00000000000E+00 -0.53515901058E+03  0.53515901060E+03  0.50400001928E-02 0. -1.
    10030    2    1    2    0    0  0.00000000000E+00  0.00000000000E+00 -0.23256694674E+03  0.83775107448E+03  0.80482263765E+03 0.  0.
        1    1    3    3  502    0 -0.70123270335E+02  0.28538245272E+03  0.16987216905E+03  0.33943625500E+03  0.50400001928E-02 0.  1.
       -1    1    3    3    0  502  0.70123270335E+02 -0.28538245272E+03 -0.40243911579E+03  0.49831481948E+03  0.50400001928E-02 0. -1.
</event>
<event>
 5   0  0.2422031E-02  0.7902581E+03  0.7818609E-02  0.9574226E-01
       -2   -1    0    0    0  501  0.00000000000E+00  0.00000000000E+00  0.14756042535E+03  0.14756042537E+03  0.25500000920E-02 0.  1.
        2   -1    0    0  501    0  0.00000000000E+00  0.00000000000E+00 -0.10580544674E+04  0.10580544674E+04  0.25500000920E-02 0. -1.
    10030    2    1    2    0    0  0.00000000000E+00  0.00000000000E+00 -0.91049404204E+03  0.12056148928E+04  0.79025810280E+03 0.  0.
        4    1    3    3  502    0 -0.23761745422E+03  0.11221812350E+03 -0.90541530892E+03  0.94277964356E+03  0.12699999809E+01 0. -1.
       -4    1    3    3    0  502  0.23761745422E+03 -0.11221812350E+03 -0.50787331238E+01  0.26283524920E+03  0.12699999809E+01 0.  1.
</event>
<event>
 5   0  0.1498375E-02  0.8066143E+03  0.7818609E-02  0.9550492E-01
       -1   -1    0    0    0  501  0.00000000000E+00  0.00000000000E+00  0.16950735605E+03  0.16950735613E+03  0.50400001928E-02 0.  1.
        1   -1    0    0  501    0  0.00000000000E+00  0.00000000000E+00 -0.95958476164E+03  0.95958476165E+03  0.50400001928E-02 0. -1.
    10030    2    1    2    0    0  0.00000000000E+00  0.00000000000E+00 -0.79007740558E+03  0.11290921178E+04  0.80661434627E+03 0.  0.
        4    1    3    3  502    0  0.20872106495E+03 -0.33354498307E+03 -0.51896830282E+03  0.65126526924E+03  0.12699999809E+01 0.  1.
       -4    1    3    3    0  502 -0.20872106495E+03  0.33354498307E+03 -0.27110910277E+03  0.47782684854E+03  0.12699999809E+01 0. -1.
</event>
<event>
 5   0  0.1498375E-02  0.7949257E+03  0.7818609E-02  0.9567391E-01
        1   -1    0    0  501    0  0.00000000000E+00  0.00000000000E+00  0.10346549185E+04  0.10346549185E+04  0.50400001928E-02 0.  1.
       -1   -1    0    0    0  501  0.00000000000E+00  0.00000000000E+00 -0.15268542130E+03  0.15268542139E+03  0.50400001928E-02 0. -1.
    10030    2    1    2    0    0  0.00000000000E+00  0.00000000000E+00  0.88196949722E+03  0.11873403399E+04  0.79492571274E+03 0.  0.
        4    1    3    3  502    0 -0.20644016480E+03 -0.16828051997E+03  0.32213186498E+00  0.26634111908E+03  0.12699999809E+01 0. -1.
       -4    1    3    3    0  502  0.20644016480E+03  0.16828051997E+03  0.88164736536E+03  0.92099922084E+03  0.12699999809E+01 0.  1.
</event>
<event>
 5   0  0.1624094E-02  0.8099433E+03  0.7818609E-02  0.9545735E-01
        1   -1    0    0  501    0  0.00000000000E+00  0.00000000000E+00  0.42216184811E+03  0.42216184814E+03  0.50400001928E-02 0.  1.
       -1   -1    0    0    0  501  0.00000000000E+00  0.00000000000E+00 -0.38848140010E+03  0.38848140014E+03  0.50400001928E-02 0. -1.
    10030    2    1    2    0    0  0.00000000000E+00  0.00000000000E+00  0.33680448010E+02  0.81064324828E+03  0.80994327172E+03 0.  0.
        3    1    3    3  502    0 -0.13219846652E+03 -0.34027445510E+03  0.19231680401E+03  0.41261229095E+03  0.10100000352E+00 0.  1.
       -3    1    3    3    0  502  0.13219846652E+03  0.34027445510E+03 -0.15863635600E+03  0.39803095732E+03  0.10100000352E+00 0. -1.
</event>
<event>
 5   0  0.1624094E-02  0.7955080E+03  0.7818609E-02  0.9566542E-01
        1   -1    0    0  501    0  0.00000000000E+00  0.00000000000E+00  0.15068218680E+03  0.15068218688E+03  0.50400001928E-02 0.  1.
       -1   -1    0    0    0  501  0.00000000000E+00  0.00000000000E+00 -0.10499464813E+04  0.10499464813E+04  0.50400001928E-02 0. -1.
    10030    2    1    2    0    0  0.00000000000E+00  0.00000000000E+00 -0.89926429446E+03  0.12006286681E+04  0.79550796821E+03 0.  0.
        3    1    3    3  502    0  0.29711429107E+02 -0.11115187222E+03 -0.10242833418E+04  0.10307249304E+04  0.10100000352E+00 0. -1.
       -3    1    3    3    0  502 -0.29711429107E+02  0.11115187222E+03  0.12501904730E+03  0.16990373776E+03  0.10100000352E+00 0.  1.
</event>
<event>
 5   0  0.9919125E-03  0.7913094E+03  0.7818609E-02  0.9572682E-01
        3   -1    0    0  501    0  0.00000000000E+00  0.00000000000E+00  0.11557930572E+04  0.11557930616E+04  0.10100000352E+00 0. -1.
       -3   -1    0    0    0  501  0.00000000000E+00  0.00000000000E+00 -0.13544173165E+03  0.13544176931E+03  0.10100000352E+00 0.  1.
    10030    2    1    2    0    0  0.00000000000E+00  0.00000000000E+00  0.10203513255E+04  0.12912348309E+04  0.79130939651E+03 0.  0.
        5    1    3    3  502    0 -0.14114869761E+02  0.17415647564E+03  0.10893754586E+04  0.11033089718E+04  0.46999998093E+01 0. -1.
       -5    1    3    3    0  502  0.14114869761E+02 -0.17415647564E+03 -0.69024133073E+02  0.18792585905E+03  0.46999998093E+01 0.  1.
</event>
<event>
 5   0  0.2422031E-02  0.8074752E+03  0.7818609E-02  0.9549260E-01
       -2   -1    0    0    0  501  0.00000000000E+00  0.00000000000E+00  0.18602155440E+03  0.18602155442E+03  0.25500000920E-02 0.  1.
        2   -1    0    0  501    0  0.00000000000E+00  0.00000000000E+00 -0.87626430085E+03  0.87626430086E+03  0.25500000920E-02 0. -1.
    10030    2    1    2    0    0  0.00000000000E+00  0.00000000000E+00 -0.69024274645E+03  0.10622858553E+04  0.80747519422E+03 0.  0.
        4    1    3    3  502    0 -0.14830763175E+03  0.15631630923E+03  0.10404811771E+03  0.23928553209E+03  0.12699999809E+01 0.  1.
       -4    1    3    3    0  502  0.14830763175E+03 -0.15631630923E+03 -0.79429086417E+03  0.82300032319E+03  0.12699999809E+01 0. -1.
</event>
<event>
 5   0  0.1471290E-02  0.7833394E+03  0.7818609E-02  0.9584451E-01
        1   -1    0    0  501    0  0.00000000000E+00  0.00000000000E+00  0.64422405981E+03  0.64422405983E+03  0.50400001928E-02 0.  1.
       -1   -1    0    0    0  501  0.00000000000E+00  0.00000000000E+00 -0.23812390644E+03  0.23812390650E+03  0.50400001928E-02 0. -1.
    10030    2    1    2    0    0  0.00000000000E+00  0.00000000000E+00  0.40610015337E+03  0.88234796633E+03  0.78333938949E+03 0.  0.
        2    1    3    3  502    0 -0.15137658255E+02 -0.22069552123E+03  0.56711987815E+03  0.60873690375E+03  0.25500000920E-02 0.  1.
       -2    1    3    3    0  502  0.15137658255E+02  0.22069552123E+03 -0.16101972478E+03  0.27361106258E+03  0.25500000920E-02 0. -1.
</event>
<event>
 5   0  0.1498375E-02  0.8079193E+03  0.7818609E-02  0.9548624E-01
       -1   -1    0    0    0  501  0.00000000000E+00  0.00000000000E+00  0.18462122589E+03  0.18462122595E+03  0.50400001928E-02 0. -1.
        1   -1    0    0  501    0  0.00000000000E+00  0.00000000000E+00 -0.88388209909E+03  0.88388209911E+03  0.50400001928E-02 0.  1.
    10030    2    1    2    0    0  0.00000000000E+00  0.00000000000E+00 -0.69926087321E+03  0.10685033251E+04  0.80791929478E+03 0.  0.
        4    1    3    3  502    0  0.19350237583E+03  0.69395898070E+02 -0.80952898400E+03  0.83522317315E+03  0.12699999809E+01 0.  1.
       -4    1    3    3    0  502 -0.19350237583E+03 -0.69395898070E+02  0.11026811080E+03  0.23328015192E+03  0.12699999809E+01 0. -1.
</event>
<event>
 5   0  0.2422031E-02  0.7844836E+03  0.7818609E-02  0.9582752E-01
       -2   -1    0    0    0  501  0.00000000000E+00  0.00000000000E+00  0.13675302950E+03  0.13675302952E+03  0.25500000920E-02 0. -1.
        2   -1    0    0  501    0  0.00000000000E+00  0.00000000000E+00 -0.11250473901E+04  0.11250473901E+04  0.25500000920E-02 0.  1.
    10030    2    1    2    0    0  0.00000000000E+00  0.00000000000E+00 -0.98829436062E+03  0.12618004196E+04  0.78448362365E+03 0.  0.
        4    1    3    3  502    0  0.85206691123E+02 -0.11365022430E+03  0.93927727562E+02  0.17029558010E+03  0.12699999809E+01 0. -1.
       -4    1    3    3    0  502 -0.85206691123E+02  0.11365022430E+03 -0.10822220882E+04  0.10915048395E+04  0.12699999809E+01 0.  1.
</event>
<event>
 5   0  0.2454354E-02  0.7982675E+03  0.7818609E-02  0.9562528E-01
        2   -1    0    0  501    0  0.00000000000E+00  0.00000000000E+00  0.54369181637E+03  0.54369181638E+03  0.25500000920E-02 0. -1.
       -2   -1    0    0    0  501  0.00000000000E+00  0.00000000000E+00 -0.29301115339E+03  0.29301115340E+03  0.25500000920E-02 0.  1.
    10030    2    1    2    0    0  0.00000000000E+00  0.00000000000E+00  0.25068066298E+03  0.83670296978E+03  0.79826753964E+03 0.  0.
        5    1    3    3  502    0  0.20543480427E+03 -0.14771584081E+03  0.44884701182E+03  0.51527580814E+03  0.46999998093E+01 0. -1.
       -5    1    3    3    0  502 -0.20543480427E+03  0.14771584081E+03 -0.19816634885E+03  0.32142716164E+03  0.46999998093E+01 0.  1.
</event>
<event>
 5   0  0.1498375E-02  0.7900815E+03  0.7818609E-02  0.9574486E-01
       -1   -1    0    0    0  501  0.00000000000E+00  0.00000000000E+00  0.23595242358E+03  0.23595242363E+03  0.50400001928E-02 0. -1.
        1   -1    0    0  501    0  0.00000000000E+00  0.00000000000E+00 -0.66139266609E+03  0.66139266611E+03  0.50400001928E-02 0.  1.
    10030    2    1    2    0    0  0.00000000000E+00  0.00000000000E+00 -0.42544024251E+03  0.89734508974E+03  0.79008152119E+03 0.  0.
        4    1    3    3  502    0  0.24381424581E+03  0.29676053008E+03 -0.10774104991E+03  0.39890092180E+03  0.12699999809E+01 0. -1.
       -4    1    3    3    0  502 -0.24381424581E+03 -0.29676053008E+03 -0.31769919260E+03  0.49844416794E+03  0.12699999809E+01 0.  1.
</event>
<event>
 5   0  0.2422031E-02  0.7897936E+03  0.7818609E-02  0.9574909E-01
       -2   -1    0    0    0  501  0.00000000000E+00  0.00000000000E+00  0.77269787414E+02  0.77269787456E+02  0.25500000920E-02 0. -1.
        2   -1    0    0  501    0  0.00000000000E+00  0.00000000000E+00 -0.20181691082E+04  0.20181691082E+04  0.25500000920E-02 0.  1.
    10030    2    1    2    0    0  0.00000000000E+00  0.00000000000E+00 -0.19408993208E+04  0.20954388957E+04  0.78979363888E+03 0.  0.
        4    1    3    3  502    0 -0.12550978101E+03  0.34187786145E+03 -0.13755106958E+04  0.14229070470E+04  0.12699999809E+01 0.  1.
       -4    1    3    3    0  502  0.12550978101E+03 -0.34187786145E+03 -0.56538862499E+03  0.67253184865E+03  0.12699999809E+01 0. -1.
</event>
<event>
 5   0  0.2464780E-02  0.7469620E+03  0.7818609E-02  0.9640128E-01
        2   -1    0    0  501    0  0.00000000000E+00  0.00000000000E+00  0.23859456104E+04  0.23859456104E+04  0.25500000920E-02 0. -1.
       -2   -1    0    0    0  501  0.00000000000E+00  0.00000000000E+00 -0.58462387026E+02  0.58462387082E+02  0.25500000920E-02 0.  1.
    10030    2    1    2    0    0  0.00000000000E+00  0.00000000000E+00  0.23274832234E+04  0.24444079975E+04  0.74696204929E+03 0.  0.
        3    1    3    3  502    0  0.80257858238E+02 -0.30123133538E+03  0.49064358207E+03  0.58130265443E+03  0.10100000352E+00 0.  1.
       -3    1    3    3    0  502 -0.80257858238E+02  0.30123133538E+03  0.18368396413E+04  0.18631053431E+04  0.10100000352E+00 0. -1.
</event>
<event>
 5   0  0.1509629E-02  0.8545860E+03  0.7818609E-02  0.9484202E-01
       -1   -1    0    0    0  501  0.00000000000E+00  0.00000000000E+00  0.23114012376E+03  0.23114012381E+03  0.50400001928E-02 0. -1.
        1   -1    0    0  501    0  0.00000000000E+00  0.00000000000E+00 -0.78990745293E+03  0.78990745294E+03  0.50400001928E-02 0.  1.
    10030    2    1    2    0    0  0.00000000000E+00  0.00000000000E+00 -0.55876732917E+03  0.10210475768E+04  0.85458599676E+03 0.  0.
        5    1    3    3  502    0  0.13766197641E+03  0.40440525463E+03 -0.28885092229E+03  0.51570473628E+03  0.46999998093E+01 0. -1.
       -5    1    3    3    0  502 -0.13766197641E+03 -0.40440525463E+03 -0.26991640688E+03  0.50534284048E+03  0.46999998093E+01 0.  1.
</event>
<event>
 5   0  0.2460312E-02  0.7855533E+03  0.7818609E-02  0.9581167E-01
        2   -1    0    0  501    0  0.00000000000E+00  0.00000000000E+00  0.16057422745E+04  0.16057422745E+04  0.25500000920E-02 0. -1.
       -2   -1    0    0    0  501  0.00000000000E+00  0.00000000000E+00 -0.96076126782E+02  0.96076126816E+02  0.25500000920E-02 0.  1.
    10030    2    1    2    0    0  0.00000000000E+00  0.00000000000E+00  0.15096661477E+04  0.17018184013E+04  0.78555330404E+03 0.  0.
        2    1    3    3  502    0  0.13824160202E+03  0.36744398717E+03  0.78115937026E+03  0.87426299589E+03  0.25500000920E-02 0. -1.
       -2    1    3    3    0  502 -0.13824160202E+03 -0.36744398717E+03  0.72850677744E+03  0.82755540541E+03  0.25500000920E-02 0.  1.
</event>
<event>
 5   0  0.1509629E-02  0.7922102E+03  0.7818609E-02  0.9571362E-01
       -1   -1    0    0    0  501  0.00000000000E+00  0.00000000000E+00  0.62733422531E+03  0.62733422533E+03  0.50400001928E-02 0.  1.
        1   -1    0    0  501    0  0.00000000000E+00  0.00000000000E+00 -0.25010469381E+03  0.25010469386E+03  0.50400001928E-02 0. -1.
    10030    2    1    2    0    0  0.00000000000E+00  0.00000000000E+00  0.37722953150E+03  0.87743891919E+03  0.79221015992E+03 0.  0.
        5    1    3    3  502    0  0.99124136080E+02  0.33937736970E+03 -0.91270526716E+01  0.35370607360E+03  0.46999998093E+01 0. -1.
       -5    1    3    3    0  502 -0.99124136080E+02 -0.33937736970E+03  0.38635658417E+03  0.52373284559E+03  0.46999998093E+01 0.  1.
</event>
<event>
 5   0  0.2460312E-02  0.7962498E+03  0.7818609E-02  0.9565461E-01
        2   -1    0    0  501    0  0.00000000000E+00  0.00000000000E+00  0.18425290133E+04  0.18425290133E+04  0.25500000920E-02 0.  1.
       -2   -1    0    0    0  501  0.00000000000E+00  0.00000000000E+00 -0.86024937314E+02  0.86024937352E+02  0.25500000920E-02 0. -1.
    10030    2    1    2    0    0  0.00000000000E+00  0.00000000000E+00  0.17565040760E+04  0.19285539506E+04  0.79624981735E+03 0.  0.
        2    1    3    3  502    0 -0.28939748540E+03 -0.27337844869E+03  0.88816828075E+03  0.97330857168E+03  0.25500000920E-02 0. -1.
       -2    1    3    3    0  502  0.28939748540E+03  0.27337844869E+03  0.86833579522E+03  0.95524537896E+03  0.25500000920E-02 0.  1.
</event>
<event>
 5   0  0.1624094E-02  0.8043767E+03  0.7818609E-02  0.9553704E-01
       -1   -1    0    0    0  501  0.00000000000E+00  0.00000000000E+00  0.13352418410E+03  0.13352418419E+03  0.50400001928E-02 0.  1.
        1   -1    0    0  501    0  0.00000000000E+00  0.00000000000E+00 -0.12114320036E+04  0.12114320036E+04  0.50400001928E-02 0. -1.
    10030    2    1    2    0    0  0.00000000000E+00  0.00000000000E+00 -0.10779078195E+04  0.13449561878E+04  0.80437670266E+03 0.  0.
        3    1    3    3  502    0  0.13529319623E+03  0.18019861022E+03  0.18065554990E+02  0.22605787434E+03  0.10100000352E+00 0.  1.
       -3    1    3    3    0  502 -0.13529319623E+03 -0.18019861022E+03 -0.10959733745E+04  0.11188983135E+04  0.10100000352E+00 0. -1.
</event>
<event>
 5   0  0.2464780E-02  0.8053674E+03  0.7818609E-02  0.9552280E-01
       -2   -1    0    0    0  501  0.00000000000E+00  0.00000000000E+00  0.82163849557E+02  0.82163849597E+02  0.25500000920E-02 0.  1.
        2   -1    0    0  501    0  0.00000000000E+00  0.00000000000E+00 -0.19735464714E+04  0.19735464714E+04  0.25500000920E-02 0. -1.
    10030    2    1    2    0    0  0.00000000000E+00  0.00000000000E+00 -0.18913826219E+04  0.20557103210E+04  0.80536743270E+03 0.  0.
        3    1    3    3  502    0  0.21813843925E+03 -0.24265588822E+03 -0.15480404559E+04  0.15820542096E+04  0.10100000352E+00 0. -1.
       -3    1    3    3    0  502 -0.21813843925E+03  0.24265588822E+03 -0.34334216595E+03  0.47365611142E+03  0.10100000352E+00 0.  1.
</event>
<event>
 5   0  0.1471290E-02  0.8031386E+03  0.7818609E-02  0.9555485E-01
        1   -1    0    0  501    0  0.00000000000E+00  0.00000000000E+00  0.20768865384E+03  0.20768865390E+03  0.50400001928E-02 0.  1.
       -1   -1    0    0    0  501  0.00000000000E+00  0.00000000000E+00 -0.77644057798E+03  0.77644057800E+03  0.50400001928E-02 0. -1.
    10030    2    1    2    0    0  0.00000000000E+00  0.00000000000E+00 -0.56875192414E+03  0.98412923190E+03  0.80313858945E+03 0.  0.
        2    1    3    3  502    0 -0.26320322726E+03  0.16026245241E+03  0.31132886800E+02  0.30972447295E+03  0.25500000920E-02 0.  1.
       -2    1    3    3    0  502  0.26320322726E+03 -0.16026245241E+03 -0.59988481094E+03  0.67440475895E+03  0.25500000920E-02 0. -1.
</event>
<event>
 5   0  0.1523811E-02  0.8070562E+03  0.7818609E-02  0.9549859E-01
       -1   -1    0    0    0  501  0.00000000000E+00  0.00000000000E+00  0.16130934891E+03  0.16130934899E+03  0.50400001928E-02 0.  1.
        1   -1    0    0  501    0  0.00000000000E+00  0.00000000000E+00 -0.10094573553E+04  0.10094573553E+04  0.50400001928E-02 0. -1.
    10030    2    1    2    0    0  0.00000000000E+00  0.00000000000E+00 -0.84814800641E+03  0.11707667043E+04  0.80705615367E+03 0.  0.
        1    1    3    3  502    0 -0.59024366299E+02  0.39868735325E+03 -0.45306649127E+03  0.60638661512E+03  0.50400001928E-02 0.  1.
       -1    1    3    3    0  502  0.59024366299E+02 -0.39868735325E+03 -0.39508151514E+03  0.56438008921E+03  0.50400001928E-02 0. -1.
</event>
<event>
 5   0  0.2460312E-02  0.8229068E+03  0.7818609E-02  0.9527440E-01
       -2   -1    0    0    0  501  0.00000000000E+00  0.00000000000E+00  0.13078785256E+03  0.13078785259E+03  0.25500000920E-02 0.  1.
        2   -1    0    0  501    0  0.00000000000E+00  0.00000000000E+00 -0.12944160666E+04  0.12944160666E+04  0.25500000920E-02 0. -1.
    10030    2    1    2    0    0  0.00000000000E+00  0.00000000000E+00 -0.11636282140E+04  0.14252039192E+04  0.82290679348E+03 0.  0.
        2    1    3    3  502    0 -0.32990772041E+03  0.13901311140E+03 -0.93305615390E+03  0.99937857465E+03  0.25500000920E-02 0. -1.
       -2    1    3    3    0  502  0.32990772041E+03 -0.13901311140E+03 -0.23057206013E+03  0.42582534453E+03  0.25500000920E-02 0.  1.
</event>
<event>
 5   0  0.1624094E-02  0.7861512E+03  0.7818609E-02  0.9580282E-01
        1   -1    0    0  501    0  0.00000000000E+00  0.00000000000E+00  0.56752411701E+03  0.56752411703E+03  0.50400001928E-02 0. -1.
       -1   -1    0    0    0  501  0.00000000000E+00  0.00000000000E+00 -0.27224995460E+03  0.27224995465E+03  0.50400001928E-02 0.  1.
    10030    2    1    2    0    0  0.00000000000E+00  0.00000000000E+00  0.29527416240E+03  0.83977407168E+03  0.78615116898E+03 0.  0.
        3    1    3    3  502    0 -0.14982627701E+03  0.30491931594E+03  0.35882049292E+03  0.49414153727E+03  0.10100000352E+00 0. -1.
       -3    1    3    3    0  502  0.14982627701E+03 -0.30491931594E+03 -0.63546330520E+02  0.34563253441E+03  0.10100000352E+00 0.  1.
</event>
<event>
 5   0  0.2422031E-02  0.8016726E+03  0.7818609E-02  0.9557599E-01
        2   -1    0    0  501    0  0.00000000000E+00  0.00000000000E+00  0.10895913353E+04  0.10895913353E+04  0.25500000920E-02 0. -1.
       -2   -1    0    0    0  501  0.00000000000E+00  0.00000000000E+00 -0.14745872158E+03  0.14745872160E+03  0.25500000920E-02 0.  1.
    10030    2    1    2    0    0  0.00000000000E+00  0.00000000000E+00  0.94213261374E+03  0.12370500569E+04  0.80167261488E+03 0.  0.
        4    1    3    3  502    0 -0.11706004177E+03 -0.14928579771E+03  0.10159283866E+04  0.10334899140E+04  0.12699999809E+01 0. -1.
       -4    1    3    3    0  502  0.11706004177E+03  0.14928579771E+03 -0.73795772875E+02  0.20356014288E+03  0.12699999809E+01 0.  1.
</event>
<event>
 5   0  0.2464780E-02  0.8046591E+03  0.7818609E-02  0.9553298E-01
       -2   -1    0    0    0  501  0.00000000000E+00  0.00000000000E+00  0.83683287795E+03  0.83683287796E+03  0.25500000920E-02 0.  1.
        2   -1    0    0  501    0  0.00000000000E+00  0.00000000000E+00 -0.19343057381E+03  0.19343057383E+03  0.25500000920E-02 0. -1.
    10030    2    1    2    0    0  0.00000000000E+00  0.00000000000E+00  0.64340230414E+03  0.10302634518E+04  0.80465909248E+03 0.  0.
        3    1    3    3  502    0 -0.18039497442E+03 -0.10610569723E+02 -0.13854626726E+03  0.22770597129E+03  0.10100000352E+00 0. -1.
       -3    1    3    3    0  502  0.18039497442E+03  0.10610569723E+02  0.78194857140E+03  0.80255748050E+03  0.10100000352E+00 0.  1.
</event>
<event>
 5   0  0.2454354E-02  0.7905321E+03  0.7818609E-02  0.9573823E-01
       -2   -1    0    0    0  501  0.00000000000E+00  0.00000000000E+00  0.16287001649E+03  0.16287001651E+03  0.25500000920E-02 0. -1.
        2   -1    0    0  501    0  0.00000000000E+00  0.00000000000E+00 -0.95926354285E+03  0.95926354286E+03  0.25500000920E-02 0.  1.
    10030    2    1    2    0    0  0.00000000000E+00  0.00000000000E+00 -0.79639352636E+03  0.11221335594E+04  0.79053214749E+03 0.  0.
        5    1    3    3  502    0 -0.30288010274E+03  0.21227053469E+03 -0.20039610184E+03  0.42068494644E+03  0.46999998093E+01 0. -1.
       -5    1    3    3    0  502  0.30288010274E+03 -0.21227053469E+03 -0.59599742452E+03  0.70144861292E+03  0.46999998093E+01 0.  1.
</event>
<event>
 5   0  0.1498375E-02  0.8002675E+03  0.7818609E-02  0.9559630E-01
        1   -1    0    0  501    0  0.00000000000E+00  0.00000000000E+00  0.48372879630E+03  0.48372879632E+03  0.50400001928E-02 0. -1.
       -1   -1    0    0    0  501  0.00000000000E+00  0.00000000000E+00 -0.33098512744E+03  0.33098512748E+03  0.50400001928E-02 0.  1.
    10030    2    1    2    0    0  0.00000000000E+00  0.00000000000E+00  0.15274366886E+03  0.81471392380E+03  0.80026754855E+03 0.  0.
        4    1    3    3  502    0 -0.44998799280E+01 -0.45517946656E+02 -0.32831282618E+03  0.33148613413E+03  0.12699999809E+01 0.  1.
       -4    1    3    3    0  502  0.44998799280E+01  0.45517946656E+02  0.48105649504E+03  0.48322778967E+03  0.12699999809E+01 0. -1.
</event>
<event>
 5   0  0.1523811E-02  0.7965163E+03  0.7818609E-02  0.9565073E-01
        1   -1    0    0  501    0  0.00000000000E+00  0.00000000000E+00  0.51374311489E+03  0.51374311491E+03  0.50400001928E-02 0. -1.
       -1   -1    0    0    0  501  0.00000000000E+00  0.00000000000E+00 -0.30873316022E+03  0.30873316027E+03  0.50400001928E-02 0.  1.
    10030    2    1    2    0    0  0.00000000000E+00  0.00000000000E+00  0.20500995466E+03  0.82247627518E+03  0.79651625327E+03 0.  0.
        1    1    3    3  502    0 -0.31960665314E+02  0.18061570387E+03 -0.26252178315E+03  0.32025178105E+03  0.50400001928E-02 0.  1.
       -1    1    3    3    0  502  0.31960665314E+02 -0.18061570387E+03  0.46753173782E+03  0.50222449413E+03  0.50400001928E-02 0. -1.
</event>
<event>
 5   0  0.1509629E-02  0.7934391E+03  0.7818609E-02  0.9569563E-01
       -1   -1    0    0    0  501  0.00000000000E+00  0.00000000000E+00  0.11684227355E+03  0.11684227366E+03  0.50400001928E-02 0.  1.
        1   -1    0    0  501    0  0.00000000000E+00  0.00000000000E+00 -0.13469987230E+04  0.13469987230E+04  0.50400001928E-02 0. -1.
    10030    2    1    2    0    0  0.00000000000E+00  0.00000000000E+00 -0.12301564495E+04  0.14638409967E+04  0.79343907985E+03 0.  0.
        5    1    3    3  502    0 -0.13113050506E+03  0.35935747577E+03 -0.80885139253E+03  0.89476011866E+03  0.46999998093E+01 0. -1.
       -5    1    3    3    0  502  0.13113050506E+03 -0.35935747577E+03 -0.42130505695E+03  0.56908087805E+03  0.46999998093E+01 0.  1.
</event>
<event>
 5   0  0.2422031E-02  0.7120617E+03  0.7818609E-02  0.9696824E-01
       -2   -1    0    0    0  501  0.00000000000E+00  0.00000000000E+00  0.35527363365E+03  0.35527363366E+03  0.25500000920E-02 0. -1.
        2   -1    0    0  501    0  0.00000000000E+00  0.00000000000E+00 -0.35678972461E+03  0.35678972462E+03  0.25500000920E-02 0.  1.
    10030    2    1    2    0    0  0.00000000000E+00  0.00000000000E+00 -0.15160909597E+01  0.71206335829E+03  0.71206174429E+03 0.  0.
        4    1    3    3  502    0  0.24720127457E+03  0.19901880920E+03  0.16060964181E+03  0.35568810285E+03  0.12699999809E+01 0. -1.
       -4    1    3    3    0  502 -0.24720127457E+03 -0.19901880920E+03 -0.16212573277E+03  0.35637525544E+03  0.12699999809E+01 0.  1.
</event>
<event>
 5   0  0.2422031E-02  0.7875898E+03  0.7818609E-02  0.9578156E-01
        2   -1    0    0  501    0  0.00000000000E+00  0.00000000000E+00  0.71873793004E+03  0.71873793005E+03  0.25500000920E-02 0. -1.
       -2   -1    0    0    0  501  0.00000000000E+00  0.00000000000E+00 -0.21575934835E+03  0.21575934837E+03  0.25500000920E-02 0.  1.
    10030    2    1    2    0    0  0.00000000000E+00  0.00000000000E+00  0.50297858169E+03  0.93449727841E+03  0.78758981057E+03 0.  0.
        4    1    3    3  502    0 -0.44148386172E+02  0.14560258566E+03  0.68245154548E+03  0.69920734963E+03  0.12699999809E+01 0. -1.
       -4    1    3    3    0  502  0.44148386172E+02 -0.14560258566E+03 -0.17947296379E+03  0.23528992878E+03  0.12699999809E+01 0.  1.
</event>
<event>
 5   0  0.2454354E-02  0.7735296E+03  0.7818609E-02  0.9599143E-01
        2   -1    0    0  501    0  0.00000000000E+00  0.00000000000E+00  0.15794322869E+03  0.15794322871E+03  0.25500000920E-02 0. -1.
       -2   -1    0    0    0  501  0.00000000000E+00  0.00000000000E+00 -0.94709355284E+03  0.94709355285E+03  0.25500000920E-02 0.  1.
    10030    2    1    2    0    0  0.00000000000E+00  0.00000000000E+00 -0.78915032416E+03  0.11050367816E+04  0.77352960801E+03 0.  0.
        5    1    3    3  502    0  0.30697954210E+03  0.20638769792E+03 -0.23337763213E+03  0.43740088054E+03  0.46999998093E+01 0. -1.
       -5    1    3    3    0  502 -0.30697954210E+03 -0.20638769792E+03 -0.55577269203E+03  0.66763590102E+03  0.46999998093E+01 0.  1.
</event>
<event>
 5   0  0.2422031E-02  0.7828615E+03  0.7818609E-02  0.9585161E-01
        2   -1    0    0  501    0  0.00000000000E+00  0.00000000000E+00  0.11367168687E+04  0.11367168687E+04  0.25500000920E-02 0.  1.
       -2   -1    0    0    0  501  0.00000000000E+00  0.00000000000E+00 -0.13478996960E+03  0.13478996962E+03  0.25500000920E-02 0. -1.
    10030    2    1    2    0    0  0.00000000000E+00  0.00000000000E+00  0.10019268991E+04  0.12715068383E+04  0.78286150036E+03 0.  0.
        4    1    3    3  502    0  0.17237771967E+03 -0.31699510628E+03  0.25455654420E+03  0.44158874843E+03  0.12699999809E+01 0. -1.
       -4    1    3    3    0  502 -0.17237771967E+03  0.31699510628E+03  0.74737035488E+03  0.82991808987E+03  0.12699999809E+01 0.  1.
</event>
<event>
 5   0  0.2460312E-02  0.8056600E+03  0.7818609E-02  0.9551861E-01
        2   -1    0    0  501    0  0.00000000000E+00  0.00000000000E+00  0.29332405103E+03  0.29332405104E+03  0.25500000920E-02 0.  1.
       -2   -1    0    0    0  501  0.00000000000E+00  0.00000000000E+00 -0.55321746887E+03  0.55321746887E+03  0.25500000920E-02 0. -1.
    10030    2    1    2    0    0  0.00000000000E+00  0.00000000000E+00 -0.25989341784E+03  0.84654151991E+03  0.80565995079E+03 0.  0.
        2    1    3    3  502    0 -0.94826837073E+02 -0.17239999090E+02 -0.54092375588E+03  0.54944322389E+03  0.25500000920E-02 0. -1.
       -2    1    3    3    0  502  0.94826837073E+02  0.17239999090E+02  0.28103033804E+03  0.29709829603E+03  0.25500000920E-02 0.  1.
</event>
<event>
 5   0  0.2454354E-02  0.7662114E+03  0.7818609E-02  0.9610255E-01
        2   -1    0    0  501    0  0.00000000000E+00  0.00000000000E+00  0.11973924802E+04  0.11973924802E+04  0.25500000920E-02 0.  1.
       -2   -1    0    0    0  501  0.00000000000E+00  0.00000000000E+00 -0.12257466808E+03  0.12257466810E+03  0.25500000920E-02 0. -1.
    10030    2    1    2    0    0  0.00000000000E+00  0.00000000000E+00  0.10748178121E+04  0.13199671483E+04  0.76621142210E+03 0.  0.
        5    1    3    3  502    0 -0.46941960719E+02  0.20279252345E+03  0.10914166085E+04  0.11110988518E+04  0.46999998093E+01 0.  1.
       -5    1    3    3    0  502  0.46941960719E+02 -0.20279252345E+03 -0.16598796346E+02  0.20886829650E+03  0.46999998093E+01 0. -1.
</event>
<event>
 5   0  0.2454354E-02  0.8014783E+03  0.7818609E-02  0.9557880E-01
        2   -1    0    0  501    0  0.00000000000E+00  0.00000000000E+00  0.60716880660E+03  0.60716880660E+03  0.25500000920E-02 0.  1.
       -2   -1    0    0    0  501  0.00000000000E+00  0.00000000000E+00 -0.26449296230E+03  0.26449296231E+03  0.25500000920E-02 0. -1.
    10030    2    1    2    0    0  0.00000000000E+00  0.00000000000E+00  0.34267584430E+03  0.87166176892E+03  0.80147832480E+03 0.  0.
        5    1    3    3  502    0  0.16407788406E+03 -0.32353138733E+03  0.35646630281E+03  0.50861028859E+03  0.46999998093E+01 0. -1.
       -5    1    3    3    0  502 -0.16407788406E+03  0.32353138733E+03 -0.13790458513E+02  0.36305148033E+03  0.46999998093E+01 0.  1.
</event>
<event>
 5   0  0.9919125E-03  0.8528176E+03  0.7818609E-02  0.9486563E-01
       -4   -1    0    0    0  501  0.00000000000E+00  0.00000000000E+00  0.58690134873E+03  0.58690272281E+03  0.12699999809E+01 0.  1.
        4   -1    0    0  501    0  0.00000000000E+00  0.00000000000E+00 -0.30980111156E+03  0.30980371467E+03  0.12699999809E+01 0. -1.
    10030    2    1    2    0    0  0.00000000000E+00  0.00000000000E+00  0.27710023717E+03  0.89670643747E+03  0.85281762034E+03 0.  0.
        3    1    3    3  502    0 -0.12092192097E+03  0.30309676760E+02 -0.29021449043E+03  0.31585637263E+03  0.10100000352E+00 0. -1.
       -3    1    3    3    0  502  0.12092192097E+03 -0.30309676760E+02  0.56731472760E+03  0.58085006484E+03  0.10100000352E+00 0.  1.
</event>
<event>
 5   0  0.1471290E-02  0.7938337E+03  0.7818609E-02  0.9568986E-01
       -1   -1    0    0    0  501  0.00000000000E+00  0.00000000000E+00  0.28671416528E+03  0.28671416533E+03  0.50400001928E-02 0.  1.
        1   -1    0    0  501    0  0.00000000000E+00  0.00000000000E+00 -0.54947753403E+03  0.54947753405E+03  0.50400001928E-02 0. -1.
    10030    2    1    2    0    0  0.00000000000E+00  0.00000000000E+00 -0.26276336874E+03  0.83619169938E+03  0.79383371694E+03 0.  0.
        2    1    3    3  502    0  0.21506219917E+02  0.31648168704E+03 -0.38269069358E+03  0.49706673867E+03  0.25500000920E-02 0. -1.
       -2    1    3    3    0  502 -0.21506219917E+02 -0.31648168704E+03  0.11992732483E+03  0.33912496071E+03  0.25500000920E-02 0.  1.
</event>
<event>
 5   0  0.9919125E-03  0.7673038E+03  0.7818609E-02  0.9608588E-01
        4   -1    0    0  501    0  0.00000000000E+00  0.00000000000E+00  0.76217097927E+03  0.76217203737E+03  0.12699999809E+01 0. -1.
       -4   -1    0    0    0  501  0.00000000000E+00  0.00000000000E+00 -0.19311453119E+03  0.19311870717E+03  0.12699999809E+01 0.  1.
    10030    2    1    2    0    0  0.00000000000E+00  0.00000000000E+00  0.56905644808E+03  0.95529074453E+03  0.76730382867E+03 0.  0.
        2    1    3    3  502    0 -0.17515027084E+03 -0.21025025712E+03 -0.50248598739E+02  0.27822241045E+03  0.25500000920E-02 0.  1.
       -2    1    3    3    0  502  0.17515027084E+03  0.21025025712E+03  0.61930504682E+03  0.67706833408E+03  0.25500000920E-02 0. -1.
</event>
<event>
 5   0  0.1624094E-02  0.7988590E+03  0.7818609E-02  0.9561670E-01
       -1   -1    0    0    0  501  0.00000000000E+00  0.00000000000E+00  0.30229853252E+03  0.30229853256E+03  0.50400001928E-02 0.  1.
        1   -1    0    0  501    0  0.00000000000E+00  0.00000000000E+00 -0.52776948525E+03  0.52776948527E+03  0.50400001928E-02 0. -1.
    10030    2    1    2    0    0  0.00000000000E+00  0.00000000000E+00 -0.22547095273E+03  0.83006801783E+03  0.79885903869E+03 0.  0.
        3    1    3    3  502    0 -0.39412887394E+03  0.18512248409E+02 -0.48148809495E+02  0.39749036550E+03  0.10100000352E+00 0.  1.
       -3    1    3    3    0  502  0.39412887394E+03 -0.18512248409E+02 -0.17732214323E+03  0.43257765233E+03  0.10100000352E+00 0. -1.
</event>
<event>
 5   0  0.2464780E-02  0.8014485E+03  0.7818609E-02  0.9557923E-01
        2   -1    0    0  501    0  0.00000000000E+00  0.00000000000E+00  0.12781931658E+04  0.12781931658E+04  0.25500000920E-02 0.  1.
       -2   -1    0    0    0  501  0.00000000000E+00  0.00000000000E+00 -0.12563041717E+03  0.12563041719E+03  0.25500000920E-02 0. -1.
    10030    2    1    2    0    0  0.00000000000E+00  0.00000000000E+00  0.11525627486E+04  0.14038235830E+04  0.80144854022E+03 0.  0.
        3    1    3    3  502    0  0.22423642960E+03  0.50748363793E+02  0.11511786093E+04  0.11739120808E+04  0.10100000352E+00 0.  1.
       -3    1    3    3    0  502 -0.22423642960E+03 -0.50748363793E+02  0.13841393249E+01  0.22991150217E+03  0.10100000352E+00 0. -1.
</event>
<event>
 5   0  0.1523811E-02  0.7888555E+03  0.7818609E-02  0.9576290E-01
       -1   -1    0    0    0  501  0.00000000000E+00  0.00000000000E+00  0.19313571092E+03  0.19313571098E+03  0.50400001928E-02 0. -1.
        1   -1    0    0  501    0  0.00000000000E+00  0.00000000000E+00 -0.80551261807E+03  0.80551261809E+03  0.50400001928E-02 0.  1.
    10030    2    1    2    0    0  0.00000000000E+00  0.00000000000E+00 -0.61237690715E+03  0.99864832907E+03  0.78885550561E+03 0.  0.
        1    1    3    3  502    0  0.15230697844E+03 -0.35949239311E+03 -0.23523836486E+03  0.45581716150E+03  0.50400001928E-02 0. -1.
       -1    1    3    3    0  502 -0.15230697844E+03  0.35949239311E+03 -0.37713854229E+03  0.54283116757E+03  0.50400001928E-02 0.  1.
</event>
<event>
 5   0  0.1471290E-02  0.7862510E+03  0.7818609E-02  0.9580134E-01
        1   -1    0    0  501    0  0.00000000000E+00  0.00000000000E+00  0.43793890957E+03  0.43793890960E+03  0.50400001928E-02 0. -1.
       -1   -1    0    0    0  501  0.00000000000E+00  0.00000000000E+00 -0.35289772679E+03  0.35289772682E+03  0.50400001928E-02 0.  1.
    10030    2    1    2    0    0  0.00000000000E+00  0.00000000000E+00  0.85041182780E+02  0.79083663642E+03  0.78625096676E+03 0.  0.
        2    1    3    3  502    0 -0.19845401809E+03 -0.28713751027E+03 -0.13940914362E+03  0.37585483425E+03  0.25500000920E-02 0.  1.
       -2    1    3    3    0  502  0.19845401809E+03  0.28713751027E+03  0.22445032640E+03  0.41498180216E+03  0.25500000920E-02 0. -1.
</event>
<event>
 5   0  0.1509629E-02  0.8126959E+03  0.7818609E-02  0.9541820E-01
        1   -1    0    0  501    0  0.00000000000E+00  0.00000000000E+00  0.61247578908E+03  0.61247578910E+03  0.50400001928E-02 0.  1.
       -1   -1    0    0    0  501  0.00000000000E+00  0.00000000000E+00 -0.26959213466E+03  0.26959213471E+03  0.50400001928E-02 0. -1.
    10030    2    1    2    0    0  0.00000000000E+00  0.00000000000E+00  0.34288365442E+03  0.88206792381E+03  0.81269589746E+03 0.  0.
        5    1    3    3  502    0 -0.69333208161E+02  0.10293683446E+03 -0.24848672441E+03  0.27779637840E+03  0.46999998093E+01 0. -1.
       -5    1    3    3    0  502  0.69333208161E+02 -0.10293683446E+03  0.59137037883E+03  0.60427154541E+03  0.46999998093E+01 0.  1.
</event>
<event>
 5   0  0.2460312E-02  0.7998310E+03  0.7818609E-02  0.9560262E-01
        2   -1    0    0  501    0  0.00000000000E+00  0.00000000000E+00  0.13285368675E+04  0.13285368675E+04  0.25500000920E-02 0.  1.
       -2   -1    0    0    0  501  0.00000000000E+00  0.00000000000E+00 -0.12038235051E+03  0.12038235054E+03  0.25500000920E-02 0. -1.
    10030    2    1    2    0    0  0.00000000000E+00  0.00000000000E+00  0.12081545170E+04  0.14489192180E+04  0.79983095932E+03 0.  0.
        2    1    3    3  502    0 -0.33118169055E+03 -0.22415521769E+03  0.60833227316E+03  0.72800757437E+03  0.25500000920E-02 0.  1.
       -2    1    3    3    0  502  0.33118169055E+03  0.22415521769E+03  0.59982224384E+03  0.72091164367E+03  0.25500000920E-02 0. -1.
</event>
<event>
 5   0  0.2422031E-02  0.8067037E+03  0.7818609E-02  0.9550364E-01
        2   -1    0    0  501    0  0.00000000000E+00  0.00000000000E+00  0.12272292288E+04  0.12272292288E+04  0.25500000920E-02 0.  1.
       -2   -1    0    0    0  501  0.00000000000E+00  0.00000000000E+00 -0.13256913600E+03  0.13256913603E+03  0.25500000920E-02 0. -1.
    10030    2    1    2    0    0  0.00000000000E+00  0.00000000000E+00  0.10946600928E+04  0.13597983648E+04  0.80670370907E+03 0.  0.
        4    1    3    3  502    0  0.28292728884E+03 -0.54420476681E+02  0.71513363097E+02  0.29685891103E+03  0.12699999809E+01 0. -1.
       -4    1    3    3    0  502 -0.28292728884E+03  0.54420476681E+02  0.10231467297E+04  0.10629394538E+04  0.12699999809E+01 0.  1.
</event>
<event>
 5   0  0.1624094E-02  0.8029788E+03  0.7818609E-02  0.9555715E-01
       -1   -1    0    0    0  501  0.00000000000E+00  0.00000000000E+00  0.17538233254E+03  0.17538233261E+03  0.50400001928E-02 0.  1.
        1   -1    0    0  501    0  0.00000000000E+00  0.00000000000E+00 -0.91909913370E+03  0.91909913371E+03  0.50400001928E-02 0. -1.
    10030    2    1    2    0    0  0.00000000000E+00  0.00000000000E+00 -0.74371680116E+03  0.10944814663E+04  0.80297882898E+03 0.  0.
        3    1    3    3  502    0  0.17035036959E+03 -0.11563335752E+03 -0.84166464451E+03  0.86648122069E+03  0.10100000352E+00 0. -1.
       -3    1    3    3    0  502 -0.17035036959E+03  0.11563335752E+03  0.97947843352E+02  0.22800024563E+03  0.10100000352E+00 0.  1.
</event>
<event>
 5   0  0.2460312E-02  0.8055501E+03  0.7818609E-02  0.9552018E-01
        2   -1    0    0  501    0  0.00000000000E+00  0.00000000000E+00  0.62638662552E+03  0.62638662553E+03  0.25500000920E-02 0.  1.
       -2   -1    0    0    0  501  0.00000000000E+00  0.00000000000E+00 -0.25898979524E+03  0.25898979525E+03  0.25500000920E-02 0. -1.
    10030    2    1    2    0    0  0.00000000000E+00  0.00000000000E+00  0.36739683029E+03  0.88537642078E+03  0.80555010742E+03 0.  0.
        2    1    3    3  502    0  0.24007712549E+02 -0.24298986572E+03 -0.16836793593E+03  0.29659434748E+03  0.25500000920E-02 0. -1.
       -2    1    3    3    0  502 -0.24007712549E+02  0.24298986572E+03  0.53576476622E+03  0.58878207329E+03  0.25500000920E-02 0.  1.
</event>
<event>
 5   0  0.1509629E-02  0.7878009E+03  0.7818609E-02  0.9577845E-01
       -1   -1    0    0    0  501  0.00000000000E+00  0.00000000000E+00  0.23380702222E+03  0.23380702228E+03  0.50400001928E-02 0.  1.
        1   -1    0    0  501    0  0.00000000000E+00  0.00000000000E+00 -0.66361381867E+03  0.66361381869E+03  0.50400001928E-02 0. -1.
    10030    2    1    2    0    0  0.00000000000E+00  0.00000000000E+00 -0.42980679645E+03  0.89742084097E+03  0.78780091618E+03 0.  0.
        5    1    3    3  502    0 -0.12767054763E+03 -0.45629012854E+02 -0.63616242556E+03  0.65046636903E+03  0.46999998093E+01 0. -1.
       -5    1    3    3    0  502  0.12767054763E+03  0.45629012854E+02  0.20635562911E+03  0.24695447194E+03  0.46999998093E+01 0.  1.
</event>
<event>
 5   0  0.9919125E-03  0.8153079E+03  0.7818609E-02  0.9538120E-01
        3   -1    0    0  501    0  0.00000000000E+00  0.00000000000E+00  0.37941135142E+03  0.37941136487E+03  0.10100000352E+00 0. -1.
       -3   -1    0    0    0  501  0.00000000000E+00  0.00000000000E+00 -0.43799880692E+03  0.43799881856E+03  0.10100000352E+00 0.  1.
    10030    2    1    2    0    0  0.00000000000E+00  0.00000000000E+00 -0.58587455491E+02  0.81741018343E+03  0.81530786702E+03 0.  0.
        4    1    3    3  502    0 -0.21732872669E+03  0.15960206299E+03  0.27723230340E+03  0.38673499571E+03  0.12699999809E+01 0. -1.
       -4    1    3    3    0  502  0.21732872669E+03 -0.15960206299E+03 -0.33581975889E+03  0.43067518772E+03  0.12699999809E+01 0.  1.
</event>
<event>
 5   0  0.1498375E-02  0.8395788E+03  0.7818609E-02  0.9504432E-01
       -1   -1    0    0    0  501  0.00000000000E+00  0.00000000000E+00  0.37856975100E+03  0.37856975103E+03  0.50400001928E-02 0.  1.
        1   -1    0    0  501    0  0.00000000000E+00  0.00000000000E+00 -0.46549712958E+03  0.46549712961E+03  0.50400001928E-02 0. -1.
    10030    2    1    2    0    0  0.00000000000E+00  0.00000000000E+00 -0.86927378583E+02  0.84406688064E+03  0.83957878120E+03 0.  0.
        4    1    3    3  502    0 -0.22276372290E+03  0.98804048429E+02 -0.38710313398E+03  0.45742361708E+03  0.12699999809E+01 0. -1.
       -4    1    3    3    0  502  0.22276372290E+03 -0.98804048429E+02  0.30017575540E+03  0.38664326356E+03  0.12699999809E+01 0.  1.
</event>
<event>
 5   0  0.1471290E-02  0.7657925E+03  0.7818609E-02  0.9610895E-01
        1   -1    0    0  501    0  0.00000000000E+00  0.00000000000E+00  0.84252439838E+03  0.84252439840E+03  0.50400001928E-02 0. -1.
       -1   -1    0    0    0  501  0.00000000000E+00  0.00000000000E+00 -0.17401220241E+03  0.17401220248E+03  0.50400001928E-02 0.  1.
    10030    2    1    2    0    0  0.00000000000E+00  0.00000000000E+00  0.66851219597E+03  0.10165366009E+04  0.76579246847E+03 0.  0.
        2    1    3    3  502    0  0.28436445385E+03 -0.56024191571E+02  0.21126326788E+01  0.28983843065E+03  0.25500000920E-02 0. -1.
       -2    1    3    3    0  502 -0.28436445385E+03  0.56024191571E+02  0.66639956330E+03  0.72669817024E+03  0.25500000920E-02 0.  1.
</event>
<event>
 5   0  0.1509629E-02  0.8010651E+03  0.7818609E-02  0.9558477E-01
        1   -1    0    0  501    0  0.00000000000E+00  0.00000000000E+00  0.12483503304E+03  0.12483503315E+03  0.50400001928E-02 0.  1.
       -1   -1    0    0    0  501  0.00000000000E+00  0.00000000000E+00 -0.12851066246E+04  0.12851066246E+04  0.50400001928E-02 0. -1.
    10030    2    1    2    0    0  0.00000000000E+00  0.00000000000E+00 -0.11602715915E+04  0.14099416577E+04  0.80106511102E+03 0.  0.
        5    1    3    3  502    0  0.12273652747E+03  0.38070231042E+03 -0.54468272454E+03  0.67579572708E+03  0.46999998093E+01 0.  1.
       -5    1    3    3    0  502 -0.12273652747E+03 -0.38070231042E+03 -0.61558886700E+03  0.73414593066E+03  0.46999998093E+01 0. -1.
</event>
<event>
 5   0  0.1523811E-02  0.7983089E+03  0.7818609E-02  0.9562468E-01
        1   -1    0    0  501    0  0.00000000000E+00  0.00000000000E+00  0.53986310225E+03  0.53986310227E+03  0.50400001928E-02 0. -1.
       -1   -1    0    0    0  501  0.00000000000E+00  0.00000000000E+00 -0.29511978427E+03  0.29511978431E+03  0.50400001928E-02 0.  1.
    10030    2    1    2    0    0  0.00000000000E+00  0.00000000000E+00  0.24474331798E+03  0.83498288659E+03  0.79830891840E+03 0.  0.
        1    1    3    3  502    0  0.24072845556E+03 -0.22100139906E+03 -0.11735731292E+03  0.34722405825E+03  0.50400001928E-02 0.  1.
       -1    1    3    3    0  502 -0.24072845556E+03  0.22100139906E+03  0.36210063090E+03  0.48775882834E+03  0.50400001928E-02 0. -1.
</event>
<event>
 5   0  0.2464780E-02  0.7556203E+03  0.7818609E-02  0.9626574E-01
       -2   -1    0    0    0  501  0.00000000000E+00  0.00000000000E+00  0.49317721188E+03  0.49317721189E+03  0.25500000920E-02 0. -1.
        2   -1    0    0  501    0  0.00000000000E+00  0.00000000000E+00 -0.28943043170E+03  0.28943043171E+03  0.25500000920E-02 0.  1.
    10030    2    1    2    0    0  0.00000000000E+00  0.00000000000E+00  0.20374678018E+03  0.78260764360E+03  0.75562025740E+03 0.  0.
        3    1    3    3  502    0  0.26065092566E+03 -0.23550454350E+03  0.24590559581E+03  0.42880166430E+03  0.10100000352E+00 0. -1.
       -3    1    3    3    0  502 -0.26065092566E+03  0.23550454350E+03 -0.42158815631E+02  0.35380597930E+03  0.10100000352E+00 0.  1.
</event>
<event>
 5   0  0.2464780E-02  0.8022256E+03  0.7818609E-02  0.9556801E-01
        2   -1    0    0  501    0  0.00000000000E+00  0.00000000000E+00  0.11343716728E+04  0.11343716728E+04  0.25500000920E-02 0.  1.
       -2   -1    0    0    0  501  0.00000000000E+00  0.00000000000E+00 -0.14183313311E+03  0.14183313313E+03  0.25500000920E-02 0. -1.
    10030    2    1    2    0    0  0.00000000000E+00  0.00000000000E+00  0.99253853965E+03  0.12762048059E+04  0.80222562531E+03 0.  0.
        3    1    3    3  502    0  0.91474616144E+02  0.89261524105E+02 -0.10857321212E+03  0.16770026140E+03  0.10100000352E+00 0. -1.
       -3    1    3    3    0  502 -0.91474616144E+02 -0.89261524105E+02  0.11011117518E+04  0.11085045445E+04  0.10100000352E+00 0.  1.
</event>
<event>
 5   0  0.1509629E-02  0.8064018E+03  0.7818609E-02  0.9550797E-01
       -1   -1    0    0    0  501  0.00000000000E+00  0.00000000000E+00  0.21283703835E+03  0.21283703841E+03  0.50400001928E-02 0. -1.
        1   -1    0    0  501    0  0.00000000000E+00  0.00000000000E+00 -0.76382835247E+03  0.76382835248E+03  0.50400001928E-02 0.  1.
    10030    2    1    2    0    0  0.00000000000E+00  0.00000000000E+00 -0.55099131411E+03  0.97666539089E+03  0.80640179659E+03 0.  0.
        5    1    3    3  502    0 -0.34377412124E+03 -0.13138146888E+03 -0.76090612125E+02  0.37583720951E+03  0.46999998093E+01 0. -1.
       -5    1    3    3    0  502  0.34377412124E+03  0.13138146888E+03 -0.47490070199E+03  0.60082818139E+03  0.46999998093E+01 0.  1.
</event>
<event>
 5   0  0.1523811E-02  0.7835085E+03  0.7818609E-02  0.9584199E-01
        1   -1    0    0  501    0  0.00000000000E+00  0.00000000000E+00  0.59647871335E+03  0.59647871337E+03  0.50400001928E-02 0. -1.
       -1   -1    0    0    0  501  0.00000000000E+00  0.00000000000E+00 -0.25729567164E+03  0.25729567169E+03  0.50400001928E-02 0.  1.
    10030    2    1    2    0    0  0.00000000000E+00  0.00000000000E+00  0.33918304171E+03  0.85377438506E+03  0.78350849696E+03 0.  0.
        1    1    3    3  502    0  0.24699297853E+03  0.16487285592E+03 -0.10882743512E+03  0.31627835955E+03  0.50400001928E-02 0. -1.
       -1    1    3    3    0  502 -0.24699297853E+03 -0.16487285592E+03  0.44801047683E+03  0.53749602551E+03  0.50400001928E-02 0.  1.
</event>
<event>
 5   0  0.1624094E-02  0.8015894E+03  0.7818609E-02  0.9557719E-01
       -1   -1    0    0    0  501  0.00000000000E+00  0.00000000000E+00  0.60628997964E+03  0.60628997966E+03  0.50400001928E-02 0. -1.
        1   -1    0    0  501    0  0.00000000000E+00  0.00000000000E+00 -0.26494977754E+03  0.26494977759E+03  0.50400001928E-02 0.  1.
    10030    2    1    2    0    0  0.00000000000E+00  0.00000000000E+00  0.34134020210E+03  0.87123975725E+03  0.80158940926E+03 0.  0.
        3    1    3    3  502    0  0.63740546721E+01  0.19868587811E+03 -0.20759220783E+03  0.28742171401E+03  0.10100000352E+00 0.  1.
       -3    1    3    3    0  502 -0.63740546721E+01 -0.19868587811E+03  0.54893240993E+03  0.58381804323E+03  0.10100000352E+00 0. -1.
</event>
<event>
 5   0  0.2460312E-02  0.8029275E+03  0.7818609E-02  0.9555789E-01
        2   -1    0    0  501    0  0.00000000000E+00  0.00000000000E+00  0.12913084884E+04  0.12913084884E+04  0.25500000920E-02 0. -1.
       -2   -1    0    0    0  501  0.00000000000E+00  0.00000000000E+00 -0.12481380833E+03  0.12481380836E+03  0.25500000920E-02 0.  1.
    10030    2    1    2    0    0  0.00000000000E+00  0.00000000000E+00  0.11664946801E+04  0.14161222968E+04  0.80292746918E+03 0.  0.
        2    1    3    3  502    0 -0.26373761652E+03  0.29498028385E+03  0.46359844378E+03  0.60950341698E+03  0.25500000920E-02 0. -1.
       -2    1    3    3    0  502  0.26373761652E+03 -0.29498028385E+03  0.70289623629E+03  0.80661887979E+03  0.25500000920E-02 0.  1.
</event>
<event>
 5   0  0.2460312E-02  0.8007139E+03  0.7818609E-02  0.9558984E-01
       -2   -1    0    0    0  501  0.00000000000E+00  0.00000000000E+00  0.81436267032E+02  0.81436267072E+02  0.25500000920E-02 0.  1.
        2   -1    0    0  501    0  0.00000000000E+00  0.00000000000E+00 -0.19682344726E+04  0.19682344726E+04  0.25500000920E-02 0. -1.
    10030    2    1    2    0    0  0.00000000000E+00  0.00000000000E+00 -0.18867982055E+04  0.20496707396E+04  0.80071385184E+03 0.  0.
        2    1    3    3  502    0 -0.95746397654E+02 -0.28047146210E+03 -0.16324290630E+04  0.16591130942E+04  0.25500000920E-02 0. -1.
       -2    1    3    3    0  502  0.95746397654E+02  0.28047146210E+03 -0.25436914258E+03  0.39055764545E+03  0.25500000920E-02 0.  1.
</event>
<event>
 5   0  0.1498375E-02  0.8018249E+03  0.7818609E-02  0.9557379E-01
       -1   -1    0    0    0  501  0.00000000000E+00  0.00000000000E+00  0.11879572475E+04  0.11879572475E+04  0.50400001928E-02 0. -1.
        1   -1    0    0  501    0  0.00000000000E+00  0.00000000000E+00 -0.13530016317E+03  0.13530016326E+03  0.50400001928E-02 0.  1.
    10030    2    1    2    0    0  0.00000000000E+00  0.00000000000E+00  0.10526570843E+04  0.13232574108E+04  0.80182494222E+03 0.  0.
        4    1    3    3  502    0 -0.46161199340E+02  0.21755330661E+03  0.10768213746E+04  0.10995481723E+04  0.12699999809E+01 0. -1.
       -4    1    3    3    0  502  0.46161199340E+02 -0.21755330661E+03 -0.24164290279E+02  0.22370923845E+03  0.12699999809E+01 0.  1.
</event>
<event>
 5   0  0.2571778E-02  0.8233016E+03  0.7818609E-02  0.9526888E-01
       -2   -1    0    0    0  501  0.00000000000E+00  0.00000000000E+00  0.76034255310E+02  0.76034255353E+02  0.25500000920E-02 0.  1.
        2   -1    0    0  501    0  0.00000000000E+00  0.00000000000E+00 -0.22286848226E+04  0.22286848226E+04  0.25500000920E-02 0. -1.
    10030    2    1    2    0    0  0.00000000000E+00  0.00000000000E+00 -0.21526505673E+04  0.23047190779E+04  0.82330162360E+03 0.  0.
        1    1    3    3  502    0 -0.33896226960E+03 -0.77106747528E+02 -0.16935545256E+04  0.17288631531E+04  0.50400001928E-02 0. -1.
       -1    1    3    3    0  502  0.33896226960E+03  0.77106747528E+02 -0.45909604164E+03  0.57585592487E+03  0.50400001928E-02 0.  1.
</event>
<event>
 5   0  0.9919125E-03  0.7939295E+03  0.7818609E-02  0.9568846E-01
        3   -1    0    0  501    0  0.00000000000E+00  0.00000000000E+00  0.84077120312E+03  0.84077120919E+03  0.10100000352E+00 0.  1.
       -3   -1    0    0    0  501  0.00000000000E+00  0.00000000000E+00 -0.18742436692E+03  0.18742439413E+03  0.10100000352E+00 0. -1.
    10030    2    1    2    0    0  0.00000000000E+00  0.00000000000E+00  0.65334683620E+03  0.10281956033E+04  0.79392953738E+03 0.  0.
        2    1    3    3  502    0  0.18798590753E+03 -0.54478230111E+02 -0.12059423581E+03  0.22989029711E+03  0.25500000920E-02 0. -1.
       -2    1    3    3    0  502 -0.18798590753E+03  0.54478230111E+02  0.77394107201E+03  0.79830530622E+03  0.25500000920E-02 0.  1.
</event>
<event>
 5   0  0.2454354E-02  0.8013563E+03  0.7818609E-02  0.9558056E-01
        2   -1    0    0  501    0  0.00000000000E+00  0.00000000000E+00  0.65761636121E+03  0.65761636121E+03  0.25500000920E-02 0. -1.
       -2   -1    0    0    0  501  0.00000000000E+00  0.00000000000E+00 -0.24412861457E+03  0.24412861458E+03  0.25500000920E-02 0.  1.
    10030    2    1    2    0    0  0.00000000000E+00  0.00000000000E+00  0.41348774664E+03  0.90174497579E+03  0.80135627828E+03 0.  0.
        5    1    3    3  502    0  0.21758765492E+03  0.30236458803E+03  0.37270607108E+03  0.52697308953E+03  0.46999998093E+01 0. -1.
       -5    1    3    3    0  502 -0.21758765492E+03 -0.30236458803E+03  0.40781675561E+02  0.37477188626E+03  0.46999998093E+01 0.  1.
</event>
<event>
 5   0  0.2454354E-02  0.7916953E+03  0.7818609E-02  0.9572116E-01
       -2   -1    0    0    0  501  0.00000000000E+00  0.00000000000E+00  0.98756487427E+02  0.98756487460E+02  0.25500000920E-02 0.  1.
        2   -1    0    0  501    0  0.00000000000E+00  0.00000000000E+00 -0.15866841140E+04  0.15866841140E+04  0.25500000920E-02 0. -1.
    10030    2    1    2    0    0  0.00000000000E+00  0.00000000000E+00 -0.14879276266E+04  0.16854406015E+04  0.79169526912E+03 0.  0.
        5    1    3    3  502    0  0.47261609660E+01 -0.12207204009E+03  0.57559068308E+02  0.13512607414E+03  0.46999998093E+01 0.  1.
       -5    1    3    3    0  502 -0.47261609660E+01  0.12207204009E+03 -0.15454866949E+04  0.15503145274E+04  0.46999998093E+01 0. -1.
</event>
<event>
 5   0  0.9919125E-03  0.6958697E+03  0.7818609E-02  0.9724322E-01
        3   -1    0    0  501    0  0.00000000000E+00  0.00000000000E+00  0.18152823642E+03  0.18152826451E+03  0.10100000352E+00 0.  1.
       -3   -1    0    0    0  501  0.00000000000E+00  0.00000000000E+00 -0.66688601981E+03  0.66688602746E+03  0.10100000352E+00 0. -1.
    10030    2    1    2    0    0  0.00000000000E+00  0.00000000000E+00 -0.48535778340E+03  0.84841429198E+03  0.69586969536E+03 0.  0.
        3    1    3    3  502    0 -0.11714738564E+03 -0.16228966282E+03 -0.58966737792E+03  0.62271106575E+03  0.10100000352E+00 0. -1.
       -3    1    3    3    0  502  0.11714738564E+03  0.16228966282E+03  0.10430959452E+03  0.22570322623E+03  0.10100000352E+00 0.  1.
</event>
<event>
 5   0  0.2460312E-02  0.7820273E+03  0.7818609E-02  0.9586402E-01
        2   -1    0    0  501    0  0.00000000000E+00  0.00000000000E+00  0.21142296713E+03  0.21142296715E+03  0.25500000920E-02 0. -1.
       -2   -1    0    0    0  501  0.00000000000E+00  0.00000000000E+00 -0.72315554574E+03  0.72315554574E+03  0.25500000920E-02 0.  1.
    10030    2    1    2    0    0  0.00000000000E+00  0.00000000000E+00 -0.51173257861E+03  0.93457851289E+03  0.78202734271E+03 0.  0.
        2    1    3    3  502    0 -0.36648962319E+03  0.12773082691E+03 -0.19902957883E+03  0.43616806544E+03  0.25500000920E-02 0.  1.
       -2    1    3    3    0  502  0.36648962319E+03 -0.12773082691E+03 -0.31270299978E+03  0.49841044745E+03  0.25500000920E-02 0. -1.
</event>
<event>
 5   0  0.1509629E-02  0.7904386E+03  0.7818609E-02  0.9573961E-01
       -1   -1    0    0    0  501  0.00000000000E+00  0.00000000000E+00  0.76030253061E+02  0.76030253228E+02  0.50400001928E-02 0.  1.
        1   -1    0    0  501    0  0.00000000000E+00  0.00000000000E+00 -0.20544231288E+04  0.20544231288E+04  0.50400001928E-02 0. -1.
    10030    2    1    2    0    0  0.00000000000E+00  0.00000000000E+00 -0.19783928757E+04  0.21304533820E+04  0.79043863914E+03 0.  0.
        5    1    3    3  502    0  0.26470482447E+02  0.29598344639E+02 -0.20489573011E+04  0.20493474230E+04  0.46999998093E+01 0. -1.
       -5    1    3    3    0  502 -0.26470482447E+02 -0.29598344639E+02  0.70564425424E+02  0.81105958967E+02  0.46999998093E+01 0.  1.
</event>
<event>
 5   0  0.2464780E-02  0.8247849E+03  0.7818609E-02  0.9524819E-01
       -2   -1    0    0    0  501  0.00000000000E+00  0.00000000000E+00  0.13037398724E+03  0.13037398726E+03  0.25500000920E-02 0.  1.
        2   -1    0    0  501    0  0.00000000000E+00  0.00000000000E+00 -0.13044590268E+04  0.13044590268E+04  0.25500000920E-02 0. -1.
    10030    2    1    2    0    0  0.00000000000E+00  0.00000000000E+00 -0.11740850396E+04  0.14348330141E+04  0.82478487991E+03 0.  0.
        3    1    3    3  502    0 -0.23483959647E+02  0.24286783162E+03 -0.11654090865E+04  0.11906782223E+04  0.10100000352E+00 0. -1.
       -3    1    3    3    0  502  0.23483959647E+02 -0.24286783162E+03 -0.86759531179E+01  0.24415479180E+03  0.10100000352E+00 0.  1.
</event>
<event>
 5   0  0.1624094E-02  0.7963597E+03  0.7818609E-02  0.9565301E-01
       -1   -1    0    0    0  501  0.00000000000E+00  0.00000000000E+00  0.19567560783E+03  0.19567560789E+03  0.50400001928E-02 0. -1.
        1   -1    0    0  501    0  0.00000000000E+00  0.00000000000E+00 -0.81025529369E+03  0.81025529370E+03  0.50400001928E-02 0.  1.
    10030    2    1    2    0    0  0.00000000000E+00  0.00000000000E+00 -0.61457968586E+03  0.10059309016E+04  0.79635971051E+03 0.  0.
        3    1    3    3  502    0 -0.39668213680E+03 -0.21072732742E+02 -0.34180003393E+03  0.52404966475E+03  0.10100000352E+00 0. -1.
       -3    1    3    3    0  502  0.39668213680E+03  0.21072732742E+02 -0.27277965192E+03  0.48188123685E+03  0.10100000352E+00 0.  1.
</event>
<event>
 5   0  0.2422031E-02  0.7937731E+03  0.7818609E-02  0.9569074E-01
       -2   -1    0    0    0  501  0.00000000000E+00  0.00000000000E+00  0.46001392951E+03  0.46001392952E+03  0.25500000920E-02 0. -1.
        2   -1    0    0  501    0  0.00000000000E+00  0.00000000000E+00 -0.34242212705E+03  0.34242212706E+03  0.25500000920E-02 0.  1.
    10030    2    1    2    0    0  0.00000000000E+00  0.00000000000E+00  0.11759180247E+03  0.80243605658E+03  0.79377313692E+03 0.  0.
        4    1    3    3  502    0 -0.29188416483E+02 -0.37470523803E+03  0.18770762627E+03  0.42010920595E+03  0.12699999809E+01 0.  1.
       -4    1    3    3    0  502  0.29188416483E+02  0.37470523803E+03 -0.70115823806E+02  0.38232685063E+03  0.12699999809E+01 0. -1.
</event>
<event>
 5   0  0.1471290E-02  0.8048908E+03  0.7818609E-02  0.9552965E-01
       -1   -1    0    0    0  501  0.00000000000E+00  0.00000000000E+00  0.32405843584E+03  0.32405843588E+03  0.50400001928E-02 0. -1.
        1   -1    0    0  501    0  0.00000000000E+00  0.00000000000E+00 -0.49979344239E+03  0.49979344242E+03  0.50400001928E-02 0.  1.
    10030    2    1    2    0    0  0.00000000000E+00  0.00000000000E+00 -0.17573500655E+03  0.82385187830E+03  0.80489075336E+03 0.  0.
        2    1    3    3  502    0  0.67907728012E+02  0.22743826952E+03  0.24478495597E+03  0.34096818128E+03  0.25500000920E-02 0. -1.
       -2    1    3    3    0  502 -0.67907728012E+02 -0.22743826952E+03 -0.42051996252E+03  0.48288369702E+03  0.25500000920E-02 0.  1.
</event>
<event>
 5   0  0.1523811E-02  0.8061972E+03  0.7818609E-02  0.9551090E-01
       -1   -1    0    0    0  501  0.00000000000E+00  0.00000000000E+00  0.25952332610E+03  0.25952332615E+03  0.50400001928E-02 0. -1.
        1   -1    0    0  501    0  0.00000000000E+00  0.00000000000E+00 -0.62610362105E+03  0.62610362107E+03  0.50400001928E-02 0.  1.
    10030    2    1    2    0    0  0.00000000000E+00  0.00000000000E+00 -0.36658029495E+03  0.88562694722E+03  0.80619723207E+03 0.  0.
        1    1    3    3  502    0 -0.39041203824E+03  0.47380753616E+00 -0.29350834421E+03  0.48843518735E+03  0.50400001928E-02 0.  1.
       -1    1    3    3    0  502  0.39041203824E+03 -0.47380753616E+00 -0.73071950737E+02  0.39719175987E+03  0.50400001928E-02 0. -1.
</event>
<event>
 5   0  0.2454354E-02  0.7997712E+03  0.7818609E-02  0.9560348E-01
       -2   -1    0    0    0  501  0.00000000000E+00  0.00000000000E+00  0.25168980574E+03  0.25168980575E+03  0.25500000920E-02 0. -1.
        2   -1    0    0  501    0  0.00000000000E+00  0.00000000000E+00 -0.63533960893E+03  0.63533960894E+03  0.25500000920E-02 0.  1.
    10030    2    1    2    0    0  0.00000000000E+00  0.00000000000E+00 -0.38364980319E+03  0.88702941469E+03  0.79977122419E+03 0.  0.
        5    1    3    3  502    0  0.39780978226E+03  0.74934089503E+01 -0.23587795610E+03  0.46256812926E+03  0.46999998093E+01 0.  1.
       -5    1    3    3    0  502 -0.39780978226E+03 -0.74934089503E+01 -0.14777184709E+03  0.42446128543E+03  0.46999998093E+01 0. -1.
</event>
<event>
 5   0  0.1509629E-02  0.7976873E+03  0.7818609E-02  0.9563371E-01
       -1   -1    0    0    0  501  0.00000000000E+00  0.00000000000E+00  0.18803882676E+03  0.18803882683E+03  0.50400001928E-02 0.  1.
        1   -1    0    0  501    0  0.00000000000E+00  0.00000000000E+00 -0.84597567339E+03  0.84597567341E+03  0.50400001928E-02 0. -1.
    10030    2    1    2    0    0  0.00000000000E+00  0.00000000000E+00 -0.65793684663E+03  0.10340145002E+04  0.79768734010E+03 0.  0.
        5    1    3    3  502    0  0.38565500188E+02 -0.30417145651E+03 -0.65957102319E+03  0.72736758065E+03  0.46999998093E+01 0. -1.
       -5    1    3    3    0  502 -0.38565500188E+02  0.30417145651E+03  0.16341765564E+01  0.30664691959E+03  0.46999998093E+01 0.  1.
</event>
<event>
 5   0  0.2464780E-02  0.8051749E+03  0.7818609E-02  0.9552557E-01
       -2   -1    0    0    0  501  0.00000000000E+00  0.00000000000E+00  0.72177022223E+03  0.72177022223E+03  0.25500000920E-02 0. -1.
        2   -1    0    0  501    0  0.00000000000E+00  0.00000000000E+00 -0.22455437948E+03  0.22455437949E+03  0.25500000920E-02 0.  1.
    10030    2    1    2    0    0  0.00000000000E+00  0.00000000000E+00  0.49721584275E+03  0.94632460172E+03  0.80517492357E+03 0.  0.
        3    1    3    3  502    0  0.30980574897E+03  0.22462257286E+03  0.39559954460E+03  0.55039432430E+03  0.10100000352E+00 0. -1.
       -3    1    3    3    0  502 -0.30980574897E+03 -0.22462257286E+03  0.10161629815E+03  0.39593027743E+03  0.10100000352E+00 0.  1.
</event>
<event>
 5   0  0.2571778E-02  0.7910029E+03  0.7818609E-02  0.9573132E-01
        2   -1    0    0  501    0  0.00000000000E+00  0.00000000000E+00  0.47786069342E+03  0.47786069343E+03  0.25500000920E-02 0. -1.
       -2   -1    0    0    0  501  0.00000000000E+00  0.00000000000E+00 -0.32733685273E+03  0.32733685274E+03  0.25500000920E-02 0.  1.
    10030    2    1    2    0    0  0.00000000000E+00  0.00000000000E+00  0.15052384070E+03  0.80519754617E+03  0.79100294673E+03 0.  0.
        1    1    3    3  502    0 -0.23764045330E+03 -0.26490625589E+03 -0.10038333094E+03  0.36976360369E+03  0.50400001928E-02 0.  1.
       -1    1    3    3    0  502  0.23764045330E+03  0.26490625589E+03  0.25090717164E+03  0.43543394248E+03  0.50400001928E-02 0. -1.
</event>
<event>
 5   0  0.1471290E-02  0.8038448E+03  0.7818609E-02  0.9554468E-01
       -1   -1    0    0    0  501  0.00000000000E+00  0.00000000000E+00  0.40251953534E+03  0.40251953538E+03  0.50400001928E-02 0. -1.
        1   -1    0    0  501    0  0.00000000000E+00  0.00000000000E+00 -0.40132619733E+03  0.40132619736E+03  0.50400001928E-02 0.  1.
    10030    2    1    2    0    0  0.00000000000E+00  0.00000000000E+00  0.11933380176E+01  0.80384573273E+03  0.80384484696E+03 0.  0.
        2    1    3    3  502    0 -0.10774409620E+03  0.34604937566E+03  0.17432847481E+03  0.40218077751E+03  0.25500000920E-02 0. -1.
       -2    1    3    3    0  502  0.10774409620E+03 -0.34604937566E+03 -0.17313513679E+03  0.40166495523E+03  0.25500000920E-02 0.  1.
</event>
<event>
 5   0  0.9919125E-03  0.8051562E+03  0.7818609E-02  0.9552584E-01
       -4   -1    0    0    0  501  0.00000000000E+00  0.00000000000E+00  0.55282620128E+03  0.55282766006E+03  0.12699999809E+01 0. -1.
        4   -1    0    0  501    0  0.00000000000E+00  0.00000000000E+00 -0.29316144597E+03  0.29316419683E+03  0.12699999809E+01 0.  1.
    10030    2    1    2    0    0  0.00000000000E+00  0.00000000000E+00  0.25966475532E+03  0.84599185689E+03  0.80515615676E+03 0.  0.
        5    1    3    3  502    0 -0.19961449671E+03 -0.31473887932E+02 -0.23597808735E+03  0.31071578754E+03  0.46999998093E+01 0.  1.
       -5    1    3    3    0  502  0.19961449671E+03  0.31473887932E+02  0.49564284267E+03  0.53527606934E+03  0.46999998093E+01 0. -1.
</event>
<event>
 5   0  0.2464780E-02  0.8016076E+03  0.7818609E-02  0.9557693E-01
        2   -1    0    0  501    0  0.00000000000E+00  0.00000000000E+00  0.87717106937E+03  0.87717106938E+03  0.25500000920E-02 0.  1.
       -2   -1    0    0    0  501  0.00000000000E+00  0.00000000000E+00 -0.18313838603E+03  0.18313838604E+03  0.25500000920E-02 0. -1.
    10030    2    1    2    0    0  0.00000000000E+00  0.00000000000E+00  0.69403268335E+03  0.10603094554E+04  0.80160761954E+03 0.  0.
        3    1    3    3  502    0  0.13465041577E+03 -0.11158913615E+03 -0.13001183403E+03  0.21791272786E+03  0.10100000352E+00 0. -1.
       -3    1    3    3    0  502 -0.13465041577E+03  0.11158913615E+03  0.82404451738E+03  0.84239672756E+03  0.10100000352E+00 0.  1.
</event>
<event>
 5   0  0.2464780E-02  0.8011793E+03  0.7818609E-02  0.9558312E-01
        2   -1    0    0  501    0  0.00000000000E+00  0.00000000000E+00  0.20093713459E+04  0.20093713459E+04  0.25500000920E-02 0. -1.
       -2   -1    0    0    0  501  0.00000000000E+00  0.00000000000E+00 -0.79861820682E+02  0.79861820723E+02  0.25500000920E-02 0.  1.
    10030    2    1    2    0    0  0.00000000000E+00  0.00000000000E+00  0.19295095253E+04  0.20892331667E+04  0.80117926623E+03 0.  0.
        3    1    3    3  502    0 -0.16112992997E+02 -0.44090194553E+02 -0.72664749889E+02  0.86508669372E+02  0.10100000352E+00 0.  1.
       -3    1    3    3    0  502  0.16112992997E+02  0.44090194553E+02  0.20021742751E+04  0.20027244973E+04  0.10100000352E+00 0. -1.
</event>
<event>
 5   0  0.1471290E-02  0.8058320E+03  0.7818609E-02  0.9551614E-01
        1   -1    0    0  501    0  0.00000000000E+00  0.00000000000E+00  0.76153829045E+03  0.76153829047E+03  0.50400001928E-02 0.  1.
       -1   -1    0    0    0  501  0.00000000000E+00  0.00000000000E+00 -0.21317551368E+03  0.21317551374E+03  0.50400001928E-02 0. -1.
    10030    2    1    2    0    0  0.00000000000E+00  0.00000000000E+00  0.54836277678E+03  0.97471380421E+03  0.80583203284E+03 0.  0.
        2    1    3    3  502    0 -0.28258670525E+03  0.23796765220E+03  0.46868406291E+03  0.59678186996E+03  0.25500000920E-02 0.  1.
       -2    1    3    3    0  502  0.28258670525E+03 -0.23796765220E+03  0.79678713867E+02  0.37793193425E+03  0.25500000920E-02 0. -1.
</event>
<event>
 5   0  0.1498375E-02  0.7938971E+03  0.7818609E-02  0.9568893E-01
       -1   -1    0    0    0  501  0.00000000000E+00  0.00000000000E+00  0.97913094352E+02  0.97913094482E+02  0.50400001928E-02 0.  1.
        1   -1    0    0  501    0  0.00000000000E+00  0.00000000000E+00 -0.16092652661E+04  0.16092652661E+04  0.50400001928E-02 0. -1.
    10030    2    1    2    0    0  0.00000000000E+00  0.00000000000E+00 -0.15113521717E+04  0.17071783606E+04  0.79389707633E+03 0.  0.
        4    1    3    3  502    0 -0.92901333079E+02 -0.18362903783E+03 -0.25762313027E+02  0.20740200311E+03  0.12699999809E+01 0.  1.
       -4    1    3    3    0  502  0.92901333079E+02  0.18362903783E+03 -0.14855898587E+04  0.14997763574E+04  0.12699999809E+01 0. -1.
</event>
<event>
 5   0  0.1523811E-02  0.7947101E+03  0.7818609E-02  0.9567706E-01
        1   -1    0    0  501    0  0.00000000000E+00  0.00000000000E+00  0.42551198127E+03  0.42551198130E+03  0.50400001928E-02 0.  1.
       -1   -1    0    0    0  501  0.00000000000E+00  0.00000000000E+00 -0.37106127284E+03  0.37106127288E+03  0.50400001928E-02 0. -1.
    10030    2    1    2    0    0  0.00000000000E+00  0.00000000000E+00  0.54450708431E+02  0.79657325418E+03  0.79471005381E+03 0.  0.
        1    1    3    3  502    0  0.82391652450E+02 -0.16188671775E+03  0.38145923899E+03  0.42250070392E+03  0.50400001928E-02 0.  1.
       -1    1    3    3    0  502 -0.82391652450E+02  0.16188671775E+03 -0.32700853056E+03  0.37407255026E+03  0.50400001928E-02 0. -1.
</event>
<event>
 5   0  0.1523811E-02  0.7680179E+03  0.7818609E-02  0.9607500E-01
       -1   -1    0    0    0  501  0.00000000000E+00  0.00000000000E+00  0.89175321981E+03  0.89175321983E+03  0.50400001928E-02 0. -1.
        1   -1    0    0  501    0  0.00000000000E+00  0.00000000000E+00 -0.16536287731E+03  0.16536287739E+03  0.50400001928E-02 0.  1.
    10030    2    1    2    0    0  0.00000000000E+00  0.00000000000E+00  0.72639034250E+03  0.10571160972E+04  0.76801791210E+03 0.  0.
        1    1    3    3  502    0 -0.16886091289E+03  0.21027051431E+03  0.73947755191E+03  0.78711800062E+03  0.50400001928E-02 0. -1.
       -1    1    3    3    0  502  0.16886091289E+03 -0.21027051431E+03 -0.13087209406E+02  0.26999809660E+03  0.50400001928E-02 0.  1.
</event>
<event>
 5   0  0.1471290E-02  0.7987115E+03  0.7818609E-02  0.9561884E-01
       -1   -1    0    0    0  501  0.00000000000E+00  0.00000000000E+00  0.77282238536E+03  0.77282238538E+03  0.50400001928E-02 0. -1.
        1   -1    0    0  501    0  0.00000000000E+00  0.00000000000E+00 -0.20636698203E+03  0.20636698209E+03  0.50400001928E-02 0.  1.
    10030    2    1    2    0    0  0.00000000000E+00  0.00000000000E+00  0.56645540333E+03  0.97918936747E+03  0.79871152076E+03 0.  0.
        2    1    3    3  502    0  0.31779387229E+03 -0.55493666872E+00 -0.13271905619E+02  0.31807137046E+03  0.25500000920E-02 0.  1.
       -2    1    3    3    0  502 -0.31779387229E+03  0.55493666872E+00  0.57972730895E+03  0.66111799701E+03  0.25500000920E-02 0. -1.
</event>
<event>
 5   0  0.1509629E-02  0.7951696E+03  0.7818609E-02  0.9567035E-01
       -1   -1    0    0    0  501  0.00000000000E+00  0.00000000000E+00  0.20892420526E+03  0.20892420532E+03  0.50400001928E-02 0.  1.
        1   -1    0    0  501    0  0.00000000000E+00  0.00000000000E+00 -0.75660770930E+03  0.75660770931E+03  0.50400001928E-02 0. -1.
    10030    2    1    2    0    0  0.00000000000E+00  0.00000000000E+00 -0.54768350404E+03  0.96553191463E+03  0.79516957787E+03 0.  0.
        5    1    3    3  502    0 -0.19481125540E+02 -0.15394962608E+03  0.17059831585E+03  0.23066399153E+03  0.46999998093E+01 0.  1.
       -5    1    3    3    0  502  0.19481125540E+02  0.15394962608E+03 -0.71828181988E+03  0.73486792310E+03  0.46999998093E+01 0. -1.
</event>
<event>
 5   0  0.9919125E-03  0.8108453E+03  0.7818609E-02  0.9544450E-01
       -3   -1    0    0    0  501  0.00000000000E+00  0.00000000000E+00  0.33889269595E+03  0.33889271100E+03  0.10100000352E+00 0.  1.
        3   -1    0    0  501    0  0.00000000000E+00  0.00000000000E+00 -0.48501349845E+03  0.48501350897E+03  0.10100000352E+00 0. -1.
    10030    2    1    2    0    0  0.00000000000E+00  0.00000000000E+00 -0.14612080250E+03  0.82390621997E+03  0.81084534307E+03 0.  0.
        3    1    3    3  502    0  0.44981554445E+02  0.29605569312E+03  0.20464617001E+03  0.36270150092E+03  0.10100000352E+00 0.  1.
       -3    1    3    3    0  502 -0.44981554445E+02 -0.29605569312E+03 -0.35076697251E+03  0.46120471905E+03  0.10100000352E+00 0. -1.
</event>
<event>
 5   0  0.1471290E-02  0.7932124E+03  0.7818609E-02  0.9569894E-01
       -1   -1    0    0    0  501  0.00000000000E+00  0.00000000000E+00  0.10640526398E+04  0.10640526398E+04  0.50400001928E-02 0.  1.
        1   -1    0    0  501    0  0.00000000000E+00  0.00000000000E+00 -0.14782770507E+03  0.14782770516E+03  0.50400001928E-02 0. -1.
    10030    2    1    2    0    0  0.00000000000E+00  0.00000000000E+00  0.91622493472E+03  0.12118803450E+04  0.79321235461E+03 0.  0.
        2    1    3    3  502    0  0.28288619421E+03  0.19887870307E+03  0.75483536545E+03  0.83027330823E+03  0.25500000920E-02 0.  1.
       -2    1    3    3    0  502 -0.28288619421E+03 -0.19887870307E+03  0.16138956927E+03  0.38160703674E+03  0.25500000920E-02 0. -1.
</event>
<event>
 5   0  0.2571778E-02  0.7908394E+03  0.7818609E-02  0.9573372E-01
       -2   -1    0    0    0  501  0.00000000000E+00  0.00000000000E+00  0.10529096922E+03  0.10529096925E+03  0.25500000920E-02 0. -1.
        2   -1    0    0  501    0  0.00000000000E+00  0.00000000000E+00 -0.14849967385E+04  0.14849967385E+04  0.25500000920E-02 0.  1.
    10030    2    1    2    0    0  0.00000000000E+00  0.00000000000E+00 -0.13797057692E+04  0.15902877077E+04  0.79083941710E+03 0.  0.
        1    1    3    3  502    0  0.13291939090E+03  0.25010420949E+03 -0.12447154974E+04  0.12765329411E+04  0.50400001928E-02 0.  1.
       -1    1    3    3    0  502 -0.13291939090E+03 -0.25010420949E+03 -0.13499027180E+03  0.31375476664E+03  0.50400001928E-02 0. -1.
</event>
<event>
 5   0  0.2571778E-02  0.8008762E+03  0.7818609E-02  0.9558750E-01
        2   -1    0    0  501    0  0.00000000000E+00  0.00000000000E+00  0.10772930767E+04  0.10772930767E+04  0.25500000920E-02 0. -1.
       -2   -1    0    0    0  501  0.00000000000E+00  0.00000000000E+00 -0.14884591933E+03  0.14884591936E+03  0.25500000920E-02 0.  1.
    10030    2    1    2    0    0  0.00000000000E+00  0.00000000000E+00  0.92844715735E+03  0.12261389960E+04  0.80087621617E+03 0.  0.
        1    1    3    3  502    0 -0.40382882550E+02 -0.29776072807E+03  0.86945636031E+03  0.91991662171E+03  0.50400001928E-02 0. -1.
       -1    1    3    3    0  502  0.40382882550E+02  0.29776072807E+03  0.58990797037E+02  0.30622237433E+03  0.50400001928E-02 0.  1.
</event>
<event>
 5   0  0.2460312E-02  0.7900446E+03  0.7818609E-02  0.9574540E-01
       -2   -1    0    0    0  501  0.00000000000E+00  0.00000000000E+00  0.18938100774E+03  0.18938100776E+03  0.25500000920E-02 0. -1.
        2   -1    0    0  501    0  0.00000000000E+00  0.00000000000E+00 -0.82396120454E+03  0.82396120455E+03  0.25500000920E-02 0.  1.
    10030    2    1    2    0    0  0.00000000000E+00  0.00000000000E+00 -0.63458019680E+03  0.10133422123E+04  0.79004456398E+03 0.  0.
        2    1    3    3  502    0  0.85694552591E+02 -0.36005982029E+03 -0.49434995428E+03  0.61755040914E+03  0.25500000920E-02 0.  1.
       -2    1    3    3    0  502 -0.85694552591E+02  0.36005982029E+03 -0.14023024252E+03  0.39579180317E+03  0.25500000920E-02 0. -1.
</event>
<event>
 5   0  0.1471290E-02  0.8264038E+03  0.7818609E-02  0.9522566E-01
       -1   -1    0    0    0  501  0.00000000000E+00  0.00000000000E+00  0.16158912559E+03  0.16158912567E+03  0.50400001928E-02 0.  1.
        1   -1    0    0  501    0  0.00000000000E+00  0.00000000000E+00 -0.10566046310E+04  0.10566046310E+04  0.50400001928E-02 0. -1.
    10030    2    1    2    0    0  0.00000000000E+00  0.00000000000E+00 -0.89501550538E+03  0.12181937567E+04  0.82640382010E+03 0.  0.
        2    1    3    3  502    0 -0.10451732242E+03  0.35822114432E+03 -0.70908944569E+03  0.80128278462E+03  0.25500000920E-02 0.  1.
       -2    1    3    3    0  502  0.10451732242E+03 -0.35822114432E+03 -0.18592605969E+03  0.41691097204E+03  0.25500000920E-02 0. -1.
</event>
<event>
 5   0  0.1498375E-02  0.7794395E+03  0.7818609E-02  0.9590264E-01
       -1   -1    0    0    0  501  0.00000000000E+00  0.00000000000E+00  0.37221303027E+03  0.37221303031E+03  0.50400001928E-02 0. -1.
        1   -1    0    0  501    0  0.00000000000E+00  0.00000000000E+00 -0.40804989794E+03  0.40804989797E+03  0.50400001928E-02 0.  1.
    10030    2    1    2    0    0  0.00000000000E+00  0.00000000000E+00 -0.35836867663E+02  0.78026292828E+03  0.77943951411E+03 0.  0.
        4    1    3    3  502    0  0.26430639423E+03  0.23759695059E+03 -0.17799263007E+03  0.39748354711E+03  0.12699999809E+01 0. -1.
       -4    1    3    3    0  502 -0.26430639423E+03 -0.23759695059E+03  0.14215576241E+03  0.38277938117E+03  0.12699999809E+01 0.  1.
</event>
<event>
 5   0  0.1523811E-02  0.8226985E+03  0.7818609E-02  0.9527731E-01
       -1   -1    0    0    0  501  0.00000000000E+00  0.00000000000E+00  0.21433831307E+03  0.21433831313E+03  0.50400001928E-02 0. -1.
        1   -1    0    0  501    0  0.00000000000E+00  0.00000000000E+00 -0.78944449081E+03  0.78944449083E+03  0.50400001928E-02 0.  1.
    10030    2    1    2    0    0  0.00000000000E+00  0.00000000000E+00 -0.57510617774E+03  0.10037828040E+04  0.82269848781E+03 0.  0.
        1    1    3    3  502    0  0.18381554478E+03  0.36053237629E+03 -0.19759156271E+03  0.45034894752E+03  0.50400001928E-02 0. -1.
       -1    1    3    3    0  502 -0.18381554478E+03 -0.36053237629E+03 -0.37751461504E+03  0.55343385643E+03  0.50400001928E-02 0.  1.
</event>
<event>
 5   0  0.1471290E-02  0.8318081E+03  0.7818609E-02  0.9515084E-01
        1   -1    0    0  501    0  0.00000000000E+00  0.00000000000E+00  0.72038116578E+03  0.72038116580E+03  0.50400001928E-02 0.  1.
       -1   -1    0    0    0  501  0.00000000000E+00  0.00000000000E+00 -0.24011754955E+03  0.24011754960E+03  0.50400001928E-02 0. -1.
    10030    2    1    2    0    0  0.00000000000E+00  0.00000000000E+00  0.48026361623E+03  0.96049871539E+03  0.83180805550E+03 0.  0.
        2    1    3    3  502    0  0.24655602114E+03 -0.30693893016E+03  0.39494411458E+03  0.55765780911E+03  0.25500000920E-02 0. -1.
       -2    1    3    3    0  502 -0.24655602114E+03  0.30693893016E+03  0.85319501647E+02  0.40284090629E+03  0.25500000920E-02 0.  1.
</event>
<event>
 5   0  0.9919125E-03  0.8189137E+03  0.7818609E-02  0.9533037E-01
        4   -1    0    0  501    0  0.00000000000E+00  0.00000000000E+00  0.53905317708E+03  0.53905467313E+03  0.12699999809E+01 0.  1.
       -4   -1    0    0    0  501  0.00000000000E+00  0.00000000000E+00 -0.31101419081E+03  0.31101678377E+03  0.12699999809E+01 0. -1.
    10030    2    1    2    0    0  0.00000000000E+00  0.00000000000E+00  0.22803898627E+03  0.85007145690E+03  0.81891373329E+03 0.  0.
        1    1    3    3  502    0 -0.10835928309E+03  0.31280960715E+02 -0.29457416111E+03  0.31542696326E+03  0.50400001928E-02 0. -1.
       -1    1    3    3    0  502  0.10835928309E+03 -0.31280960715E+02  0.52261314738E+03  0.53464449363E+03  0.50400001928E-02 0.  1.
</event>
<event>
 5   0  0.2464780E-02  0.8060749E+03  0.7818609E-02  0.9551265E-01
       -2   -1    0    0    0  501  0.00000000000E+00  0.00000000000E+00  0.22386219550E+03  0.22386219552E+03  0.25500000920E-02 0.  1.
        2   -1    0    0  501    0  0.00000000000E+00  0.00000000000E+00 -0.72562130101E+03  0.72562130102E+03  0.25500000920E-02 0. -1.
    10030    2    1    2    0    0  0.00000000000E+00  0.00000000000E+00 -0.50175910551E+03  0.94948349653E+03  0.80607487880E+03 0.  0.
        3    1    3    3  502    0  0.39032373881E+03 -0.96082929579E+02 -0.21644473590E+03  0.45654450422E+03  0.10100000352E+00 0. -1.
       -3    1    3    3    0  502 -0.39032373881E+03  0.96082929579E+02 -0.28531436961E+03  0.49293899231E+03  0.10100000352E+00 0.  1.
</event>
<event>
 5   0  0.2571778E-02  0.8058304E+03  0.7818609E-02  0.9551616E-01
        2   -1    0    0  501    0  0.00000000000E+00  0.00000000000E+00  0.14732727121E+04  0.14732727121E+04  0.25500000920E-02 0. -1.
       -2   -1    0    0    0  501  0.00000000000E+00  0.00000000000E+00 -0.11019050651E+03  0.11019050654E+03  0.25500000920E-02 0.  1.
    10030    2    1    2    0    0  0.00000000000E+00  0.00000000000E+00  0.13630822056E+04  0.15834632187E+04  0.80583041987E+03 0.  0.
        1    1    3    3  502    0  0.91300258030E+02 -0.13029251321E+03 -0.45853767139E+02  0.16557307783E+03  0.50400001928E-02 0.  1.
       -1    1    3    3    0  502 -0.91300258030E+02  0.13029251321E+03  0.14089359728E+04  0.14178901409E+04  0.50400001928E-02 0. -1.
</event>
<event>
 5   0  0.2464780E-02  0.7896918E+03  0.7818609E-02  0.9575059E-01
        2   -1    0    0  501    0  0.00000000000E+00  0.00000000000E+00  0.99804427436E+03  0.99804427436E+03  0.25500000920E-02 0. -1.
       -2   -1    0    0    0  501  0.00000000000E+00  0.00000000000E+00 -0.15620877409E+03  0.15620877411E+03  0.25500000920E-02 0.  1.
    10030    2    1    2    0    0  0.00000000000E+00  0.00000000000E+00  0.84183550027E+03  0.11542530485E+04  0.78969176922E+03 0.  0.
        3    1    3    3  502    0  0.17952366137E+03  0.77561004655E+02  0.92228462950E+03  0.94279022187E+03  0.10100000352E+00 0. -1.
       -3    1    3    3    0  502 -0.17952366137E+03 -0.77561004655E+02 -0.80449129234E+02  0.21146282660E+03  0.10100000352E+00 0.  1.
</event>
<event>
 5   0  0.1498375E-02  0.7914480E+03  0.7818609E-02  0.9572479E-01
        1   -1    0    0  501    0  0.00000000000E+00  0.00000000000E+00  0.78556967604E+03  0.78556967606E+03  0.50400001928E-02 0.  1.
       -1   -1    0    0    0  501  0.00000000000E+00  0.00000000000E+00 -0.19934256283E+03  0.19934256289E+03  0.50400001928E-02 0. -1.
    10030    2    1    2    0    0  0.00000000000E+00  0.00000000000E+00  0.58622711321E+03  0.98491223895E+03  0.79144797060E+03 0.  0.
        4    1    3    3  502    0  0.15578075956E+03  0.75256247230E+02  0.73601080702E+03  0.75607186745E+03  0.12699999809E+01 0.  1.
       -4    1    3    3    0  502 -0.15578075956E+03 -0.75256247230E+02 -0.14978369381E+03  0.22884037150E+03  0.12699999809E+01 0. -1.
</event>
<event>
 5   0  0.2460312E-02  0.7892683E+03  0.7818609E-02  0.9575682E-01
        2   -1    0    0  501    0  0.00000000000E+00  0.00000000000E+00  0.99005862897E+03  0.99005862897E+03  0.25500000920E-02 0.  1.
       -2   -1    0    0    0  501  0.00000000000E+00  0.00000000000E+00 -0.15729989556E+03  0.15729989559E+03  0.25500000920E-02 0. -1.
    10030    2    1    2    0    0  0.00000000000E+00  0.00000000000E+00  0.83275873341E+03  0.11473585246E+04  0.78926831674E+03 0.  0.
        2    1    3    3  502    0 -0.55862312910E+02 -0.28931946138E+03  0.34773644752E+02  0.29670786156E+03  0.25500000920E-02 0. -1.
       -2    1    3    3    0  502  0.55862312910E+02  0.28931946138E+03  0.79798508865E+03  0.85065066300E+03  0.25500000920E-02 0.  1.
</event>
<event>
 5   0  0.2460312E-02  0.7421067E+03  0.7818609E-02  0.9647816E-01
       -2   -1    0    0    0  501  0.00000000000E+00  0.00000000000E+00  0.46401240483E+03  0.46401240484E+03  0.25500000920E-02 0.  1.
        2   -1    0    0  501    0  0.00000000000E+00  0.00000000000E+00 -0.29671743497E+03  0.29671743499E+03  0.25500000920E-02 0. -1.
    10030    2    1    2    0    0  0.00000000000E+00  0.00000000000E+00  0.16729496986E+03  0.76072983983E+03  0.74210665154E+03 0.  0.
        2    1    3    3  502    0  0.11247202583E+02  0.54169956696E+02  0.45976054633E+03  0.46307736259E+03  0.25500000920E-02 0.  1.
       -2    1    3    3    0  502 -0.11247202583E+02 -0.54169956696E+02 -0.29246557647E+03  0.29765247723E+03  0.25500000920E-02 0. -1.
</event>
<event>
 5   0  0.1498375E-02  0.8018074E+03  0.7818609E-02  0.9557405E-01
       -1   -1    0    0    0  501  0.00000000000E+00  0.00000000000E+00  0.14522239739E+03  0.14522239748E+03  0.50400001928E-02 0. -1.
        1   -1    0    0  501    0  0.00000000000E+00  0.00000000000E+00 -0.11067423874E+04  0.11067423874E+04  0.50400001928E-02 0.  1.
    10030    2    1    2    0    0  0.00000000000E+00  0.00000000000E+00 -0.96151998998E+03  0.12519647849E+04  0.80180741541E+03 0.  0.
        4    1    3    3  502    0 -0.35233926252E+03 -0.12650416089E+02 -0.77874000639E+03  0.85483366767E+03  0.12699999809E+01 0.  1.
       -4    1    3    3    0  502  0.35233926252E+03  0.12650416089E+02 -0.18277998359E+03  0.39713111719E+03  0.12699999809E+01 0. -1.
</event>
<event>
 5   0  0.1471290E-02  0.7968252E+03  0.7818609E-02  0.9564624E-01
       -1   -1    0    0    0  501  0.00000000000E+00  0.00000000000E+00  0.11297921455E+03  0.11297921466E+03  0.50400001928E-02 0.  1.
        1   -1    0    0  501    0  0.00000000000E+00  0.00000000000E+00 -0.14049717483E+04  0.14049717483E+04  0.50400001928E-02 0. -1.
    10030    2    1    2    0    0  0.00000000000E+00  0.00000000000E+00 -0.12919925338E+04  0.15179509630E+04  0.79682521216E+03 0.  0.
        2    1    3    3  502    0 -0.37311689892E+03  0.11489151578E+03 -0.79739661558E+03  0.88783874842E+03  0.25500000920E-02 0.  1.
       -2    1    3    3    0  502  0.37311689892E+03 -0.11489151578E+03 -0.49459591819E+03  0.63011221457E+03  0.25500000920E-02 0. -1.
</event>
<event>
 5   0  0.1509629E-02  0.8107501E+03  0.7818609E-02  0.9544586E-01
       -1   -1    0    0    0  501  0.00000000000E+00  0.00000000000E+00  0.50616442209E+03  0.50616442211E+03  0.50400001928E-02 0.  1.
        1   -1    0    0  501    0  0.00000000000E+00  0.00000000000E+00 -0.32465522517E+03  0.32465522521E+03  0.50400001928E-02 0. -1.
    10030    2    1    2    0    0  0.00000000000E+00  0.00000000000E+00  0.18150919692E+03  0.83081964732E+03  0.81075008344E+03 0.  0.
        5    1    3    3  502    0  0.12201257531E+03  0.26357326297E+03 -0.19899710988E+03  0.35210775797E+03  0.46999998093E+01 0. -1.
       -5    1    3    3    0  502 -0.12201257531E+03 -0.26357326297E+03  0.38050630681E+03  0.47871188935E+03  0.46999998093E+01 0.  1.
</event>
<event>
 5   0  0.2422031E-02  0.7974215E+03  0.7818609E-02  0.9563757E-01
       -2   -1    0    0    0  501  0.00000000000E+00  0.00000000000E+00  0.19607153869E+03  0.19607153871E+03  0.25500000920E-02 0. -1.
        2   -1    0    0  501    0  0.00000000000E+00  0.00000000000E+00 -0.81077693173E+03  0.81077693173E+03  0.25500000920E-02 0.  1.
    10030    2    1    2    0    0  0.00000000000E+00  0.00000000000E+00 -0.61470539304E+03  0.10068484704E+04  0.79742154611E+03 0.  0.
        4    1    3    3  502    0 -0.33112196249E+03  0.80500597777E+01 -0.58759432894E+03  0.67451854371E+03  0.12699999809E+01 0.  1.
       -4    1    3    3    0  502  0.33112196249E+03 -0.80500597777E+01 -0.27111064093E+02  0.33232992673E+03  0.12699999809E+01 0. -1.
</event>
<event>
 5   0  0.1509629E-02  0.7759703E+03  0.7818609E-02  0.9595465E-01
       -1   -1    0    0    0  501  0.00000000000E+00  0.00000000000E+00  0.12057094893E+03  0.12057094904E+03  0.50400001928E-02 0. -1.
        1   -1    0    0  501    0  0.00000000000E+00  0.00000000000E+00 -0.12484972193E+04  0.12484972193E+04  0.50400001928E-02 0.  1.
    10030    2    1    2    0    0  0.00000000000E+00  0.00000000000E+00 -0.11279262703E+04  0.13690681683E+04  0.77597034619E+03 0.  0.
        5    1    3    3  502    0  0.64390299424E+02 -0.25334230151E+03 -0.10697507929E+04  0.11012344353E+04  0.46999998093E+01 0.  1.
       -5    1    3    3    0  502 -0.64390299424E+02  0.25334230151E+03 -0.58175477384E+02  0.26783373305E+03  0.46999998093E+01 0. -1.
</event>
<event>
 5   0  0.2571778E-02  0.7923679E+03  0.7818609E-02  0.9571130E-01
        2   -1    0    0  501    0  0.00000000000E+00  0.00000000000E+00  0.42054152319E+03  0.42054152320E+03  0.25500000920E-02 0. -1.
       -2   -1    0    0    0  501  0.00000000000E+00  0.00000000000E+00 -0.37323714883E+03  0.37323714883E+03  0.25500000920E-02 0.  1.
    10030    2    1    2    0    0  0.00000000000E+00  0.00000000000E+00  0.47304374364E+02  0.79377867203E+03  0.79236789204E+03 0.  0.
        1    1    3    3  502    0  0.34585720281E+03  0.92858837567E+02  0.19342885684E+03  0.40700699151E+03  0.50400001928E-02 0. -1.
       -1    1    3    3    0  502 -0.34585720281E+03 -0.92858837567E+02 -0.14612448248E+03  0.38677168052E+03  0.50400001928E-02 0.  1.
</event>
<event>
 5   0  0.1509629E-02  0.7952720E+03  0.7818609E-02  0.9566886E-01
        1   -1    0    0  501    0  0.00000000000E+00  0.00000000000E+00  0.32399279737E+03  0.32399279741E+03  0.50400001928E-02 0.  1.
       -1   -1    0    0    0  501  0.00000000000E+00  0.00000000000E+00 -0.48801818102E+03  0.48801818105E+03  0.50400001928E-02 0. -1.
    10030    2    1    2    0    0  0.00000000000E+00  0.00000000000E+00 -0.16402538365E+03  0.81201097846E+03  0.79527196773E+03 0.  0.
        5    1    3    3  502    0  0.22059306194E+03 -0.32390382959E+03 -0.13387196090E+02  0.39214320957E+03  0.46999998093E+01 0.  1.
       -5    1    3    3    0  502 -0.22059306194E+03  0.32390382959E+03 -0.15063818756E+03  0.41986776889E+03  0.46999998093E+01 0. -1.
</event>
<event>
 5   0  0.1523811E-02  0.8253747E+03  0.7818609E-02  0.9523998E-01
        1   -1    0    0  501    0  0.00000000000E+00  0.00000000000E+00  0.20434095259E+04  0.20434095260E+04  0.50400001928E-02 0.  1.
       -1   -1    0    0    0  501  0.00000000000E+00  0.00000000000E+00 -0.83346408439E+02  0.83346408592E+02  0.50400001928E-02 0. -1.
    10030    2    1    2    0    0  0.00000000000E+00  0.00000000000E+00  0.19600631175E+04  0.21267559345E+04  0.82537469098E+03 0.  0.
        1    1    3    3  502    0  0.19748446731E+02 -0.10282332658E+03 -0.48553228565E+02  0.11541253687E+03  0.50400001928E-02 0. -1.
       -1    1    3    3    0  502 -0.19748446731E+02  0.10282332658E+03  0.20086163461E+04  0.20113433977E+04  0.50400001928E-02 0.  1.
</event>
<event>
 5   0  0.1523811E-02  0.7971801E+03  0.7818609E-02  0.9564108E-01
        1   -1    0    0  501    0  0.00000000000E+00  0.00000000000E+00  0.84207202933E+03  0.84207202935E+03  0.50400001928E-02 0.  1.
       -1   -1    0    0    0  501  0.00000000000E+00  0.00000000000E+00 -0.18867035455E+03  0.18867035462E+03  0.50400001928E-02 0. -1.
    10030    2    1    2    0    0  0.00000000000E+00  0.00000000000E+00  0.65340167478E+03  0.10307423840E+04  0.79718010104E+03 0.  0.
        1    1    3    3  502    0  0.31431927550E+03 -0.17345774417E+03  0.55061455696E+03  0.65731315697E+03  0.50400001928E-02 0.  1.
       -1    1    3    3    0  502 -0.31431927550E+03  0.17345774417E+03  0.10278711782E+03  0.37342922700E+03  0.50400001928E-02 0. -1.
</event>
<event>
 5   0  0.1509629E-02  0.7989060E+03  0.7818609E-02  0.9561602E-01
        1   -1    0    0  501    0  0.00000000000E+00  0.00000000000E+00  0.18022655965E+04  0.18022655965E+04  0.50400001928E-02 0.  1.
       -1   -1    0    0    0  501  0.00000000000E+00  0.00000000000E+00 -0.88534504594E+02  0.88534504737E+02  0.50400001928E-02 0. -1.
    10030    2    1    2    0    0  0.00000000000E+00  0.00000000000E+00  0.17137310919E+04  0.18908001012E+04  0.79890598163E+03 0.  0.
        5    1    3    3  502    0  0.50366245793E+02 -0.18349608905E+03  0.25695962419E+02  0.19206755555E+03  0.46999998093E+01 0. -1.
       -5    1    3    3    0  502 -0.50366245793E+02  0.18349608905E+03  0.16880351294E+04  0.16987325457E+04  0.46999998093E+01 0.  1.
</event>
<event>
 5   0  0.2422031E-02  0.6951973E+03  0.7818609E-02  0.9725481E-01
        2   -1    0    0  501    0  0.00000000000E+00  0.00000000000E+00  0.91345810505E+03  0.91345810505E+03  0.25500000920E-02 0. -1.
       -2   -1    0    0    0  501  0.00000000000E+00  0.00000000000E+00 -0.13227187306E+03  0.13227187308E+03  0.25500000920E-02 0.  1.
    10030    2    1    2    0    0  0.00000000000E+00  0.00000000000E+00  0.78118623199E+03  0.10457299781E+04  0.69519728000E+03 0.  0.
        4    1    3    3  502    0  0.25463300776E+03  0.19427418822E+03  0.59376187056E+03  0.67463708813E+03  0.12699999809E+01 0. -1.
       -4    1    3    3    0  502 -0.25463300776E+03 -0.19427418822E+03  0.18742436143E+03  0.37109289000E+03  0.12699999809E+01 0.  1.
</event>
<event>
 5   0  0.2464780E-02  0.7982838E+03  0.7818609E-02  0.9562505E-01
       -2   -1    0    0    0  501  0.00000000000E+00  0.00000000000E+00  0.28607397359E+03  0.28607397360E+03  0.25500000920E-02 0. -1.
        2   -1    0    0  501    0  0.00000000000E+00  0.00000000000E+00 -0.55689882407E+03  0.55689882407E+03  0.25500000920E-02 0.  1.
    10030    2    1    2    0    0  0.00000000000E+00  0.00000000000E+00 -0.27082485048E+03  0.84297279767E+03  0.79828380791E+03 0.  0.
        3    1    3    3  502    0  0.99193565693E+01  0.39112731683E+03 -0.21879669691E+03  0.44827555855E+03  0.10100000352E+00 0.  1.
       -3    1    3    3    0  502 -0.99193565693E+01 -0.39112731683E+03 -0.52028153566E+02  0.39469723912E+03  0.10100000352E+00 0. -1.
</event>
<event>
 5   0  0.2460312E-02  0.7861865E+03  0.7818609E-02  0.9580230E-01
        2   -1    0    0  501    0  0.00000000000E+00  0.00000000000E+00  0.16573364029E+04  0.16573364029E+04  0.25500000920E-02 0. -1.
       -2   -1    0    0    0  501  0.00000000000E+00  0.00000000000E+00 -0.93235321569E+02  0.93235321604E+02  0.25500000920E-02 0.  1.
    10030    2    1    2    0    0  0.00000000000E+00  0.00000000000E+00  0.15641010813E+04  0.17505717245E+04  0.78618647280E+03 0.  0.
        2    1    3    3  502    0  0.34983218828E+03  0.17375327237E+03  0.68373557674E+03  0.78744339385E+03  0.25500000920E-02 0. -1.
       -2    1    3    3    0  502 -0.34983218828E+03 -0.17375327237E+03  0.88036550457E+03  0.96312833063E+03  0.25500000920E-02 0.  1.
</event>
<event>
 5   0  0.2571778E-02  0.9473602E+03  0.7818609E-02  0.9368241E-01
        2   -1    0    0  501    0  0.00000000000E+00  0.00000000000E+00  0.44407615441E+03  0.44407615442E+03  0.25500000920E-02 0.  1.
       -2   -1    0    0    0  501  0.00000000000E+00  0.00000000000E+00 -0.50525753038E+03  0.50525753039E+03  0.25500000920E-02 0. -1.
    10030    2    1    2    0    0  0.00000000000E+00  0.00000000000E+00 -0.61181375969E+02  0.94933368480E+03  0.94736016611E+03 0.  0.
        1    1    3    3  502    0  0.27503019887E+03  0.28995133843E+03  0.22422121670E+03  0.45824506870E+03  0.50400001928E-02 0.  1.
       -1    1    3    3    0  502 -0.27503019887E+03 -0.28995133843E+03 -0.28540259266E+03  0.49108861611E+03  0.50400001928E-02 0. -1.
</event>
<event>
 5   0  0.2454354E-02  0.8010573E+03  0.7818609E-02  0.9558488E-01
       -2   -1    0    0    0  501  0.00000000000E+00  0.00000000000E+00  0.20645009600E+03  0.20645009601E+03  0.25500000920E-02 0. -1.
        2   -1    0    0  501    0  0.00000000000E+00  0.00000000000E+00 -0.77705550686E+03  0.77705550686E+03  0.25500000920E-02 0.  1.
    10030    2    1    2    0    0  0.00000000000E+00  0.00000000000E+00 -0.57060541086E+03  0.98350560287E+03  0.80105726136E+03 0.  0.
        5    1    3    3  502    0  0.12242894699E+02  0.10861086636E+02 -0.77661091991E+03  0.77679756861E+03  0.46999998093E+01 0.  1.
       -5    1    3    3    0  502 -0.12242894699E+02 -0.10861086636E+02  0.20600550905E+03  0.20670803427E+03  0.46999998093E+01 0. -1.
</event>
<event>
 5   0  0.2464780E-02  0.8112717E+03  0.7818609E-02  0.9543844E-01
        2   -1    0    0  501    0  0.00000000000E+00  0.00000000000E+00  0.84874466922E+03  0.84874466922E+03  0.25500000920E-02 0. -1.
       -2   -1    0    0    0  501  0.00000000000E+00  0.00000000000E+00 -0.19386328265E+03  0.19386328267E+03  0.25500000920E-02 0.  1.
    10030    2    1    2    0    0  0.00000000000E+00  0.00000000000E+00  0.65488138657E+03  0.10426079519E+04  0.81127166280E+03 0.  0.
        3    1    3    3  502    0 -0.17817387759E+03  0.36381446750E+03  0.30068234235E+03  0.50449655957E+03  0.10100000352E+00 0.  1.
       -3    1    3    3    0  502  0.17817387759E+03 -0.36381446750E+03  0.35419904422E+03  0.53811139232E+03  0.10100000352E+00 0. -1.
</event>
<event>
 5   0  0.1523811E-02  0.7872912E+03  0.7818609E-02  0.9578597E-01
        1   -1    0    0  501    0  0.00000000000E+00  0.00000000000E+00  0.18131672104E+03  0.18131672111E+03  0.50400001928E-02 0. -1.
       -1   -1    0    0    0  501  0.00000000000E+00  0.00000000000E+00 -0.85461972896E+03  0.85461972897E+03  0.50400001928E-02 0.  1.
    10030    2    1    2    0    0  0.00000000000E+00  0.00000000000E+00 -0.67330300791E+03  0.10359364501E+04  0.78729117114E+03 0.  0.
        1    1    3    3  502    0  0.78814004915E+02 -0.36833157970E+03 -0.48712242385E+03  0.61576623471E+03  0.50400001928E-02 0.  1.
       -1    1    3    3    0  502 -0.78814004915E+02  0.36833157970E+03 -0.18618058406E+03  0.42017021537E+03  0.50400001928E-02 0. -1.
</event>
<event>
 5   0  0.1624094E-02  0.8301022E+03  0.7818609E-02  0.9517439E-01
       -1   -1    0    0    0  501  0.00000000000E+00  0.00000000000E+00  0.60786267172E+03  0.60786267174E+03  0.50400001928E-02 0.  1.
        1   -1    0    0  501    0  0.00000000000E+00  0.00000000000E+00 -0.28339857435E+03  0.28339857440E+03  0.50400001928E-02 0. -1.
    10030    2    1    2    0    0  0.00000000000E+00  0.00000000000E+00  0.32446409736E+03  0.89126124613E+03  0.83010219755E+03 0.  0.
        3    1    3    3  502    0 -0.33925885441E+03  0.16890681093E+03 -0.19474257223E+02  0.37948035255E+03  0.10100000352E+00 0. -1.
       -3    1    3    3    0  502  0.33925885441E+03 -0.16890681093E+03  0.34393835459E+03  0.51178089358E+03  0.10100000352E+00 0.  1.
</event>
<event>
 5   0  0.1509629E-02  0.8135996E+03  0.7818609E-02  0.9540538E-01
       -1   -1    0    0    0  501  0.00000000000E+00  0.00000000000E+00  0.35520379966E+03  0.35520379970E+03  0.50400001928E-02 0. -1.
        1   -1    0    0  501    0  0.00000000000E+00  0.00000000000E+00 -0.46589054487E+03  0.46589054489E+03  0.50400001928E-02 0.  1.
    10030    2    1    2    0    0  0.00000000000E+00  0.00000000000E+00 -0.11068674521E+03  0.82109434459E+03  0.81359963567E+03 0.  0.
        5    1    3    3  502    0  0.10753606718E+03 -0.38548165868E+03  0.18155290805E+02  0.40063926356E+03  0.46999998093E+01 0. -1.
       -5    1    3    3    0  502 -0.10753606718E+03  0.38548165868E+03 -0.12884203601E+03  0.42045508103E+03  0.46999998093E+01 0.  1.
</event>
<event>
 5   0  0.1624094E-02  0.8027170E+03  0.7818609E-02  0.9556093E-01
       -1   -1    0    0    0  501  0.00000000000E+00  0.00000000000E+00  0.39239823311E+03  0.39239823314E+03  0.50400001928E-02 0.  1.
        1   -1    0    0  501    0  0.00000000000E+00  0.00000000000E+00 -0.41052341595E+03  0.41052341598E+03  0.50400001928E-02 0. -1.
    10030    2    1    2    0    0  0.00000000000E+00  0.00000000000E+00 -0.18125182843E+02  0.80292164912E+03  0.80271704378E+03 0.  0.
        3    1    3    3  502    0  0.32788569842E+03 -0.15051185611E+02  0.22197914805E+03  0.39624527983E+03  0.10100000352E+00 0.  1.
       -3    1    3    3    0  502 -0.32788569842E+03  0.15051185611E+02 -0.24010433089E+03  0.40667636928E+03  0.10100000352E+00 0. -1.
</event>
<event>
 5   0  0.2460312E-02  0.8086304E+03  0.7818609E-02  0.9547608E-01
       -2   -1    0    0    0  501  0.00000000000E+00  0.00000000000E+00  0.91322723708E+02  0.91322723744E+02  0.25500000920E-02 0. -1.
        2   -1    0    0  501    0  0.00000000000E+00  0.00000000000E+00 -0.17900340445E+04  0.17900340445E+04  0.25500000920E-02 0.  1.
    10030    2    1    2    0    0  0.00000000000E+00  0.00000000000E+00 -0.16987113208E+04  0.18813567682E+04  0.80863040880E+03 0.  0.
        2    1    3    3  502    0  0.28368434826E+03 -0.26525406142E+03 -0.58784104778E+03  0.70455207331E+03  0.25500000920E-02 0.  1.
       -2    1    3    3    0  502 -0.28368434826E+03  0.26525406142E+03 -0.11108702730E+04  0.11768046949E+04  0.25500000920E-02 0. -1.
</event>
<event>
 5   0  0.2464780E-02  0.7843695E+03  0.7818609E-02  0.9582921E-01
        2   -1    0    0  501    0  0.00000000000E+00  0.00000000000E+00  0.54962376652E+03  0.54962376653E+03  0.25500000920E-02 0. -1.
       -2   -1    0    0    0  501  0.00000000000E+00  0.00000000000E+00 -0.27984390966E+03  0.27984390967E+03  0.25500000920E-02 0.  1.
    10030    2    1    2    0    0  0.00000000000E+00  0.00000000000E+00  0.26977985686E+03  0.82946767619E+03  0.78436946312E+03 0.  0.
        3    1    3    3  502    0  0.18185360710E+03  0.59766933403E+02 -0.22708596729E+03  0.29700314390E+03  0.10100000352E+00 0.  1.
       -3    1    3    3    0  502 -0.18185360710E+03 -0.59766933403E+02  0.49686582415E+03  0.53246453230E+03  0.10100000352E+00 0. -1.
</event>
<event>
 5   0  0.1624094E-02  0.7844982E+03  0.7818609E-02  0.9582730E-01
       -1   -1    0    0    0  501  0.00000000000E+00  0.00000000000E+00  0.20563276064E+03  0.20563276071E+03  0.50400001928E-02 0.  1.
        1   -1    0    0  501    0  0.00000000000E+00  0.00000000000E+00 -0.74822396025E+03  0.74822396027E+03  0.50400001928E-02 0. -1.
    10030    2    1    2    0    0  0.00000000000E+00  0.00000000000E+00 -0.54259119961E+03  0.95385672098E+03  0.78449820539E+03 0.  0.
        3    1    3    3  502    0 -0.49432120556E+02  0.88025964015E+02 -0.73215671802E+03  0.73908428127E+03  0.10100000352E+00 0. -1.
       -3    1    3    3    0  502  0.49432120556E+02 -0.88025964015E+02  0.18956551841E+03  0.21477243970E+03  0.10100000352E+00 0.  1.
</event>
<event>
 5   0  0.1471290E-02  0.7989743E+03  0.7818609E-02  0.9561503E-01
        1   -1    0    0  501    0  0.00000000000E+00  0.00000000000E+00  0.11297446431E+04  0.11297446431E+04  0.50400001928E-02 0. -1.
       -1   -1    0    0    0  501  0.00000000000E+00  0.00000000000E+00 -0.14126199218E+03  0.14126199227E+03  0.50400001928E-02 0.  1.
    10030    2    1    2    0    0  0.00000000000E+00  0.00000000000E+00  0.98848265089E+03  0.12710066354E+04  0.79897428995E+03 0.  0.
        2    1    3    3  502    0  0.29796552887E+03  0.22864214597E+03  0.71078446163E+03  0.80391245681E+03  0.25500000920E-02 0. -1.
       -2    1    3    3    0  502 -0.29796552887E+03 -0.22864214597E+03  0.27769818926E+03  0.46709417855E+03  0.25500000920E-02 0.  1.
</event>
<event>
 5   0  0.2460312E-02  0.7968318E+03  0.7818609E-02  0.9564614E-01
        2   -1    0    0  501    0  0.00000000000E+00  0.00000000000E+00  0.15249895746E+04  0.15249895746E+04  0.25500000920E-02 0. -1.
       -2   -1    0    0    0  501  0.00000000000E+00  0.00000000000E+00 -0.10408939479E+03  0.10408939482E+03  0.25500000920E-02 0.  1.
    10030    2    1    2    0    0  0.00000000000E+00  0.00000000000E+00  0.14209001798E+04  0.16290789694E+04  0.79683183145E+03 0.  0.
        2    1    3    3  502    0  0.24854398713E+03  0.29966599756E+03  0.88346159418E+03  0.96544197756E+03  0.25500000920E-02 0. -1.
       -2    1    3    3    0  502 -0.24854398713E+03 -0.29966599756E+03  0.53743858562E+03  0.66363699185E+03  0.25500000920E-02 0.  1.
</event>
<event>
 5   0  0.1471290E-02  0.7967175E+03  0.7818609E-02  0.9564781E-01
        1   -1    0    0  501    0  0.00000000000E+00  0.00000000000E+00  0.10734276391E+04  0.10734276391E+04  0.50400001928E-02 0.  1.
       -1   -1    0    0    0  501  0.00000000000E+00  0.00000000000E+00 -0.14783455749E+03  0.14783455758E+03  0.50400001928E-02 0. -1.
    10030    2    1    2    0    0  0.00000000000E+00  0.00000000000E+00  0.92559308160E+03  0.12212621967E+04  0.79671751602E+03 0.  0.
        2    1    3    3  502    0  0.13401685276E+03 -0.20277043741E+03  0.94659366713E+03  0.97730033140E+03  0.25500000920E-02 0.  1.
       -2    1    3    3    0  502 -0.13401685276E+03  0.20277043741E+03 -0.21000585527E+02  0.24396186528E+03  0.25500000920E-02 0. -1.
</event>
<event>
 5   0  0.9919125E-03  0.7915811E+03  0.7818609E-02  0.9572284E-01
        3   -1    0    0  501    0  0.00000000000E+00  0.00000000000E+00  0.60780534799E+03  0.60780535638E+03  0.10100000352E+00 0. -1.
       -3   -1    0    0    0  501  0.00000000000E+00  0.00000000000E+00 -0.25773077852E+03  0.25773079831E+03  0.10100000352E+00 0.  1.
    10030    2    1    2    0    0  0.00000000000E+00  0.00000000000E+00  0.35007456947E+03  0.86553615469E+03  0.79158109558E+03 0.  0.
        4    1    3    3  502    0  0.92841936384E+02 -0.24256979728E+03 -0.15150918431E+03  0.30069316177E+03  0.12699999809E+01 0.  1.
       -4    1    3    3    0  502 -0.92841936384E+02  0.24256979728E+03  0.50158375377E+03  0.56484299292E+03  0.12699999809E+01 0. -1.
</event>
<event>
 5   0  0.2571778E-02  0.8096701E+03  0.7818609E-02  0.9546125E-01
       -2   -1    0    0    0  501  0.00000000000E+00  0.00000000000E+00  0.25338518531E+03  0.25338518533E+03  0.25500000920E-02 0. -1.
        2   -1    0    0  501    0  0.00000000000E+00  0.00000000000E+00 -0.64680745486E+03  0.64680745486E+03  0.25500000920E-02 0.  1.
    10030    2    1    2    0    0  0.00000000000E+00  0.00000000000E+00 -0.39342226954E+03  0.90019264019E+03  0.80967012250E+03 0.  0.
        1    1    3    3  502    0 -0.15761321277E+03  0.31674885323E+03  0.22061574429E+02  0.35448339023E+03  0.50400001928E-02 0. -1.
       -1    1    3    3    0  502  0.15761321277E+03 -0.31674885323E+03 -0.41548384397E+03  0.54570924995E+03  0.50400001928E-02 0.  1.
</event>
<event>
 5   0  0.1471290E-02  0.8167288E+03  0.7818609E-02  0.9536114E-01
        1   -1    0    0  501    0  0.00000000000E+00  0.00000000000E+00  0.48033671867E+03  0.48033671870E+03  0.50400001928E-02 0. -1.
       -1   -1    0    0    0  501  0.00000000000E+00  0.00000000000E+00 -0.34717619040E+03  0.34717619043E+03  0.50400001928E-02 0.  1.
    10030    2    1    2    0    0  0.00000000000E+00  0.00000000000E+00  0.13316052828E+03  0.82751290913E+03  0.81672877290E+03 0.  0.
        2    1    3    3  502    0 -0.30281867683E+03 -0.17311586998E+03 -0.14857527413E+03  0.37913436611E+03  0.25500000920E-02 0.  1.
       -2    1    3    3    0  502  0.30281867683E+03  0.17311586998E+03  0.28173580241E+03  0.44837854302E+03  0.25500000920E-02 0. -1.
</event>
<event>
 5   0  0.1523811E-02  0.7996540E+03  0.7818609E-02  0.9560518E-01
       -1   -1    0    0    0  501  0.00000000000E+00  0.00000000000E+00  0.20215742424E+03  0.20215742430E+03  0.50400001928E-02 0.  1.
        1   -1    0    0  501    0  0.00000000000E+00  0.00000000000E+00 -0.79077785103E+03  0.79077785105E+03  0.50400001928E-02 0. -1.
    10030    2    1    2    0    0  0.00000000000E+00  0.00000000000E+00 -0.58862042679E+03  0.99293527535E+03  0.79965395903E+03 0.  0.
        1    1    3    3  502    0  0.18763815069E+03 -0.27451642135E+03 -0.18622711453E+02  0.33303775550E+03  0.50400001928E-02 0.  1.
       -1    1    3    3    0  502 -0.18763815069E+03  0.27451642135E+03 -0.56999771534E+03  0.65989751985E+03  0.50400001928E-02 0. -1.
</event>
<event>
 5   0  0.1471290E-02  0.8352923E+03  0.7818609E-02  0.9510293E-01
        1   -1    0    0  501    0  0.00000000000E+00  0.00000000000E+00  0.23355765518E+03  0.23355765524E+03  0.50400001928E-02 0.  1.
       -1   -1    0    0    0  501  0.00000000000E+00  0.00000000000E+00 -0.74683192998E+03  0.74683193000E+03  0.50400001928E-02 0. -1.
    10030    2    1    2    0    0  0.00000000000E+00  0.00000000000E+00 -0.51327427480E+03  0.98038958524E+03  0.83529231870E+03 0.  0.
        2    1    3    3  502    0 -0.95227194607E+02 -0.16478636318E+03  0.17970076919E+03  0.26175395038E+03  0.25500000920E-02 0.  1.
       -2    1    3    3    0  502  0.95227194607E+02  0.16478636318E+03 -0.69297504399E+03  0.71863563486E+03  0.25500000920E-02 0. -1.
</event>
<event>
 5   0  0.2571778E-02  0.7994944E+03  0.7818609E-02  0.9560749E-01
       -2   -1    0    0    0  501  0.00000000000E+00  0.00000000000E+00  0.31154125303E+03  0.31154125304E+03  0.25500000920E-02 0.  1.
        2   -1    0    0  501    0  0.00000000000E+00  0.00000000000E+00 -0.51292674610E+03  0.51292674611E+03  0.25500000920E-02 0. -1.
    10030    2    1    2    0    0  0.00000000000E+00  0.00000000000E+00 -0.20138549307E+03  0.82446799915E+03  0.79949444326E+03 0.  0.
        1    1    3    3  502    0 -0.29654757038E+03 -0.19963053403E+03 -0.28518046938E+03  0.45729718101E+03  0.50400001928E-02 0. -1.
       -1    1    3    3    0  502  0.29654757038E+03  0.19963053403E+03  0.83794976303E+02  0.36717081815E+03  0.50400001928E-02 0.  1.
</event>
<event>
 5   0  0.2454354E-02  0.7948426E+03  0.7818609E-02  0.9567512E-01
       -2   -1    0    0    0  501  0.00000000000E+00  0.00000000000E+00  0.15629696164E+03  0.15629696166E+03  0.25500000920E-02 0. -1.
        2   -1    0    0  501    0  0.00000000000E+00  0.00000000000E+00 -0.10105358852E+04  0.10105358852E+04  0.25500000920E-02 0.  1.
    10030    2    1    2    0    0  0.00000000000E+00  0.00000000000E+00 -0.85423892354E+03  0.11668328468E+04  0.79484259698E+03 0.  0.
        5    1    3    3  502    0  0.38009238156E+03  0.45892152633E+02 -0.27075598477E+03  0.46894264199E+03  0.46999998093E+01 0. -1.
       -5    1    3    3    0  502 -0.38009238156E+03 -0.45892152633E+02 -0.58348293877E+03  0.69789020485E+03  0.46999998093E+01 0.  1.
</event>
<event>
 5   0  0.1624094E-02  0.8128795E+03  0.7818609E-02  0.9541559E-01
       -1   -1    0    0    0  501  0.00000000000E+00  0.00000000000E+00  0.24611323422E+03  0.24611323427E+03  0.50400001928E-02 0.  1.
        1   -1    0    0  501    0  0.00000000000E+00  0.00000000000E+00 -0.67120838705E+03  0.67120838707E+03  0.50400001928E-02 0. -1.
    10030    2    1    2    0    0  0.00000000000E+00  0.00000000000E+00 -0.42509515283E+03  0.91732162134E+03  0.81287949170E+03 0.  0.
        3    1    3    3  502    0 -0.15227837148E+03 -0.28999186271E+03  0.59014751627E+02  0.33281636674E+03  0.10100000352E+00 0.  1.
       -3    1    3    3    0  502  0.15227837148E+03  0.28999186271E+03 -0.48410990446E+03  0.58450525460E+03  0.10100000352E+00 0. -1.
</event>
<event>
 5   0  0.2422031E-02  0.8004740E+03  0.7818609E-02  0.9559331E-01
        2   -1    0    0  501    0  0.00000000000E+00  0.00000000000E+00  0.10469687444E+04  0.10469687444E+04  0.25500000920E-02 0.  1.
       -2   -1    0    0    0  501  0.00000000000E+00  0.00000000000E+00 -0.15300327443E+03  0.15300327445E+03  0.25500000920E-02 0. -1.
    10030    2    1    2    0    0  0.00000000000E+00  0.00000000000E+00  0.89396546999E+03  0.11999720189E+04  0.80047397493E+03 0.  0.
        4    1    3    3  502    0 -0.22838720504E+03  0.27809952367E+03  0.70959076541E+03  0.79562599740E+03  0.12699999809E+01 0.  1.
       -4    1    3    3    0  502  0.22838720504E+03 -0.27809952367E+03  0.18437470458E+03  0.40434602147E+03  0.12699999809E+01 0. -1.
</event>
<event>
 5   0  0.1498375E-02  0.7894370E+03  0.7818609E-02  0.9575434E-01
        1   -1    0    0  501    0  0.00000000000E+00  0.00000000000E+00  0.69316499470E+03  0.69316499472E+03  0.50400001928E-02 0. -1.
       -1   -1    0    0    0  501  0.00000000000E+00  0.00000000000E+00 -0.22477002114E+03  0.22477002120E+03  0.50400001928E-02 0.  1.
    10030    2    1    2    0    0  0.00000000000E+00  0.00000000000E+00  0.46839497356E+03  0.91793501592E+03  0.78943704131E+03 0.  0.
        4    1    3    3  502    0  0.36573833412E+01  0.71770566686E+02 -0.21709680809E+03  0.22868543390E+03  0.12699999809E+01 0.  1.
       -4    1    3    3    0  502 -0.36573833412E+01 -0.71770566686E+02  0.68549178165E+03  0.68924958202E+03  0.12699999809E+01 0. -1.
</event>
<event>
 5   0  0.1509629E-02  0.8206759E+03  0.7818609E-02  0.9530563E-01
        1   -1    0    0  501    0  0.00000000000E+00  0.00000000000E+00  0.19584515071E+03  0.19584515078E+03  0.50400001928E-02 0.  1.
       -1   -1    0    0    0  501  0.00000000000E+00  0.00000000000E+00 -0.85974666038E+03  0.85974666039E+03  0.50400001928E-02 0. -1.
    10030    2    1    2    0    0  0.00000000000E+00  0.00000000000E+00 -0.66390150966E+03  0.10555918112E+04  0.82067585396E+03 0.  0.
        5    1    3    3  502    0 -0.24284869817E+03  0.28034002248E+03 -0.55764625249E+03  0.66974431787E+03  0.46999998093E+01 0. -1.
       -5    1    3    3    0  502  0.24284869817E+03 -0.28034002248E+03 -0.10625525718E+03  0.38584749330E+03  0.46999998093E+01 0.  1.
</event>
<event>
 5   0  0.1471290E-02  0.7888112E+03  0.7818609E-02  0.9576355E-01
       -1   -1    0    0    0  501  0.00000000000E+00  0.00000000000E+00  0.97282873975E+02  0.97282874105E+02  0.50400001928E-02 0. -1.
        1   -1    0    0  501    0  0.00000000000E+00  0.00000000000E+00 -0.15990047048E+04  0.15990047048E+04  0.50400001928E-02 0.  1.
    10030    2    1    2    0    0  0.00000000000E+00  0.00000000000E+00 -0.15017218308E+04  0.16962875789E+04  0.78881118983E+03 0.  0.
        2    1    3    3  502    0  0.25042881476E+03  0.66387989640E+02 -0.13903536344E+04  0.14142861044E+04  0.25500000920E-02 0.  1.
       -2    1    3    3    0  502 -0.25042881476E+03 -0.66387989640E+02 -0.11136819640E+03  0.28200147448E+03  0.25500000920E-02 0. -1.
</event>
<event>
 5   0  0.1471290E-02  0.7933415E+03  0.7818609E-02  0.9569705E-01
        1   -1    0    0  501    0  0.00000000000E+00  0.00000000000E+00  0.16242382403E+03  0.16242382410E+03  0.50400001928E-02 0. -1.
       -1   -1    0    0    0  501  0.00000000000E+00  0.00000000000E+00 -0.96874748784E+03  0.96874748785E+03  0.50400001928E-02 0.  1.
    10030    2    1    2    0    0  0.00000000000E+00  0.00000000000E+00 -0.80632366381E+03  0.11311713120E+04  0.79334146883E+03 0.  0.
        2    1    3    3  502    0 -0.20363088114E+03 -0.32678753273E+03 -0.53911802528E+03  0.66249820565E+03  0.25500000920E-02 0.  1.
       -2    1    3    3    0  502  0.20363088114E+03  0.32678753273E+03 -0.26720563853E+03  0.46867310630E+03  0.25500000920E-02 0. -1.
</event>
<event>
 5   0  0.1509629E-02  0.7947866E+03  0.7818609E-02  0.9567594E-01
        1   -1    0    0  501    0  0.00000000000E+00  0.00000000000E+00  0.50330694654E+03  0.50330694657E+03  0.50400001928E-02 0. -1.
       -1   -1    0    0    0  501  0.00000000000E+00  0.00000000000E+00 -0.31376763149E+03  0.31376763153E+03  0.50400001928E-02 0.  1.
    10030    2    1    2    0    0  0.00000000000E+00  0.00000000000E+00  0.18953931505E+03  0.81707457810E+03  0.79478658407E+03 0.  0.
        5    1    3    3  502    0  0.37140311858E+03 -0.13558875089E+03  0.53973679263E+02  0.39907371989E+03  0.46999998093E+01 0.  1.
       -5    1    3    3    0  502 -0.37140311858E+03  0.13558875089E+03  0.13556563579E+03  0.41800085821E+03  0.46999998093E+01 0. -1.
</event>
<event>
 5   0  0.1509629E-02  0.7974733E+03  0.7818609E-02  0.9563682E-01
        1   -1    0    0  501    0  0.00000000000E+00  0.00000000000E+00  0.64607556667E+03  0.64607556669E+03  0.50400001928E-02 0. -1.
       -1   -1    0    0    0  501  0.00000000000E+00  0.00000000000E+00 -0.24608719897E+03  0.24608719902E+03  0.50400001928E-02 0.  1.
    10030    2    1    2    0    0  0.00000000000E+00  0.00000000000E+00  0.39998836771E+03  0.89216276571E+03  0.79747332634E+03 0.  0.
        5    1    3    3  502    0 -0.14849214994E+03 -0.26205772998E+03 -0.92261037294E+02  0.31505295021E+03  0.46999998093E+01 0.  1.
       -5    1    3    3    0  502  0.14849214994E+03  0.26205772998E+03  0.49224940500E+03  0.57710981551E+03  0.46999998093E+01 0. -1.
</event>
<event>
 5   0  0.1471290E-02  0.7666054E+03  0.7818609E-02  0.9609653E-01
        1   -1    0    0  501    0  0.00000000000E+00  0.00000000000E+00  0.43797310486E+03  0.43797310489E+03  0.50400001928E-02 0. -1.
       -1   -1    0    0    0  501  0.00000000000E+00  0.00000000000E+00 -0.33545659389E+03  0.33545659393E+03  0.50400001928E-02 0.  1.
    10030    2    1    2    0    0  0.00000000000E+00  0.00000000000E+00  0.10251651097E+03  0.77342969882E+03  0.76660541610E+03 0.  0.
        2    1    3    3  502    0  0.26213813270E+03  0.48827355302E+01  0.33335547525E+03  0.42410625391E+03  0.25500000920E-02 0. -1.
       -2    1    3    3    0  502 -0.26213813270E+03 -0.48827355302E+01 -0.23083896428E+03  0.34932344490E+03  0.25500000920E-02 0.  1.
</event>
<event>
 5   0  0.9919125E-03  0.8008478E+03  0.7818609E-02  0.9558791E-01
       -4   -1    0    0    0  501  0.00000000000E+00  0.00000000000E+00  0.62376016087E+03  0.62376145376E+03  0.12699999809E+01 0.  1.
        4   -1    0    0  501    0  0.00000000000E+00  0.00000000000E+00 -0.25704965471E+03  0.25705279202E+03  0.12699999809E+01 0. -1.
    10030    2    1    2    0    0  0.00000000000E+00  0.00000000000E+00  0.36671050616E+03  0.88081424578E+03  0.80084776346E+03 0.  0.
        3    1    3    3  502    0 -0.36441832547E+03 -0.85256706032E+02  0.33994368048E+03  0.50559978042E+03  0.10100000352E+00 0.  1.
       -3    1    3    3    0  502  0.36441832547E+03  0.85256706032E+02  0.26766825682E+02  0.37521446536E+03  0.10100000352E+00 0. -1.
</event>
<event>
 5   0  0.9919125E-03  0.8114971E+03  0.7818609E-02  0.9543523E-01
       -4   -1    0    0    0  501  0.00000000000E+00  0.00000000000E+00  0.75135690779E+03  0.75135798111E+03  0.12699999809E+01 0. -1.
        4   -1    0    0  501    0  0.00000000000E+00  0.00000000000E+00 -0.21910970244E+03  0.21911338298E+03  0.12699999809E+01 0.  1.
    10030    2    1    2    0    0  0.00000000000E+00  0.00000000000E+00  0.53224720535E+03  0.97047136410E+03  0.81149712318E+03 0.  0.
        2    1    3    3  502    0  0.12789366279E+02  0.29551663023E+03  0.59827082706E+03  0.66739915279E+03  0.25500000920E-02 0. -1.
       -2    1    3    3    0  502 -0.12789366279E+02 -0.29551663023E+03 -0.66023621704E+02  0.30307221130E+03  0.25500000920E-02 0.  1.
</event>
<event>
 5   0  0.2571778E-02  0.8038165E+03  0.7818609E-02  0.9554509E-01
       -2   -1    0    0    0  501  0.00000000000E+00  0.00000000000E+00  0.27218336336E+03  0.27218336337E+03  0.25500000920E-02 0. -1.
        2   -1    0    0  501    0  0.00000000000E+00  0.00000000000E+00 -0.59346112009E+03  0.59346112009E+03  0.25500000920E-02 0.  1.
    10030    2    1    2    0    0  0.00000000000E+00  0.00000000000E+00 -0.32127775673E+03  0.86564448347E+03  0.80381650567E+03 0.  0.
        1    1    3    3  502    0  0.33266097771E+03  0.21943242419E+03 -0.21676613493E+03  0.45365347144E+03  0.50400001928E-02 0.  1.
       -1    1    3    3    0  502 -0.33266097771E+03 -0.21943242419E+03 -0.10451162180E+03  0.41199101203E+03  0.50400001928E-02 0. -1.
</event>
<event>
 5   0  0.1509629E-02  0.7667504E+03  0.7818609E-02  0.9609432E-01
        1   -1    0    0  501    0  0.00000000000E+00  0.00000000000E+00  0.10841727409E+04  0.10841727409E+04  0.50400001928E-02 0. -1.
       -1   -1    0    0    0  501  0.00000000000E+00  0.00000000000E+00 -0.13556562114E+03  0.13556562124E+03  0.50400001928E-02 0.  1.
    10030    2    1    2    0    0  0.00000000000E+00  0.00000000000E+00  0.94860711977E+03  0.12197383622E+04  0.76675041862E+03 0.  0.
        5    1    3    3  502    0  0.15364495110E+02  0.32790088256E+03  0.15934573921E+03  0.36492219869E+03  0.46999998093E+01 0.  1.
       -5    1    3    3    0  502 -0.15364495110E+02 -0.32790088256E+03  0.78926138057E+03  0.85481616348E+03  0.46999998093E+01 0. -1.
</event>
<event>
 5   0  0.1471290E-02  0.7778126E+03  0.7818609E-02  0.9592700E-01
        1   -1    0    0  501    0  0.00000000000E+00  0.00000000000E+00  0.58215848317E+03  0.58215848319E+03  0.50400001928E-02 0. -1.
       -1   -1    0    0    0  501  0.00000000000E+00  0.00000000000E+00 -0.25980573030E+03  0.25980573035E+03  0.50400001928E-02 0.  1.
    10030    2    1    2    0    0  0.00000000000E+00  0.00000000000E+00  0.32235275287E+03  0.84196421354E+03  0.77781259928E+03 0.  0.
        2    1    3    3  502    0 -0.17332496641E+03 -0.23832309023E+03  0.43589672365E+03  0.52616099533E+03  0.25500000920E-02 0. -1.
       -2    1    3    3    0  502  0.17332496641E+03  0.23832309023E+03 -0.11354397078E+03  0.31580321820E+03  0.25500000920E-02 0.  1.
</event>
<event>
 5   0  0.1523811E-02  0.7955342E+03  0.7818609E-02  0.9566504E-01
        1   -1    0    0  501    0  0.00000000000E+00  0.00000000000E+00  0.66469414865E+03  0.66469414867E+03  0.50400001928E-02 0. -1.
       -1   -1    0    0    0  501  0.00000000000E+00  0.00000000000E+00 -0.23803230968E+03  0.23803230973E+03  0.50400001928E-02 0.  1.
    10030    2    1    2    0    0  0.00000000000E+00  0.00000000000E+00  0.42666183897E+03  0.90272645840E+03  0.79553424430E+03 0.  0.
        1    1    3    3  502    0  0.21791120911E+03 -0.16991452196E+03 -0.11133719947E+03  0.29791309444E+03  0.50400001928E-02 0.  1.
       -1    1    3    3    0  502 -0.21791120911E+03  0.16991452196E+03  0.53799903844E+03  0.60481336396E+03  0.50400001928E-02 0. -1.
</event>
<event>
 5   0  0.2454354E-02  0.7827603E+03  0.7818609E-02  0.9585312E-01
       -2   -1    0    0    0  501  0.00000000000E+00  0.00000000000E+00  0.76609740601E+03  0.76609740602E+03  0.25500000920E-02 0.  1.
        2   -1    0    0  501    0  0.00000000000E+00  0.00000000000E+00 -0.19994637962E+03  0.19994637964E+03  0.25500000920E-02 0. -1.
    10030    2    1    2    0    0  0.00000000000E+00  0.00000000000E+00  0.56615102639E+03  0.96604378566E+03  0.78276025137E+03 0.  0.
        5    1    3    3  502    0 -0.24033627673E+03 -0.54135703376E+02  0.65835484774E+03  0.70295476087E+03  0.46999998093E+01 0.  1.
       -5    1    3    3    0  502  0.24033627673E+03  0.54135703376E+02 -0.92203821348E+02  0.26308902479E+03  0.46999998093E+01 0. -1.
</event>
<event>
 5   0  0.2454354E-02  0.8072257E+03  0.7818609E-02  0.9549617E-01
        2   -1    0    0  501    0  0.00000000000E+00  0.00000000000E+00  0.70539980884E+03  0.70539980884E+03  0.25500000920E-02 0.  1.
       -2   -1    0    0    0  501  0.00000000000E+00  0.00000000000E+00 -0.23093759667E+03  0.23093759668E+03  0.25500000920E-02 0. -1.
    10030    2    1    2    0    0  0.00000000000E+00  0.00000000000E+00  0.47446221217E+03  0.93633740552E+03  0.80722570958E+03 0.  0.
        5    1    3    3  502    0 -0.19057039815E+03  0.23042280375E+03 -0.77174972663E+02  0.30885241062E+03  0.46999998093E+01 0. -1.
       -5    1    3    3    0  502  0.19057039815E+03 -0.23042280375E+03  0.55163718483E+03  0.62748499490E+03  0.46999998093E+01 0.  1.
</event>
<event>
 5   0  0.2422031E-02  0.7816266E+03  0.7818609E-02  0.9586999E-01
       -2   -1    0    0    0  501  0.00000000000E+00  0.00000000000E+00  0.10739229557E+03  0.10739229560E+03  0.25500000920E-02 0. -1.
        2   -1    0    0  501    0  0.00000000000E+00  0.00000000000E+00 -0.14222157956E+04  0.14222157956E+04  0.25500000920E-02 0.  1.
    10030    2    1    2    0    0  0.00000000000E+00  0.00000000000E+00 -0.13148235001E+04  0.15296080912E+04  0.78162655819E+03 0.  0.
        4    1    3    3  502    0  0.81922636058E+02  0.32715822152E+03 -0.27099568228E+03  0.43264777004E+03  0.12699999809E+01 0. -1.
       -4    1    3    3    0  502 -0.81922636058E+02 -0.32715822152E+03 -0.10438278178E+04  0.10969603212E+04  0.12699999809E+01 0.  1.
</event>
<event>
 5   0  0.1509629E-02  0.7904081E+03  0.7818609E-02  0.9574006E-01
       -1   -1    0    0    0  501  0.00000000000E+00  0.00000000000E+00  0.48928976312E+03  0.48928976314E+03  0.50400001928E-02 0.  1.
        1   -1    0    0  501    0  0.00000000000E+00  0.00000000000E+00 -0.31921011657E+03  0.31921011661E+03  0.50400001928E-02 0. -1.
    10030    2    1    2    0    0  0.00000000000E+00  0.00000000000E+00  0.17007964655E+03  0.80849987975E+03  0.79040810307E+03 0.  0.
        5    1    3    3  502    0  0.52814757178E+01 -0.66869404627E+02 -0.31331574282E+03  0.32045008341E+03  0.46999998093E+01 0. -1.
       -5    1    3    3    0  502 -0.52814757178E+01  0.66869404627E+02  0.48339538936E+03  0.48804979635E+03  0.46999998093E+01 0.  1.
</event>
<event>
 5   0  0.2460312E-02  0.7917924E+03  0.7818609E-02  0.9571974E-01
       -2   -1    0    0    0  501  0.00000000000E+00  0.00000000000E+00  0.10139737689E+03  0.10139737692E+03  0.25500000920E-02 0. -1.
        2   -1    0    0  501    0  0.00000000000E+00  0.00000000000E+00 -0.15457381330E+04  0.15457381330E+04  0.25500000920E-02 0.  1.
    10030    2    1    2    0    0  0.00000000000E+00  0.00000000000E+00 -0.14443407561E+04  0.16471355099E+04  0.79179237700E+03 0.  0.
        2    1    3    3  502    0 -0.19689907023E+03 -0.27918429582E+03 -0.11383302778E+04  0.11884901919E+04  0.25500000920E-02 0.  1.
       -2    1    3    3    0  502  0.19689907023E+03  0.27918429582E+03 -0.30601047829E+03  0.45864531800E+03  0.25500000920E-02 0. -1.
</event>
<event>
 5   0  0.1471290E-02  0.8005768E+03  0.7818609E-02  0.9559183E-01
        1   -1    0    0  501    0  0.00000000000E+00  0.00000000000E+00  0.59271497049E+03  0.59271497051E+03  0.50400001928E-02 0.  1.
       -1   -1    0    0    0  501  0.00000000000E+00  0.00000000000E+00 -0.27033364904E+03  0.27033364908E+03  0.50400001928E-02 0. -1.
    10030    2    1    2    0    0  0.00000000000E+00  0.00000000000E+00  0.32238132145E+03  0.86304861960E+03  0.80057679417E+03 0.  0.
        2    1    3    3  502    0 -0.18326491623E+03  0.11119966880E+03 -0.20324112588E+03  0.29539524560E+03  0.25500000920E-02 0. -1.
       -2    1    3    3    0  502  0.18326491623E+03 -0.11119966880E+03  0.52562244734E+03  0.56765337400E+03  0.25500000920E-02 0.  1.
</event>
<event>
 5   0  0.2460312E-02  0.7827845E+03  0.7818609E-02  0.9585276E-01
        2   -1    0    0  501    0  0.00000000000E+00  0.00000000000E+00  0.26156494446E+03  0.26156494447E+03  0.25500000920E-02 0. -1.
       -2   -1    0    0    0  501  0.00000000000E+00  0.00000000000E+00 -0.58565917616E+03  0.58565917617E+03  0.25500000920E-02 0.  1.
    10030    2    1    2    0    0  0.00000000000E+00  0.00000000000E+00 -0.32409423170E+03  0.84722412064E+03  0.78278454224E+03 0.  0.
        2    1    3    3  502    0 -0.33110794711E+03 -0.12468482017E+03  0.19089355263E+02  0.35432073113E+03  0.25500000920E-02 0. -1.
       -2    1    3    3    0  502  0.33110794711E+03  0.12468482017E+03 -0.34318358696E+03  0.49290338951E+03  0.25500000920E-02 0.  1.
</event>
<event>
 5   0  0.1509629E-02  0.7972456E+03  0.7818609E-02  0.9564013E-01
       -1   -1    0    0    0  501  0.00000000000E+00  0.00000000000E+00  0.10096478205E+03  0.10096478217E+03  0.50400001928E-02 0.  1.
        1   -1    0    0  501    0  0.00000000000E+00  0.00000000000E+00 -0.15738176084E+04  0.15738176084E+04  0.50400001928E-02 0. -1.
    10030    2    1    2    0    0  0.00000000000E+00  0.00000000000E+00 -0.14728528263E+04  0.16747823906E+04  0.79724563825E+03 0.  0.
        5    1    3    3  502    0  0.15783042998E+03  0.31303051448E+03 -0.33795801662E+03  0.48696638346E+03  0.46999998093E+01 0. -1.
       -5    1    3    3    0  502 -0.15783042998E+03 -0.31303051448E+03 -0.11348948097E+04  0.11878160071E+04  0.46999998093E+01 0.  1.
</event>
<event>
 5   0  0.2422031E-02  0.8588736E+03  0.7818609E-02  0.9478504E-01
       -2   -1    0    0    0  501  0.00000000000E+00  0.00000000000E+00  0.12924352861E+03  0.12924352863E+03  0.25500000920E-02 0. -1.
        2   -1    0    0  501    0  0.00000000000E+00  0.00000000000E+00 -0.14268873523E+04  0.14268873523E+04  0.25500000920E-02 0.  1.
    10030    2    1    2    0    0  0.00000000000E+00  0.00000000000E+00 -0.12976438237E+04  0.15561308809E+04  0.85887357943E+03 0.  0.
        4    1    3    3  502    0 -0.94043282264E+02  0.24144443419E+03 -0.12692896566E+04  0.12954680231E+04  0.12699999809E+01 0.  1.
       -4    1    3    3    0  502  0.94043282264E+02 -0.24144443419E+03 -0.28354167090E+02  0.26066285779E+03  0.12699999809E+01 0. -1.
</event>
<event>
 5   0  0.1523811E-02  0.8029533E+03  0.7818609E-02  0.9555752E-01
       -1   -1    0    0    0  501  0.00000000000E+00  0.00000000000E+00  0.74485597132E+03  0.74485597134E+03  0.50400001928E-02 0. -1.
        1   -1    0    0  501    0  0.00000000000E+00  0.00000000000E+00 -0.21639552551E+03  0.21639552557E+03  0.50400001928E-02 0.  1.
    10030    2    1    2    0    0  0.00000000000E+00  0.00000000000E+00  0.52846044581E+03  0.96125149691E+03  0.80295329723E+03 0.  0.
        1    1    3    3  502    0  0.37934251586E+03 -0.18173063786E+02  0.42010058805E+03  0.56631749814E+03  0.50400001928E-02 0. -1.
       -1    1    3    3    0  502 -0.37934251586E+03  0.18173063786E+02  0.10835985776E+03  0.39493399878E+03  0.50400001928E-02 0.  1.
</event>
<event>
 5   0  0.1509629E-02  0.7998418E+03  0.7818609E-02  0.9560246E-01
       -1   -1    0    0    0  501  0.00000000000E+00  0.00000000000E+00  0.25788730035E+03  0.25788730040E+03  0.50400001928E-02 0. -1.
        1   -1    0    0  501    0  0.00000000000E+00  0.00000000000E+00 -0.62018076560E+03  0.62018076562E+03  0.50400001928E-02 0.  1.
    10030    2    1    2    0    0  0.00000000000E+00  0.00000000000E+00 -0.36229346525E+03  0.87806806602E+03  0.79984184287E+03 0.  0.
        5    1    3    3  502    0  0.10837647381E+03 -0.21372747293E+03  0.17030387800E+03  0.29402447793E+03  0.46999998093E+01 0. -1.
       -5    1    3    3    0  502 -0.10837647381E+03  0.21372747293E+03 -0.53259734325E+03  0.58404358809E+03  0.46999998093E+01 0.  1.
</event>
<event>
 5   0  0.1498375E-02  0.8323768E+03  0.7818609E-02  0.9514300E-01
        1   -1    0    0  501    0  0.00000000000E+00  0.00000000000E+00  0.10723225764E+04  0.10723225764E+04  0.50400001928E-02 0.  1.
       -1   -1    0    0    0  501  0.00000000000E+00  0.00000000000E+00 -0.16153047712E+03  0.16153047720E+03  0.50400001928E-02 0. -1.
    10030    2    1    2    0    0  0.00000000000E+00  0.00000000000E+00  0.91079209926E+03  0.12338530536E+04  0.83237678354E+03 0.  0.
        4    1    3    3  502    0 -0.71964869712E+02  0.40850557485E+03  0.40500969591E+03  0.57973288145E+03  0.12699999809E+01 0. -1.
       -4    1    3    3    0  502  0.71964869712E+02 -0.40850557485E+03  0.50578240334E+03  0.65412017213E+03  0.12699999809E+01 0.  1.
</event>
<event>
 5   0  0.2460312E-02  0.7737788E+03  0.7818609E-02  0.9598766E-01
       -2   -1    0    0    0  501  0.00000000000E+00  0.00000000000E+00  0.21459497019E+03  0.21459497020E+03  0.25500000920E-02 0. -1.
        2   -1    0    0  501    0  0.00000000000E+00  0.00000000000E+00 -0.69751583348E+03  0.69751583349E+03  0.25500000920E-02 0.  1.
    10030    2    1    2    0    0  0.00000000000E+00  0.00000000000E+00 -0.48292086329E+03  0.91211080369E+03  0.77377875262E+03 0.  0.
        2    1    3    3  502    0  0.35302030144E+03  0.13128546194E+03 -0.13719260522E+03  0.40085036695E+03  0.25500000920E-02 0. -1.
       -2    1    3    3    0  502 -0.35302030144E+03 -0.13128546194E+03 -0.34572825807E+03  0.51126043675E+03  0.25500000920E-02 0.  1.
</event>
<event>
 5   0  0.2464780E-02  0.7927201E+03  0.7818609E-02  0.9570615E-01
       -2   -1    0    0    0  501  0.00000000000E+00  0.00000000000E+00  0.30486133739E+03  0.30486133740E+03  0.25500000920E-02 0. -1.
        2   -1    0    0  501    0  0.00000000000E+00  0.00000000000E+00 -0.51532048155E+03  0.51532048156E+03  0.25500000920E-02 0.  1.
    10030    2    1    2    0    0  0.00000000000E+00  0.00000000000E+00 -0.21045914417E+03  0.82018181896E+03  0.79272010494E+03 0.  0.
        3    1    3    3  502    0 -0.17345660220E+03  0.11957186176E+03 -0.45259318002E+03  0.49922461855E+03  0.10100000352E+00 0.  1.
       -3    1    3    3    0  502  0.17345660220E+03 -0.11957186176E+03  0.24213403585E+03  0.32095720040E+03  0.10100000352E+00 0. -1.
</event>
<event>
 5   0  0.1509629E-02  0.8201640E+03  0.7818609E-02  0.9531281E-01
        1   -1    0    0  501    0  0.00000000000E+00  0.00000000000E+00  0.45593370329E+03  0.45593370332E+03  0.50400001928E-02 0.  1.
       -1   -1    0    0    0  501  0.00000000000E+00  0.00000000000E+00 -0.36884142935E+03  0.36884142939E+03  0.50400001928E-02 0. -1.
    10030    2    1    2    0    0  0.00000000000E+00  0.00000000000E+00  0.87092273936E+02  0.82477513270E+03  0.82016398076E+03 0.  0.
        5    1    3    3  502    0 -0.77752004999E+02 -0.37840932560E+03 -0.94726579287E+02  0.39778663477E+03  0.46999998093E+01 0. -1.
       -5    1    3    3    0  502  0.77752004999E+02  0.37840932560E+03  0.18181885322E+03  0.42698849793E+03  0.46999998093E+01 0.  1.
</event>
<event>
 5   0  0.2454354E-02  0.8017232E+03  0.7818609E-02  0.9557526E-01
       -2   -1    0    0    0  501  0.00000000000E+00  0.00000000000E+00  0.23462721228E+03  0.23462721229E+03  0.25500000920E-02 0. -1.
        2   -1    0    0  501    0  0.00000000000E+00  0.00000000000E+00 -0.68487381197E+03  0.68487381198E+03  0.25500000920E-02 0.  1.
    10030    2    1    2    0    0  0.00000000000E+00  0.00000000000E+00 -0.45024659970E+03  0.91950102427E+03  0.80172322724E+03 0.  0.
        5    1    3    3  502    0 -0.38520303846E+03  0.69437103796E+02 -0.12603003384E+03  0.41122810173E+03  0.46999998093E+01 0. -1.
       -5    1    3    3    0  502  0.38520303846E+03 -0.69437103796E+02 -0.32421656585E+03  0.50827292254E+03  0.46999998093E+01 0.  1.
</event>
<event>
 5   0  0.2454354E-02  0.8021679E+03  0.7818609E-02  0.9556884E-01
        2   -1    0    0  501    0  0.00000000000E+00  0.00000000000E+00  0.20740338436E+03  0.20740338438E+03  0.25500000920E-02 0.  1.
       -2   -1    0    0    0  501  0.00000000000E+00  0.00000000000E+00 -0.77563031910E+03  0.77563031910E+03  0.25500000920E-02 0. -1.
    10030    2    1    2    0    0  0.00000000000E+00  0.00000000000E+00 -0.56822693473E+03  0.98303370348E+03  0.80216794552E+03 0.  0.
        5    1    3    3  502    0  0.69646699632E+02 -0.10053218473E+03 -0.75218712424E+03  0.76207935467E+03  0.46999998093E+01 0. -1.
       -5    1    3    3    0  502 -0.69646699632E+02  0.10053218473E+03  0.18396018951E+03  0.22095434881E+03  0.46999998093E+01 0.  1.
</event>
<event>
 5   0  0.2454354E-02  0.6848960E+03  0.7818609E-02  0.9743417E-01
       -2   -1    0    0    0  501  0.00000000000E+00  0.00000000000E+00  0.13037705050E+04  0.13037705050E+04  0.25500000920E-02 0.  1.
        2   -1    0    0  501    0  0.00000000000E+00  0.00000000000E+00 -0.89947287109E+02  0.89947287145E+02  0.25500000920E-02 0. -1.
    10030    2    1    2    0    0  0.00000000000E+00  0.00000000000E+00  0.12138232179E+04  0.13937177922E+04  0.68489596281E+03 0.  0.
        5    1    3    3  502    0  0.40025991226E+02  0.22109755443E+03  0.11327060046E+04  0.11547862103E+04  0.46999998093E+01 0.  1.
       -5    1    3    3    0  502 -0.40025991226E+02 -0.22109755443E+03  0.81117213330E+02  0.23893158193E+03  0.46999998093E+01 0. -1.
</event>
<event>
 5   0  0.1498375E-02  0.8278939E+03  0.7818609E-02  0.9520497E-01
       -1   -1    0    0    0  501  0.00000000000E+00  0.00000000000E+00  0.19797472719E+03  0.19797472725E+03  0.50400001928E-02 0. -1.
        1   -1    0    0  501    0  0.00000000000E+00  0.00000000000E+00 -0.86552507343E+03  0.86552507345E+03  0.50400001928E-02 0.  1.
    10030    2    1    2    0    0  0.00000000000E+00  0.00000000000E+00 -0.66755034624E+03  0.10634998007E+04  0.82789393120E+03 0.  0.
        4    1    3    3  502    0 -0.11682596450E+03  0.14293335735E+03 -0.80971719716E+03  0.83049491443E+03  0.12699999809E+01 0.  1.
       -4    1    3    3    0  502  0.11682596450E+03 -0.14293335735E+03  0.14216685092E+03  0.23300488627E+03  0.12699999809E+01 0. -1.
</event>
<event>
 5   0  0.2422031E-02  0.8032688E+03  0.7818609E-02  0.9555298E-01
       -2   -1    0    0    0  501  0.00000000000E+00  0.00000000000E+00  0.15039287836E+03  0.15039287838E+03  0.25500000920E-02 0.  1.
        2   -1    0    0  501    0  0.00000000000E+00  0.00000000000E+00 -0.10725918492E+04  0.10725918492E+04  0.25500000920E-02 0. -1.
    10030    2    1    2    0    0  0.00000000000E+00  0.00000000000E+00 -0.92219897084E+03  0.12229847276E+04  0.80326876080E+03 0.  0.
        4    1    3    3  502    0 -0.30488479912E+03 -0.25765274673E+03 -0.39354250662E+03  0.56055061864E+03  0.12699999809E+01 0. -1.
       -4    1    3    3    0  502  0.30488479912E+03  0.25765274673E+03 -0.52865646422E+03  0.66243410895E+03  0.12699999809E+01 0.  1.
</event>
<event>
 5   0  0.1498375E-02  0.8100157E+03  0.7818609E-02  0.9545632E-01
       -1   -1    0    0    0  501  0.00000000000E+00  0.00000000000E+00  0.15189381251E+03  0.15189381260E+03  0.50400001928E-02 0.  1.
        1   -1    0    0  501    0  0.00000000000E+00  0.00000000000E+00 -0.10799081270E+04  0.10799081271E+04  0.50400001928E-02 0. -1.
    10030    2    1    2    0    0  0.00000000000E+00  0.00000000000E+00 -0.92801431453E+03  0.12318019397E+04  0.81001571007E+03 0.  0.
        4    1    3    3  502    0 -0.17875725687E+03 -0.14032717963E+02  0.88241578433E+02  0.19984810012E+03  0.12699999809E+01 0.  1.
       -4    1    3    3    0  502  0.17875725687E+03  0.14032717963E+02 -0.10162558930E+04  0.10319538395E+04  0.12699999809E+01 0. -1.
</event>
<event>
 5   0  0.9919125E-03  0.7988907E+03  0.7818609E-02  0.9561624E-01
        3   -1    0    0  501    0  0.00000000000E+00  0.00000000000E+00  0.38434135230E+03  0.38434136557E+03  0.10100000352E+00 0. -1.
       -3   -1    0    0    0  501  0.00000000000E+00  0.00000000000E+00 -0.41514283337E+03  0.41514284565E+03  0.10100000352E+00 0.  1.
    10030    2    1    2    0    0  0.00000000000E+00  0.00000000000E+00 -0.30801481063E+02  0.79948421122E+03  0.79889065132E+03 0.  0.
        1    1    3    3  502    0  0.34173087950E+03  0.46326018224E+02  0.18631904506E+03  0.39197050979E+03  0.50400001928E-02 0. -1.
       -1    1    3    3    0  502 -0.34173087950E+03 -0.46326018224E+02 -0.21712052612E+03  0.40751370143E+03  0.50400001928E-02 0.  1.
</event>
<event>
 5   0  0.1523811E-02  0.8030189E+03  0.7818609E-02  0.9555658E-01
        1   -1    0    0  501    0  0.00000000000E+00  0.00000000000E+00  0.54209771081E+03  0.54209771083E+03  0.50400001928E-02 0. -1.
       -1   -1    0    0    0  501  0.00000000000E+00  0.00000000000E+00 -0.29738150830E+03  0.29738150834E+03  0.50400001928E-02 0.  1.
    10030    2    1    2    0    0  0.00000000000E+00  0.00000000000E+00  0.24471620251E+03  0.83947921917E+03  0.80301889122E+03 0.  0.
        1    1    3    3  502    0  0.66034165663E+01 -0.20257701814E+03  0.48469096254E+03  0.52536309595E+03  0.50400001928E-02 0. -1.
       -1    1    3    3    0  502 -0.66034165663E+01  0.20257701814E+03 -0.23997476003E+03  0.31411612322E+03  0.50400001928E-02 0.  1.
</event>
<event>
 5   0  0.1471290E-02  0.8033453E+03  0.7818609E-02  0.9555187E-01
       -1   -1    0    0    0  501  0.00000000000E+00  0.00000000000E+00  0.20771045890E+03  0.20771045896E+03  0.50400001928E-02 0.  1.
        1   -1    0    0  501    0  0.00000000000E+00  0.00000000000E+00 -0.77675881585E+03  0.77675881587E+03  0.50400001928E-02 0. -1.
    10030    2    1    2    0    0  0.00000000000E+00  0.00000000000E+00 -0.56904835696E+03  0.98446927483E+03  0.80334533080E+03 0.  0.
        2    1    3    3  502    0  0.22042693353E+03  0.12221926457E+03  0.98744558730E+02  0.27069552923E+03  0.25500000920E-02 0.  1.
       -2    1    3    3    0  502 -0.22042693353E+03 -0.12221926457E+03 -0.66779291569E+03  0.71377374560E+03  0.25500000920E-02 0. -1.
</event>
<event>
 5   0  0.2422031E-02  0.7982489E+03  0.7818609E-02  0.9562555E-01
       -2   -1    0    0    0  501  0.00000000000E+00  0.00000000000E+00  0.71088011553E+03  0.71088011554E+03  0.25500000920E-02 0. -1.
        2   -1    0    0  501    0  0.00000000000E+00  0.00000000000E+00 -0.22408886508E+03  0.22408886509E+03  0.25500000920E-02 0.  1.
    10030    2    1    2    0    0  0.00000000000E+00  0.00000000000E+00  0.48679125046E+03  0.93496898063E+03  0.79824887925E+03 0.  0.
        4    1    3    3  502    0 -0.16431615922E+02 -0.18735084926E+03 -0.16893372352E+03  0.25280536894E+03  0.12699999809E+01 0.  1.
       -4    1    3    3    0  502  0.16431615922E+02  0.18735084926E+03  0.65572497398E+03  0.68216361169E+03  0.12699999809E+01 0. -1.
</event>
<event>
 5   0  0.1498375E-02  0.8529489E+03  0.7818609E-02  0.9486388E-01
       -1   -1    0    0    0  501  0.00000000000E+00  0.00000000000E+00  0.74613634342E+03  0.74613634344E+03  0.50400001928E-02 0. -1.
        1   -1    0    0  501    0  0.00000000000E+00  0.00000000000E+00 -0.24376305009E+03  0.24376305014E+03  0.50400001928E-02 0.  1.
    10030    2    1    2    0    0  0.00000000000E+00  0.00000000000E+00  0.50237329334E+03  0.98989939358E+03  0.85294893373E+03 0.  0.
        4    1    3    3  502    0  0.66836409957E+02  0.18524298151E+03 -0.18783200695E+03  0.27214801787E+03  0.12699999809E+01 0.  1.
       -4    1    3    3    0  502 -0.66836409957E+02 -0.18524298151E+03  0.69020530029E+03  0.71775137571E+03  0.12699999809E+01 0. -1.
</event>
<event>
 5   0  0.1523811E-02  0.8055438E+03  0.7818609E-02  0.9552027E-01
       -1   -1    0    0    0  501  0.00000000000E+00  0.00000000000E+00  0.28724413091E+03  0.28724413095E+03  0.50400001928E-02 0.  1.
        1   -1    0    0  501    0  0.00000000000E+00  0.00000000000E+00 -0.56476419939E+03  0.56476419941E+03  0.50400001928E-02 0. -1.
    10030    2    1    2    0    0  0.00000000000E+00  0.00000000000E+00 -0.27752006848E+03  0.85200833036E+03  0.80554379558E+03 0.  0.
        1    1    3    3  502    0  0.37793446374E+03 -0.36332672866E+02  0.34210845184E+01  0.37969227784E+03  0.50400001928E-02 0.  1.
       -1    1    3    3    0  502 -0.37793446374E+03  0.36332672866E+02 -0.28094115300E+03  0.47231605253E+03  0.50400001928E-02 0. -1.
</event>
<event>
 5   0  0.2571778E-02  0.7933575E+03  0.7818609E-02  0.9569682E-01
        2   -1    0    0  501    0  0.00000000000E+00  0.00000000000E+00  0.65893610860E+03  0.65893610860E+03  0.25500000920E-02 0.  1.
       -2   -1    0    0    0  501  0.00000000000E+00  0.00000000000E+00 -0.23880015953E+03  0.23880015954E+03  0.25500000920E-02 0. -1.
    10030    2    1    2    0    0  0.00000000000E+00  0.00000000000E+00  0.42013594907E+03  0.89773626814E+03  0.79335754326E+03 0.  0.
        1    1    3    3  502    0  0.37253066040E+03  0.48538248726E+02  0.35417719294E+03  0.51631050595E+03  0.50400001928E-02 0.  1.
       -1    1    3    3    0  502 -0.37253066040E+03 -0.48538248726E+02  0.65958756124E+02  0.38142576219E+03  0.50400001928E-02 0. -1.
</event>
<event>
 5   0  0.2454354E-02  0.8041060E+03  0.7818609E-02  0.9554093E-01
        2   -1    0    0  501    0  0.00000000000E+00  0.00000000000E+00  0.12329046739E+04  0.12329046739E+04  0.25500000920E-02 0.  1.
       -2   -1    0    0    0  501  0.00000000000E+00  0.00000000000E+00 -0.13111040002E+03  0.13111040005E+03  0.25500000920E-02 0. -1.
    10030    2    1    2    0    0  0.00000000000E+00  0.00000000000E+00  0.11017942738E+04  0.13640150739E+04  0.80410602535E+03 0.  0.
        5    1    3    3  502    0 -0.34336836971E+03 -0.16838837649E+03  0.76118551384E+03  0.85186968436E+03  0.46999998093E+01 0.  1.
       -5    1    3    3    0  502  0.34336836971E+03  0.16838837649E+03  0.34060876000E+03  0.51214538956E+03  0.46999998093E+01 0. -1.
</event>
<event>
 5   0  0.1498375E-02  0.7691717E+03  0.7818609E-02  0.9605744E-01
        1   -1    0    0  501    0  0.00000000000E+00  0.00000000000E+00  0.67705765759E+03  0.67705765761E+03  0.50400001928E-02 0. -1.
       -1   -1    0    0    0  501  0.00000000000E+00  0.00000000000E+00 -0.21845448530E+03  0.21845448535E+03  0.50400001928E-02 0.  1.
    10030    2    1    2    0    0  0.00000000000E+00  0.00000000000E+00  0.45860317230E+03  0.89551214297E+03  0.76917171591E+03 0.  0.
        4    1    3    3  502    0 -0.48000918349E+02  0.24927011591E+03  0.56565849073E+03  0.62000872565E+03  0.12699999809E+01 0. -1.
       -4    1    3    3    0  502  0.48000918349E+02 -0.24927011591E+03 -0.10705531843E+03  0.27550341732E+03  0.12699999809E+01 0.  1.
</event>
<event>
 5   0  0.2422031E-02  0.8122917E+03  0.7818609E-02  0.9542394E-01
       -2   -1    0    0    0  501  0.00000000000E+00  0.00000000000E+00  0.41886460175E+03  0.41886460176E+03  0.25500000920E-02 0.  1.
        2   -1    0    0  501    0  0.00000000000E+00  0.00000000000E+00 -0.39381329584E+03  0.39381329585E+03  0.25500000920E-02 0. -1.
    10030    2    1    2    0    0  0.00000000000E+00  0.00000000000E+00  0.25051305912E+02  0.81267789761E+03  0.81229169473E+03 0.  0.
        4    1    3    3  502    0  0.25205137368E+03 -0.10036215470E+03  0.31491160636E+03  0.41566018548E+03  0.12699999809E+01 0.  1.
       -4    1    3    3    0  502 -0.25205137368E+03  0.10036215470E+03 -0.28986030045E+03  0.39701771213E+03  0.12699999809E+01 0. -1.
</event>
<event>
 5   0  0.2460312E-02  0.8146130E+03  0.7818609E-02  0.9539103E-01
        2   -1    0    0  501    0  0.00000000000E+00  0.00000000000E+00  0.65676249622E+03  0.65676249622E+03  0.25500000920E-02 0.  1.
       -2   -1    0    0    0  501  0.00000000000E+00  0.00000000000E+00 -0.25260055701E+03  0.25260055703E+03  0.25500000920E-02 0. -1.
    10030    2    1    2    0    0  0.00000000000E+00  0.00000000000E+00  0.40416193920E+03  0.90936305325E+03  0.81461296915E+03 0.  0.
        2    1    3    3  502    0  0.24639013136E+03  0.32008169389E+03  0.26049502539E+03  0.48064336659E+03  0.25500000920E-02 0.  1.
       -2    1    3    3    0  502 -0.24639013136E+03 -0.32008169389E+03  0.14366691382E+03  0.42871968666E+03  0.25500000920E-02 0. -1.
</event>
<event>
 5   0  0.1523811E-02  0.7988223E+03  0.7818609E-02  0.9561723E-01
        1   -1    0    0  501    0  0.00000000000E+00  0.00000000000E+00  0.15868299390E+04  0.15868299390E+04  0.50400001928E-02 0. -1.
       -1   -1    0    0    0  501  0.00000000000E+00  0.00000000000E+00 -0.10053330517E+03  0.10053330530E+03  0.50400001928E-02 0.  1.
    10030    2    1    2    0    0  0.00000000000E+00  0.00000000000E+00  0.14862966338E+04  0.16873632443E+04  0.79882227966E+03 0.  0.
        1    1    3    3  502    0 -0.25354331916E+03  0.15378929589E+03  0.13083408491E+04  0.13415256761E+04  0.50400001928E-02 0. -1.
       -1    1    3    3    0  502  0.25354331916E+03 -0.15378929589E+03  0.17795578471E+03  0.34583756817E+03  0.50400001928E-02 0.  1.
</event>
<event>
 5   0  0.2460312E-02  0.7901311E+03  0.7818609E-02  0.9574413E-01
       -2   -1    0    0    0  501  0.00000000000E+00  0.00000000000E+00  0.22603339441E+03  0.22603339443E+03  0.25500000920E-02 0. -1.
        2   -1    0    0  501    0  0.00000000000E+00  0.00000000000E+00 -0.69050314482E+03  0.69050314482E+03  0.25500000920E-02 0.  1.
    10030    2    1    2    0    0  0.00000000000E+00  0.00000000000E+00 -0.46446975040E+03  0.91653653925E+03  0.79013105162E+03 0.  0.
        2    1    3    3  502    0  0.31206481490E+03 -0.22176274337E+03 -0.11909303213E+03  0.40093180636E+03  0.25500000920E-02 0. -1.
       -2    1    3    3    0  502 -0.31206481490E+03  0.22176274337E+03 -0.34537671827E+03  0.51560473289E+03  0.25500000920E-02 0.  1.
</event>
<event>
 5   0  0.1471290E-02  0.7595163E+03  0.7818609E-02  0.9620538E-01
        1   -1    0    0  501    0  0.00000000000E+00  0.00000000000E+00  0.88425598211E+03  0.88425598213E+03  0.50400001928E-02 0.  1.
       -1   -1    0    0    0  501  0.00000000000E+00  0.00000000000E+00 -0.16309332133E+03  0.16309332141E+03  0.50400001928E-02 0. -1.
    10030    2    1    2    0    0  0.00000000000E+00  0.00000000000E+00  0.72116266078E+03  0.10473493035E+04  0.75951628047E+03 0.  0.
        2    1    3    3  502    0 -0.59842705986E+01  0.97660891113E+02  0.86657607020E+03  0.87208230495E+03  0.25500000920E-02 0.  1.
       -2    1    3    3    0  502  0.59842705986E+01 -0.97660891113E+02 -0.14541340942E+03  0.17526699858E+03  0.25500000920E-02 0. -1.
</event>
<event>
 5   0  0.1498375E-02  0.7995225E+03  0.7818609E-02  0.9560709E-01
        1   -1    0    0  501    0  0.00000000000E+00  0.00000000000E+00  0.64653193723E+03  0.64653193725E+03  0.50400001928E-02 0.  1.
       -1   -1    0    0    0  501  0.00000000000E+00  0.00000000000E+00 -0.24717889344E+03  0.24717889349E+03  0.50400001928E-02 0. -1.
    10030    2    1    2    0    0  0.00000000000E+00  0.00000000000E+00  0.39935304379E+03  0.89371083074E+03  0.79952247961E+03 0.  0.
        4    1    3    3  502    0 -0.17894319925E+03  0.26596185805E+03 -0.67315442940E+02  0.32755054610E+03  0.12699999809E+01 0. -1.
       -4    1    3    3    0  502  0.17894319925E+03 -0.26596185805E+03  0.46666848673E+03  0.56616028464E+03  0.12699999809E+01 0.  1.
</event>
<event>
 5   0  0.2571778E-02  0.7989451E+03  0.7818609E-02  0.9561545E-01
       -2   -1    0    0    0  501  0.00000000000E+00  0.00000000000E+00  0.13017279689E+03  0.13017279692E+03  0.25500000920E-02 0. -1.
        2   -1    0    0  501    0  0.00000000000E+00  0.00000000000E+00 -0.12258961953E+04  0.12258961953E+04  0.25500000920E-02 0.  1.
    10030    2    1    2    0    0  0.00000000000E+00  0.00000000000E+00 -0.10957233985E+04  0.13560689923E+04  0.79894514572E+03 0.  0.
        1    1    3    3  502    0  0.13385888467E+03 -0.34082750347E+03 -0.27683802937E+03  0.45904344311E+03  0.50400001928E-02 0. -1.
       -1    1    3    3    0  502 -0.13385888467E+03  0.34082750347E+03 -0.81888536908E+03  0.89702554916E+03  0.50400001928E-02 0.  1.
</event>
<event>
 5   0  0.2460312E-02  0.7669035E+03  0.7818609E-02  0.9609198E-01
        2   -1    0    0  501    0  0.00000000000E+00  0.00000000000E+00  0.14239837984E+03  0.14239837986E+03  0.25500000920E-02 0.  1.
       -2   -1    0    0    0  501  0.00000000000E+00  0.00000000000E+00 -0.10325626917E+04  0.10325626917E+04  0.25500000920E-02 0. -1.
    10030    2    1    2    0    0  0.00000000000E+00  0.00000000000E+00 -0.89016431181E+03  0.11749610715E+04  0.76690352559E+03 0.  0.
        2    1    3    3  502    0 -0.73613953878E+02  0.10405608047E+02 -0.10214147534E+04  0.10241168827E+04  0.25500000920E-02 0. -1.
       -2    1    3    3    0  502  0.73613953878E+02 -0.10405608047E+02  0.13125044159E+03  0.15084418885E+03  0.25500000920E-02 0.  1.
</event>
<event>
 5   0  0.1523811E-02  0.6962093E+03  0.7818609E-02  0.9723737E-01
       -1   -1    0    0    0  501  0.00000000000E+00  0.00000000000E+00  0.48403994708E+03  0.48403994710E+03  0.50400001928E-02 0. -1.
        1   -1    0    0  501    0  0.00000000000E+00  0.00000000000E+00 -0.25034473534E+03  0.25034473539E+03  0.50400001928E-02 0.  1.
    10030    2    1    2    0    0  0.00000000000E+00  0.00000000000E+00  0.23369521173E+03  0.73438468250E+03  0.69620931472E+03 0.  0.
        1    1    3    3  502    0 -0.46205073029E+02 -0.30313537823E+03  0.29065801614E+03  0.42250212861E+03  0.50400001928E-02 0. -1.
       -1    1    3    3    0  502  0.46205073029E+02  0.30313537823E+03 -0.56962804407E+02  0.31188255389E+03  0.50400001928E-02 0.  1.
</event>
<event>
 5   0  0.1471290E-02  0.7935620E+03  0.7818609E-02  0.9569383E-01
       -1   -1    0    0    0  501  0.00000000000E+00  0.00000000000E+00  0.69110574279E+03  0.69110574280E+03  0.50400001928E-02 0.  1.
        1   -1    0    0  501    0  0.00000000000E+00  0.00000000000E+00 -0.22780185607E+03  0.22780185613E+03  0.50400001928E-02 0. -1.
    10030    2    1    2    0    0  0.00000000000E+00  0.00000000000E+00  0.46330388671E+03  0.91890759893E+03  0.79356202274E+03 0.  0.
        2    1    3    3  502    0  0.94166323517E+02  0.18672401185E+00 -0.21467527406E+03  0.23442014557E+03  0.25500000920E-02 0. -1.
       -2    1    3    3    0  502 -0.94166323517E+02 -0.18672401185E+00  0.67797916078E+03  0.68448745336E+03  0.25500000920E-02 0.  1.
</event>
<event>
 5   0  0.2571778E-02  0.5849551E+03  0.7818609E-02  0.9937121E-01
        2   -1    0    0  501    0  0.00000000000E+00  0.00000000000E+00  0.66533229243E+03  0.66533229243E+03  0.25500000920E-02 0. -1.
       -2   -1    0    0    0  501  0.00000000000E+00  0.00000000000E+00 -0.12857201917E+03  0.12857201920E+03  0.25500000920E-02 0.  1.
    10030    2    1    2    0    0  0.00000000000E+00  0.00000000000E+00  0.53676027325E+03  0.79390431163E+03  0.58495509663E+03 0.  0.
        1    1    3    3  502    0  0.39694330624E+02 -0.15592525562E+03  0.59986850622E+03  0.62107209727E+03  0.50400001928E-02 0. -1.
       -1    1    3    3    0  502 -0.39694330624E+02  0.15592525562E+03 -0.63108232968E+02  0.17283221436E+03  0.50400001928E-02 0.  1.
</event>
<event>
 5   0  0.1471290E-02  0.8003500E+03  0.7818609E-02  0.9559511E-01
       -1   -1    0    0    0  501  0.00000000000E+00  0.00000000000E+00  0.16378425132E+03  0.16378425140E+03  0.50400001928E-02 0.  1.
        1   -1    0    0  501    0  0.00000000000E+00  0.00000000000E+00 -0.97774990521E+03  0.97774990523E+03  0.50400001928E-02 0. -1.
    10030    2    1    2    0    0  0.00000000000E+00  0.00000000000E+00 -0.81396565389E+03  0.11415341566E+04  0.80035001407E+03 0.  0.
        2    1    3    3  502    0 -0.18436001517E+03 -0.42075197418E+02  0.96038210421E+02  0.21209025272E+03  0.25500000920E-02 0.  1.
       -2    1    3    3    0  502  0.18436001517E+03  0.42075197418E+02 -0.91000386431E+03  0.92944390390E+03  0.25500000920E-02 0. -1.
</event>
<event>
 5   0  0.1523811E-02  0.6236968E+03  0.7818609E-02  0.9857427E-01
        1   -1    0    0  501    0  0.00000000000E+00  0.00000000000E+00  0.83469813848E+03  0.83469813850E+03  0.50400001928E-02 0. -1.
       -1   -1    0    0    0  501  0.00000000000E+00  0.00000000000E+00 -0.11650850083E+03  0.11650850094E+03  0.50400001928E-02 0.  1.
    10030    2    1    2    0    0  0.00000000000E+00  0.00000000000E+00  0.71818963765E+03  0.95120663944E+03  0.62369681360E+03 0.  0.
        1    1    3    3  502    0  0.19684982578E+03 -0.17985644755E+03  0.11246394926E+03  0.28938959128E+03  0.50400001928E-02 0. -1.
       -1    1    3    3    0  502 -0.19684982578E+03  0.17985644755E+03  0.60572568839E+03  0.66181704816E+03  0.50400001928E-02 0.  1.
</event>
<event>
 5   0  0.2422031E-02  0.8089353E+03  0.7818609E-02  0.9547173E-01
       -2   -1    0    0    0  501  0.00000000000E+00  0.00000000000E+00  0.67120827602E+03  0.67120827603E+03  0.25500000920E-02 0.  1.
        2   -1    0    0  501    0  0.00000000000E+00  0.00000000000E+00 -0.24373070404E+03  0.24373070406E+03  0.25500000920E-02 0. -1.
    10030    2    1    2    0    0  0.00000000000E+00  0.00000000000E+00  0.42747757198E+03  0.91493898008E+03  0.80893526486E+03 0.  0.
        4    1    3    3  502    0  0.13895304838E+03  0.35347952511E+03  0.56460103880E+02  0.38398578171E+03  0.12699999809E+01 0. -1.
       -4    1    3    3    0  502 -0.13895304838E+03 -0.35347952511E+03  0.37101746810E+03  0.53095319837E+03  0.12699999809E+01 0.  1.
</event>
<event>
 5   0  0.2422031E-02  0.8035632E+03  0.7818609E-02  0.9554874E-01
        2   -1    0    0  501    0  0.00000000000E+00  0.00000000000E+00  0.86739224734E+02  0.86739224772E+02  0.25500000920E-02 0.  1.
       -2   -1    0    0    0  501  0.00000000000E+00  0.00000000000E+00 -0.18610777292E+04  0.18610777292E+04  0.25500000920E-02 0. -1.
    10030    2    1    2    0    0  0.00000000000E+00  0.00000000000E+00 -0.17743385044E+04  0.19478169540E+04  0.80356316351E+03 0.  0.
        4    1    3    3  502    0  0.34621090748E+03  0.33841818130E+02 -0.13745001436E+04  0.14178362102E+04  0.12699999809E+01 0.  1.
       -4    1    3    3    0  502 -0.34621090748E+03 -0.33841818130E+02 -0.39983836082E+03  0.52998074379E+03  0.12699999809E+01 0. -1.
</event>
<event>
 5   0  0.2422031E-02  0.8042564E+03  0.7818609E-02  0.9553876E-01
       -2   -1    0    0    0  501  0.00000000000E+00  0.00000000000E+00  0.17246522014E+03  0.17246522015E+03  0.25500000920E-02 0.  1.
        2   -1    0    0  501    0  0.00000000000E+00  0.00000000000E+00 -0.93762147857E+03  0.93762147857E+03  0.25500000920E-02 0. -1.
    10030    2    1    2    0    0  0.00000000000E+00  0.00000000000E+00 -0.76515625843E+03  0.11100866987E+04  0.80425641364E+03 0.  0.
        4    1    3    3  502    0  0.25268459520E+03  0.28736076188E+03 -0.21196173075E+03  0.43744153932E+03  0.12699999809E+01 0.  1.
       -4    1    3    3    0  502 -0.25268459520E+03 -0.28736076188E+03 -0.55319452769E+03  0.67264515941E+03  0.12699999809E+01 0. -1.
</event>
<event>
 5   0  0.2464780E-02  0.8100564E+03  0.7818609E-02  0.9545574E-01
       -2   -1    0    0    0  501  0.00000000000E+00  0.00000000000E+00  0.26945721903E+03  0.26945721904E+03  0.25500000920E-02 0.  1.
        2   -1    0    0  501    0  0.00000000000E+00  0.00000000000E+00 -0.60880854273E+03  0.60880854273E+03  0.25500000920E-02 0. -1.
    10030    2    1    2    0    0  0.00000000000E+00  0.00000000000E+00 -0.33935132370E+03  0.87826576177E+03  0.81005643470E+03 0.  0.
        3    1    3    3  502    0 -0.32833225167E+03  0.88536213772E+02 -0.40821790009E+03  0.53130273178E+03  0.10100000352E+00 0. -1.
       -3    1    3    3    0  502  0.32833225167E+03 -0.88536213772E+02  0.68866576391E+02  0.34696302999E+03  0.10100000352E+00 0.  1.
</event>
<event>
 5   0  0.1523811E-02  0.7921649E+03  0.7818609E-02  0.9571428E-01
        1   -1    0    0  501    0  0.00000000000E+00  0.00000000000E+00  0.23227663519E+03  0.23227663525E+03  0.50400001928E-02 0.  1.
       -1   -1    0    0    0  501  0.00000000000E+00  0.00000000000E+00 -0.67540724002E+03  0.67540724003E+03  0.50400001928E-02 0. -1.
    10030    2    1    2    0    0  0.00000000000E+00  0.00000000000E+00 -0.44313060482E+03  0.90768387528E+03  0.79216493517E+03 0.  0.
        1    1    3    3  502    0  0.12813836705E+01 -0.32908653310E+03  0.30989427611E+02  0.33054490294E+03  0.50400001928E-02 0.  1.
       -1    1    3    3    0  502 -0.12813836705E+01  0.32908653310E+03 -0.47412003244E+03  0.57713897234E+03  0.50400001928E-02 0. -1.
</event>
<event>
 5   0  0.2460312E-02  0.7988543E+03  0.7818609E-02  0.9561677E-01
       -2   -1    0    0    0  501  0.00000000000E+00  0.00000000000E+00  0.19382907442E+03  0.19382907444E+03  0.25500000920E-02 0. -1.
        2   -1    0    0  501    0  0.00000000000E+00  0.00000000000E+00 -0.82310688421E+03  0.82310688422E+03  0.25500000920E-02 0.  1.
    10030    2    1    2    0    0  0.00000000000E+00  0.00000000000E+00 -0.62927780979E+03  0.10169359587E+04  0.79885429341E+03 0.  0.
        2    1    3    3  502    0 -0.29953857645E+03  0.24663528736E+03 -0.19394116001E+03  0.43378047133E+03  0.25500000920E-02 0.  1.
       -2    1    3    3    0  502  0.29953857645E+03 -0.24663528736E+03 -0.43533664978E+03  0.58315548733E+03  0.25500000920E-02 0. -1.
</event>
<event>
 5   0  0.2571778E-02  0.8007424E+03  0.7818609E-02  0.9558943E-01
        2   -1    0    0  501    0  0.00000000000E+00  0.00000000000E+00  0.66207539199E+03  0.66207539200E+03  0.25500000920E-02 0.  1.
       -2   -1    0    0    0  501  0.00000000000E+00  0.00000000000E+00 -0.24211306522E+03  0.24211306523E+03  0.25500000920E-02 0. -1.
    10030    2    1    2    0    0  0.00000000000E+00  0.00000000000E+00  0.41996232677E+03  0.90418845723E+03  0.80074241194E+03 0.  0.
        1    1    3    3  502    0  0.10756434286E+03 -0.14931132709E+03  0.61149137262E+03  0.63858097299E+03  0.50400001928E-02 0.  1.
       -1    1    3    3    0  502 -0.10756434286E+03  0.14931132709E+03 -0.19152904585E+03  0.26560748423E+03  0.50400001928E-02 0. -1.
</event>
<event>
 5   0  0.1471290E-02  0.8064558E+03  0.7818609E-02  0.9550719E-01
        1   -1    0    0  501    0  0.00000000000E+00  0.00000000000E+00  0.61765692418E+03  0.61765692420E+03  0.50400001928E-02 0.  1.
       -1   -1    0    0    0  501  0.00000000000E+00  0.00000000000E+00 -0.26324115553E+03  0.26324115558E+03  0.50400001928E-02 0. -1.
    10030    2    1    2    0    0  0.00000000000E+00  0.00000000000E+00  0.35441576865E+03  0.88089807979E+03  0.80645575818E+03 0.  0.
        2    1    3    3  502    0  0.21082582563E+03  0.99376222391E+02  0.53662462566E+03  0.58505482752E+03  0.25500000920E-02 0.  1.
       -2    1    3    3    0  502 -0.21082582563E+03 -0.99376222391E+02 -0.18220885702E+03  0.29584325227E+03  0.25500000920E-02 0. -1.
</event>
<event>
 5   0  0.1471290E-02  0.7997161E+03  0.7818609E-02  0.9560428E-01
        1   -1    0    0  501    0  0.00000000000E+00  0.00000000000E+00  0.16333423266E+04  0.16333423266E+04  0.50400001928E-02 0. -1.
       -1   -1    0    0    0  501  0.00000000000E+00  0.00000000000E+00 -0.97889125524E+02  0.97889125653E+02  0.50400001928E-02 0.  1.
    10030    2    1    2    0    0  0.00000000000E+00  0.00000000000E+00  0.15354532010E+04  0.17312314522E+04  0.79971607999E+03 0.  0.
        2    1    3    3  502    0 -0.11876619079E+03 -0.37233131984E+03  0.58466997365E+03  0.70326026328E+03  0.25500000920E-02 0. -1.
       -2    1    3    3    0  502  0.11876619079E+03  0.37233131984E+03  0.95078322739E+03  0.10279711889E+04  0.25500000920E-02 0.  1.
</event>
<event>
 5   0  0.2422031E-02  0.7749874E+03  0.7818609E-02  0.9596945E-01
       -2   -1    0    0    0  501  0.00000000000E+00  0.00000000000E+00  0.56690623940E+03  0.56690623941E+03  0.25500000920E-02 0. -1.
        2   -1    0    0  501    0  0.00000000000E+00  0.00000000000E+00 -0.26486100112E+03  0.26486100113E+03  0.25500000920E-02 0.  1.
    10030    2    1    2    0    0  0.00000000000E+00  0.00000000000E+00  0.30204523828E+03  0.83176724054E+03  0.77498736536E+03 0.  0.
        4    1    3    3  502    0  0.32799657671E+03 -0.55393590746E+02  0.36432867806E+03  0.49334288562E+03  0.12699999809E+01 0. -1.
       -4    1    3    3    0  502 -0.32799657671E+03  0.55393590746E+02 -0.62283439781E+02  0.33842435492E+03  0.12699999809E+01 0.  1.
</event>
<event>
 5   0  0.2422031E-02  0.7705795E+03  0.7818609E-02  0.9603606E-01
        2   -1    0    0  501    0  0.00000000000E+00  0.00000000000E+00  0.22167124079E+03  0.22167124080E+03  0.25500000920E-02 0.  1.
       -2   -1    0    0    0  501  0.00000000000E+00  0.00000000000E+00 -0.66967730301E+03  0.66967730302E+03  0.25500000920E-02 0. -1.
    10030    2    1    2    0    0  0.00000000000E+00  0.00000000000E+00 -0.44800606223E+03  0.89134854382E+03  0.77057951879E+03 0.  0.
        4    1    3    3  502    0  0.57614158466E+01  0.16846935189E+03 -0.62475684012E+03  0.64709955851E+03  0.12699999809E+01 0. -1.
       -4    1    3    3    0  502 -0.57614158466E+01 -0.16846935189E+03  0.17675077790E+03  0.24424898531E+03  0.12699999809E+01 0.  1.
</event>
<event>
 5   0  0.2422031E-02  0.8118923E+03  0.7818609E-02  0.9542961E-01
        2   -1    0    0  501    0  0.00000000000E+00  0.00000000000E+00  0.76872054545E+03  0.76872054545E+03  0.25500000920E-02 0. -1.
       -2   -1    0    0    0  501  0.00000000000E+00  0.00000000000E+00 -0.21437212899E+03  0.21437212901E+03  0.25500000920E-02 0.  1.
    10030    2    1    2    0    0  0.00000000000E+00  0.00000000000E+00  0.55434841646E+03  0.98309267446E+03  0.81189225871E+03 0.  0.
        4    1    3    3  502    0  0.27297974207E+03  0.29979939654E+03  0.25316883190E+03  0.47801013388E+03  0.12699999809E+01 0. -1.
       -4    1    3    3    0  502 -0.27297974207E+03 -0.29979939654E+03  0.30117958455E+03  0.50508254058E+03  0.12699999809E+01 0.  1.
</event>
<event>
 5   0  0.1624094E-02  0.8048558E+03  0.7818609E-02  0.9553015E-01
       -1   -1    0    0    0  501  0.00000000000E+00  0.00000000000E+00  0.52826262087E+03  0.52826262090E+03  0.50400001928E-02 0.  1.
        1   -1    0    0  501    0  0.00000000000E+00  0.00000000000E+00 -0.30656765722E+03  0.30656765727E+03  0.50400001928E-02 0. -1.
    10030    2    1    2    0    0  0.00000000000E+00  0.00000000000E+00  0.22169496365E+03  0.83483027816E+03  0.80485584823E+03 0.  0.
        3    1    3    3  502    0  0.22288107116E+02  0.39793830726E+03  0.16856669267E+03  0.43274287537E+03  0.10100000352E+00 0.  1.
       -3    1    3    3    0  502 -0.22288107116E+02 -0.39793830726E+03  0.53128270980E+02  0.40208740279E+03  0.10100000352E+00 0. -1.
</event>
<event>
 5   0  0.9919125E-03  0.7583952E+03  0.7818609E-02  0.9622271E-01
        3   -1    0    0  501    0  0.00000000000E+00  0.00000000000E+00  0.45998162636E+03  0.45998163745E+03  0.10100000352E+00 0. -1.
       -3   -1    0    0    0  501  0.00000000000E+00  0.00000000000E+00 -0.31260122220E+03  0.31260123851E+03  0.10100000352E+00 0.  1.
    10030    2    1    2    0    0  0.00000000000E+00  0.00000000000E+00  0.14738040417E+03  0.77258287597E+03  0.75839522460E+03 0.  0.
        1    1    3    3  502    0 -0.26984938480E+03 -0.51402945135E+02 -0.19259976514E+03  0.33549310396E+03  0.50400001928E-02 0.  1.
       -1    1    3    3    0  502  0.26984938480E+03  0.51402945135E+02  0.33998016931E+03  0.43708977201E+03  0.50400001928E-02 0. -1.
</event>
<event>
 5   0  0.1624094E-02  0.7994038E+03  0.7818609E-02  0.9560881E-01
       -1   -1    0    0    0  501  0.00000000000E+00  0.00000000000E+00  0.52003068401E+03  0.52003068403E+03  0.50400001928E-02 0.  1.
        1   -1    0    0  501    0  0.00000000000E+00  0.00000000000E+00 -0.30721570935E+03  0.30721570939E+03  0.50400001928E-02 0. -1.
    10030    2    1    2    0    0  0.00000000000E+00  0.00000000000E+00  0.21281497466E+03  0.82724639342E+03  0.79940376656E+03 0.  0.
        3    1    3    3  502    0  0.22874264290E+03 -0.17901132935E+03  0.39054931038E+03  0.48672068659E+03  0.10100000352E+00 0.  1.
       -3    1    3    3    0  502 -0.22874264290E+03  0.17901132935E+03 -0.17773433573E+03  0.34052570683E+03  0.10100000352E+00 0. -1.
</event>
<event>
 5   0  0.2460312E-02  0.7923729E+03  0.7818609E-02  0.9571123E-01
        2   -1    0    0  501    0  0.00000000000E+00  0.00000000000E+00  0.16267821346E+04  0.16267821346E+04  0.25500000920E-02 0. -1.
       -2   -1    0    0    0  501  0.00000000000E+00  0.00000000000E+00 -0.96487235329E+02  0.96487235363E+02  0.25500000920E-02 0.  1.
    10030    2    1    2    0    0  0.00000000000E+00  0.00000000000E+00  0.15302948992E+04  0.17232693699E+04  0.79237291897E+03 0.  0.
        2    1    3    3  502    0 -0.21350263690E+03 -0.11134010751E+03  0.80912238149E+02  0.25402123099E+03  0.25500000920E-02 0.  1.
       -2    1    3    3    0  502  0.21350263690E+03  0.11134010751E+03  0.14493826611E+04  0.14692481390E+04  0.25500000920E-02 0. -1.
</event>
<event>
 5   0  0.1471290E-02  0.7584521E+03  0.7818609E-02  0.9622183E-01
       -1   -1    0    0    0  501  0.00000000000E+00  0.00000000000E+00  0.92875056470E+02  0.92875056606E+02  0.50400001928E-02 0.  1.
        1   -1    0    0  501    0  0.00000000000E+00  0.00000000000E+00 -0.15484502254E+04  0.15484502254E+04  0.50400001928E-02 0. -1.
    10030    2    1    2    0    0  0.00000000000E+00  0.00000000000E+00 -0.14555751689E+04  0.16413252820E+04  0.75845211383E+03 0.  0.
        2    1    3    3  502    0  0.31317362338E+03  0.60688174269E+02 -0.28401761758E+03  0.42711448112E+03  0.25500000920E-02 0.  1.
       -2    1    3    3    0  502 -0.31317362338E+03 -0.60688174269E+02 -0.11715575514E+04  0.12142108009E+04  0.25500000920E-02 0. -1.
</event>
<event>
 5   0  0.1471290E-02  0.8002242E+03  0.7818609E-02  0.9559693E-01
        1   -1    0    0  501    0  0.00000000000E+00  0.00000000000E+00  0.51888472335E+03  0.51888472338E+03  0.50400001928E-02 0. -1.
       -1   -1    0    0    0  501  0.00000000000E+00  0.00000000000E+00 -0.30852653828E+03  0.30852653833E+03  0.50400001928E-02 0.  1.
    10030    2    1    2    0    0  0.00000000000E+00  0.00000000000E+00  0.21035818507E+03  0.82741126170E+03  0.80022423730E+03 0.  0.
        2    1    3    3  502    0  0.17778142804E+03  0.28294856725E+03 -0.12235064813E+03  0.35585925444E+03  0.25500000920E-02 0.  1.
       -2    1    3    3    0  502 -0.17778142804E+03 -0.28294856725E+03  0.33270883320E+03  0.47155200727E+03  0.25500000920E-02 0. -1.
</event>
<event>
 5   0  0.1523811E-02  0.7888268E+03  0.7818609E-02  0.9576332E-01
       -1   -1    0    0    0  501  0.00000000000E+00  0.00000000000E+00  0.18207478377E+03  0.18207478384E+03  0.50400001928E-02 0. -1.
        1   -1    0    0  501    0  0.00000000000E+00  0.00000000000E+00 -0.85438471437E+03  0.85438471439E+03  0.50400001928E-02 0.  1.
    10030    2    1    2    0    0  0.00000000000E+00  0.00000000000E+00 -0.67230993060E+03  0.10364594982E+04  0.78882675455E+03 0.  0.
        1    1    3    3  502    0  0.25911417956E+02  0.21676410971E+03 -0.76776261796E+03  0.79819641593E+03  0.50400001928E-02 0.  1.
       -1    1    3    3    0  502 -0.25911417956E+02 -0.21676410971E+03  0.95452687357E+02  0.23826308230E+03  0.50400001928E-02 0. -1.
</event>
<event>
 5   0  0.2460312E-02  0.7954748E+03  0.7818609E-02  0.9566590E-01
        2   -1    0    0  501    0  0.00000000000E+00  0.00000000000E+00  0.94769554410E+03  0.94769554410E+03  0.25500000920E-02 0.  1.
       -2   -1    0    0    0  501  0.00000000000E+00  0.00000000000E+00 -0.16692602026E+03  0.16692602028E+03  0.25500000920E-02 0. -1.
    10030    2    1    2    0    0  0.00000000000E+00  0.00000000000E+00  0.78076952384E+03  0.11146215644E+04  0.79547481571E+03 0.  0.
        2    1    3    3  502    0  0.26941523087E+03 -0.47879487175E+02  0.79484004472E+03  0.84062340475E+03  0.25500000920E-02 0.  1.
       -2    1    3    3    0  502 -0.26941523087E+03  0.47879487175E+02 -0.14070520881E+02  0.27399815963E+03  0.25500000920E-02 0. -1.
</event>
<event>
 5   0  0.2422031E-02  0.8011319E+03  0.7818609E-02  0.9558380E-01
        2   -1    0    0  501    0  0.00000000000E+00  0.00000000000E+00  0.97048224841E+03  0.97048224842E+03  0.25500000920E-02 0. -1.
       -2   -1    0    0    0  501  0.00000000000E+00  0.00000000000E+00 -0.16533334712E+03  0.16533334714E+03  0.25500000920E-02 0.  1.
    10030    2    1    2    0    0  0.00000000000E+00  0.00000000000E+00  0.80514890129E+03  0.11358155956E+04  0.80113189543E+03 0.  0.
        4    1    3    3  502    0 -0.18892049796E+03  0.26459734880E+03  0.70839733017E+02  0.33275004465E+03  0.12699999809E+01 0.  1.
       -4    1    3    3    0  502  0.18892049796E+03 -0.26459734880E+03  0.73430916827E+03  0.80306555091E+03  0.12699999809E+01 0. -1.
</event>
<event>
 5   0  0.1523811E-02  0.8131741E+03  0.7818609E-02  0.9541142E-01
        1   -1    0    0  501    0  0.00000000000E+00  0.00000000000E+00  0.15000408689E+04  0.15000408689E+04  0.50400001928E-02 0.  1.
       -1   -1    0    0    0  501  0.00000000000E+00  0.00000000000E+00 -0.11020567828E+03  0.11020567840E+03  0.50400001928E-02 0. -1.
    10030    2    1    2    0    0  0.00000000000E+00  0.00000000000E+00  0.13898351906E+04  0.16102465473E+04  0.81317408101E+03 0.  0.
        1    1    3    3  502    0 -0.28537272124E+03 -0.22295931391E+03  0.32890429654E+03  0.48921005917E+03  0.50400001928E-02 0. -1.
       -1    1    3    3    0  502  0.28537272124E+03  0.22295931391E+03  0.10609308941E+04  0.11210364881E+04  0.50400001928E-02 0.  1.
</event>
<event>
 5   0  0.2571778E-02  0.7983250E+03  0.7818609E-02  0.9562445E-01
        2   -1    0    0  501    0  0.00000000000E+00  0.00000000000E+00  0.79280929718E+03  0.79280929719E+03  0.25500000920E-02 0.  1.
       -2   -1    0    0    0  501  0.00000000000E+00  0.00000000000E+00 -0.20096976267E+03  0.20096976269E+03  0.25500000920E-02 0. -1.
    10030    2    1    2    0    0  0.00000000000E+00  0.00000000000E+00  0.59183953451E+03  0.99377905987E+03  0.79832498723E+03 0.  0.
        1    1    3    3  502    0 -0.27707610390E+03 -0.63860972040E+02  0.64465291284E+03  0.70457559506E+03  0.50400001928E-02 0.  1.
       -1    1    3    3    0  502  0.27707610390E+03  0.63860972040E+02 -0.52813378323E+02  0.28920346481E+03  0.50400001928E-02 0. -1.
</event>
<event>
 5   0  0.1471290E-02  0.8037324E+03  0.7818609E-02  0.9554630E-01
       -1   -1    0    0    0  501  0.00000000000E+00  0.00000000000E+00  0.21913298022E+03  0.21913298028E+03  0.50400001928E-02 0.  1.
        1   -1    0    0  501    0  0.00000000000E+00  0.00000000000E+00 -0.73697914808E+03  0.73697914810E+03  0.50400001928E-02 0. -1.
    10030    2    1    2    0    0  0.00000000000E+00  0.00000000000E+00 -0.51784616786E+03  0.95611212838E+03  0.80373238610E+03 0.  0.
        2    1    3    3  502    0  0.22727900112E+03 -0.13093421217E+03 -0.62110771904E+03  0.67422126258E+03  0.25500000920E-02 0. -1.
       -2    1    3    3    0  502 -0.22727900112E+03  0.13093421217E+03  0.10326155117E+03  0.28189086580E+03  0.25500000920E-02 0.  1.
</event>
<event>
 5   0  0.1498375E-02  0.8029826E+03  0.7818609E-02  0.9555710E-01
        1   -1    0    0  501    0  0.00000000000E+00  0.00000000000E+00  0.54176242477E+03  0.54176242480E+03  0.50400001928E-02 0. -1.
       -1   -1    0    0    0  501  0.00000000000E+00  0.00000000000E+00 -0.29753866208E+03  0.29753866212E+03  0.50400001928E-02 0.  1.
    10030    2    1    2    0    0  0.00000000000E+00  0.00000000000E+00  0.24422376269E+03  0.83930108692E+03  0.80298260768E+03 0.  0.
        4    1    3    3  502    0  0.10259355182E+02 -0.36073316457E+03 -0.61800940929E+02  0.36613472874E+03  0.12699999809E+01 0.  1.
       -4    1    3    3    0  502 -0.10259355182E+02  0.36073316457E+03  0.30602470362E+03  0.47316635818E+03  0.12699999809E+01 0. -1.
</event>
<event>
 5   0  0.1523811E-02  0.8020900E+03  0.7818609E-02  0.9556997E-01
       -1   -1    0    0    0  501  0.00000000000E+00  0.00000000000E+00  0.10969338304E+03  0.10969338315E+03  0.50400001928E-02 0. -1.
        1   -1    0    0  501    0  0.00000000000E+00  0.00000000000E+00 -0.14662425084E+04  0.14662425084E+04  0.50400001928E-02 0.  1.
    10030    2    1    2    0    0  0.00000000000E+00  0.00000000000E+00 -0.13565491254E+04  0.15759358916E+04  0.80209002287E+03 0.  0.
        1    1    3    3  502    0  0.24343748280E+03 -0.64280929519E+02 -0.12916004902E+04  0.13159124865E+04  0.50400001928E-02 0.  1.
       -1    1    3    3    0  502 -0.24343748280E+03  0.64280929519E+02 -0.64948635177E+02  0.26002340504E+03  0.50400001928E-02 0. -1.
</event>
<event>
 5   0  0.1523811E-02  0.7867635E+03  0.7818609E-02  0.9579377E-01
        1   -1    0    0  501    0  0.00000000000E+00  0.00000000000E+00  0.32476717362E+03  0.32476717366E+03  0.50400001928E-02 0. -1.
       -1   -1    0    0    0  501  0.00000000000E+00  0.00000000000E+00 -0.47649271976E+03  0.47649271979E+03  0.50400001928E-02 0.  1.
    10030    2    1    2    0    0  0.00000000000E+00  0.00000000000E+00 -0.15172554615E+03  0.80125989344E+03  0.78676348129E+03 0.  0.
        1    1    3    3  502    0 -0.20491556513E+03  0.25791862414E+03  0.14312660063E+03  0.35916239968E+03  0.50400001928E-02 0. -1.
       -1    1    3    3    0  502  0.20491556513E+03 -0.25791862414E+03 -0.29485214677E+03  0.44209749376E+03  0.50400001928E-02 0.  1.
</event>
<event>
 5   0  0.1523811E-02  0.7790354E+03  0.7818609E-02  0.9590868E-01
       -1   -1    0    0    0  501  0.00000000000E+00  0.00000000000E+00  0.62617035310E+03  0.62617035312E+03  0.50400001928E-02 0. -1.
        1   -1    0    0  501    0  0.00000000000E+00  0.00000000000E+00 -0.24230473803E+03  0.24230473808E+03  0.50400001928E-02 0.  1.
    10030    2    1    2    0    0  0.00000000000E+00  0.00000000000E+00  0.38386561507E+03  0.86847509120E+03  0.77903541229E+03 0.  0.
        1    1    3    3  502    0 -0.54949183511E+02 -0.28107945794E+03  0.48624844944E+03  0.56432493216E+03  0.50400001928E-02 0. -1.
       -1    1    3    3    0  502  0.54949183511E+02  0.28107945794E+03 -0.10238283437E+03  0.30415015904E+03  0.50400001928E-02 0.  1.
</event>
<event>
 5   0  0.1471290E-02  0.7804393E+03  0.7818609E-02  0.9588770E-01
       -1   -1    0    0    0  501  0.00000000000E+00  0.00000000000E+00  0.99655757997E+02  0.99655758124E+02  0.50400001928E-02 0.  1.
        1   -1    0    0  501    0  0.00000000000E+00  0.00000000000E+00 -0.15279737837E+04  0.15279737837E+04  0.50400001928E-02 0. -1.
    10030    2    1    2    0    0  0.00000000000E+00  0.00000000000E+00 -0.14283180257E+04  0.16276295418E+04  0.78043932684E+03 0.  0.
        2    1    3    3  502    0  0.28967014765E+03  0.47715195476E+02 -0.17802832976E+03  0.34333601693E+03  0.25500000920E-02 0. -1.
       -2    1    3    3    0  502 -0.28967014765E+03 -0.47715195476E+02 -0.12502896959E+04  0.12842935249E+04  0.25500000920E-02 0.  1.
</event>
<event>
 5   0  0.1498375E-02  0.8024139E+03  0.7818609E-02  0.9556530E-01
       -1   -1    0    0    0  501  0.00000000000E+00  0.00000000000E+00  0.95332865655E+03  0.95332865656E+03  0.50400001928E-02 0. -1.
        1   -1    0    0  501    0  0.00000000000E+00  0.00000000000E+00 -0.16884734154E+03  0.16884734161E+03  0.50400001928E-02 0.  1.
    10030    2    1    2    0    0  0.00000000000E+00  0.00000000000E+00  0.78448131502E+03  0.11221759982E+04  0.80241388153E+03 0.  0.
        4    1    3    3  502    0 -0.30729242569E+03 -0.45101970559E+02  0.74742275236E+03  0.80938569686E+03  0.12699999809E+01 0. -1.
       -4    1    3    3    0  502  0.30729242569E+03  0.45101970559E+02  0.37058562655E+02  0.31279030132E+03  0.12699999809E+01 0.  1.
</event>
<event>
 5   0  0.2460312E-02  0.7877779E+03  0.7818609E-02  0.9577878E-01
       -2   -1    0    0    0  501  0.00000000000E+00  0.00000000000E+00  0.32487434844E+03  0.32487434845E+03  0.25500000920E-02 0. -1.
        2   -1    0    0  501    0  0.00000000000E+00  0.00000000000E+00 -0.47756470869E+03  0.47756470870E+03  0.25500000920E-02 0.  1.
    10030    2    1    2    0    0  0.00000000000E+00  0.00000000000E+00 -0.15269036025E+03  0.80243905715E+03  0.78777794735E+03 0.  0.
        2    1    3    3  502    0  0.14302456843E+03 -0.95210862735E+02  0.28469073339E+03  0.33252059972E+03  0.25500000920E-02 0. -1.
       -2    1    3    3    0  502 -0.14302456843E+03  0.95210862735E+02 -0.43738109364E+03  0.46991845743E+03  0.25500000920E-02 0.  1.
</event>
<event>
 5   0  0.9919125E-03  0.8338551E+03  0.7818609E-02  0.9512266E-01
        4   -1    0    0  501    0  0.00000000000E+00  0.00000000000E+00  0.73879527666E+03  0.73879636823E+03  0.12699999809E+01 0. -1.
       -4   -1    0    0    0  501  0.00000000000E+00  0.00000000000E+00 -0.23528355912E+03  0.23528698666E+03  0.12699999809E+01 0.  1.
    10030    2    1    2    0    0  0.00000000000E+00  0.00000000000E+00  0.50351171754E+03  0.97408335489E+03  0.83385510287E+03 0.  0.
        5    1    3    3  502    0  0.11856475030E+03 -0.26899711830E+02  0.71759785837E+03  0.72783924794E+03  0.46999998093E+01 0. -1.
       -5    1    3    3    0  502 -0.11856475030E+03  0.26899711830E+02 -0.21408614083E+03  0.24624410695E+03  0.46999998093E+01 0.  1.
</event>
<event>
 5   0  0.1509629E-02  0.8092297E+03  0.7818609E-02  0.9546753E-01
        1   -1    0    0  501    0  0.00000000000E+00  0.00000000000E+00  0.44152946176E+03  0.44152946178E+03  0.50400001928E-02 0.  1.
       -1   -1    0    0    0  501  0.00000000000E+00  0.00000000000E+00 -0.37078649336E+03  0.37078649340E+03  0.50400001928E-02 0. -1.
    10030    2    1    2    0    0  0.00000000000E+00  0.00000000000E+00  0.70742968391E+02  0.81231595518E+03  0.80922966052E+03 0.  0.
        5    1    3    3  502    0 -0.29714406790E+03 -0.24722891341E+03 -0.84559440306E+02  0.39571343376E+03  0.46999998093E+01 0. -1.
       -5    1    3    3    0  502  0.29714406790E+03  0.24722891341E+03  0.15530240870E+03  0.41660252143E+03  0.46999998093E+01 0.  1.
</event>
<event>
 5   0  0.2571778E-02  0.7695946E+03  0.7818609E-02  0.9605101E-01
        2   -1    0    0  501    0  0.00000000000E+00  0.00000000000E+00  0.32642499436E+03  0.32642499437E+03  0.25500000920E-02 0.  1.
       -2   -1    0    0    0  501  0.00000000000E+00  0.00000000000E+00 -0.45360786845E+03  0.45360786845E+03  0.25500000920E-02 0. -1.
    10030    2    1    2    0    0  0.00000000000E+00  0.00000000000E+00 -0.12718287409E+03  0.78003286283E+03  0.76959455795E+03 0.  0.
        1    1    3    3  502    0 -0.52563078549E+02  0.34394022882E+03 -0.23017139648E+03  0.41717697684E+03  0.50400001928E-02 0.  1.
       -1    1    3    3    0  502  0.52563078549E+02 -0.34394022882E+03  0.10298852239E+03  0.36285588599E+03  0.50400001928E-02 0. -1.
</event>
<event>
 5   0  0.2571778E-02  0.7988687E+03  0.7818609E-02  0.9561656E-01
        2   -1    0    0  501    0  0.00000000000E+00  0.00000000000E+00  0.57898236865E+03  0.57898236865E+03  0.25500000920E-02 0.  1.
       -2   -1    0    0    0  501  0.00000000000E+00  0.00000000000E+00 -0.27556588432E+03  0.27556588433E+03  0.25500000920E-02 0. -1.
    10030    2    1    2    0    0  0.00000000000E+00  0.00000000000E+00  0.30341648433E+03  0.85454825298E+03  0.79886867113E+03 0.  0.
        1    1    3    3  502    0 -0.11624105670E+03  0.38207094294E+03  0.15982665822E+03  0.43015665682E+03  0.50400001928E-02 0.  1.
       -1    1    3    3    0  502  0.11624105670E+03 -0.38207094294E+03  0.14358982611E+03  0.42439159616E+03  0.50400001928E-02 0. -1.
</event>
<event>
 5   0  0.2460312E-02  0.8074309E+03  0.7818609E-02  0.9549323E-01
       -2   -1    0    0    0  501  0.00000000000E+00  0.00000000000E+00  0.91431167755E+02  0.91431167790E+02  0.25500000920E-02 0. -1.
        2   -1    0    0  501    0  0.00000000000E+00  0.00000000000E+00 -0.17826104696E+04  0.17826104696E+04  0.25500000920E-02 0.  1.
    10030    2    1    2    0    0  0.00000000000E+00  0.00000000000E+00 -0.16911793018E+04  0.18740416374E+04  0.80743088105E+03 0.  0.
        2    1    3    3  502    0  0.15950166431E+03 -0.34469584598E+03 -0.11632364660E+04  0.12236727843E+04  0.25500000920E-02 0. -1.
       -2    1    3    3    0  502 -0.15950166431E+03  0.34469584598E+03 -0.52794283578E+03  0.65036885304E+03  0.25500000920E-02 0.  1.
</event>
<event>
 5   0  0.2454354E-02  0.8006354E+03  0.7818609E-02  0.9559098E-01
        2   -1    0    0  501    0  0.00000000000E+00  0.00000000000E+00  0.23568074030E+03  0.23568074031E+03  0.25500000920E-02 0. -1.
       -2   -1    0    0    0  501  0.00000000000E+00  0.00000000000E+00 -0.67996327200E+03  0.67996327201E+03  0.25500000920E-02 0.  1.
    10030    2    1    2    0    0  0.00000000000E+00  0.00000000000E+00 -0.44428253171E+03  0.91564401231E+03  0.80063536601E+03 0.  0.
        5    1    3    3  502    0  0.35169349802E+03 -0.16119670314E+03 -0.33966154653E+03  0.51484439381E+03  0.46999998093E+01 0.  1.
       -5    1    3    3    0  502 -0.35169349802E+03  0.16119670314E+03 -0.10462098518E+03  0.40079961850E+03  0.46999998093E+01 0. -1.
</event>
<event>
 5   0  0.1471290E-02  0.8010076E+03  0.7818609E-02  0.9558560E-01
       -1   -1    0    0    0  501  0.00000000000E+00  0.00000000000E+00  0.86155501088E+03  0.86155501090E+03  0.50400001928E-02 0. -1.
        1   -1    0    0  501    0  0.00000000000E+00  0.00000000000E+00 -0.18617880507E+03  0.18617880513E+03  0.50400001928E-02 0.  1.
    10030    2    1    2    0    0  0.00000000000E+00  0.00000000000E+00  0.67537620582E+03  0.10477338160E+04  0.80100757167E+03 0.  0.
        2    1    3    3  502    0  0.31700545959E+03 -0.24346805940E+03  0.37062645089E+03  0.54509918681E+03  0.25500000920E-02 0. -1.
       -2    1    3    3    0  502 -0.31700545959E+03  0.24346805940E+03  0.30474975492E+03  0.50263462922E+03  0.25500000920E-02 0.  1.
</event>
<event>
 5   0  0.2571778E-02  0.8041045E+03  0.7818609E-02  0.9554095E-01
       -2   -1    0    0    0  501  0.00000000000E+00  0.00000000000E+00  0.37344778231E+03  0.37344778232E+03  0.25500000920E-02 0.  1.
        2   -1    0    0  501    0  0.00000000000E+00  0.00000000000E+00 -0.43284766427E+03  0.43284766427E+03  0.25500000920E-02 0. -1.
    10030    2    1    2    0    0  0.00000000000E+00  0.00000000000E+00 -0.59399881955E+02  0.80629544659E+03  0.80410447158E+03 0.  0.
        1    1    3    3  502    0  0.56154033813E+02 -0.12570830381E+03 -0.40847268731E+03  0.43105195681E+03  0.50400001928E-02 0. -1.
       -1    1    3    3    0  502 -0.56154033813E+02  0.12570830381E+03  0.34907280536E+03  0.37524348979E+03  0.50400001928E-02 0.  1.
</event>
<event>
 5   0  0.1523811E-02  0.8140799E+03  0.7818609E-02  0.9539858E-01
        1   -1    0    0  501    0  0.00000000000E+00  0.00000000000E+00  0.10082324091E+04  0.10082324091E+04  0.50400001928E-02 0. -1.
       -1   -1    0    0    0  501  0.00000000000E+00  0.00000000000E+00 -0.16432869115E+03  0.16432869123E+03  0.50400001928E-02 0.  1.
    10030    2    1    2    0    0  0.00000000000E+00  0.00000000000E+00  0.84390371791E+03  0.11725611003E+04  0.81407987866E+03 0.  0.
        1    1    3    3  502    0 -0.40042530941E+03 -0.21095299763E+02  0.52273603831E+03  0.65881591197E+03  0.50400001928E-02 0. -1.
       -1    1    3    3    0  502  0.40042530941E+03  0.21095299763E+02  0.32116767959E+03  0.51374518833E+03  0.50400001928E-02 0.  1.
</event>
<event>
 5   0  0.9919125E-03  0.9069954E+03  0.7818609E-02  0.9416879E-01
        4   -1    0    0  501    0  0.00000000000E+00  0.00000000000E+00  0.59834943798E+03  0.59835078577E+03  0.12699999809E+01 0.  1.
       -4   -1    0    0    0  501  0.00000000000E+00  0.00000000000E+00 -0.34370953447E+03  0.34371188077E+03  0.12699999809E+01 0. -1.
    10030    2    1    2    0    0  0.00000000000E+00  0.00000000000E+00  0.25463990351E+03  0.94206266654E+03  0.90699536230E+03 0.  0.
        4    1    3    3  502    0  0.44505015219E+03  0.36522365783E+02  0.20946640674E+03  0.49323555186E+03  0.12699999809E+01 0.  1.
       -4    1    3    3    0  502 -0.44505015219E+03 -0.36522365783E+02  0.45173496775E+02  0.44882711468E+03  0.12699999809E+01 0. -1.
</event>
<event>
 5   0  0.1523811E-02  0.8004421E+03  0.7818609E-02  0.9559377E-01
        1   -1    0    0  501    0  0.00000000000E+00  0.00000000000E+00  0.82551050398E+03  0.82551050399E+03  0.50400001928E-02 0. -1.
       -1   -1    0    0    0  501  0.00000000000E+00  0.00000000000E+00 -0.19403372671E+03  0.19403372677E+03  0.50400001928E-02 0.  1.
    10030    2    1    2    0    0  0.00000000000E+00  0.00000000000E+00  0.63147677727E+03  0.10195442308E+04  0.80044207676E+03 0.  0.
        1    1    3    3  502    0  0.33290927785E+03  0.17047618176E+03  0.49715461308E+03  0.62213617895E+03  0.50400001928E-02 0. -1.
       -1    1    3    3    0  502 -0.33290927785E+03 -0.17047618176E+03  0.13432216419E+03  0.39740805181E+03  0.50400001928E-02 0.  1.
</event>
<event>
 5   0  0.1509629E-02  0.7912306E+03  0.7818609E-02  0.9572798E-01
        1   -1    0    0  501    0  0.00000000000E+00  0.00000000000E+00  0.11342205068E+04  0.11342205068E+04  0.50400001928E-02 0. -1.
       -1   -1    0    0    0  501  0.00000000000E+00  0.00000000000E+00 -0.13799032801E+03  0.13799032811E+03  0.50400001928E-02 0.  1.
    10030    2    1    2    0    0  0.00000000000E+00  0.00000000000E+00  0.99623017876E+03  0.12722108349E+04  0.79123058545E+03 0.  0.
        5    1    3    3  502    0 -0.29343228108E+03 -0.17233989085E+03  0.82243798142E+03  0.89007295479E+03  0.46999998093E+01 0. -1.
       -5    1    3    3    0  502  0.29343228108E+03  0.17233989085E+03  0.17379219734E+03  0.38213788011E+03  0.46999998093E+01 0.  1.
</event>
<event>
 5   0  0.9919125E-03  0.8093689E+03  0.7818609E-02  0.9546554E-01
        4   -1    0    0  501    0  0.00000000000E+00  0.00000000000E+00  0.40677703217E+03  0.40677901470E+03  0.12699999809E+01 0.  1.
       -4   -1    0    0    0  501  0.00000000000E+00  0.00000000000E+00 -0.40259870014E+03  0.40260070325E+03  0.12699999809E+01 0. -1.
    10030    2    1    2    0    0  0.00000000000E+00  0.00000000000E+00  0.41783320332E+01  0.80937971795E+03  0.80936893279E+03 0.  0.
        1    1    3    3  502    0  0.34039473408E+03 -0.20166283513E+03 -0.82959267384E+02  0.40425080598E+03  0.50400001928E-02 0. -1.
       -1    1    3    3    0  502 -0.34039473408E+03  0.20166283513E+03  0.87137599417E+02  0.40512891198E+03  0.50400001928E-02 0.  1.
</event>
<event>
 5   0  0.2571778E-02  0.8038154E+03  0.7818609E-02  0.9554511E-01
       -2   -1    0    0    0  501  0.00000000000E+00  0.00000000000E+00  0.20988057439E+03  0.20988057440E+03  0.25500000920E-02 0.  1.
        2   -1    0    0  501    0  0.00000000000E+00  0.00000000000E+00 -0.76962711640E+03  0.76962711640E+03  0.25500000920E-02 0. -1.
    10030    2    1    2    0    0  0.00000000000E+00  0.00000000000E+00 -0.55974654201E+03  0.97950769080E+03  0.80381535507E+03 0.  0.
        1    1    3    3  502    0  0.63028061997E+02 -0.22892747417E+03 -0.67501697604E+03  0.71556148792E+03  0.50400001928E-02 0. -1.
       -1    1    3    3    0  502 -0.63028061997E+02  0.22892747417E+03  0.11527043403E+03  0.26394620288E+03  0.50400001928E-02 0.  1.
</event>
<event>
 5   0  0.2464780E-02  0.7951721E+03  0.7818609E-02  0.9567032E-01
        2   -1    0    0  501    0  0.00000000000E+00  0.00000000000E+00  0.56136451099E+03  0.56136451099E+03  0.25500000920E-02 0.  1.
       -2   -1    0    0    0  501  0.00000000000E+00  0.00000000000E+00 -0.28159003822E+03  0.28159003823E+03  0.25500000920E-02 0. -1.
    10030    2    1    2    0    0  0.00000000000E+00  0.00000000000E+00  0.27977447277E+03  0.84295454923E+03  0.79517206720E+03 0.  0.
        3    1    3    3  502    0 -0.17474776692E+03 -0.29364966673E+03 -0.75568834008E+02  0.34996795237E+03  0.10100000352E+00 0. -1.
       -3    1    3    3    0  502  0.17474776692E+03  0.29364966673E+03  0.35534330677E+03  0.49298659686E+03  0.10100000352E+00 0.  1.
</event>
<event>
 5   0  0.1523811E-02  0.7615893E+03  0.7818609E-02  0.9617342E-01
       -1   -1    0    0    0  501  0.00000000000E+00  0.00000000000E+00  0.16494965808E+03  0.16494965816E+03  0.50400001928E-02 0.  1.
        1   -1    0    0  501    0  0.00000000000E+00  0.00000000000E+00 -0.87908384252E+03  0.87908384254E+03  0.50400001928E-02 0. -1.
    10030    2    1    2    0    0  0.00000000000E+00  0.00000000000E+00 -0.71413418444E+03  0.10440335007E+04  0.76158933631E+03 0.  0.
        1    1    3    3  502    0  0.11998826657E+02 -0.31846952163E+03 -0.64277834587E+03  0.71744742663E+03  0.50400001928E-02 0. -1.
       -1    1    3    3    0  502 -0.11998826657E+02  0.31846952163E+03 -0.71355838574E+02  0.32658607406E+03  0.50400001928E-02 0.  1.
</event>
<event>
 5   0  0.1471290E-02  0.8046248E+03  0.7818609E-02  0.9553347E-01
        1   -1    0    0  501    0  0.00000000000E+00  0.00000000000E+00  0.45420545385E+03  0.45420545388E+03  0.50400001928E-02 0. -1.
       -1   -1    0    0    0  501  0.00000000000E+00  0.00000000000E+00 -0.35634817986E+03  0.35634817990E+03  0.50400001928E-02 0.  1.
    10030    2    1    2    0    0  0.00000000000E+00  0.00000000000E+00  0.97857273992E+02  0.81055363378E+03  0.80462484871E+03 0.  0.
        2    1    3    3  502    0  0.39279015112E+03 -0.81026872005E+02  0.80877146724E+02  0.40913392633E+03  0.25500000920E-02 0. -1.
       -2    1    3    3    0  502 -0.39279015112E+03  0.81026872005E+02  0.16980127269E+02  0.40141970745E+03  0.25500000920E-02 0.  1.
</event>
<event>
 5   0  0.9919125E-03  0.8150079E+03  0.7818609E-02  0.9538544E-01
       -3   -1    0    0    0  501  0.00000000000E+00  0.00000000000E+00  0.43399755044E+03  0.43399756219E+03  0.10100000352E+00 0. -1.
        3   -1    0    0  501    0  0.00000000000E+00  0.00000000000E+00 -0.38262766262E+03  0.38262767595E+03  0.10100000352E+00 0.  1.
    10030    2    1    2    0    0  0.00000000000E+00  0.00000000000E+00  0.51369887816E+02  0.81662523814E+03  0.81500792278E+03 0.  0.
        4    1    3    3  502    0 -0.17890114650E+02 -0.35539027351E+03  0.22466291106E+03  0.42082934691E+03  0.12699999809E+01 0. -1.
       -4    1    3    3    0  502  0.17890114650E+02  0.35539027351E+03 -0.17329302325E+03  0.39579589123E+03  0.12699999809E+01 0.  1.
</event>
<event>
 5   0  0.1498375E-02  0.7938500E+03  0.7818609E-02  0.9568962E-01
       -1   -1    0    0    0  501  0.00000000000E+00  0.00000000000E+00  0.46880919346E+03  0.46880919349E+03  0.50400001928E-02 0. -1.
        1   -1    0    0  501    0  0.00000000000E+00  0.00000000000E+00 -0.33606306068E+03  0.33606306072E+03  0.50400001928E-02 0.  1.
    10030    2    1    2    0    0  0.00000000000E+00  0.00000000000E+00  0.13274613279E+03  0.80487225421E+03  0.79384999202E+03 0.  0.
        4    1    3    3  502    0 -0.22129824387E+02 -0.26927186614E+03 -0.22844038955E+03  0.35381307423E+03  0.12699999809E+01 0.  1.
       -4    1    3    3    0  502  0.22129824387E+02  0.26927186614E+03  0.36118652234E+03  0.45105917997E+03  0.12699999809E+01 0. -1.
</event>
<event>
 5   0  0.1471290E-02  0.8112030E+03  0.7818609E-02  0.9543941E-01
       -1   -1    0    0    0  501  0.00000000000E+00  0.00000000000E+00  0.88575492070E+03  0.88575492071E+03  0.50400001928E-02 0.  1.
        1   -1    0    0  501    0  0.00000000000E+00  0.00000000000E+00 -0.18573149096E+03  0.18573149103E+03  0.50400001928E-02 0. -1.
    10030    2    1    2    0    0  0.00000000000E+00  0.00000000000E+00  0.70002342974E+03  0.10714864117E+04  0.81120301303E+03 0.  0.
        2    1    3    3  502    0 -0.17072783885E+03 -0.21433812797E+03  0.74499940554E+03  0.79379653711E+03  0.25500000920E-02 0.  1.
       -2    1    3    3    0  502  0.17072783885E+03  0.21433812797E+03 -0.44975975805E+02  0.27768987462E+03  0.25500000920E-02 0. -1.
</event>
<event>
 5   0  0.1624094E-02  0.7890877E+03  0.7818609E-02  0.9575948E-01
       -1   -1    0    0    0  501  0.00000000000E+00  0.00000000000E+00  0.16577996908E+03  0.16577996915E+03  0.50400001928E-02 0. -1.
        1   -1    0    0  501    0  0.00000000000E+00  0.00000000000E+00 -0.93898471712E+03  0.93898471714E+03  0.50400001928E-02 0.  1.
    10030    2    1    2    0    0  0.00000000000E+00  0.00000000000E+00 -0.77320474804E+03  0.11047646863E+04  0.78908771989E+03 0.  0.
        3    1    3    3  502    0  0.33168674045E+03  0.10121766577E+03 -0.65003469317E+03  0.73675384097E+03  0.10100000352E+00 0.  1.
       -3    1    3    3    0  502 -0.33168674045E+03 -0.10121766577E+03 -0.12317005487E+03  0.36801084532E+03  0.10100000352E+00 0. -1.
</event>
<event>
 5   0  0.2571778E-02  0.8234915E+03  0.7818609E-02  0.9526623E-01
        2   -1    0    0  501    0  0.00000000000E+00  0.00000000000E+00  0.55635161033E+03  0.55635161034E+03  0.25500000920E-02 0.  1.
       -2   -1    0    0    0  501  0.00000000000E+00  0.00000000000E+00 -0.30472555012E+03  0.30472555013E+03  0.25500000920E-02 0. -1.
    10030    2    1    2    0    0  0.00000000000E+00  0.00000000000E+00  0.25162606021E+03  0.86107716047E+03  0.82349147057E+03 0.  0.
        1    1    3    3  502    0 -0.36544596292E+03  0.54666901116E+02 -0.64123803508E+02  0.37503477718E+03  0.50400001928E-02 0. -1.
       -1    1    3    3    0  502  0.36544596292E+03 -0.54666901116E+02  0.31574986372E+03  0.48604238329E+03  0.50400001928E-02 0.  1.
</event>
<event>
 5   0  0.1509629E-02  0.7670059E+03  0.7818609E-02  0.9609042E-01
       -1   -1    0    0    0  501  0.00000000000E+00  0.00000000000E+00  0.90418634794E+03  0.90418634795E+03  0.50400001928E-02 0. -1.
        1   -1    0    0  501    0  0.00000000000E+00  0.00000000000E+00 -0.16265949898E+03  0.16265949906E+03  0.50400001928E-02 0.  1.
    10030    2    1    2    0    0  0.00000000000E+00  0.00000000000E+00  0.74152684895E+03  0.10668458470E+04  0.76700586280E+03 0.  0.
        5    1    3    3  502    0  0.38214015750E+03 -0.30590330588E+02  0.35789907464E+03  0.52448136853E+03  0.46999998093E+01 0. -1.
       -5    1    3    3    0  502 -0.38214015750E+03  0.30590330588E+02  0.38362777431E+03  0.54236447849E+03  0.46999998093E+01 0.  1.
</event>
<event>
 5   0  0.2460312E-02  0.8301470E+03  0.7818609E-02  0.9517377E-01
       -2   -1    0    0    0  501  0.00000000000E+00  0.00000000000E+00  0.49176586838E+03  0.49176586839E+03  0.25500000920E-02 0.  1.
        2   -1    0    0  501    0  0.00000000000E+00  0.00000000000E+00 -0.35034156634E+03  0.35034156635E+03  0.25500000920E-02 0. -1.
    10030    2    1    2    0    0  0.00000000000E+00  0.00000000000E+00  0.14142430204E+03  0.84210743474E+03  0.83014703422E+03 0.  0.
        2    1    3    3  502    0  0.29702386732E+03 -0.28873959552E+03  0.44021608940E+02  0.41657128303E+03  0.25500000920E-02 0. -1.
       -2    1    3    3    0  502 -0.29702386732E+03  0.28873959552E+03  0.97402693104E+02  0.42553615171E+03  0.25500000920E-02 0.  1.
</event>
<event>
 5   0  0.1471290E-02  0.8020391E+03  0.7818609E-02  0.9557070E-01
        1   -1    0    0  501    0  0.00000000000E+00  0.00000000000E+00  0.46007572297E+03  0.46007572299E+03  0.50400001928E-02 0. -1.
       -1   -1    0    0    0  501  0.00000000000E+00  0.00000000000E+00 -0.34954396433E+03  0.34954396437E+03  0.50400001928E-02 0.  1.
    10030    2    1    2    0    0  0.00000000000E+00  0.00000000000E+00  0.11053175863E+03  0.80961968736E+03  0.80203913153E+03 0.  0.
        2    1    3    3  502    0  0.23701710925E+03  0.95475645661E+02 -0.25672486762E+03  0.36221591165E+03  0.25500000920E-02 0.  1.
       -2    1    3    3    0  502 -0.23701710925E+03 -0.95475645661E+02  0.36725662626E+03  0.44740377572E+03  0.25500000920E-02 0. -1.
</event>
<event>
 5   0  0.2464780E-02  0.7131870E+03  0.7818609E-02  0.9694943E-01
        2   -1    0    0  501    0  0.00000000000E+00  0.00000000000E+00  0.42527498170E+03  0.42527498171E+03  0.25500000920E-02 0.  1.
       -2   -1    0    0    0  501  0.00000000000E+00  0.00000000000E+00 -0.29900397848E+03  0.29900397850E+03  0.25500000920E-02 0. -1.
    10030    2    1    2    0    0  0.00000000000E+00  0.00000000000E+00  0.12627100321E+03  0.72427896020E+03  0.71318696422E+03 0.  0.
        3    1    3    3  502    0 -0.32923720803E+03  0.12278242469E+03  0.14768280197E+01  0.35138988913E+03  0.10100000352E+00 0.  1.
       -3    1    3    3    0  502  0.32923720803E+03 -0.12278242469E+03  0.12479417519E+03  0.37288907107E+03  0.10100000352E+00 0. -1.
</event>
<event>
 5   0  0.1523811E-02  0.7977854E+03  0.7818609E-02  0.9563228E-01
        1   -1    0    0  501    0  0.00000000000E+00  0.00000000000E+00  0.52270453660E+03  0.52270453663E+03  0.50400001928E-02 0. -1.
       -1   -1    0    0    0  501  0.00000000000E+00  0.00000000000E+00 -0.30440791460E+03  0.30440791464E+03  0.50400001928E-02 0.  1.
    10030    2    1    2    0    0  0.00000000000E+00  0.00000000000E+00  0.21829662201E+03  0.82711245127E+03  0.79778542971E+03 0.  0.
        1    1    3    3  502    0 -0.22974400487E+03 -0.37600605790E+02  0.44496797186E+03  0.50218782277E+03  0.50400001928E-02 0. -1.
       -1    1    3    3    0  502  0.22974400487E+03  0.37600605790E+02 -0.22667134986E+03  0.32492462849E+03  0.50400001928E-02 0.  1.
</event>
<event>
 5   0  0.2464780E-02  0.8309302E+03  0.7818609E-02  0.9516295E-01
        2   -1    0    0  501    0  0.00000000000E+00  0.00000000000E+00  0.62524721366E+03  0.62524721366E+03  0.25500000920E-02 0. -1.
       -2   -1    0    0    0  501  0.00000000000E+00  0.00000000000E+00 -0.27606882754E+03  0.27606882755E+03  0.25500000920E-02 0.  1.
    10030    2    1    2    0    0  0.00000000000E+00  0.00000000000E+00  0.34917838611E+03  0.90131604122E+03  0.83093023824E+03 0.  0.
        3    1    3    3  502    0  0.39815746263E+03 -0.11482583538E+03  0.14210375091E+03  0.43807285210E+03  0.10100000352E+00 0.  1.
       -3    1    3    3    0  502 -0.39815746263E+03  0.11482583538E+03  0.20707463520E+03  0.46324318912E+03  0.10100000352E+00 0. -1.
</event>
<event>
 5   0  0.1624094E-02  0.8588470E+03  0.7818609E-02  0.9478539E-01
       -1   -1    0    0    0  501  0.00000000000E+00  0.00000000000E+00  0.17070369072E+03  0.17070369080E+03  0.50400001928E-02 0. -1.
        1   -1    0    0  501    0  0.00000000000E+00  0.00000000000E+00 -0.10802611006E+04  0.10802611006E+04  0.50400001928E-02 0.  1.
    10030    2    1    2    0    0  0.00000000000E+00  0.00000000000E+00 -0.90955740987E+03  0.12509647914E+04  0.85884703380E+03 0.  0.
        3    1    3    3  502    0  0.65100490408E+02  0.15973083106E+02  0.16303640791E+03  0.17627845512E+03  0.10100000352E+00 0. -1.
       -3    1    3    3    0  502 -0.65100490408E+02 -0.15973083106E+02 -0.10725938178E+04  0.10746863363E+04  0.10100000352E+00 0.  1.
</event>
<event>
 5   0  0.1509629E-02  0.7993361E+03  0.7818609E-02  0.9560979E-01
        1   -1    0    0  501    0  0.00000000000E+00  0.00000000000E+00  0.11238434560E+04  0.11238434560E+04  0.50400001928E-02 0.  1.
       -1   -1    0    0    0  501  0.00000000000E+00  0.00000000000E+00 -0.14213237422E+03  0.14213237431E+03  0.50400001928E-02 0. -1.
    10030    2    1    2    0    0  0.00000000000E+00  0.00000000000E+00  0.98171108178E+03  0.12659758303E+04  0.79933607130E+03 0.  0.
        5    1    3    3  502    0  0.11703646478E+03  0.17743402178E+03 -0.45138031268E+02  0.21734741323E+03  0.46999998093E+01 0. -1.
       -5    1    3    3    0  502 -0.11703646478E+03 -0.17743402178E+03  0.10268491130E+04  0.10486284171E+04  0.46999998093E+01 0.  1.
</event>
<event>
 5   0  0.1624094E-02  0.8343524E+03  0.7818609E-02  0.9511583E-01
        1   -1    0    0  501    0  0.00000000000E+00  0.00000000000E+00  0.13333634561E+04  0.13333634561E+04  0.50400001928E-02 0.  1.
       -1   -1    0    0    0  501  0.00000000000E+00  0.00000000000E+00 -0.13052402341E+03  0.13052402351E+03  0.50400001928E-02 0. -1.
    10030    2    1    2    0    0  0.00000000000E+00  0.00000000000E+00  0.12028394327E+04  0.14638874797E+04  0.83435235493E+03 0.  0.
        3    1    3    3  502    0 -0.25412823171E+03  0.21610812682E+02  0.11806444234E+04  0.12078780775E+04  0.10100000352E+00 0.  1.
       -3    1    3    3    0  502  0.25412823171E+03 -0.21610812682E+02  0.22195009359E+02  0.25600940220E+03  0.10100000352E+00 0. -1.
</event>
<event>
 5   0  0.2454354E-02  0.8001734E+03  0.7818609E-02  0.9559766E-01
       -2   -1    0    0    0  501  0.00000000000E+00  0.00000000000E+00  0.96619577087E+02  0.96619577121E+02  0.25500000920E-02 0. -1.
        2   -1    0    0  501    0  0.00000000000E+00  0.00000000000E+00 -0.16566969236E+04  0.16566969236E+04  0.25500000920E-02 0.  1.
    10030    2    1    2    0    0  0.00000000000E+00  0.00000000000E+00 -0.15600773465E+04  0.17533165008E+04  0.80017337160E+03 0.  0.
        5    1    3    3  502    0 -0.17419603441E+03 -0.32086686216E+03 -0.11383970292E+04  0.11955206764E+04  0.46999998093E+01 0.  1.
       -5    1    3    3    0  502  0.17419603441E+03  0.32086686216E+03 -0.42168031740E+03  0.55779582440E+03  0.46999998093E+01 0. -1.
</event>
<event>
 5   0  0.2571778E-02  0.7979314E+03  0.7818609E-02  0.9563016E-01
        2   -1    0    0  501    0  0.00000000000E+00  0.00000000000E+00  0.26513468230E+03  0.26513468231E+03  0.25500000920E-02 0.  1.
       -2   -1    0    0    0  501  0.00000000000E+00  0.00000000000E+00 -0.60035014841E+03  0.60035014842E+03  0.25500000920E-02 0. -1.
    10030    2    1    2    0    0  0.00000000000E+00  0.00000000000E+00 -0.33521546611E+03  0.86548483073E+03  0.79793144035E+03 0.  0.
        1    1    3    3  502    0  0.38344081832E+03  0.61164196611E+02 -0.68163067650E+02  0.39422598078E+03  0.50400001928E-02 0.  1.
       -1    1    3    3    0  502 -0.38344081832E+03 -0.61164196611E+02 -0.26705239846E+03  0.47125884995E+03  0.50400001928E-02 0. -1.
</event>
<event>
 5   0  0.2571778E-02  0.8080842E+03  0.7818609E-02  0.9548389E-01
        2   -1    0    0  501    0  0.00000000000E+00  0.00000000000E+00  0.60754639537E+03  0.60754639538E+03  0.25500000920E-02 0.  1.
       -2   -1    0    0    0  501  0.00000000000E+00  0.00000000000E+00 -0.26870379130E+03  0.26870379131E+03  0.25500000920E-02 0. -1.
    10030    2    1    2    0    0  0.00000000000E+00  0.00000000000E+00  0.33884260407E+03  0.87625018669E+03  0.80808420312E+03 0.  0.
        1    1    3    3  502    0  0.29598482500E+03 -0.27309000187E+03  0.13403651781E+03  0.42444193228E+03  0.50400001928E-02 0. -1.
       -1    1    3    3    0  502 -0.29598482500E+03  0.27309000187E+03  0.20480608626E+03  0.45180825440E+03  0.50400001928E-02 0.  1.
</event>
<event>
 5   0  0.1471290E-02  0.7935996E+03  0.7818609E-02  0.9569328E-01
        1   -1    0    0  501    0  0.00000000000E+00  0.00000000000E+00  0.47296585959E+03  0.47296585961E+03  0.50400001928E-02 0.  1.
       -1   -1    0    0    0  501  0.00000000000E+00  0.00000000000E+00 -0.33289949194E+03  0.33289949197E+03  0.50400001928E-02 0. -1.
    10030    2    1    2    0    0  0.00000000000E+00  0.00000000000E+00  0.14006636765E+03  0.80586535159E+03  0.79359963303E+03 0.  0.
        2    1    3    3  502    0  0.29655064704E+02 -0.16707917445E+03 -0.29419599340E+03  0.33962649475E+03  0.25500000920E-02 0. -1.
       -2    1    3    3    0  502 -0.29655064704E+02  0.16707917445E+03  0.43426236105E+03  0.46623885684E+03  0.25500000920E-02 0.  1.
</event>
<event>
 5   0  0.2454354E-02  0.8052640E+03  0.7818609E-02  0.9552429E-01
        2   -1    0    0  501    0  0.00000000000E+00  0.00000000000E+00  0.89956740032E+03  0.89956740032E+03  0.25500000920E-02 0. -1.
       -2   -1    0    0    0  501  0.00000000000E+00  0.00000000000E+00 -0.18021165382E+03  0.18021165384E+03  0.25500000920E-02 0.  1.
    10030    2    1    2    0    0  0.00000000000E+00  0.00000000000E+00  0.71935574650E+03  0.10797790542E+04  0.80526400378E+03 0.  0.
        5    1    3    3  502    0 -0.35543516055E+03  0.10427940687E+03  0.14816342013E+03  0.39897723884E+03  0.46999998093E+01 0.  1.
       -5    1    3    3    0  502  0.35543516055E+03 -0.10427940687E+03  0.57119232637E+03  0.68080181532E+03  0.46999998093E+01 0. -1.
</event>
<event>
 5   0  0.2460312E-02  0.8058285E+03  0.7818609E-02  0.9551619E-01
        2   -1    0    0  501    0  0.00000000000E+00  0.00000000000E+00  0.14233727093E+04  0.14233727093E+04  0.25500000920E-02 0.  1.
       -2   -1    0    0    0  501  0.00000000000E+00  0.00000000000E+00 -0.11405297208E+03  0.11405297211E+03  0.25500000920E-02 0. -1.
    10030    2    1    2    0    0  0.00000000000E+00  0.00000000000E+00  0.13093197372E+04  0.15374256814E+04  0.80582848771E+03 0.  0.
        2    1    3    3  502    0  0.25517584061E+03 -0.23321361125E+03  0.10495342509E+04  0.11050001999E+04  0.25500000920E-02 0.  1.
       -2    1    3    3    0  502 -0.25517584061E+03  0.23321361125E+03  0.25978548633E+03  0.43242548147E+03  0.25500000920E-02 0. -1.
</event>
<event>
 5   0  0.1509629E-02  0.7690227E+03  0.7818609E-02  0.9605971E-01
       -1   -1    0    0    0  501  0.00000000000E+00  0.00000000000E+00  0.15186018560E+03  0.15186018569E+03  0.50400001928E-02 0.  1.
        1   -1    0    0  501    0  0.00000000000E+00  0.00000000000E+00 -0.97358607575E+03  0.97358607576E+03  0.50400001928E-02 0. -1.
    10030    2    1    2    0    0  0.00000000000E+00  0.00000000000E+00 -0.82172589014E+03  0.11254462614E+04  0.76902265823E+03 0.  0.
        5    1    3    3  502    0 -0.14810996445E+03 -0.28850564522E+03 -0.71311523431E+03  0.78340761823E+03  0.46999998093E+01 0. -1.
       -5    1    3    3    0  502  0.14810996445E+03  0.28850564522E+03 -0.10861065583E+03  0.34203864321E+03  0.46999998093E+01 0.  1.
</event>
<event>
 5   0  0.1498375E-02  0.7884940E+03  0.7818609E-02  0.9576823E-01
        1   -1    0    0  501    0  0.00000000000E+00  0.00000000000E+00  0.35001193943E+03  0.35001193946E+03  0.50400001928E-02 0.  1.
       -1   -1    0    0    0  501  0.00000000000E+00  0.00000000000E+00 -0.44407253160E+03  0.44407253162E+03  0.50400001928E-02 0. -1.
    10030    2    1    2    0    0  0.00000000000E+00  0.00000000000E+00 -0.94060592168E+02  0.79408447109E+03  0.78849397729E+03 0.  0.
        4    1    3    3  502    0 -0.78271579739E+02 -0.37932431944E+03 -0.12114347596E+03  0.40582106178E+03  0.12699999809E+01 0. -1.
       -4    1    3    3    0  502  0.78271579739E+02  0.37932431944E+03  0.27082883790E+02  0.38826340931E+03  0.12699999809E+01 0.  1.
</event>
<event>
 5   0  0.1624094E-02  0.8028083E+03  0.7818609E-02  0.9555961E-01
       -1   -1    0    0    0  501  0.00000000000E+00  0.00000000000E+00  0.23631898796E+03  0.23631898802E+03  0.50400001928E-02 0.  1.
        1   -1    0    0  501    0  0.00000000000E+00  0.00000000000E+00 -0.68181264433E+03  0.68181264435E+03  0.50400001928E-02 0. -1.
    10030    2    1    2    0    0  0.00000000000E+00  0.00000000000E+00 -0.44549365637E+03  0.91813163236E+03  0.80280825636E+03 0.  0.
        3    1    3    3  502    0  0.16033928302E+03 -0.90743245108E+02  0.18510870438E+03  0.26116712054E+03  0.10100000352E+00 0.  1.
       -3    1    3    3    0  502 -0.16033928302E+03  0.90743245108E+02 -0.63060236075E+03  0.65696451183E+03  0.10100000352E+00 0. -1.
</event>
<event>
 5   0  0.1624094E-02  0.8003258E+03  0.7818609E-02  0.9559546E-01
       -1   -1    0    0    0  501  0.00000000000E+00  0.00000000000E+00  0.17844143423E+03  0.17844143430E+03  0.50400001928E-02 0.  1.
        1   -1    0    0  501    0  0.00000000000E+00  0.00000000000E+00 -0.89738326787E+03  0.89738326788E+03  0.50400001928E-02 0. -1.
    10030    2    1    2    0    0  0.00000000000E+00  0.00000000000E+00 -0.71894183364E+03  0.10758247022E+04  0.80032582718E+03 0.  0.
        3    1    3    3  502    0 -0.39869942222E+03 -0.32375687904E+02 -0.37425337581E+03  0.54779103128E+03  0.10100000352E+00 0.  1.
       -3    1    3    3    0  502  0.39869942222E+03  0.32375687904E+02 -0.34468845783E+03  0.52803367090E+03  0.10100000352E+00 0. -1.
</event>
<event>
 5   0  0.2460312E-02  0.8551727E+03  0.7818609E-02  0.9483421E-01
       -2   -1    0    0    0  501  0.00000000000E+00  0.00000000000E+00  0.26548593692E+03  0.26548593693E+03  0.25500000920E-02 0. -1.
        2   -1    0    0  501    0  0.00000000000E+00  0.00000000000E+00 -0.68866203740E+03  0.68866203740E+03  0.25500000920E-02 0.  1.
    10030    2    1    2    0    0  0.00000000000E+00  0.00000000000E+00 -0.42317610048E+03  0.95414797433E+03  0.85517269888E+03 0.  0.
        2    1    3    3  502    0 -0.15095175515E+01 -0.10566264275E+03  0.25068707402E+03  0.27204941059E+03  0.25500000920E-02 0. -1.
       -2    1    3    3    0  502  0.15095175515E+01  0.10566264275E+03 -0.67386317450E+03  0.68209856374E+03  0.25500000920E-02 0.  1.
</event>
<event>
 5   0  0.2460312E-02  0.7677745E+03  0.7818609E-02  0.9607870E-01
       -2   -1    0    0    0  501  0.00000000000E+00  0.00000000000E+00  0.19944523339E+03  0.19944523341E+03  0.25500000920E-02 0.  1.
        2   -1    0    0  501    0  0.00000000000E+00  0.00000000000E+00 -0.73889670718E+03  0.73889670719E+03  0.25500000920E-02 0. -1.
    10030    2    1    2    0    0  0.00000000000E+00  0.00000000000E+00 -0.53945147379E+03  0.93834194059E+03  0.76777451436E+03 0.  0.
        2    1    3    3  502    0 -0.89487054931E+02 -0.34016443222E+03 -0.81776824915E+02  0.36111940276E+03  0.25500000920E-02 0.  1.
       -2    1    3    3    0  502  0.89487054931E+02  0.34016443222E+03 -0.45767464888E+03  0.57722253783E+03  0.25500000920E-02 0. -1.
</event>
<event>
 5   0  0.1498375E-02  0.7975294E+03  0.7818609E-02  0.9563600E-01
        1   -1    0    0  501    0  0.00000000000E+00  0.00000000000E+00  0.25238380841E+03  0.25238380846E+03  0.50400001928E-02 0.  1.
       -1   -1    0    0    0  501  0.00000000000E+00  0.00000000000E+00 -0.63004548837E+03  0.63004548839E+03  0.50400001928E-02 0. -1.
    10030    2    1    2    0    0  0.00000000000E+00  0.00000000000E+00 -0.37766167996E+03  0.88242929685E+03  0.79752938467E+03 0.  0.
        4    1    3    3  502    0  0.15847779329E+02  0.23524326082E+03 -0.54465698021E+03  0.59350095439E+03  0.12699999809E+01 0. -1.
       -4    1    3    3    0  502 -0.15847779329E+02 -0.23524326082E+03  0.16699530024E+03  0.28892834246E+03  0.12699999809E+01 0.  1.
</event>
<event>
 5   0  0.1523811E-02  0.8224745E+03  0.7818609E-02  0.9528044E-01
       -1   -1    0    0    0  501  0.00000000000E+00  0.00000000000E+00  0.50711816071E+03  0.50711816073E+03  0.50400001928E-02 0. -1.
        1   -1    0    0  501    0  0.00000000000E+00  0.00000000000E+00 -0.33348455070E+03  0.33348455074E+03  0.50400001928E-02 0.  1.
    10030    2    1    2    0    0  0.00000000000E+00  0.00000000000E+00  0.17363361000E+03  0.84060271147E+03  0.82247449080E+03 0.  0.
        1    1    3    3  502    0 -0.28023863257E+01  0.32702973777E+03 -0.16799705466E+03  0.36766739474E+03  0.50400001928E-02 0.  1.
       -1    1    3    3    0  502  0.28023863257E+01 -0.32702973777E+03  0.34163066467E+03  0.47293531674E+03  0.50400001928E-02 0. -1.
</event>
<event>
 5   0  0.1498375E-02  0.8091495E+03  0.7818609E-02  0.9546867E-01
       -1   -1    0    0    0  501  0.00000000000E+00  0.00000000000E+00  0.21871873290E+03  0.21871873296E+03  0.50400001928E-02 0. -1.
        1   -1    0    0  501    0  0.00000000000E+00  0.00000000000E+00 -0.74836172133E+03  0.74836172134E+03  0.50400001928E-02 0.  1.
    10030    2    1    2    0    0  0.00000000000E+00  0.00000000000E+00 -0.52964298843E+03  0.96708045430E+03  0.80914949787E+03 0.  0.
        4    1    3    3  502    0 -0.90302914069E+01 -0.21143464761E+03 -0.67693030845E+03  0.70924072906E+03  0.12699999809E+01 0.  1.
       -4    1    3    3    0  502  0.90302914069E+01  0.21143464761E+03  0.14728732002E+03  0.25783972524E+03  0.12699999809E+01 0. -1.
</event>
<event>
 5   0  0.9919125E-03  0.7996400E+03  0.7818609E-02  0.9560538E-01
       -3   -1    0    0    0  501  0.00000000000E+00  0.00000000000E+00  0.16131679665E+04  0.16131679696E+04  0.10100000352E+00 0. -1.
        3   -1    0    0  501    0  0.00000000000E+00  0.00000000000E+00 -0.99094450512E+02  0.99094501983E+02  0.10100000352E+00 0.  1.
    10030    2    1    2    0    0  0.00000000000E+00  0.00000000000E+00  0.15140735160E+04  0.17122624716E+04  0.79964001899E+03 0.  0.
        5    1    3    3  502    0  0.17611927027E+03 -0.34025738862E+03  0.51250854784E+03  0.63990639119E+03  0.46999998093E+01 0.  1.
       -5    1    3    3    0  502 -0.17611927027E+03  0.34025738862E+03  0.10015649681E+04  0.10723560804E+04  0.46999998093E+01 0. -1.
</event>
<event>
 5   0  0.9919125E-03  0.8243065E+03  0.7818609E-02  0.9525486E-01
       -3   -1    0    0    0  501  0.00000000000E+00  0.00000000000E+00  0.53156705502E+03  0.53156706461E+03  0.10100000352E+00 0. -1.
        3   -1    0    0  501    0  0.00000000000E+00  0.00000000000E+00 -0.31956508852E+03  0.31956510448E+03  0.10100000352E+00 0.  1.
    10030    2    1    2    0    0  0.00000000000E+00  0.00000000000E+00  0.21200196650E+03  0.85113216910E+03  0.82430645725E+03 0.  0.
        4    1    3    3  502    0  0.28747024732E+03 -0.25971043113E+03 -0.39217422525E+02  0.38939474863E+03  0.12699999809E+01 0.  1.
       -4    1    3    3    0  502 -0.28747024732E+03  0.25971043113E+03  0.25121938902E+03  0.46173742046E+03  0.12699999809E+01 0. -1.
</event>
<event>
 5   0  0.1509629E-02  0.7986250E+03  0.7818609E-02  0.9562010E-01
       -1   -1    0    0    0  501  0.00000000000E+00  0.00000000000E+00  0.19096352768E+03  0.19096352774E+03  0.50400001928E-02 0. -1.
        1   -1    0    0  501    0  0.00000000000E+00  0.00000000000E+00 -0.83497864882E+03  0.83497864883E+03  0.50400001928E-02 0.  1.
    10030    2    1    2    0    0  0.00000000000E+00  0.00000000000E+00 -0.64401512114E+03  0.10259421766E+04  0.79862498923E+03 0.  0.
        5    1    3    3  502    0  0.21417258557E+03 -0.32864885123E+03 -0.22631802669E+03  0.45290385627E+03  0.46999998093E+01 0. -1.
       -5    1    3    3    0  502 -0.21417258557E+03  0.32864885123E+03 -0.41769709445E+03  0.57303832031E+03  0.46999998093E+01 0.  1.
</event>
<event>
 5   0  0.2422031E-02  0.7902942E+03  0.7818609E-02  0.9574173E-01
        2   -1    0    0  501    0  0.00000000000E+00  0.00000000000E+00  0.15145194023E+04  0.15145194023E+04  0.25500000920E-02 0. -1.
       -2   -1    0    0    0  501  0.00000000000E+00  0.00000000000E+00 -0.10309623083E+03  0.10309623086E+03  0.25500000920E-02 0.  1.
    10030    2    1    2    0    0  0.00000000000E+00  0.00000000000E+00  0.14114231715E+04  0.16176156332E+04  0.79029422856E+03 0.  0.
        4    1    3    3  502    0 -0.75734596857E+02  0.29295250999E+03  0.12258808821E+04  0.12626727416E+04  0.12699999809E+01 0. -1.
       -4    1    3    3    0  502  0.75734596857E+02 -0.29295250999E+03  0.18554228941E+03  0.35494289165E+03  0.12699999809E+01 0.  1.
</event>
<event>
 5   0  0.2464780E-02  0.7773743E+03  0.7818609E-02  0.9593357E-01
        2   -1    0    0  501    0  0.00000000000E+00  0.00000000000E+00  0.46413744728E+03  0.46413744729E+03  0.25500000920E-02 0. -1.
       -2   -1    0    0    0  501  0.00000000000E+00  0.00000000000E+00 -0.32550210116E+03  0.32550210117E+03  0.25500000920E-02 0.  1.
    10030    2    1    2    0    0  0.00000000000E+00  0.00000000000E+00  0.13863534612E+03  0.78963954846E+03  0.77737433537E+03 0.  0.
        3    1    3    3  502    0  0.37047186499E+03  0.27785028151E+02  0.18538464292E+03  0.41519740675E+03  0.10100000352E+00 0. -1.
       -3    1    3    3    0  502 -0.37047186499E+03 -0.27785028151E+02 -0.46749296803E+02  0.37444214171E+03  0.10100000352E+00 0.  1.
</event>
<event>
 5   0  0.2571778E-02  0.7868137E+03  0.7818609E-02  0.9579302E-01
       -2   -1    0    0    0  501  0.00000000000E+00  0.00000000000E+00  0.14927989220E+03  0.14927989223E+03  0.25500000920E-02 0.  1.
        2   -1    0    0  501    0  0.00000000000E+00  0.00000000000E+00 -0.10367701288E+04  0.10367701288E+04  0.25500000920E-02 0. -1.
    10030    2    1    2    0    0  0.00000000000E+00  0.00000000000E+00 -0.88749023661E+03  0.11860500210E+04  0.78681365795E+03 0.  0.
        1    1    3    3  502    0  0.63562634451E+02 -0.42641234354E+02 -0.10254379382E+04  0.10282905467E+04  0.50400001928E-02 0. -1.
       -1    1    3    3    0  502 -0.63562634451E+02  0.42641234354E+02  0.13794770154E+03  0.15775947436E+03  0.50400001928E-02 0.  1.
</event>
<event>
 5   0  0.9919125E-03  0.7683397E+03  0.7818609E-02  0.9607010E-01
        3   -1    0    0  501    0  0.00000000000E+00  0.00000000000E+00  0.25038591068E+03  0.25038593105E+03  0.10100000352E+00 0.  1.
       -3   -1    0    0    0  501  0.00000000000E+00  0.00000000000E+00 -0.58943600874E+03  0.58943601740E+03  0.10100000352E+00 0. -1.
    10030    2    1    2    0    0  0.00000000000E+00  0.00000000000E+00 -0.33905009806E+03  0.83982194845E+03  0.76833972701E+03 0.  0.
        3    1    3    3  502    0 -0.27420701575E+02  0.11772875205E+03 -0.56810747586E+03  0.58082533369E+03  0.10100000352E+00 0. -1.
       -3    1    3    3    0  502  0.27420701575E+02 -0.11772875205E+03  0.22905737779E+03  0.25899661476E+03  0.10100000352E+00 0.  1.
</event>
<event>
 5   0  0.2464780E-02  0.8011820E+03  0.7818609E-02  0.9558308E-01
        2   -1    0    0  501    0  0.00000000000E+00  0.00000000000E+00  0.91070793720E+03  0.91070793720E+03  0.25500000920E-02 0.  1.
       -2   -1    0    0    0  501  0.00000000000E+00  0.00000000000E+00 -0.17620702010E+03  0.17620702011E+03  0.25500000920E-02 0. -1.
    10030    2    1    2    0    0  0.00000000000E+00  0.00000000000E+00  0.73450091710E+03  0.10869149573E+04  0.80118195637E+03 0.  0.
        3    1    3    3  502    0 -0.46860561129E+01  0.22326604861E+03  0.81842928569E+03  0.84834909882E+03  0.10100000352E+00 0.  1.
       -3    1    3    3    0  502  0.46860561129E+01 -0.22326604861E+03 -0.83928368590E+02  0.23856585850E+03  0.10100000352E+00 0. -1.
</event>
<event>
 5   0  0.2454354E-02  0.7781746E+03  0.7818609E-02  0.9592157E-01
       -2   -1    0    0    0  501  0.00000000000E+00  0.00000000000E+00  0.22655803801E+03  0.22655803803E+03  0.25500000920E-02 0. -1.
        2   -1    0    0  501    0  0.00000000000E+00  0.00000000000E+00 -0.66821263475E+03  0.66821263475E+03  0.25500000920E-02 0.  1.
    10030    2    1    2    0    0  0.00000000000E+00  0.00000000000E+00 -0.44165459674E+03  0.89477067278E+03  0.77817464238E+03 0.  0.
        5    1    3    3  502    0  0.17701805563E+03  0.26275888727E+03  0.38814068890E+02  0.31922757838E+03  0.46999998093E+01 0. -1.
       -5    1    3    3    0  502 -0.17701805563E+03 -0.26275888727E+03 -0.48046866563E+03  0.57554309439E+03  0.46999998093E+01 0.  1.
</event>
<event>
 5   0  0.2454354E-02  0.7724111E+03  0.7818609E-02  0.9600832E-01
       -2   -1    0    0    0  501  0.00000000000E+00  0.00000000000E+00  0.10389075082E+03  0.10389075086E+03  0.25500000920E-02 0.  1.
        2   -1    0    0  501    0  0.00000000000E+00  0.00000000000E+00 -0.14356883229E+04  0.14356883229E+04  0.25500000920E-02 0. -1.
    10030    2    1    2    0    0  0.00000000000E+00  0.00000000000E+00 -0.13317975720E+04  0.15395790737E+04  0.77241112845E+03 0.  0.
        5    1    3    3  502    0  0.24368902296E+03  0.29815490876E+03 -0.72407730337E+03  0.82011628491E+03  0.46999998093E+01 0.  1.
       -5    1    3    3    0  502 -0.24368902296E+03 -0.29815490876E+03 -0.60772026868E+03  0.71946278882E+03  0.46999998093E+01 0. -1.
</event>
<event>
 5   0  0.1523811E-02  0.7918851E+03  0.7818609E-02  0.9571838E-01
       -1   -1    0    0    0  501  0.00000000000E+00  0.00000000000E+00  0.15015859169E+03  0.15015859177E+03  0.50400001928E-02 0. -1.
        1   -1    0    0  501    0  0.00000000000E+00  0.00000000000E+00 -0.10440328638E+04  0.10440328638E+04  0.50400001928E-02 0.  1.
    10030    2    1    2    0    0  0.00000000000E+00  0.00000000000E+00 -0.89387427215E+03  0.11941914556E+04  0.79188510420E+03 0.  0.
        1    1    3    3  502    0 -0.66423775540E+00  0.20942956118E+03  0.59792944853E+02  0.21779894074E+03  0.50400001928E-02 0. -1.
       -1    1    3    3    0  502  0.66423775540E+00 -0.20942956118E+03 -0.95366721700E+03  0.97639251488E+03  0.50400001928E-02 0.  1.
</event>
<event>
 5   0  0.2422031E-02  0.7511845E+03  0.7818609E-02  0.9633494E-01
        2   -1    0    0  501    0  0.00000000000E+00  0.00000000000E+00  0.13797067135E+04  0.13797067135E+04  0.25500000920E-02 0. -1.
       -2   -1    0    0    0  501  0.00000000000E+00  0.00000000000E+00 -0.10224604291E+03  0.10224604294E+03  0.25500000920E-02 0.  1.
    10030    2    1    2    0    0  0.00000000000E+00  0.00000000000E+00  0.12774606706E+04  0.14819527564E+04  0.75118453619E+03 0.  0.
        4    1    3    3  502    0 -0.96609416333E+02 -0.23823023850E+03  0.11789409112E+04  0.12066442354E+04  0.12699999809E+01 0. -1.
       -4    1    3    3    0  502  0.96609416333E+02  0.23823023850E+03  0.98519759385E+02  0.27530852102E+03  0.12699999809E+01 0.  1.
</event>
<event>
 5   0  0.1624094E-02  0.7942142E+03  0.7818609E-02  0.9568430E-01
        1   -1    0    0  501    0  0.00000000000E+00  0.00000000000E+00  0.18836274004E+03  0.18836274011E+03  0.50400001928E-02 0.  1.
       -1   -1    0    0    0  501  0.00000000000E+00  0.00000000000E+00 -0.83718274905E+03  0.83718274907E+03  0.50400001928E-02 0. -1.
    10030    2    1    2    0    0  0.00000000000E+00  0.00000000000E+00 -0.64882000902E+03  0.10255454892E+04  0.79421416902E+03 0.  0.
        3    1    3    3  502    0  0.37396424762E+03 -0.46767958741E+01 -0.15202224402E+03  0.40371017301E+03  0.10100000352E+00 0.  1.
       -3    1    3    3    0  502 -0.37396424762E+03  0.46767958741E+01 -0.49679776500E+03  0.62183531616E+03  0.10100000352E+00 0. -1.
</event>
<event>
 5   0  0.1471290E-02  0.7821099E+03  0.7818609E-02  0.9586279E-01
        1   -1    0    0  501    0  0.00000000000E+00  0.00000000000E+00  0.10393278616E+04  0.10393278616E+04  0.50400001928E-02 0.  1.
       -1   -1    0    0    0  501  0.00000000000E+00  0.00000000000E+00 -0.14713738899E+03  0.14713738907E+03  0.50400001928E-02 0. -1.
    10030    2    1    2    0    0  0.00000000000E+00  0.00000000000E+00  0.89219047258E+03  0.11864652507E+04  0.78210993577E+03 0.  0.
        2    1    3    3  502    0  0.10448376099E+03  0.37486785071E+03  0.50447978085E+03  0.63713625788E+03  0.25500000920E-02 0.  1.
       -2    1    3    3    0  502 -0.10448376099E+03 -0.37486785071E+03  0.38771069173E+03  0.54932899277E+03  0.25500000920E-02 0. -1.
</event>
<event>
 5   0  0.1498375E-02  0.7957706E+03  0.7818609E-02  0.9566159E-01
        1   -1    0    0  501    0  0.00000000000E+00  0.00000000000E+00  0.45605907831E+03  0.45605907834E+03  0.50400001928E-02 0.  1.
       -1   -1    0    0    0  501  0.00000000000E+00  0.00000000000E+00 -0.34713201814E+03  0.34713201817E+03  0.50400001928E-02 0. -1.
    10030    2    1    2    0    0  0.00000000000E+00  0.00000000000E+00  0.10892706017E+03  0.80319109651E+03  0.79577059073E+03 0.  0.
        4    1    3    3  502    0  0.14993531568E+03  0.33520938308E+03 -0.10014833387E+03  0.38062741765E+03  0.12699999809E+01 0. -1.
       -4    1    3    3    0  502 -0.14993531568E+03 -0.33520938308E+03  0.20907539405E+03  0.42256367886E+03  0.12699999809E+01 0.  1.
</event>
<event>
 5   0  0.2422031E-02  0.8045156E+03  0.7818609E-02  0.9553504E-01
        2   -1    0    0  501    0  0.00000000000E+00  0.00000000000E+00  0.66758914561E+03  0.66758914561E+03  0.25500000920E-02 0.  1.
       -2   -1    0    0    0  501  0.00000000000E+00  0.00000000000E+00 -0.24238161964E+03  0.24238161965E+03  0.25500000920E-02 0. -1.
    10030    2    1    2    0    0  0.00000000000E+00  0.00000000000E+00  0.42520752597E+03  0.90997076527E+03  0.80451560177E+03 0.  0.
        4    1    3    3  502    0  0.14291617772E+03  0.15663485380E+02 -0.21232587263E+03  0.25642594977E+03  0.12699999809E+01 0. -1.
       -4    1    3    3    0  502 -0.14291617772E+03 -0.15663485380E+02  0.63753339860E+03  0.65354481549E+03  0.12699999809E+01 0.  1.
</event>
<event>
 5   0  0.1509629E-02  0.8269058E+03  0.7818609E-02  0.9521868E-01
       -1   -1    0    0    0  501  0.00000000000E+00  0.00000000000E+00  0.22977794000E+03  0.22977794005E+03  0.50400001928E-02 0.  1.
        1   -1    0    0  501    0  0.00000000000E+00  0.00000000000E+00 -0.74394997984E+03  0.74394997986E+03  0.50400001928E-02 0. -1.
    10030    2    1    2    0    0  0.00000000000E+00  0.00000000000E+00 -0.51417203985E+03  0.97372791991E+03  0.82690578390E+03 0.  0.
        5    1    3    3  502    0 -0.18618425484E+03 -0.32257908558E+03 -0.46838880311E+03  0.59844131214E+03  0.46999998093E+01 0. -1.
       -5    1    3    3    0  502  0.18618425484E+03  0.32257908558E+03 -0.45783236740E+02  0.37528660777E+03  0.46999998093E+01 0.  1.
</event>
<event>
 5   0  0.1624094E-02  0.8229127E+03  0.7818609E-02  0.9527432E-01
        1   -1    0    0  501    0  0.00000000000E+00  0.00000000000E+00  0.10563611906E+04  0.10563611906E+04  0.50400001928E-02 0.  1.
       -1   -1    0    0    0  501  0.00000000000E+00  0.00000000000E+00 -0.16026366280E+03  0.16026366287E+03  0.50400001928E-02 0. -1.
    10030    2    1    2    0    0  0.00000000000E+00  0.00000000000E+00  0.89609752783E+03  0.12166248535E+04  0.82291266536E+03 0.  0.
        3    1    3    3  502    0 -0.21662190233E+03 -0.31019070491E+03  0.20895759186E+03  0.43221129945E+03  0.10100000352E+00 0. -1.
       -3    1    3    3    0  502  0.21662190233E+03  0.31019070491E+03  0.68713993598E+03  0.78441355406E+03  0.10100000352E+00 0.  1.
</event>
<event>
 5   0  0.1509629E-02  0.8051051E+03  0.7818609E-02  0.9552657E-01
        1   -1    0    0  501    0  0.00000000000E+00  0.00000000000E+00  0.26325145023E+03  0.26325145028E+03  0.50400001928E-02 0.  1.
       -1   -1    0    0    0  501  0.00000000000E+00  0.00000000000E+00 -0.61556562605E+03  0.61556562607E+03  0.50400001928E-02 0. -1.
    10030    2    1    2    0    0  0.00000000000E+00  0.00000000000E+00 -0.35231417582E+03  0.87881707636E+03  0.80510507091E+03 0.  0.
        5    1    3    3  502    0 -0.33129208675E+03  0.13698015640E+03 -0.37596977239E+03  0.51951262712E+03  0.46999998093E+01 0. -1.
       -5    1    3    3    0  502  0.33129208675E+03 -0.13698015640E+03  0.23655596574E+02  0.35930444923E+03  0.46999998093E+01 0.  1.
</event>
<event>
 5   0  0.2454354E-02  0.7991589E+03  0.7818609E-02  0.9561235E-01
        2   -1    0    0  501    0  0.00000000000E+00  0.00000000000E+00  0.74440441861E+03  0.74440441862E+03  0.25500000920E-02 0.  1.
       -2   -1    0    0    0  501  0.00000000000E+00  0.00000000000E+00 -0.21448520161E+03  0.21448520162E+03  0.25500000920E-02 0. -1.
    10030    2    1    2    0    0  0.00000000000E+00  0.00000000000E+00  0.52991921700E+03  0.95888962024E+03  0.79915888736E+03 0.  0.
        5    1    3    3  502    0 -0.33971347351E+03 -0.20920702354E+03  0.29093954584E+03  0.49380232089E+03  0.46999998093E+01 0. -1.
       -5    1    3    3    0  502  0.33971347351E+03  0.20920702354E+03  0.23897967116E+03  0.46508729934E+03  0.46999998093E+01 0.  1.
</event>
<event>
 5   0  0.2571778E-02  0.7046353E+03  0.7818609E-02  0.9709338E-01
       -2   -1    0    0    0  501  0.00000000000E+00  0.00000000000E+00  0.17669995860E+03  0.17669995862E+03  0.25500000920E-02 0. -1.
        2   -1    0    0  501    0  0.00000000000E+00  0.00000000000E+00 -0.70247744506E+03  0.70247744507E+03  0.25500000920E-02 0.  1.
    10030    2    1    2    0    0  0.00000000000E+00  0.00000000000E+00 -0.52577748646E+03  0.87917740369E+03  0.70463532546E+03 0.  0.
        1    1    3    3  502    0  0.11165273935E+03  0.17334183616E+03 -0.61933533099E+03  0.65275568064E+03  0.50400001928E-02 0.  1.
       -1    1    3    3    0  502 -0.11165273935E+03 -0.17334183616E+03  0.93557844534E+02  0.22642172305E+03  0.50400001928E-02 0. -1.
</event>
<event>
 5   0  0.1471290E-02  0.7596333E+03  0.7818609E-02  0.9620357E-01
        1   -1    0    0  501    0  0.00000000000E+00  0.00000000000E+00  0.30884335429E+03  0.30884335433E+03  0.50400001928E-02 0.  1.
       -1   -1    0    0    0  501  0.00000000000E+00  0.00000000000E+00 -0.46709988396E+03  0.46709988399E+03  0.50400001928E-02 0. -1.
    10030    2    1    2    0    0  0.00000000000E+00  0.00000000000E+00 -0.15825652967E+03  0.77594323832E+03  0.75963331938E+03 0.  0.
        2    1    3    3  502    0 -0.30244378166E+03  0.47071672142E+02 -0.30884046809E+03  0.43482228338E+03  0.25500000920E-02 0. -1.
       -2    1    3    3    0  502  0.30244378166E+03 -0.47071672142E+02  0.15058393842E+03  0.34112095494E+03  0.25500000920E-02 0.  1.
</event>
<event>
 5   0  0.2454354E-02  0.7983227E+03  0.7818609E-02  0.9562448E-01
        2   -1    0    0  501    0  0.00000000000E+00  0.00000000000E+00  0.11213272464E+04  0.11213272464E+04  0.25500000920E-02 0.  1.
       -2   -1    0    0    0  501  0.00000000000E+00  0.00000000000E+00 -0.14209036468E+03  0.14209036470E+03  0.25500000920E-02 0. -1.
    10030    2    1    2    0    0  0.00000000000E+00  0.00000000000E+00  0.97923688174E+03  0.12634176111E+04  0.79832273519E+03 0.  0.
        5    1    3    3  502    0 -0.31678362100E+03  0.20748502338E+03  0.68921190824E+03  0.78640768175E+03  0.46999998093E+01 0.  1.
       -5    1    3    3    0  502  0.31678362100E+03 -0.20748502338E+03  0.29002497350E+03  0.47700992936E+03  0.46999998093E+01 0. -1.
</event>
<event>
 5   0  0.2571778E-02  0.7861448E+03  0.7818609E-02  0.9580291E-01
        2   -1    0    0  501    0  0.00000000000E+00  0.00000000000E+00  0.27802633010E+03  0.27802633011E+03  0.25500000920E-02 0. -1.
       -2   -1    0    0    0  501  0.00000000000E+00  0.00000000000E+00 -0.55572396875E+03  0.55572396875E+03  0.25500000920E-02 0.  1.
    10030    2    1    2    0    0  0.00000000000E+00  0.00000000000E+00 -0.27769763865E+03  0.83375029886E+03  0.78614475915E+03 0.  0.
        1    1    3    3  502    0  0.38228485280E+03  0.35197007654E+02 -0.22837226913E+03  0.44669277066E+03  0.50400001928E-02 0.  1.
       -1    1    3    3    0  502 -0.38228485280E+03 -0.35197007654E+02 -0.49325369520E+02  0.38705752820E+03  0.50400001928E-02 0. -1.
</event>
<event>
 5   0  0.9919125E-03  0.8020548E+03  0.7818609E-02  0.9557048E-01
       -3   -1    0    0    0  501  0.00000000000E+00  0.00000000000E+00  0.64012912503E+03  0.64012913299E+03  0.10100000352E+00 0. -1.
        3   -1    0    0  501    0  0.00000000000E+00  0.00000000000E+00 -0.25123516339E+03  0.25123518369E+03  0.10100000352E+00 0.  1.
    10030    2    1    2    0    0  0.00000000000E+00  0.00000000000E+00  0.38889396164E+03  0.89136431669E+03  0.80205475603E+03 0.  0.
        2    1    3    3  502    0 -0.28025232897E+03 -0.18939382759E+03  0.43386914208E+03  0.55013982066E+03  0.25500000920E-02 0. -1.
       -2    1    3    3    0  502  0.28025232897E+03  0.18939382759E+03 -0.44975180441E+02  0.34122449603E+03  0.25500000920E-02 0.  1.
</event>
<event>
 5   0  0.2571778E-02  0.8126079E+03  0.7818609E-02  0.9541945E-01
       -2   -1    0    0    0  501  0.00000000000E+00  0.00000000000E+00  0.40651885398E+03  0.40651885399E+03  0.25500000920E-02 0. -1.
        2   -1    0    0  501    0  0.00000000000E+00  0.00000000000E+00 -0.40608919913E+03  0.40608919914E+03  0.25500000920E-02 0.  1.
    10030    2    1    2    0    0  0.00000000000E+00  0.00000000000E+00  0.42965485008E+00  0.81260805313E+03  0.81260793955E+03 0.  0.
        1    1    3    3  502    0  0.17905536809E+03  0.26624038522E+03 -0.24906045341E+03  0.40617222584E+03  0.50400001928E-02 0.  1.
       -1    1    3    3    0  502 -0.17905536809E+03 -0.26624038522E+03  0.24949010826E+03  0.40643582730E+03  0.50400001928E-02 0. -1.
</event>
<event>
 5   0  0.2464780E-02  0.7934619E+03  0.7818609E-02  0.9569529E-01
       -2   -1    0    0    0  501  0.00000000000E+00  0.00000000000E+00  0.81991875713E+03  0.81991875714E+03  0.25500000920E-02 0. -1.
        2   -1    0    0  501    0  0.00000000000E+00  0.00000000000E+00 -0.19196466694E+03  0.19196466696E+03  0.25500000920E-02 0.  1.
    10030    2    1    2    0    0  0.00000000000E+00  0.00000000000E+00  0.62795409019E+03  0.10118834241E+04  0.79346186081E+03 0.  0.
        3    1    3    3  502    0 -0.26925184505E+03 -0.20137076971E+03  0.45414920250E+02  0.33927756798E+03  0.10100000352E+00 0.  1.
       -3    1    3    3    0  502  0.26925184505E+03  0.20137076971E+03  0.58253916994E+03  0.67260585611E+03  0.10100000352E+00 0. -1.
</event>
<event>
 5   0  0.1498375E-02  0.7960744E+03  0.7818609E-02  0.9565717E-01
       -1   -1    0    0    0  501  0.00000000000E+00  0.00000000000E+00  0.22181712272E+03  0.22181712278E+03  0.50400001928E-02 0. -1.
        1   -1    0    0  501    0  0.00000000000E+00  0.00000000000E+00 -0.71425338943E+03  0.71425338945E+03  0.50400001928E-02 0.  1.
    10030    2    1    2    0    0  0.00000000000E+00  0.00000000000E+00 -0.49243626671E+03  0.93607051223E+03  0.79607444821E+03 0.  0.
        4    1    3    3  502    0 -0.26857745632E+03  0.36305525724E+02 -0.58899652897E+03  0.64835982701E+03  0.12699999809E+01 0.  1.
       -4    1    3    3    0  502  0.26857745632E+03 -0.36305525724E+02  0.96560262263E+02  0.28771068522E+03  0.12699999809E+01 0. -1.
</event>
<event>
 5   0  0.1498375E-02  0.8088460E+03  0.7818609E-02  0.9547300E-01
       -1   -1    0    0    0  501  0.00000000000E+00  0.00000000000E+00  0.11017527538E+03  0.11017527550E+03  0.50400001928E-02 0. -1.
        1   -1    0    0  501    0  0.00000000000E+00  0.00000000000E+00 -0.14845249942E+04  0.14845249942E+04  0.50400001928E-02 0.  1.
    10030    2    1    2    0    0  0.00000000000E+00  0.00000000000E+00 -0.13743497188E+04  0.15947002697E+04  0.80884596840E+03 0.  0.
        4    1    3    3  502    0 -0.10018702689E+03  0.34518105904E+03 -0.32166737898E+03  0.48234730172E+03  0.12699999809E+01 0. -1.
       -4    1    3    3    0  502  0.10018702689E+03 -0.34518105904E+03 -0.10526823398E+04  0.11123529680E+04  0.12699999809E+01 0.  1.
</event>
<event>
 5   0  0.1523811E-02  0.8209816E+03  0.7818609E-02  0.9530134E-01
        1   -1    0    0  501    0  0.00000000000E+00  0.00000000000E+00  0.46401637208E+03  0.46401637211E+03  0.50400001928E-02 0.  1.
       -1   -1    0    0    0  501  0.00000000000E+00  0.00000000000E+00 -0.36313954719E+03  0.36313954722E+03  0.50400001928E-02 0. -1.
    10030    2    1    2    0    0  0.00000000000E+00  0.00000000000E+00  0.10087682489E+03  0.82715591933E+03  0.82098159607E+03 0.  0.
        1    1    3    3  502    0  0.15692799101E+02  0.89698995490E+02 -0.35283489527E+03  0.36439626381E+03  0.50400001928E-02 0. -1.
       -1    1    3    3    0  502 -0.15692799101E+02 -0.89698995490E+02  0.45371172016E+03  0.46275965552E+03  0.50400001928E-02 0.  1.
</event>
<event>
 5   0  0.2454354E-02  0.7869003E+03  0.7818609E-02  0.9579174E-01
       -2   -1    0    0    0  501  0.00000000000E+00  0.00000000000E+00  0.24454606384E+03  0.24454606385E+03  0.25500000920E-02 0. -1.
        2   -1    0    0  501    0  0.00000000000E+00  0.00000000000E+00 -0.63302193283E+03  0.63302193284E+03  0.25500000920E-02 0.  1.
    10030    2    1    2    0    0  0.00000000000E+00  0.00000000000E+00 -0.38847586900E+03  0.87756799669E+03  0.78690030374E+03 0.  0.
        5    1    3    3  502    0  0.41317643247E+02 -0.74311230637E+02 -0.62262175813E+03  0.62841805380E+03  0.46999998093E+01 0.  1.
       -5    1    3    3    0  502 -0.41317643247E+02  0.74311230637E+02  0.23414588914E+03  0.24914994289E+03  0.46999998093E+01 0. -1.
</event>
<event>
 5   0  0.1523811E-02  0.8068916E+03  0.7818609E-02  0.9550095E-01
        1   -1    0    0  501    0  0.00000000000E+00  0.00000000000E+00  0.98275059449E+03  0.98275059451E+03  0.50400001928E-02 0.  1.
       -1   -1    0    0    0  501  0.00000000000E+00  0.00000000000E+00 -0.16562545106E+03  0.16562545114E+03  0.50400001928E-02 0. -1.
    10030    2    1    2    0    0  0.00000000000E+00  0.00000000000E+00  0.81712514343E+03  0.11483760456E+04  0.80689159259E+03 0.  0.
        1    1    3    3  502    0 -0.20617633759E+03  0.34634975932E+03  0.38384323355E+03  0.55659901719E+03  0.50400001928E-02 0.  1.
       -1    1    3    3    0  502  0.20617633759E+03 -0.34634975932E+03  0.43328190988E+03  0.59177702846E+03  0.50400001928E-02 0. -1.
</event>
<event>
 5   0  0.9919125E-03  0.7988998E+03  0.7818609E-02  0.9561611E-01
        3   -1    0    0  501    0  0.00000000000E+00  0.00000000000E+00  0.15788466721E+03  0.15788469952E+03  0.10100000352E+00 0. -1.
       -3   -1    0    0    0  501  0.00000000000E+00  0.00000000000E+00 -0.10106122939E+04  0.10106122989E+04  0.10100000352E+00 0.  1.
    10030    2    1    2    0    0  0.00000000000E+00  0.00000000000E+00 -0.85272762665E+03  0.11684969984E+04  0.79889976223E+03 0.  0.
        4    1    3    3  502    0 -0.35868607650E+03 -0.16861612484E+03 -0.49907734346E+03  0.63731225210E+03  0.12699999809E+01 0. -1.
       -4    1    3    3    0  502  0.35868607650E+03  0.16861612484E+03 -0.35365028320E+03  0.53118474633E+03  0.12699999809E+01 0.  1.
</event>
<event>
 5   0  0.2454354E-02  0.7921653E+03  0.7818609E-02  0.9571427E-01
        2   -1    0    0  501    0  0.00000000000E+00  0.00000000000E+00  0.52104717718E+03  0.52104717719E+03  0.25500000920E-02 0.  1.
       -2   -1    0    0    0  501  0.00000000000E+00  0.00000000000E+00 -0.30108881360E+03  0.30108881361E+03  0.25500000920E-02 0. -1.
    10030    2    1    2    0    0  0.00000000000E+00  0.00000000000E+00  0.21995836358E+03  0.82213599080E+03  0.79216532722E+03 0.  0.
        5    1    3    3  502    0  0.72195079439E+02 -0.35518780714E+03  0.27567181333E+03  0.45539822848E+03  0.46999998093E+01 0.  1.
       -5    1    3    3    0  502 -0.72195079439E+02  0.35518780714E+03 -0.55713449750E+02  0.36673776232E+03  0.46999998093E+01 0. -1.
</event>
<event>
 5   0  0.2571778E-02  0.7864306E+03  0.7818609E-02  0.9579869E-01
       -2   -1    0    0    0  501  0.00000000000E+00  0.00000000000E+00  0.96420922019E+02  0.96420922053E+02  0.25500000920E-02 0.  1.
        2   -1    0    0  501    0  0.00000000000E+00  0.00000000000E+00 -0.16035759449E+04  0.16035759449E+04  0.25500000920E-02 0. -1.
    10030    2    1    2    0    0  0.00000000000E+00  0.00000000000E+00 -0.15071550229E+04  0.16999968669E+04  0.78643059748E+03 0.  0.
        1    1    3    3  502    0 -0.71679841979E+02 -0.31900669616E+03 -0.28138925770E+03  0.43137360410E+03  0.50400001928E-02 0.  1.
       -1    1    3    3    0  502  0.71679841979E+02  0.31900669616E+03 -0.12257657651E+04  0.12686232628E+04  0.50400001928E-02 0. -1.
</event>
<event>
 5   0  0.2422031E-02  0.7792287E+03  0.7818609E-02  0.9590579E-01
        2   -1    0    0  501    0  0.00000000000E+00  0.00000000000E+00  0.16129241739E+03  0.16129241741E+03  0.25500000920E-02 0. -1.
       -2   -1    0    0    0  501  0.00000000000E+00  0.00000000000E+00 -0.94114368270E+03  0.94114368270E+03  0.25500000920E-02 0.  1.
    10030    2    1    2    0    0  0.00000000000E+00  0.00000000000E+00 -0.77985126531E+03  0.11024361001E+04  0.77922869481E+03 0.  0.
        4    1    3    3  502    0 -0.39459230695E+02 -0.38670611206E+03 -0.42733251889E+03  0.57767927312E+03  0.12699999809E+01 0. -1.
       -4    1    3    3    0  502  0.39459230695E+02  0.38670611206E+03 -0.35251874642E+03  0.52475682699E+03  0.12699999809E+01 0.  1.
</event>
<event>
 5   0  0.2454354E-02  0.7871511E+03  0.7818609E-02  0.9578804E-01
        2   -1    0    0  501    0  0.00000000000E+00  0.00000000000E+00  0.13153006713E+04  0.13153006713E+04  0.25500000920E-02 0.  1.
       -2   -1    0    0    0  501  0.00000000000E+00  0.00000000000E+00 -0.11776904315E+03  0.11776904317E+03  0.25500000920E-02 0. -1.
    10030    2    1    2    0    0  0.00000000000E+00  0.00000000000E+00  0.11975316282E+04  0.14330697145E+04  0.78715106944E+03 0.  0.
        5    1    3    3  502    0 -0.43774600869E+02 -0.37890347201E+03  0.77523563383E+03  0.86400025159E+03  0.46999998093E+01 0. -1.
       -5    1    3    3    0  502  0.43774600869E+02  0.37890347201E+03  0.42229599434E+03  0.56906946291E+03  0.46999998093E+01 0.  1.
</event>
<event>
 5   0  0.1498375E-02  0.8075869E+03  0.7818609E-02  0.9549100E-01
       -1   -1    0    0    0  501  0.00000000000E+00  0.00000000000E+00  0.21552727902E+03  0.21552727908E+03  0.50400001928E-02 0. -1.
        1   -1    0    0  501    0  0.00000000000E+00  0.00000000000E+00 -0.75651280841E+03  0.75651280843E+03  0.50400001928E-02 0.  1.
    10030    2    1    2    0    0  0.00000000000E+00  0.00000000000E+00 -0.54098552939E+03  0.97204008750E+03  0.80758689236E+03 0.  0.
        4    1    3    3  502    0  0.19543659316E+03 -0.30022726074E+03 -0.49475577841E+03  0.61083284392E+03  0.12699999809E+01 0.  1.
       -4    1    3    3    0  502 -0.19543659316E+03  0.30022726074E+03 -0.46229750977E+02  0.36120724358E+03  0.12699999809E+01 0. -1.
</event>
<event>
 5   0  0.2571778E-02  0.7814486E+03  0.7818609E-02  0.9587265E-01
       -2   -1    0    0    0  501  0.00000000000E+00  0.00000000000E+00  0.23433546600E+03  0.23433546601E+03  0.25500000920E-02 0.  1.
        2   -1    0    0  501    0  0.00000000000E+00  0.00000000000E+00 -0.65148258761E+03  0.65148258761E+03  0.25500000920E-02 0. -1.
    10030    2    1    2    0    0  0.00000000000E+00  0.00000000000E+00 -0.41714712161E+03  0.88581805363E+03  0.78144859272E+03 0.  0.
        1    1    3    3  502    0  0.28815507153E+03  0.12576807987E+03 -0.47153608001E+03  0.56674264877E+03  0.50400001928E-02 0. -1.
       -1    1    3    3    0  502 -0.28815507153E+03 -0.12576807987E+03  0.54388958399E+02  0.31907540485E+03  0.50400001928E-02 0.  1.
</event>
<event>
 5   0  0.1498375E-02  0.7798628E+03  0.7818609E-02  0.9589631E-01
        1   -1    0    0  501    0  0.00000000000E+00  0.00000000000E+00  0.15561803186E+03  0.15561803195E+03  0.50400001928E-02 0.  1.
       -1   -1    0    0    0  501  0.00000000000E+00  0.00000000000E+00 -0.97704928427E+03  0.97704928429E+03  0.50400001928E-02 0. -1.
    10030    2    1    2    0    0  0.00000000000E+00  0.00000000000E+00 -0.82143125241E+03  0.11326673162E+04  0.77986277436E+03 0.  0.
        4    1    3    3  502    0 -0.34562981319E+03 -0.15381792094E+03 -0.54792606497E+03  0.66584120189E+03  0.12699999809E+01 0. -1.
       -4    1    3    3    0  502  0.34562981319E+03  0.15381792094E+03 -0.27350518744E+03  0.46682611434E+03  0.12699999809E+01 0.  1.
</event>
<event>
 5   0  0.1471290E-02  0.8058583E+03  0.7818609E-02  0.9551576E-01
       -1   -1    0    0    0  501  0.00000000000E+00  0.00000000000E+00  0.57109971374E+03  0.57109971376E+03  0.50400001928E-02 0. -1.
        1   -1    0    0  501    0  0.00000000000E+00  0.00000000000E+00 -0.28427942262E+03  0.28427942266E+03  0.50400001928E-02 0.  1.
    10030    2    1    2    0    0  0.00000000000E+00  0.00000000000E+00  0.28682029112E+03  0.85537913642E+03  0.80585829252E+03 0.  0.
        2    1    3    3  502    0 -0.20410168911E+03  0.26905722368E+03  0.37669431191E+03  0.50591293099E+03  0.25500000920E-02 0. -1.
       -2    1    3    3    0  502  0.20410168911E+03 -0.26905722368E+03 -0.89874020791E+02  0.34946620543E+03  0.25500000920E-02 0.  1.
</event>
<event>
 5   0  0.9919125E-03  0.8248009E+03  0.7818609E-02  0.9524797E-01
       -4   -1    0    0    0  501  0.00000000000E+00  0.00000000000E+00  0.72284852650E+03  0.72284964216E+03  0.12699999809E+01 0. -1.
        4   -1    0    0  501    0  0.00000000000E+00  0.00000000000E+00 -0.23528018457E+03  0.23528361216E+03  0.12699999809E+01 0.  1.
    10030    2    1    2    0    0  0.00000000000E+00  0.00000000000E+00  0.48756834193E+03  0.95813325432E+03  0.82480085171E+03 0.  0.
        4    1    3    3  502    0 -0.53275029229E+00  0.22587090511E+03  0.64460456400E+03  0.68303338602E+03  0.12699999809E+01 0. -1.
       -4    1    3    3    0  502  0.53275029229E+00 -0.22587090511E+03 -0.15703622207E+03  0.27509986830E+03  0.12699999809E+01 0.  1.
</event>
<event>
 5   0  0.1498375E-02  0.7961874E+03  0.7818609E-02  0.9565552E-01
       -1   -1    0    0    0  501  0.00000000000E+00  0.00000000000E+00  0.21988466124E+03  0.21988466130E+03  0.50400001928E-02 0.  1.
        1   -1    0    0  501    0  0.00000000000E+00  0.00000000000E+00 -0.72073507159E+03  0.72073507161E+03  0.50400001928E-02 0. -1.
    10030    2    1    2    0    0  0.00000000000E+00  0.00000000000E+00 -0.50085041035E+03  0.94061973291E+03  0.79618738271E+03 0.  0.
        4    1    3    3  502    0  0.37227178309E+03  0.93749248491E+02 -0.12594653252E+03  0.40402889009E+03  0.12699999809E+01 0.  1.
       -4    1    3    3    0  502 -0.37227178309E+03 -0.93749248491E+02 -0.37490387784E+03  0.53659084282E+03  0.12699999809E+01 0. -1.
</event>
<event>
 5   0  0.1498375E-02  0.8024815E+03  0.7818609E-02  0.9556432E-01
       -1   -1    0    0    0  501  0.00000000000E+00  0.00000000000E+00  0.45954403593E+03  0.45954403596E+03  0.50400001928E-02 0.  1.
        1   -1    0    0  501    0  0.00000000000E+00  0.00000000000E+00 -0.35033454505E+03  0.35033454508E+03  0.50400001928E-02 0. -1.
    10030    2    1    2    0    0  0.00000000000E+00  0.00000000000E+00  0.10920949088E+03  0.80987858104E+03  0.80248152821E+03 0.  0.
        4    1    3    3  502    0  0.39071049147E+03  0.74670035416E+02  0.10764617540E+03  0.41209175472E+03  0.12699999809E+01 0. -1.
       -4    1    3    3    0  502 -0.39071049147E+03 -0.74670035416E+02  0.15633154857E+01  0.39778682631E+03  0.12699999809E+01 0.  1.
</event>
<event>
 5   0  0.2422031E-02  0.7964039E+03  0.7818609E-02  0.9565237E-01
       -2   -1    0    0    0  501  0.00000000000E+00  0.00000000000E+00  0.14926453163E+03  0.14926453165E+03  0.25500000920E-02 0. -1.
        2   -1    0    0  501    0  0.00000000000E+00  0.00000000000E+00 -0.10623071345E+04  0.10623071345E+04  0.25500000920E-02 0.  1.
    10030    2    1    2    0    0  0.00000000000E+00  0.00000000000E+00 -0.91304260283E+03  0.12115716661E+04  0.79640385957E+03 0.  0.
        4    1    3    3  502    0  0.11563864864E+03  0.37429975010E+03 -0.56506352223E+03  0.68758344733E+03  0.12699999809E+01 0. -1.
       -4    1    3    3    0  502 -0.11563864864E+03 -0.37429975010E+03 -0.34797908060E+03  0.52398821878E+03  0.12699999809E+01 0.  1.
</event>
<event>
 5   0  0.2460312E-02  0.7965727E+03  0.7818609E-02  0.9564991E-01
       -2   -1    0    0    0  501  0.00000000000E+00  0.00000000000E+00  0.43894516578E+03  0.43894516579E+03  0.25500000920E-02 0.  1.
        2   -1    0    0  501    0  0.00000000000E+00  0.00000000000E+00 -0.36139372691E+03  0.36139372692E+03  0.25500000920E-02 0. -1.
    10030    2    1    2    0    0  0.00000000000E+00  0.00000000000E+00  0.77551438874E+02  0.80033889270E+03  0.79657273209E+03 0.  0.
        2    1    3    3  502    0  0.34035834500E+03  0.18511598485E+03  0.13151759864E+03  0.40915597224E+03  0.25500000920E-02 0.  1.
       -2    1    3    3    0  502 -0.34035834500E+03 -0.18511598485E+03 -0.53966159766E+02  0.39118292047E+03  0.25500000920E-02 0. -1.
</event>
<event>
 5   0  0.1624094E-02  0.8032094E+03  0.7818609E-02  0.9555383E-01
       -1   -1    0    0    0  501  0.00000000000E+00  0.00000000000E+00  0.72645453082E+02  0.72645453256E+02  0.50400001928E-02 0. -1.
        1   -1    0    0  501    0  0.00000000000E+00  0.00000000000E+00 -0.22201846587E+04  0.22201846587E+04  0.50400001928E-02 0.  1.
    10030    2    1    2    0    0  0.00000000000E+00  0.00000000000E+00 -0.21475392056E+04  0.22928301119E+04  0.80320936414E+03 0.  0.
        3    1    3    3  502    0 -0.25866932204E+03  0.74838228793E+02 -0.19243007925E+04  0.19430502127E+04  0.10100000352E+00 0.  1.
       -3    1    3    3    0  502  0.25866932204E+03 -0.74838228793E+02 -0.22323841305E+03  0.34977989925E+03  0.10100000352E+00 0. -1.
</event>
<event>
 5   0  0.2460312E-02  0.7778484E+03  0.7818609E-02  0.9592646E-01
       -2   -1    0    0    0  501  0.00000000000E+00  0.00000000000E+00  0.29021245149E+03  0.29021245150E+03  0.25500000920E-02 0. -1.
        2   -1    0    0  501    0  0.00000000000E+00  0.00000000000E+00 -0.52121132670E+03  0.52121132670E+03  0.25500000920E-02 0.  1.
    10030    2    1    2    0    0  0.00000000000E+00  0.00000000000E+00 -0.23099887521E+03  0.81142377820E+03  0.77784835764E+03 0.  0.
        2    1    3    3  502    0 -0.20177560932E+03  0.50337314083E+02  0.22734284202E+03  0.30811038530E+03  0.25500000920E-02 0. -1.
       -2    1    3    3    0  502  0.20177560932E+03 -0.50337314083E+02 -0.45834171723E+03  0.50331339290E+03  0.25500000920E-02 0.  1.
</event>
<event>
 5   0  0.1509629E-02  0.7774326E+03  0.7818609E-02  0.9593269E-01
        1   -1    0    0  501    0  0.00000000000E+00  0.00000000000E+00  0.16615759123E+03  0.16615759131E+03  0.50400001928E-02 0.  1.
       -1   -1    0    0    0  501  0.00000000000E+00  0.00000000000E+00 -0.90937973080E+03  0.90937973082E+03  0.50400001928E-02 0. -1.
    10030    2    1    2    0    0  0.00000000000E+00  0.00000000000E+00 -0.74322213957E+03  0.10755373221E+04  0.77743255819E+03 0.  0.
        5    1    3    3  502    0  0.10860746769E+03 -0.66147012157E+02 -0.87974757906E+03  0.88890320177E+03  0.46999998093E+01 0. -1.
       -5    1    3    3    0  502 -0.10860746769E+03  0.66147012157E+02  0.13652543949E+03  0.18663412036E+03  0.46999998093E+01 0.  1.
</event>
<event>
 5   0  0.2571778E-02  0.8115781E+03  0.7818609E-02  0.9543408E-01
        2   -1    0    0  501    0  0.00000000000E+00  0.00000000000E+00  0.49581316463E+03  0.49581316464E+03  0.25500000920E-02 0.  1.
       -2   -1    0    0    0  501  0.00000000000E+00  0.00000000000E+00 -0.33211052715E+03  0.33211052716E+03  0.25500000920E-02 0. -1.
    10030    2    1    2    0    0  0.00000000000E+00  0.00000000000E+00  0.16370263749E+03  0.82792369180E+03  0.81157814530E+03 0.  0.
        1    1    3    3  502    0 -0.12717771930E+02  0.39896008389E+03  0.15635566974E+03  0.42869334698E+03  0.50400001928E-02 0. -1.
       -1    1    3    3    0  502  0.12717771930E+02 -0.39896008389E+03  0.73469677500E+01  0.39923034482E+03  0.50400001928E-02 0.  1.
</event>
<event>
 5   0  0.2422031E-02  0.8090048E+03  0.7818609E-02  0.9547074E-01
        2   -1    0    0  501    0  0.00000000000E+00  0.00000000000E+00  0.10765449744E+04  0.10765449745E+04  0.25500000920E-02 0.  1.
       -2   -1    0    0    0  501  0.00000000000E+00  0.00000000000E+00 -0.15198825442E+03  0.15198825444E+03  0.25500000920E-02 0. -1.
    10030    2    1    2    0    0  0.00000000000E+00  0.00000000000E+00  0.92455672003E+03  0.12285332289E+04  0.80900479971E+03 0.  0.
        4    1    3    3  502    0  0.11540177306E+03 -0.21517338603E+03 -0.27454930087E+02  0.24570824441E+03  0.12699999809E+01 0. -1.
       -4    1    3    3    0  502 -0.11540177306E+03  0.21517338603E+03  0.95201165011E+03  0.98282498449E+03  0.12699999809E+01 0.  1.
</event>
<event>
 5   0  0.1624094E-02  0.8418184E+03  0.7818609E-02  0.9501384E-01
        1   -1    0    0  501    0  0.00000000000E+00  0.00000000000E+00  0.87948091580E+03  0.87948091582E+03  0.50400001928E-02 0.  1.
       -1   -1    0    0    0  501  0.00000000000E+00  0.00000000000E+00 -0.20144219586E+03  0.20144219592E+03  0.50400001928E-02 0. -1.
    10030    2    1    2    0    0  0.00000000000E+00  0.00000000000E+00  0.67803871995E+03  0.10809231117E+04  0.84181842920E+03 0.  0.
        3    1    3    3  502    0  0.19687850752E+03  0.32063555640E+03  0.58127756646E+03  0.69242467188E+03  0.10100000352E+00 0.  1.
       -3    1    3    3    0  502 -0.19687850752E+03 -0.32063555640E+03  0.96761153484E+02  0.38849843986E+03  0.10100000352E+00 0. -1.
</event>
<event>
 5   0  0.2422031E-02  0.8225522E+03  0.7818609E-02  0.9527935E-01
       -2   -1    0    0    0  501  0.00000000000E+00  0.00000000000E+00  0.22387900328E+03  0.22387900329E+03  0.25500000920E-02 0. -1.
        2   -1    0    0  501    0  0.00000000000E+00  0.00000000000E+00 -0.75553326837E+03  0.75553326838E+03  0.25500000920E-02 0.  1.
    10030    2    1    2    0    0  0.00000000000E+00  0.00000000000E+00 -0.53165426510E+03  0.97941227167E+03  0.82255221129E+03 0.  0.
        4    1    3    3  502    0 -0.36689243800E+03 -0.16193732247E+03 -0.15726654161E+03  0.43077620115E+03  0.12699999809E+01 0. -1.
       -4    1    3    3    0  502  0.36689243800E+03  0.16193732247E+03 -0.37438772349E+03  0.54863607052E+03  0.12699999809E+01 0.  1.
</event>
<event>
 5   0  0.2454354E-02  0.7989629E+03  0.7818609E-02  0.9561520E-01
       -2   -1    0    0    0  501  0.00000000000E+00  0.00000000000E+00  0.12616315786E+03  0.12616315789E+03  0.25500000920E-02 0. -1.
        2   -1    0    0  501    0  0.00000000000E+00  0.00000000000E+00 -0.12649130256E+04  0.12649130256E+04  0.25500000920E-02 0.  1.
    10030    2    1    2    0    0  0.00000000000E+00  0.00000000000E+00 -0.11387498677E+04  0.13910761835E+04  0.79896288210E+03 0.  0.
        5    1    3    3  502    0 -0.20485222362E+03  0.27999402520E+03 -0.22464438107E+03  0.41333796779E+03  0.46999998093E+01 0. -1.
       -5    1    3    3    0  502  0.20485222362E+03 -0.27999402520E+03 -0.91410548665E+03  0.97773821567E+03  0.46999998093E+01 0.  1.
</event>
<event>
 5   0  0.2571778E-02  0.7926192E+03  0.7818609E-02  0.9570762E-01
        2   -1    0    0  501    0  0.00000000000E+00  0.00000000000E+00  0.11121778309E+04  0.11121778309E+04  0.25500000920E-02 0. -1.
       -2   -1    0    0    0  501  0.00000000000E+00  0.00000000000E+00 -0.14121957511E+03  0.14121957513E+03  0.25500000920E-02 0.  1.
    10030    2    1    2    0    0  0.00000000000E+00  0.00000000000E+00  0.97095825574E+03  0.12533974060E+04  0.79261915378E+03 0.  0.
        1    1    3    3  502    0  0.37355158747E+03  0.13199389478E+03  0.50114185840E+03  0.63883201159E+03  0.50400001928E-02 0. -1.
       -1    1    3    3    0  502 -0.37355158747E+03 -0.13199389478E+03  0.46981639734E+03  0.61456539440E+03  0.50400001928E-02 0.  1.
</event>
<event>
 5   0  0.1498375E-02  0.7966678E+03  0.7818609E-02  0.9564853E-01
       -1   -1    0    0    0  501  0.00000000000E+00  0.00000000000E+00  0.20674025444E+03  0.20674025450E+03  0.50400001928E-02 0. -1.
        1   -1    0    0  501    0  0.00000000000E+00  0.00000000000E+00 -0.76748428231E+03  0.76748428233E+03  0.50400001928E-02 0.  1.
    10030    2    1    2    0    0  0.00000000000E+00  0.00000000000E+00 -0.56074402788E+03  0.97422453683E+03  0.79666779988E+03 0.  0.
        4    1    3    3  502    0 -0.83269728663E+01  0.39406353748E+03 -0.35075767377E+03  0.52762483704E+03  0.12699999809E+01 0.  1.
       -4    1    3    3    0  502  0.83269728663E+01 -0.39406353748E+03 -0.20998635410E+03  0.44659969979E+03  0.12699999809E+01 0. -1.
</event>
<event>
 5   0  0.2571778E-02  0.7970972E+03  0.7818609E-02  0.9564228E-01
       -2   -1    0    0    0  501  0.00000000000E+00  0.00000000000E+00  0.19241952419E+03  0.19241952420E+03  0.25500000920E-02 0. -1.
        2   -1    0    0  501    0  0.00000000000E+00  0.00000000000E+00 -0.82549315281E+03  0.82549315281E+03  0.25500000920E-02 0.  1.
    10030    2    1    2    0    0  0.00000000000E+00  0.00000000000E+00 -0.63307362862E+03  0.10179126770E+04  0.79709723295E+03 0.  0.
        1    1    3    3  502    0 -0.48602542022E+02  0.12862962212E+03 -0.79424163554E+03  0.80605679851E+03  0.50400001928E-02 0.  1.
       -1    1    3    3    0  502  0.48602542022E+02 -0.12862962212E+03  0.16116800692E+03  0.21185587850E+03  0.50400001928E-02 0. -1.
</event>
<event>
 5   0  0.1471290E-02  0.7853239E+03  0.7818609E-02  0.9581506E-01
        1   -1    0    0  501    0  0.00000000000E+00  0.00000000000E+00  0.17829263175E+03  0.17829263183E+03  0.50400001928E-02 0.  1.
       -1   -1    0    0    0  501  0.00000000000E+00  0.00000000000E+00 -0.86477722402E+03  0.86477722403E+03  0.50400001928E-02 0. -1.
    10030    2    1    2    0    0  0.00000000000E+00  0.00000000000E+00 -0.68648459226E+03  0.10430698559E+04  0.78532390055E+03 0.  0.
        2    1    3    3  502    0  0.14091937449E+03 -0.32033643501E+03 -0.57975838240E+03  0.67719530689E+03  0.25500000920E-02 0. -1.
       -2    1    3    3    0  502 -0.14091937449E+03  0.32033643501E+03 -0.10672620986E+03  0.36587454897E+03  0.25500000920E-02 0.  1.
</event>
<event>
 5   0  0.2464780E-02  0.8001812E+03  0.7818609E-02  0.9559755E-01
        2   -1    0    0  501    0  0.00000000000E+00  0.00000000000E+00  0.21052046458E+04  0.21052046458E+04  0.25500000920E-02 0.  1.
       -2   -1    0    0    0  501  0.00000000000E+00  0.00000000000E+00 -0.76036552511E+02  0.76036552553E+02  0.25500000920E-02 0. -1.
    10030    2    1    2    0    0  0.00000000000E+00  0.00000000000E+00  0.20291680933E+04  0.21812411983E+04  0.80018123858E+03 0.  0.
        3    1    3    3  502    0  0.29254128208E+03  0.21420291883E+03  0.14756554573E+04  0.15195467518E+04  0.10100000352E+00 0.  1.
       -3    1    3    3    0  502 -0.29254128208E+03 -0.21420291883E+03  0.55351263601E+03  0.66169444654E+03  0.10100000352E+00 0. -1.
</event>
<event>
 5   0  0.1498375E-02  0.7747506E+03  0.7818609E-02  0.9597301E-01
       -1   -1    0    0    0  501  0.00000000000E+00  0.00000000000E+00  0.17019640028E+03  0.17019640036E+03  0.50400001928E-02 0. -1.
        1   -1    0    0  501    0  0.00000000000E+00  0.00000000000E+00 -0.88168507050E+03  0.88168507051E+03  0.50400001928E-02 0.  1.
    10030    2    1    2    0    0  0.00000000000E+00  0.00000000000E+00 -0.71148867021E+03  0.10518814709E+04  0.77475060563E+03 0.  0.
        4    1    3    3  502    0 -0.24340506655E+03 -0.49114740728E+02  0.47929262624E+02  0.25289743236E+03  0.12699999809E+01 0. -1.
       -4    1    3    3    0  502  0.24340506655E+03  0.49114740728E+02 -0.75941793284E+03  0.79898403851E+03  0.12699999809E+01 0.  1.
</event>
<event>
 5   0  0.1498375E-02  0.8102915E+03  0.7818609E-02  0.9545239E-01
       -1   -1    0    0    0  501  0.00000000000E+00  0.00000000000E+00  0.25638439849E+03  0.25638439854E+03  0.50400001928E-02 0. -1.
        1   -1    0    0  501    0  0.00000000000E+00  0.00000000000E+00 -0.64022252582E+03  0.64022252584E+03  0.50400001928E-02 0.  1.
    10030    2    1    2    0    0  0.00000000000E+00  0.00000000000E+00 -0.38383812734E+03  0.89660692438E+03  0.81029147154E+03 0.  0.
        4    1    3    3  502    0  0.60228712498E+02 -0.15074102426E+03 -0.60266323037E+03  0.62414336201E+03  0.12699999809E+01 0.  1.
       -4    1    3    3    0  502 -0.60228712498E+02  0.15074102426E+03  0.21882510303E+03  0.27246356237E+03  0.12699999809E+01 0. -1.
</event>
<event>
 5   0  0.2571778E-02  0.7847807E+03  0.7818609E-02  0.9582311E-01
       -2   -1    0    0    0  501  0.00000000000E+00  0.00000000000E+00  0.80295222949E+02  0.80295222990E+02  0.25500000920E-02 0.  1.
        2   -1    0    0  501    0  0.00000000000E+00  0.00000000000E+00 -0.19175510836E+04  0.19175510836E+04  0.25500000920E-02 0. -1.
    10030    2    1    2    0    0  0.00000000000E+00  0.00000000000E+00 -0.18372558607E+04  0.19978463066E+04  0.78478071286E+03 0.  0.
        1    1    3    3  502    0  0.27287288780E+03 -0.19655104159E+03 -0.14333348320E+04  0.14722569971E+04  0.50400001928E-02 0. -1.
       -1    1    3    3    0  502 -0.27287288780E+03  0.19655104159E+03 -0.40392102868E+03  0.52558930952E+03  0.50400001928E-02 0.  1.
</event>
<event>
 5   0  0.2422031E-02  0.8487630E+03  0.7818609E-02  0.9491999E-01
        2   -1    0    0  501    0  0.00000000000E+00  0.00000000000E+00  0.14231448243E+04  0.14231448243E+04  0.25500000920E-02 0.  1.
       -2   -1    0    0    0  501  0.00000000000E+00  0.00000000000E+00 -0.12655049140E+03  0.12655049142E+03  0.25500000920E-02 0. -1.
    10030    2    1    2    0    0  0.00000000000E+00  0.00000000000E+00  0.12965943329E+04  0.15496953158E+04  0.84876304555E+03 0.  0.
        4    1    3    3  502    0 -0.21658315508E+03 -0.71770798522E+02  0.13016241210E+04  0.13214712542E+04  0.12699999809E+01 0.  1.
       -4    1    3    3    0  502  0.21658315508E+03  0.71770798522E+02 -0.50297880454E+01  0.22822406151E+03  0.12699999809E+01 0. -1.
</event>
<event>
 5   0  0.1509629E-02  0.7946678E+03  0.7818609E-02  0.9567767E-01
        1   -1    0    0  501    0  0.00000000000E+00  0.00000000000E+00  0.70010706853E+03  0.70010706854E+03  0.50400001928E-02 0. -1.
       -1   -1    0    0    0  501  0.00000000000E+00  0.00000000000E+00 -0.22550014827E+03  0.22550014833E+03  0.50400001928E-02 0.  1.
    10030    2    1    2    0    0  0.00000000000E+00  0.00000000000E+00  0.47460692025E+03  0.92560721687E+03  0.79466784960E+03 0.  0.
        5    1    3    3  502    0  0.29261189175E+03  0.68211087680E+02  0.54009431069E+03  0.61806021237E+03  0.46999998093E+01 0. -1.
       -5    1    3    3    0  502 -0.29261189175E+03 -0.68211087680E+02 -0.65487390440E+02  0.30754700451E+03  0.46999998093E+01 0.  1.
</event>
<event>
 5   0  0.2571778E-02  0.7879529E+03  0.7818609E-02  0.9577620E-01
        2   -1    0    0  501    0  0.00000000000E+00  0.00000000000E+00  0.14775416583E+04  0.14775416583E+04  0.25500000920E-02 0. -1.
       -2   -1    0    0    0  501  0.00000000000E+00  0.00000000000E+00 -0.10505115211E+03  0.10505115215E+03  0.25500000920E-02 0.  1.
    10030    2    1    2    0    0  0.00000000000E+00  0.00000000000E+00  0.13724905062E+04  0.15825928104E+04  0.78795292633E+03 0.  0.
        1    1    3    3  502    0 -0.12110855343E+03 -0.88600895189E+02  0.14178970846E+04  0.14258153958E+04  0.50400001928E-02 0. -1.
       -1    1    3    3    0  502  0.12110855343E+03  0.88600895189E+02 -0.45406578448E+02  0.15677741462E+03  0.50400001928E-02 0.  1.
</event>
<event>
 5   0  0.2464780E-02  0.7909054E+03  0.7818609E-02  0.9573275E-01
        2   -1    0    0  501    0  0.00000000000E+00  0.00000000000E+00  0.42143001819E+03  0.42143001820E+03  0.25500000920E-02 0. -1.
       -2   -1    0    0    0  501  0.00000000000E+00  0.00000000000E+00 -0.37107660122E+03  0.37107660123E+03  0.25500000920E-02 0.  1.
    10030    2    1    2    0    0  0.00000000000E+00  0.00000000000E+00  0.50353416968E+02  0.79250661942E+03  0.79090535163E+03 0.  0.
        3    1    3    3  502    0 -0.10195370908E+03  0.38206275991E+03  0.21131543390E+02  0.39599629245E+03  0.10100000352E+00 0.  1.
       -3    1    3    3    0  502  0.10195370908E+03 -0.38206275991E+03  0.29221873579E+02  0.39651032698E+03  0.10100000352E+00 0. -1.
</event>
<event>
 5   0  0.1523811E-02  0.8006778E+03  0.7818609E-02  0.9559037E-01
       -1   -1    0    0    0  501  0.00000000000E+00  0.00000000000E+00  0.84331023567E+02  0.84331023718E+02  0.50400001928E-02 0.  1.
        1   -1    0    0  501    0  0.00000000000E+00  0.00000000000E+00 -0.19005014286E+04  0.19005014286E+04  0.50400001928E-02 0. -1.
    10030    2    1    2    0    0  0.00000000000E+00  0.00000000000E+00 -0.18161704050E+04  0.19848324523E+04  0.80067779017E+03 0.  0.
        1    1    3    3  502    0  0.65268569043E+02 -0.39485014997E+03 -0.88273158542E+03  0.96921704430E+03  0.50400001928E-02 0. -1.
       -1    1    3    3    0  502 -0.65268569043E+02  0.39485014997E+03 -0.93343881960E+03  0.10156154080E+04  0.50400001928E-02 0.  1.
</event>
<event>
 5   0  0.1498375E-02  0.7862240E+03  0.7818609E-02  0.9580174E-01
       -1   -1    0    0    0  501  0.00000000000E+00  0.00000000000E+00  0.45985165343E+03  0.45985165346E+03  0.50400001928E-02 0. -1.
        1   -1    0    0  501    0  0.00000000000E+00  0.00000000000E+00 -0.33605844664E+03  0.33605844668E+03  0.50400001928E-02 0.  1.
    10030    2    1    2    0    0  0.00000000000E+00  0.00000000000E+00  0.12379320679E+03  0.79591010014E+03  0.78622396902E+03 0.  0.
        4    1    3    3  502    0 -0.26384305077E+03  0.22631560006E+03 -0.12395029731E+03  0.36904904196E+03  0.12699999809E+01 0. -1.
       -4    1    3    3    0  502  0.26384305077E+03 -0.22631560006E+03  0.24774350409E+03  0.42686105818E+03  0.12699999809E+01 0.  1.
</event>
<event>
 5   0  0.1523811E-02  0.7961664E+03  0.7818609E-02  0.9565583E-01
       -1   -1    0    0    0  501  0.00000000000E+00  0.00000000000E+00  0.81827152151E+03  0.81827152152E+03  0.50400001928E-02 0.  1.
        1   -1    0    0  501    0  0.00000000000E+00  0.00000000000E+00 -0.19366460789E+03  0.19366460796E+03  0.50400001928E-02 0. -1.
    10030    2    1    2    0    0  0.00000000000E+00  0.00000000000E+00  0.62460691362E+03  0.10119361295E+04  0.79616639820E+03 0.  0.
        1    1    3    3  502    0 -0.91985823202E+02 -0.29827454728E+03  0.62632580855E+03  0.69979505264E+03  0.50400001928E-02 0.  1.
       -1    1    3    3    0  502  0.91985823202E+02  0.29827454728E+03 -0.17188949345E+01  0.31214107684E+03  0.50400001928E-02 0. -1.
</event>
<event>
 5   0  0.1509629E-02  0.8257465E+03  0.7818609E-02  0.9523480E-01
        1   -1    0    0  501    0  0.00000000000E+00  0.00000000000E+00  0.59032034917E+03  0.59032034919E+03  0.50400001928E-02 0.  1.
       -1   -1    0    0    0  501  0.00000000000E+00  0.00000000000E+00 -0.28876581634E+03  0.28876581639E+03  0.50400001928E-02 0. -1.
    10030    2    1    2    0    0  0.00000000000E+00  0.00000000000E+00  0.30155453283E+03  0.87908616558E+03  0.82574654116E+03 0.  0.
        5    1    3    3  502    0  0.39045259919E+03 -0.29058901995E+02  0.11381910638E+02  0.39172603932E+03  0.46999998093E+01 0. -1.
       -5    1    3    3    0  502 -0.39045259919E+03  0.29058901995E+02  0.29017262219E+03  0.48736012625E+03  0.46999998093E+01 0.  1.
</event>
<event>
 5   0  0.9919125E-03  0.7994776E+03  0.7818609E-02  0.9560774E-01
        3   -1    0    0  501    0  0.00000000000E+00  0.00000000000E+00  0.42375343879E+03  0.42375345082E+03  0.10100000352E+00 0. -1.
       -3   -1    0    0    0  501  0.00000000000E+00  0.00000000000E+00 -0.37708510695E+03  0.37708512048E+03  0.10100000352E+00 0.  1.
    10030    2    1    2    0    0  0.00000000000E+00  0.00000000000E+00  0.46668331835E+02  0.80083857130E+03  0.79947763201E+03 0.  0.
        1    1    3    3  502    0 -0.90824743527E+02  0.22231007806E+03 -0.29677235952E+03  0.38176529209E+03  0.50400001928E-02 0.  1.
       -1    1    3    3    0  502  0.90824743527E+02 -0.22231007806E+03  0.34344069135E+03  0.41907327921E+03  0.50400001928E-02 0. -1.
</event>
<event>
 5   0  0.1624094E-02  0.7667695E+03  0.7818609E-02  0.9609403E-01
        1   -1    0    0  501    0  0.00000000000E+00  0.00000000000E+00  0.41140281857E+03  0.41140281860E+03  0.50400001928E-02 0.  1.
       -1   -1    0    0    0  501  0.00000000000E+00  0.00000000000E+00 -0.35727478782E+03  0.35727478786E+03  0.50400001928E-02 0. -1.
    10030    2    1    2    0    0  0.00000000000E+00  0.00000000000E+00  0.54128030747E+02  0.76867760646E+03  0.76676946924E+03 0.  0.
        3    1    3    3  502    0 -0.31592978008E+03  0.19159660630E+03  0.12960717142E+03  0.39155959262E+03  0.10100000352E+00 0. -1.
       -3    1    3    3    0  502  0.31592978008E+03 -0.19159660630E+03 -0.75479140670E+02  0.37711801384E+03  0.10100000352E+00 0.  1.
</event>
<event>
 5   0  0.2422031E-02  0.8056890E+03  0.7818609E-02  0.9551819E-01
       -2   -1    0    0    0  501  0.00000000000E+00  0.00000000000E+00  0.10891741735E+03  0.10891741738E+03  0.25500000920E-02 0.  1.
        2   -1    0    0  501    0  0.00000000000E+00  0.00000000000E+00 -0.14899702120E+04  0.14899702120E+04  0.25500000920E-02 0. -1.
    10030    2    1    2    0    0  0.00000000000E+00  0.00000000000E+00 -0.13810527947E+04  0.15988876294E+04  0.80568904039E+03 0.  0.
        4    1    3    3  502    0  0.19089804959E+03 -0.28588413157E+03 -0.27373336004E+03  0.43943528229E+03  0.12699999809E+01 0.  1.
       -4    1    3    3    0  502 -0.19089804959E+03  0.28588413157E+03 -0.11073194346E+04  0.11594523471E+04  0.12699999809E+01 0. -1.
</event>
<event>
 5   0  0.2571778E-02  0.7848315E+03  0.7818609E-02  0.9582236E-01
       -2   -1    0    0    0  501  0.00000000000E+00  0.00000000000E+00  0.47284183044E+03  0.47284183044E+03  0.25500000920E-02 0.  1.
        2   -1    0    0  501    0  0.00000000000E+00  0.00000000000E+00 -0.32566941231E+03  0.32566941232E+03  0.25500000920E-02 0. -1.
    10030    2    1    2    0    0  0.00000000000E+00  0.00000000000E+00  0.14717241812E+03  0.79851124277E+03  0.78483150050E+03 0.  0.
        1    1    3    3  502    0 -0.17339460236E+03  0.21697802840E+03  0.35562726155E+03  0.45123818779E+03  0.50400001928E-02 0.  1.
       -1    1    3    3    0  502  0.17339460236E+03 -0.21697802840E+03 -0.20845484343E+03  0.34727305498E+03  0.50400001928E-02 0. -1.
</event>
<event>
 5   0  0.1471290E-02  0.8035832E+03  0.7818609E-02  0.9554845E-01
       -1   -1    0    0    0  501  0.00000000000E+00  0.00000000000E+00  0.18154953287E+03  0.18154953294E+03  0.50400001928E-02 0.  1.
        1   -1    0    0  501    0  0.00000000000E+00  0.00000000000E+00 -0.88921462799E+03  0.88921462801E+03  0.50400001928E-02 0. -1.
    10030    2    1    2    0    0  0.00000000000E+00  0.00000000000E+00 -0.70766509513E+03  0.10707641609E+04  0.80358322625E+03 0.  0.
        2    1    3    3  502    0  0.58964401402E+02 -0.16104384154E+02  0.17531804945E+03  0.18566790323E+03  0.25500000920E-02 0.  1.
       -2    1    3    3    0  502 -0.58964401402E+02  0.16104384154E+02 -0.88298314457E+03  0.88509625772E+03  0.25500000920E-02 0. -1.
</event>
<event>
 5   0  0.2454354E-02  0.7915484E+03  0.7818609E-02  0.9572332E-01
        2   -1    0    0  501    0  0.00000000000E+00  0.00000000000E+00  0.14721449542E+04  0.14721449542E+04  0.25500000920E-02 0.  1.
       -2   -1    0    0    0  501  0.00000000000E+00  0.00000000000E+00 -0.10640066282E+03  0.10640066285E+03  0.25500000920E-02 0. -1.
    10030    2    1    2    0    0  0.00000000000E+00  0.00000000000E+00  0.13657442913E+04  0.15785456170E+04  0.79154835332E+03 0.  0.
        5    1    3    3  502    0  0.29227163663E+03  0.25946009372E+03  0.80697893351E+03  0.89664894967E+03  0.46999998093E+01 0.  1.
       -5    1    3    3    0  502 -0.29227163663E+03 -0.25946009372E+03  0.55876535783E+03  0.68189666734E+03  0.46999998093E+01 0. -1.
</event>
<event>
 5   0  0.1471290E-02  0.8004688E+03  0.7818609E-02  0.9559339E-01
        1   -1    0    0  501    0  0.00000000000E+00  0.00000000000E+00  0.10263195497E+04  0.10263195497E+04  0.50400001928E-02 0. -1.
       -1   -1    0    0    0  501  0.00000000000E+00  0.00000000000E+00 -0.15607963161E+03  0.15607963170E+03  0.50400001928E-02 0.  1.
    10030    2    1    2    0    0  0.00000000000E+00  0.00000000000E+00  0.87023991804E+03  0.11823991814E+04  0.80046880585E+03 0.  0.
        2    1    3    3  502    0  0.15498303306E+03  0.19155967703E+02  0.97946091202E+03  0.99183182537E+03  0.25500000920E-02 0. -1.
       -2    1    3    3    0  502 -0.15498303306E+03 -0.19155967703E+02 -0.10922099398E+03  0.19056735599E+03  0.25500000920E-02 0.  1.
</event>
<event>
 5   0  0.2460312E-02  0.7874461E+03  0.7818609E-02  0.9578368E-01
       -2   -1    0    0    0  501  0.00000000000E+00  0.00000000000E+00  0.31355845276E+03  0.31355845277E+03  0.25500000920E-02 0.  1.
        2   -1    0    0  501    0  0.00000000000E+00  0.00000000000E+00 -0.49438253993E+03  0.49438253993E+03  0.25500000920E-02 0. -1.
    10030    2    1    2    0    0  0.00000000000E+00  0.00000000000E+00 -0.18082408717E+03  0.80794099270E+03  0.78744605986E+03 0.  0.
        2    1    3    3  502    0  0.19207649664E+03  0.33468266946E+03 -0.10198281533E+02  0.38601797205E+03  0.25500000920E-02 0. -1.
       -2    1    3    3    0  502 -0.19207649664E+03 -0.33468266946E+03 -0.17062580564E+03  0.42192302065E+03  0.25500000920E-02 0.  1.
</event>
<event>
 5   0  0.2464780E-02  0.8075467E+03  0.7818609E-02  0.9549157E-01
       -2   -1    0    0    0  501  0.00000000000E+00  0.00000000000E+00  0.11107773620E+03  0.11107773623E+03  0.25500000920E-02 0. -1.
        2   -1    0    0  501    0  0.00000000000E+00  0.00000000000E+00 -0.14677369747E+04  0.14677369747E+04  0.25500000920E-02 0.  1.
    10030    2    1    2    0    0  0.00000000000E+00  0.00000000000E+00 -0.13566592385E+04  0.15788147109E+04  0.80754665625E+03 0.  0.
        3    1    3    3  502    0  0.98133354288E+02 -0.36346533754E+03 -0.96363458641E+03  0.10345669786E+04  0.10100000352E+00 0. -1.
       -3    1    3    3    0  502 -0.98133354288E+02  0.36346533754E+03 -0.39302465208E+03  0.54424773235E+03  0.10100000352E+00 0.  1.
</event>
<event>
 5   0  0.9919125E-03  0.8018290E+03  0.7818609E-02  0.9557374E-01
        3   -1    0    0  501    0  0.00000000000E+00  0.00000000000E+00  0.22251693723E+03  0.22251696015E+03  0.10100000352E+00 0. -1.
       -3   -1    0    0    0  501  0.00000000000E+00  0.00000000000E+00 -0.72233786215E+03  0.72233786921E+03  0.10100000352E+00 0.  1.
    10030    2    1    2    0    0  0.00000000000E+00  0.00000000000E+00 -0.49982092492E+03  0.94485482936E+03  0.80182896653E+03 0.  0.
        2    1    3    3  502    0 -0.56893416253E+02 -0.13247299936E+03  0.19091260737E+03  0.23923540714E+03  0.25500000920E-02 0. -1.
       -2    1    3    3    0  502  0.56893416253E+02  0.13247299936E+03 -0.69073353229E+03  0.70561942222E+03  0.25500000920E-02 0.  1.
</event>
<event>
 5   0  0.2571778E-02  0.8486091E+03  0.7818609E-02  0.9492206E-01
        2   -1    0    0  501    0  0.00000000000E+00  0.00000000000E+00  0.73134473860E+03  0.73134473860E+03  0.25500000920E-02 0. -1.
       -2   -1    0    0    0  501  0.00000000000E+00  0.00000000000E+00 -0.24616894275E+03  0.24616894276E+03  0.25500000920E-02 0.  1.
    10030    2    1    2    0    0  0.00000000000E+00  0.00000000000E+00  0.48517579585E+03  0.97751368136E+03  0.84860912343E+03 0.  0.
        1    1    3    3  502    0 -0.30170281441E+03 -0.11716852116E+03 -0.73464240611E+02  0.33188860368E+03  0.50400001928E-02 0.  1.
       -1    1    3    3    0  502  0.30170281441E+03  0.11716852116E+03  0.55864003646E+03  0.64562507769E+03  0.50400001928E-02 0. -1.
</event>
<event>
 5   0  0.2422031E-02  0.8185650E+03  0.7818609E-02  0.9533527E-01
       -2   -1    0    0    0  501  0.00000000000E+00  0.00000000000E+00  0.31757944077E+03  0.31757944078E+03  0.25500000920E-02 0. -1.
        2   -1    0    0  501    0  0.00000000000E+00  0.00000000000E+00 -0.52746535442E+03  0.52746535442E+03  0.25500000920E-02 0.  1.
    10030    2    1    2    0    0  0.00000000000E+00  0.00000000000E+00 -0.20988591365E+03  0.84504479521E+03  0.81856496942E+03 0.  0.
        4    1    3    3  502    0  0.14247409050E+03  0.37454626649E+03 -0.19086248266E+03  0.44386244760E+03  0.12699999809E+01 0.  1.
       -4    1    3    3    0  502 -0.14247409050E+03 -0.37454626649E+03 -0.19023430984E+02  0.40118234760E+03  0.12699999809E+01 0. -1.
</event>
<event>
 5   0  0.1509629E-02  0.9122270E+03  0.7818609E-02  0.9410425E-01
        1   -1    0    0  501    0  0.00000000000E+00  0.00000000000E+00  0.63093578315E+03  0.63093578317E+03  0.50400001928E-02 0.  1.
       -1   -1    0    0    0  501  0.00000000000E+00  0.00000000000E+00 -0.32973171275E+03  0.32973171278E+03  0.50400001928E-02 0. -1.
    10030    2    1    2    0    0  0.00000000000E+00  0.00000000000E+00  0.30120407040E+03  0.96066749595E+03  0.91222702533E+03 0.  0.
        5    1    3    3  502    0  0.11119568277E+03  0.28098946073E+03 -0.20914867774E+03  0.36753886367E+03  0.46999998093E+01 0. -1.
       -5    1    3    3    0  502 -0.11119568277E+03 -0.28098946073E+03  0.51035274814E+03  0.59312863228E+03  0.46999998093E+01 0.  1.
</event>
<event>
 5   0  0.1471290E-02  0.8043429E+03  0.7818609E-02  0.9553752E-01
       -1   -1    0    0    0  501  0.00000000000E+00  0.00000000000E+00  0.66252058177E+03  0.66252058178E+03  0.50400001928E-02 0. -1.
        1   -1    0    0  501    0  0.00000000000E+00  0.00000000000E+00 -0.24413111635E+03  0.24413111640E+03  0.50400001928E-02 0.  1.
    10030    2    1    2    0    0  0.00000000000E+00  0.00000000000E+00  0.41838946542E+03  0.90665169818E+03  0.80434293498E+03 0.  0.
        2    1    3    3  502    0 -0.36514988261E+03  0.16727113152E+03  0.18588000757E+03  0.44256688244E+03  0.25500000920E-02 0. -1.
       -2    1    3    3    0  502  0.36514988261E+03 -0.16727113152E+03  0.23250945785E+03  0.46408481575E+03  0.25500000920E-02 0.  1.
</event>
<event>
 5   0  0.1509629E-02  0.7949127E+03  0.7818609E-02  0.9567410E-01
        1   -1    0    0  501    0  0.00000000000E+00  0.00000000000E+00  0.57239589664E+03  0.57239589666E+03  0.50400001928E-02 0.  1.
       -1   -1    0    0    0  501  0.00000000000E+00  0.00000000000E+00 -0.27598301510E+03  0.27598301515E+03  0.50400001928E-02 0. -1.
    10030    2    1    2    0    0  0.00000000000E+00  0.00000000000E+00  0.29641288154E+03  0.84837891181E+03  0.79491268807E+03 0.  0.
        5    1    3    3  502    0  0.35337243231E+02 -0.36904703437E+03  0.30103360184E+03  0.47758533664E+03  0.46999998093E+01 0.  1.
       -5    1    3    3    0  502 -0.35337243231E+02  0.36904703437E+03 -0.46207203028E+01  0.37079357517E+03  0.46999998093E+01 0. -1.
</event>
<event>
 5   0  0.2464780E-02  0.7953902E+03  0.7818609E-02  0.9566714E-01
       -2   -1    0    0    0  501  0.00000000000E+00  0.00000000000E+00  0.14239480686E+03  0.14239480689E+03  0.25500000920E-02 0. -1.
        2   -1    0    0  501    0  0.00000000000E+00  0.00000000000E+00 -0.11107245369E+04  0.11107245369E+04  0.25500000920E-02 0.  1.
    10030    2    1    2    0    0  0.00000000000E+00  0.00000000000E+00 -0.96832973003E+03  0.12531193438E+04  0.79539023360E+03 0.  0.
        3    1    3    3  502    0  0.22360710812E+03  0.20592342100E+02  0.32959555303E+02  0.22695930437E+03  0.10100000352E+00 0. -1.
       -3    1    3    3    0  502 -0.22360710812E+03 -0.20592342100E+02 -0.10012892853E+04  0.10261600394E+04  0.10100000352E+00 0.  1.
</event>
<event>
 5   0  0.2460312E-02  0.7956854E+03  0.7818609E-02  0.9566283E-01
       -2   -1    0    0    0  501  0.00000000000E+00  0.00000000000E+00  0.11395081229E+04  0.11395081229E+04  0.25500000920E-02 0.  1.
        2   -1    0    0  501    0  0.00000000000E+00  0.00000000000E+00 -0.13890100093E+03  0.13890100096E+03  0.25500000920E-02 0. -1.
    10030    2    1    2    0    0  0.00000000000E+00  0.00000000000E+00  0.10006071220E+04  0.12784091239E+04  0.79568541236E+03 0.  0.
        2    1    3    3  502    0 -0.31217993653E+03  0.24405306220E+03  0.44325842084E+03  0.59455549580E+03  0.25500000920E-02 0.  1.
       -2    1    3    3    0  502  0.31217993653E+03 -0.24405306220E+03  0.55734870112E+03  0.68385362805E+03  0.25500000920E-02 0. -1.
</event>
<event>
 5   0  0.2454354E-02  0.6477740E+03  0.7818609E-02  0.9810965E-01
        2   -1    0    0  501    0  0.00000000000E+00  0.00000000000E+00  0.96397868170E+02  0.96397868203E+02  0.25500000920E-02 0. -1.
       -2   -1    0    0    0  501  0.00000000000E+00  0.00000000000E+00 -0.10882273157E+04  0.10882273157E+04  0.25500000920E-02 0.  1.
    10030    2    1    2    0    0  0.00000000000E+00  0.00000000000E+00 -0.99182944757E+03  0.11846251839E+04  0.64777401412E+03 0.  0.
        5    1    3    3  502    0 -0.20235405851E+03  0.16006153221E+03 -0.13795406078E+03  0.29260941881E+03  0.46999998093E+01 0. -1.
       -5    1    3    3    0  502  0.20235405851E+03 -0.16006153221E+03 -0.85387538679E+03  0.89201576513E+03  0.46999998093E+01 0.  1.
</event>
<event>
 5   0  0.1498375E-02  0.8037212E+03  0.7818609E-02  0.9554646E-01
       -1   -1    0    0    0  501  0.00000000000E+00  0.00000000000E+00  0.21339271352E+03  0.21339271358E+03  0.50400001928E-02 0. -1.
        1   -1    0    0  501    0  0.00000000000E+00  0.00000000000E+00 -0.75678273953E+03  0.75678273954E+03  0.50400001928E-02 0.  1.
    10030    2    1    2    0    0  0.00000000000E+00  0.00000000000E+00 -0.54339002601E+03  0.97017545313E+03  0.80372115157E+03 0.  0.
        4    1    3    3  502    0 -0.22017936011E+03  0.27886275978E+03 -0.49831878880E+03  0.61201847814E+03  0.12699999809E+01 0. -1.
       -4    1    3    3    0  502  0.22017936011E+03 -0.27886275978E+03 -0.45071237208E+02  0.35815697499E+03  0.12699999809E+01 0.  1.
</event>
<event>
 5   0  0.1523811E-02  0.7954802E+03  0.7818609E-02  0.9566582E-01
       -1   -1    0    0    0  501  0.00000000000E+00  0.00000000000E+00  0.15192334900E+04  0.15192334900E+04  0.50400001928E-02 0. -1.
        1   -1    0    0  501    0  0.00000000000E+00  0.00000000000E+00 -0.10412961332E+03  0.10412961345E+03  0.50400001928E-02 0.  1.
    10030    2    1    2    0    0  0.00000000000E+00  0.00000000000E+00  0.14151038766E+04  0.16233631034E+04  0.79548022216E+03 0.  0.
        1    1    3    3  502    0 -0.14577549829E+03 -0.56402963162E+02  0.14539288391E+04  0.14623066913E+04  0.50400001928E-02 0. -1.
       -1    1    3    3    0  502  0.14577549829E+03  0.56402963162E+02 -0.38824962463E+02  0.16105641214E+03  0.50400001928E-02 0.  1.
</event>
<event>
 5   0  0.2460312E-02  0.8226113E+03  0.7818609E-02  0.9527853E-01
        2   -1    0    0  501    0  0.00000000000E+00  0.00000000000E+00  0.14024627032E+04  0.14024627032E+04  0.25500000920E-02 0. -1.
       -2   -1    0    0    0  501  0.00000000000E+00  0.00000000000E+00 -0.12062520594E+03  0.12062520597E+03  0.25500000920E-02 0.  1.
    10030    2    1    2    0    0  0.00000000000E+00  0.00000000000E+00  0.12818374972E+04  0.15230879091E+04  0.82261133573E+03 0.  0.
        2    1    3    3  502    0  0.33766849095E+03 -0.12776135158E+03  0.10057655195E+04  0.10686006050E+04  0.25500000920E-02 0. -1.
       -2    1    3    3    0  502 -0.33766849095E+03  0.12776135158E+03  0.27607197767E+03  0.45448730411E+03  0.25500000920E-02 0.  1.
</event>
<event>
 5   0  0.9919125E-03  0.7902612E+03  0.7818609E-02  0.9574222E-01
       -3   -1    0    0    0  501  0.00000000000E+00  0.00000000000E+00  0.19599836845E+03  0.19599839448E+03  0.10100000352E+00 0.  1.
        3   -1    0    0  501    0  0.00000000000E+00  0.00000000000E+00 -0.79657901265E+03  0.79657901906E+03  0.10100000352E+00 0. -1.
    10030    2    1    2    0    0  0.00000000000E+00  0.00000000000E+00 -0.60058064420E+03  0.99257741353E+03  0.79026123002E+03 0.  0.
        2    1    3    3  502    0 -0.32480351632E+03 -0.74842730969E+02 -0.56681781011E+03  0.65755698495E+03  0.25500000920E-02 0. -1.
       -2    1    3    3    0  502  0.32480351632E+03  0.74842730969E+02 -0.33762834090E+02  0.33502042858E+03  0.25500000920E-02 0.  1.
</event>
<event>
 5   0  0.1498375E-02  0.7983403E+03  0.7818609E-02  0.9562423E-01
       -1   -1    0    0    0  501  0.00000000000E+00  0.00000000000E+00  0.32323343388E+03  0.32323343392E+03  0.50400001928E-02 0.  1.
        1   -1    0    0  501    0  0.00000000000E+00  0.00000000000E+00 -0.49294661285E+03  0.49294661287E+03  0.50400001928E-02 0. -1.
    10030    2    1    2    0    0  0.00000000000E+00  0.00000000000E+00 -0.16971317897E+03  0.81618004679E+03  0.79834034450E+03 0.  0.
        4    1    3    3  502    0  0.30237266966E+03  0.11366437238E+03  0.15487513562E+03  0.35824117775E+03  0.12699999809E+01 0.  1.
       -4    1    3    3    0  502 -0.30237266966E+03 -0.11366437238E+03 -0.32458831459E+03  0.45793886904E+03  0.12699999809E+01 0. -1.
</event>
<event>
 5   0  0.2422031E-02  0.7903476E+03  0.7818609E-02  0.9574095E-01
       -2   -1    0    0    0  501  0.00000000000E+00  0.00000000000E+00  0.48418204455E+03  0.48418204455E+03  0.25500000920E-02 0.  1.
        2   -1    0    0  501    0  0.00000000000E+00  0.00000000000E+00 -0.32252816658E+03  0.32252816659E+03  0.25500000920E-02 0. -1.
    10030    2    1    2    0    0  0.00000000000E+00  0.00000000000E+00  0.16165387796E+03  0.80671021115E+03  0.79034763775E+03 0.  0.
        4    1    3    3  502    0  0.27384744076E+03 -0.37076076291E+02 -0.20749894782E+03  0.34557847516E+03  0.12699999809E+01 0. -1.
       -4    1    3    3    0  502 -0.27384744076E+03  0.37076076291E+02  0.36915282579E+03  0.46113173599E+03  0.12699999809E+01 0.  1.
</event>
<event>
 5   0  0.1509629E-02  0.8069524E+03  0.7818609E-02  0.9550008E-01
        1   -1    0    0  501    0  0.00000000000E+00  0.00000000000E+00  0.10340146757E+04  0.10340146757E+04  0.50400001928E-02 0.  1.
       -1   -1    0    0    0  501  0.00000000000E+00  0.00000000000E+00 -0.15743784606E+03  0.15743784614E+03  0.50400001928E-02 0. -1.
    10030    2    1    2    0    0  0.00000000000E+00  0.00000000000E+00  0.87657682964E+03  0.11914525219E+04  0.80695239858E+03 0.  0.
        5    1    3    3  502    0  0.18377668648E+03 -0.46537508157E+02  0.96411449179E+03  0.98258763143E+03  0.46999998093E+01 0.  1.
       -5    1    3    3    0  502 -0.18377668648E+03  0.46537508157E+02 -0.87537662153E+02  0.20886489042E+03  0.46999998093E+01 0. -1.
</event>
<event>
 5   0  0.2464780E-02  0.8014438E+03  0.7818609E-02  0.9557930E-01
        2   -1    0    0  501    0  0.00000000000E+00  0.00000000000E+00  0.69924346898E+03  0.69924346899E+03  0.25500000920E-02 0. -1.
       -2   -1    0    0    0  501  0.00000000000E+00  0.00000000000E+00 -0.22964537395E+03  0.22964537397E+03  0.25500000920E-02 0.  1.
    10030    2    1    2    0    0  0.00000000000E+00  0.00000000000E+00  0.46959809503E+03  0.92888884295E+03  0.80144376703E+03 0.  0.
        3    1    3    3  502    0 -0.44538413559E+02 -0.19101313004E+02 -0.22623648823E+03  0.23136873005E+03  0.10100000352E+00 0.  1.
       -3    1    3    3    0  502  0.44538413559E+02  0.19101313004E+02  0.69583458326E+03  0.69752011290E+03  0.10100000352E+00 0. -1.
</event>
<event>
 5   0  0.2571778E-02  0.7969728E+03  0.7818609E-02  0.9564409E-01
       -2   -1    0    0    0  501  0.00000000000E+00  0.00000000000E+00  0.22648061178E+03  0.22648061179E+03  0.25500000920E-02 0.  1.
        2   -1    0    0  501    0  0.00000000000E+00  0.00000000000E+00 -0.70112581704E+03  0.70112581705E+03  0.25500000920E-02 0. -1.
    10030    2    1    2    0    0  0.00000000000E+00  0.00000000000E+00 -0.47464520526E+03  0.92760642884E+03  0.79697278244E+03 0.  0.
        1    1    3    3  502    0 -0.11697188775E+03  0.10322859554E+03  0.18945856526E+03  0.24542435380E+03  0.50400001928E-02 0.  1.
       -1    1    3    3    0  502  0.11697188775E+03 -0.10322859554E+03 -0.66410377052E+03  0.68218207504E+03  0.50400001928E-02 0. -1.
</event>
<event>
 5   0  0.1523811E-02  0.8133503E+03  0.7818609E-02  0.9540892E-01
        1   -1    0    0  501    0  0.00000000000E+00  0.00000000000E+00  0.15601907848E+04  0.15601907848E+04  0.50400001928E-02 0.  1.
       -1   -1    0    0    0  501  0.00000000000E+00  0.00000000000E+00 -0.10600285332E+03  0.10600285344E+03  0.50400001928E-02 0. -1.
    10030    2    1    2    0    0  0.00000000000E+00  0.00000000000E+00  0.14541879315E+04  0.16661936382E+04  0.81335029360E+03 0.  0.
        1    1    3    3  502    0  0.20763563751E+03  0.26712895728E+02  0.14413280618E+04  0.14564520996E+04  0.50400001928E-02 0.  1.
       -1    1    3    3    0  502 -0.20763563751E+03 -0.26712895728E+02  0.12859869707E+02  0.20974153865E+03  0.50400001928E-02 0. -1.
</event>
<event>
 5   0  0.9919125E-03  0.7790502E+03  0.7818609E-02  0.9590846E-01
        3   -1    0    0  501    0  0.00000000000E+00  0.00000000000E+00  0.47592478128E+03  0.47592479199E+03  0.10100000352E+00 0. -1.
       -3   -1    0    0    0  501  0.00000000000E+00  0.00000000000E+00 -0.31881044720E+03  0.31881046320E+03  0.10100000352E+00 0.  1.
    10030    2    1    2    0    0  0.00000000000E+00  0.00000000000E+00  0.15711433407E+03  0.79473525519E+03  0.77905019856E+03 0.  0.
        1    1    3    3  502    0 -0.16387436991E+03  0.34860842791E+03  0.19537720650E+02  0.38569984143E+03  0.50400001928E-02 0. -1.
       -1    1    3    3    0  502  0.16387436991E+03 -0.34860842791E+03  0.13757661342E+03  0.40903541376E+03  0.50400001928E-02 0.  1.
</event>
<event>
 5   0  0.1471290E-02  0.7901065E+03  0.7818609E-02  0.9574449E-01
       -1   -1    0    0    0  501  0.00000000000E+00  0.00000000000E+00  0.13151688437E+03  0.13151688447E+03  0.50400001928E-02 0. -1.
        1   -1    0    0  501    0  0.00000000000E+00  0.00000000000E+00 -0.11866693753E+04  0.11866693753E+04  0.50400001928E-02 0.  1.
    10030    2    1    2    0    0  0.00000000000E+00  0.00000000000E+00 -0.10551524909E+04  0.13181862598E+04  0.79010647154E+03 0.  0.
        2    1    3    3  502    0  0.79496350009E+02 -0.25259932570E+03 -0.38483425583E+02  0.26759496082E+03  0.25500000920E-02 0. -1.
       -2    1    3    3    0  502 -0.79496350009E+02  0.25259932570E+03 -0.10166690654E+04  0.10505912990E+04  0.25500000920E-02 0.  1.
</event>
<event>
 5   0  0.1498375E-02  0.8091932E+03  0.7818609E-02  0.9546805E-01
       -1   -1    0    0    0  501  0.00000000000E+00  0.00000000000E+00  0.91146022255E+02  0.91146022394E+02  0.50400001928E-02 0.  1.
        1   -1    0    0  501    0  0.00000000000E+00  0.00000000000E+00 -0.17960018237E+04  0.17960018237E+04  0.50400001928E-02 0. -1.
    10030    2    1    2    0    0  0.00000000000E+00  0.00000000000E+00 -0.17048558015E+04  0.18871478461E+04  0.80919323361E+03 0.  0.
        4    1    3    3  502    0  0.44401079536E+02  0.25078182606E+02  0.83616937020E+02  0.97947823678E+02  0.12699999809E+01 0.  1.
       -4    1    3    3    0  502 -0.44401079536E+02 -0.25078182606E+02 -0.17884727385E+04  0.17892000224E+04  0.12699999809E+01 0. -1.
</event>
<event>
 5   0  0.1498375E-02  0.7696597E+03  0.7818609E-02  0.9605002E-01
        1   -1    0    0  501    0  0.00000000000E+00  0.00000000000E+00  0.83014689220E+03  0.83014689222E+03  0.50400001928E-02 0. -1.
       -1   -1    0    0    0  501  0.00000000000E+00  0.00000000000E+00 -0.17839494461E+03  0.17839494468E+03  0.50400001928E-02 0.  1.
    10030    2    1    2    0    0  0.00000000000E+00  0.00000000000E+00  0.65175194760E+03  0.10085418369E+04  0.76965968815E+03 0.  0.
        4    1    3    3  502    0  0.27374498593E+03 -0.26809412713E+03  0.37278694473E+03  0.53458628619E+03  0.12699999809E+01 0. -1.
       -4    1    3    3    0  502 -0.27374498593E+03  0.26809412713E+03  0.27896500287E+03  0.47395555071E+03  0.12699999809E+01 0.  1.
</event>
<event>
 5   0  0.1523811E-02  0.8246953E+03  0.7818609E-02  0.9524944E-01
        1   -1    0    0  501    0  0.00000000000E+00  0.00000000000E+00  0.18686782675E+03  0.18686782681E+03  0.50400001928E-02 0.  1.
       -1   -1    0    0    0  501  0.00000000000E+00  0.00000000000E+00 -0.90989753511E+03  0.90989753512E+03  0.50400001928E-02 0. -1.
    10030    2    1    2    0    0  0.00000000000E+00  0.00000000000E+00 -0.72302970836E+03  0.10967653619E+04  0.82469527704E+03 0.  0.
        1    1    3    3  502    0 -0.45788580696E+02  0.40480291836E+03 -0.27668640078E+03  0.49246051744E+03  0.50400001928E-02 0. -1.
       -1    1    3    3    0  502  0.45788580696E+02 -0.40480291836E+03 -0.44634330758E+03  0.60430484450E+03  0.50400001928E-02 0.  1.
</event>
<event>
 5   0  0.2454354E-02  0.7982111E+03  0.7818609E-02  0.9562610E-01
       -2   -1    0    0    0  501  0.00000000000E+00  0.00000000000E+00  0.38750645331E+03  0.38750645332E+03  0.25500000920E-02 0.  1.
        2   -1    0    0  501    0  0.00000000000E+00  0.00000000000E+00 -0.41105185248E+03  0.41105185249E+03  0.25500000920E-02 0. -1.
    10030    2    1    2    0    0  0.00000000000E+00  0.00000000000E+00 -0.23545399172E+02  0.79855830581E+03  0.79821111365E+03 0.  0.
        5    1    3    3  502    0  0.59471665115E+02 -0.13634725890E+03 -0.38225215291E+03  0.41020269668E+03  0.46999998093E+01 0. -1.
       -5    1    3    3    0  502 -0.59471665115E+02  0.13634725890E+03  0.35870675374E+03  0.38835560913E+03  0.46999998093E+01 0.  1.
</event>
<event>
 5   0  0.2460312E-02  0.7981384E+03  0.7818609E-02  0.9562716E-01
       -2   -1    0    0    0  501  0.00000000000E+00  0.00000000000E+00  0.12900091034E+04  0.12900091034E+04  0.25500000920E-02 0.  1.
        2   -1    0    0  501    0  0.00000000000E+00  0.00000000000E+00 -0.12345355742E+03  0.12345355745E+03  0.25500000920E-02 0. -1.
    10030    2    1    2    0    0  0.00000000000E+00  0.00000000000E+00  0.11665555460E+04  0.14134626609E+04  0.79813836632E+03 0.  0.
        2    1    3    3  502    0 -0.22463209959E+03 -0.19387518010E+03  0.11069951146E+03  0.31670419553E+03  0.25500000920E-02 0. -1.
       -2    1    3    3    0  502  0.22463209959E+03  0.19387518010E+03  0.10558560345E+04  0.10967584653E+04  0.25500000920E-02 0.  1.
</event>
<event>
 5   0  0.1471290E-02  0.7981353E+03  0.7818609E-02  0.9562720E-01
        1   -1    0    0  501    0  0.00000000000E+00  0.00000000000E+00  0.35659086860E+03  0.35659086863E+03  0.50400001928E-02 0. -1.
       -1   -1    0    0    0  501  0.00000000000E+00  0.00000000000E+00 -0.44660419611E+03  0.44660419613E+03  0.50400001928E-02 0.  1.
    10030    2    1    2    0    0  0.00000000000E+00  0.00000000000E+00 -0.90013327510E+02  0.80319506477E+03  0.79813527233E+03 0.  0.
        2    1    3    3  502    0  0.29926780345E+02 -0.54731398512E+02 -0.44166766207E+03  0.44605096333E+03  0.25500000920E-02 0.  1.
       -2    1    3    3    0  502 -0.29926780345E+02  0.54731398512E+02  0.35165433456E+03  0.35714410143E+03  0.25500000920E-02 0. -1.
</event>
<event>
 5   0  0.1498375E-02  0.8063457E+03  0.7818609E-02  0.9550877E-01
       -1   -1    0    0    0  501  0.00000000000E+00  0.00000000000E+00  0.34173977587E+03  0.34173977591E+03  0.50400001928E-02 0. -1.
        1   -1    0    0  501    0  0.00000000000E+00  0.00000000000E+00 -0.47564949024E+03  0.47564949027E+03  0.50400001928E-02 0.  1.
    10030    2    1    2    0    0  0.00000000000E+00  0.00000000000E+00 -0.13390971437E+03  0.81738926618E+03  0.80634570803E+03 0.  0.
        4    1    3    3  502    0  0.35289174586E+03  0.19389391479E+03 -0.87712189828E+02  0.41209522642E+03  0.12699999809E+01 0.  1.
       -4    1    3    3    0  502 -0.35289174586E+03 -0.19389391479E+03 -0.46197524544E+02  0.40529403976E+03  0.12699999809E+01 0. -1.
</event>
<event>
 5   0  0.1523811E-02  0.7322118E+03  0.7818609E-02  0.9663678E-01
        1   -1    0    0  501    0  0.00000000000E+00  0.00000000000E+00  0.80749958011E+03  0.80749958012E+03  0.50400001928E-02 0. -1.
       -1   -1    0    0    0  501  0.00000000000E+00  0.00000000000E+00 -0.16598590433E+03  0.16598590441E+03  0.50400001928E-02 0.  1.
    10030    2    1    2    0    0  0.00000000000E+00  0.00000000000E+00  0.64151367577E+03  0.97348548453E+03  0.73221184939E+03 0.  0.
        1    1    3    3  502    0 -0.11479844087E+03 -0.76985251338E+02 -0.12996220878E+03  0.18972502915E+03  0.50400001928E-02 0.  1.
       -1    1    3    3    0  502  0.11479844087E+03  0.76985251338E+02  0.77147588455E+03  0.78376045538E+03  0.50400001928E-02 0. -1.
</event>
<event>
 5   0  0.1523811E-02  0.7806697E+03  0.7818609E-02  0.9588426E-01
        1   -1    0    0  501    0  0.00000000000E+00  0.00000000000E+00  0.40614408534E+03  0.40614408537E+03  0.50400001928E-02 0.  1.
       -1   -1    0    0    0  501  0.00000000000E+00  0.00000000000E+00 -0.37514103745E+03  0.37514103748E+03  0.50400001928E-02 0. -1.
    10030    2    1    2    0    0  0.00000000000E+00  0.00000000000E+00  0.31003047896E+02  0.78128512286E+03  0.78066974722E+03 0.  0.
        1    1    3    3  502    0  0.83072416818E+02  0.19978384806E+03 -0.30963408551E+03  0.37774049203E+03  0.50400001928E-02 0. -1.
       -1    1    3    3    0  502 -0.83072416818E+02 -0.19978384806E+03  0.34063713341E+03  0.40354463082E+03  0.50400001928E-02 0.  1.
</event>
<event>
 5   0  0.1471290E-02  0.7801403E+03  0.7818609E-02  0.9589217E-01
        1   -1    0    0  501    0  0.00000000000E+00  0.00000000000E+00  0.84000910294E+03  0.84000910295E+03  0.50400001928E-02 0.  1.
       -1   -1    0    0    0  501  0.00000000000E+00  0.00000000000E+00 -0.18113461063E+03  0.18113461070E+03  0.50400001928E-02 0. -1.
    10030    2    1    2    0    0  0.00000000000E+00  0.00000000000E+00  0.65887449231E+03  0.10211437137E+04  0.78014029978E+03 0.  0.
        2    1    3    3  502    0 -0.31868433245E+03 -0.18946842048E+03  0.17075636715E+03  0.40818589275E+03  0.25500000920E-02 0. -1.
       -2    1    3    3    0  502  0.31868433245E+03  0.18946842048E+03  0.48811812515E+03  0.61295782091E+03  0.25500000920E-02 0.  1.
</event>
<event>
 5   0  0.1498375E-02  0.7983693E+03  0.7818609E-02  0.9562380E-01
       -1   -1    0    0    0  501  0.00000000000E+00  0.00000000000E+00  0.94930775121E+03  0.94930775122E+03  0.50400001928E-02 0.  1.
        1   -1    0    0  501    0  0.00000000000E+00  0.00000000000E+00 -0.16785747076E+03  0.16785747084E+03  0.50400001928E-02 0. -1.
    10030    2    1    2    0    0  0.00000000000E+00  0.00000000000E+00  0.78145028044E+03  0.11171652221E+04  0.79836933343E+03 0.  0.
        4    1    3    3  502    0 -0.23162767044E+03  0.63678820917E+01 -0.64114487348E+02  0.24042505698E+03  0.12699999809E+01 0. -1.
       -4    1    3    3    0  502  0.23162767044E+03 -0.63678820917E+01  0.84556476779E+03  0.87674016508E+03  0.12699999809E+01 0.  1.
</event>
<event>
 5   0  0.1624094E-02  0.8034455E+03  0.7818609E-02  0.9555043E-01
        1   -1    0    0  501    0  0.00000000000E+00  0.00000000000E+00  0.53908830862E+03  0.53908830864E+03  0.50400001928E-02 0. -1.
       -1   -1    0    0    0  501  0.00000000000E+00  0.00000000000E+00 -0.29935945393E+03  0.29935945397E+03  0.50400001928E-02 0.  1.
    10030    2    1    2    0    0  0.00000000000E+00  0.00000000000E+00  0.23972885470E+03  0.83844776261E+03  0.80344553447E+03 0.  0.
        3    1    3    3  502    0 -0.27395924280E+03  0.36632150001E+02 -0.18435869318E+03  0.33224045371E+03  0.10100000352E+00 0.  1.
       -3    1    3    3    0  502  0.27395924280E+03 -0.36632150001E+02  0.42408754787E+03  0.50620730890E+03  0.10100000352E+00 0. -1.
</event>
<event>
 5   0  0.2460312E-02  0.8151219E+03  0.7818609E-02  0.9538383E-01
        2   -1    0    0  501    0  0.00000000000E+00  0.00000000000E+00  0.91231203916E+03  0.91231203916E+03  0.25500000920E-02 0.  1.
       -2   -1    0    0    0  501  0.00000000000E+00  0.00000000000E+00 -0.18207140371E+03  0.18207140373E+03  0.25500000920E-02 0. -1.
    10030    2    1    2    0    0  0.00000000000E+00  0.00000000000E+00  0.73024063545E+03  0.10943834429E+04  0.81512191383E+03 0.  0.
        2    1    3    3  502    0  0.31272830967E+03  0.22750418316E+03  0.53783529358E+03  0.66243788543E+03  0.25500000920E-02 0.  1.
       -2    1    3    3    0  502 -0.31272830967E+03 -0.22750418316E+03  0.19240534187E+03  0.43194555746E+03  0.25500000920E-02 0. -1.
</event>
<event>
 5   0  0.1509629E-02  0.7806307E+03  0.7818609E-02  0.9588484E-01
        1   -1    0    0  501    0  0.00000000000E+00  0.00000000000E+00  0.59151377723E+03  0.59151377725E+03  0.50400001928E-02 0.  1.
       -1   -1    0    0    0  501  0.00000000000E+00  0.00000000000E+00 -0.25755288697E+03  0.25755288702E+03  0.50400001928E-02 0. -1.
    10030    2    1    2    0    0  0.00000000000E+00  0.00000000000E+00  0.33396089026E+03  0.84906666427E+03  0.78063072201E+03 0.  0.
        5    1    3    3  502    0 -0.22905473556E+03 -0.23415488201E+03  0.39778495002E+03  0.51531498824E+03  0.46999998093E+01 0.  1.
       -5    1    3    3    0  502  0.22905473556E+03  0.23415488201E+03 -0.63824059758E+02  0.33375167603E+03  0.46999998093E+01 0. -1.
</event>
<event>
 5   0  0.2571778E-02  0.9182236E+03  0.7818609E-02  0.9403083E-01
       -2   -1    0    0    0  501  0.00000000000E+00  0.00000000000E+00  0.25447379575E+03  0.25447379576E+03  0.25500000920E-02 0.  1.
        2   -1    0    0  501    0  0.00000000000E+00  0.00000000000E+00 -0.82831179296E+03  0.82831179297E+03  0.25500000920E-02 0. -1.
    10030    2    1    2    0    0  0.00000000000E+00  0.00000000000E+00 -0.57383799721E+03  0.10827855887E+04  0.91822360246E+03 0.  0.
        1    1    3    3  502    0  0.23138174083E+03 -0.39405262140E+03 -0.33924050147E+03  0.56912133705E+03  0.50400001928E-02 0. -1.
       -1    1    3    3    0  502 -0.23138174083E+03  0.39405262140E+03 -0.23459749574E+03  0.51366425168E+03  0.50400001928E-02 0.  1.
</event>
<event>
 5   0  0.1624094E-02  0.7919867E+03  0.7818609E-02  0.9571689E-01
        1   -1    0    0  501    0  0.00000000000E+00  0.00000000000E+00  0.24543366785E+04  0.24543366785E+04  0.50400001928E-02 0.  1.
       -1   -1    0    0    0  501  0.00000000000E+00  0.00000000000E+00 -0.63891295802E+02  0.63891296001E+02  0.50400001928E-02 0. -1.
    10030    2    1    2    0    0  0.00000000000E+00  0.00000000000E+00  0.23904453827E+04  0.25182279745E+04  0.79198674480E+03 0.  0.
        3    1    3    3  502    0  0.11455762554E+03  0.31048468042E+03  0.50379627799E+03  0.60277266549E+03  0.10100000352E+00 0. -1.
       -3    1    3    3    0  502 -0.11455762554E+03 -0.31048468042E+03  0.18866491047E+04  0.19154553090E+04  0.10100000352E+00 0.  1.
</event>
<event>
 5   0  0.2571778E-02  0.7954609E+03  0.7818609E-02  0.9566611E-01
       -2   -1    0    0    0  501  0.00000000000E+00  0.00000000000E+00  0.12382744968E+03  0.12382744971E+03  0.25500000920E-02 0. -1.
        2   -1    0    0  501    0  0.00000000000E+00  0.00000000000E+00 -0.12774995967E+04  0.12774995967E+04  0.25500000920E-02 0.  1.
    10030    2    1    2    0    0  0.00000000000E+00  0.00000000000E+00 -0.11536721470E+04  0.14013270464E+04  0.79546091558E+03 0.  0.
        1    1    3    3  502    0  0.39120370629E+03 -0.23042583854E+02 -0.45711852786E+03  0.60210352019E+03  0.50400001928E-02 0.  1.
       -1    1    3    3    0  502 -0.39120370629E+03  0.23042583854E+02 -0.69655361917E+03  0.79922352624E+03  0.50400001928E-02 0. -1.
</event>
<event>
 5   0  0.1523811E-02  0.8037438E+03  0.7818609E-02  0.9554614E-01
       -1   -1    0    0    0  501  0.00000000000E+00  0.00000000000E+00  0.50846063476E+03  0.50846063479E+03  0.50400001928E-02 0. -1.
        1   -1    0    0  501    0  0.00000000000E+00  0.00000000000E+00 -0.31762736333E+03  0.31762736337E+03  0.50400001928E-02 0.  1.
    10030    2    1    2    0    0  0.00000000000E+00  0.00000000000E+00  0.19083327144E+03  0.82608799815E+03  0.80374376713E+03 0.  0.
        1    1    3    3  502    0  0.37911034693E+03  0.69722148117E+02  0.21222095082E+03  0.44002677769E+03  0.50400001928E-02 0.  1.
       -1    1    3    3    0  502 -0.37911034693E+03 -0.69722148117E+02 -0.21387679386E+02  0.38606122046E+03  0.50400001928E-02 0. -1.
</event>
<event>
 5   0  0.2454354E-02  0.8613128E+03  0.7818609E-02  0.9475278E-01
        2   -1    0    0  501    0  0.00000000000E+00  0.00000000000E+00  0.63236737192E+03  0.63236737193E+03  0.25500000920E-02 0.  1.
       -2   -1    0    0    0  501  0.00000000000E+00  0.00000000000E+00 -0.29328667471E+03  0.29328667472E+03  0.25500000920E-02 0. -1.
    10030    2    1    2    0    0  0.00000000000E+00  0.00000000000E+00  0.33908069721E+03  0.92565404665E+03  0.86131277412E+03 0.  0.
        5    1    3    3  502    0  0.85938575326E+02  0.41986839783E+03  0.12435272019E+03  0.44627413015E+03  0.46999998093E+01 0. -1.
       -5    1    3    3    0  502 -0.85938575326E+02 -0.41986839783E+03  0.21472797702E+03  0.47937991650E+03  0.46999998093E+01 0.  1.
</event>
<event>
 5   0  0.1471290E-02  0.8380616E+03  0.7818609E-02  0.9506502E-01
       -1   -1    0    0    0  501  0.00000000000E+00  0.00000000000E+00  0.63272169734E+03  0.63272169736E+03  0.50400001928E-02 0. -1.
        1   -1    0    0  501    0  0.00000000000E+00  0.00000000000E+00 -0.27751035970E+03  0.27751035974E+03  0.50400001928E-02 0.  1.
    10030    2    1    2    0    0  0.00000000000E+00  0.00000000000E+00  0.35521133764E+03  0.91023205711E+03  0.83806163460E+03 0.  0.
        2    1    3    3  502    0  0.41845799326E+03 -0.19427237698E+01  0.15391042467E+03  0.44586913453E+03  0.25500000920E-02 0.  1.
       -2    1    3    3    0  502 -0.41845799326E+03  0.19427237698E+01  0.20130091297E+03  0.46436292258E+03  0.25500000920E-02 0. -1.
</event>
<event>
 5   0  0.2464780E-02  0.8256446E+03  0.7818609E-02  0.9523622E-01
       -2   -1    0    0    0  501  0.00000000000E+00  0.00000000000E+00  0.19611006542E+03  0.19611006544E+03  0.25500000920E-02 0. -1.
        2   -1    0    0  501    0  0.00000000000E+00  0.00000000000E+00 -0.86901320643E+03  0.86901320643E+03  0.25500000920E-02 0.  1.
    10030    2    1    2    0    0  0.00000000000E+00  0.00000000000E+00 -0.67290314101E+03  0.10651232719E+04  0.82564456463E+03 0.  0.
        3    1    3    3  502    0 -0.36110189217E+03 -0.18321896844E+03 -0.23277724400E+03  0.46706425945E+03  0.10100000352E+00 0. -1.
       -3    1    3    3    0  502  0.36110189217E+03  0.18321896844E+03 -0.44012589700E+03  0.59805901242E+03  0.10100000352E+00 0.  1.
</event>
<event>
 5   0  0.2460312E-02  0.8068768E+03  0.7818609E-02  0.9550116E-01
       -2   -1    0    0    0  501  0.00000000000E+00  0.00000000000E+00  0.16554185097E+03  0.16554185099E+03  0.25500000920E-02 0.  1.
        2   -1    0    0  501    0  0.00000000000E+00  0.00000000000E+00 -0.98321095057E+03  0.98321095057E+03  0.25500000920E-02 0. -1.
    10030    2    1    2    0    0  0.00000000000E+00  0.00000000000E+00 -0.81766909960E+03  0.11487528016E+04  0.80687684479E+03 0.  0.
        2    1    3    3  502    0 -0.10507614200E+03  0.38867631883E+03 -0.37247338672E+03  0.54849494096E+03  0.25500000920E-02 0. -1.
       -2    1    3    3    0  502  0.10507614200E+03 -0.38867631883E+03 -0.44519571288E+03  0.60025786060E+03  0.25500000920E-02 0.  1.
</event>
<event>
 5   0  0.9919125E-03  0.7034762E+03  0.7818609E-02  0.9711306E-01
        4   -1    0    0  501    0  0.00000000000E+00  0.00000000000E+00  0.43961077826E+03  0.43961261272E+03  0.12699999809E+01 0. -1.
       -4   -1    0    0    0  501  0.00000000000E+00  0.00000000000E+00 -0.28142620963E+03  0.28142907520E+03  0.12699999809E+01 0.  1.
    10030    2    1    2    0    0  0.00000000000E+00  0.00000000000E+00  0.15818456863E+03  0.72104168792E+03  0.70347619574E+03 0.  0.
        4    1    3    3  502    0  0.13328196433E+03 -0.28343417766E+03 -0.84963888762E+02  0.32452964483E+03  0.12699999809E+01 0.  1.
       -4    1    3    3    0  502 -0.13328196433E+03  0.28343417766E+03  0.24314845740E+03  0.39651204309E+03  0.12699999809E+01 0. -1.
</event>
<event>
 5   0  0.2454354E-02  0.7836988E+03  0.7818609E-02  0.9583917E-01
       -2   -1    0    0    0  501  0.00000000000E+00  0.00000000000E+00  0.79055204570E+03  0.79055204570E+03  0.25500000920E-02 0. -1.
        2   -1    0    0  501    0  0.00000000000E+00  0.00000000000E+00 -0.19422626467E+03  0.19422626468E+03  0.25500000920E-02 0.  1.
    10030    2    1    2    0    0  0.00000000000E+00  0.00000000000E+00  0.59632578103E+03  0.98477831039E+03  0.78369884744E+03 0.  0.
        5    1    3    3  502    0 -0.26945875514E+03  0.48061656973E+02 -0.54140596650E+02  0.27905418434E+03  0.46999998093E+01 0.  1.
       -5    1    3    3    0  502  0.26945875514E+03 -0.48061656973E+02  0.65046637768E+03  0.70572412605E+03  0.46999998093E+01 0. -1.
</event>
<event>
 5   0  0.2454354E-02  0.7905093E+03  0.7818609E-02  0.9573857E-01
       -2   -1    0    0    0  501  0.00000000000E+00  0.00000000000E+00  0.28725457944E+03  0.28725457945E+03  0.25500000920E-02 0.  1.
        2   -1    0    0  501    0  0.00000000000E+00  0.00000000000E+00 -0.54385992742E+03  0.54385992743E+03  0.25500000920E-02 0. -1.
    10030    2    1    2    0    0  0.00000000000E+00  0.00000000000E+00 -0.25660534798E+03  0.83111450688E+03  0.79050934146E+03 0.  0.
        5    1    3    3  502    0  0.62224239581E+02 -0.11542566856E+03  0.26368793770E+03  0.29453074447E+03  0.46999998093E+01 0.  1.
       -5    1    3    3    0  502 -0.62224239581E+02  0.11542566856E+03 -0.52029328568E+03  0.53658376241E+03  0.46999998093E+01 0. -1.
</event>
<event>
 5   0  0.2464780E-02  0.7395326E+03  0.7818609E-02  0.9651917E-01
       -2   -1    0    0    0  501  0.00000000000E+00  0.00000000000E+00  0.12626296693E+03  0.12626296695E+03  0.25500000920E-02 0.  1.
        2   -1    0    0  501    0  0.00000000000E+00  0.00000000000E+00 -0.10828757464E+04  0.10828757464E+04  0.25500000920E-02 0. -1.
    10030    2    1    2    0    0  0.00000000000E+00  0.00000000000E+00 -0.95661277949E+03  0.12091387134E+04  0.73953256744E+03 0.  0.
        3    1    3    3  502    0 -0.24902936962E+03 -0.27327788339E+03 -0.48736051773E+03  0.61173255016E+03  0.10100000352E+00 0. -1.
       -3    1    3    3    0  502  0.24902936962E+03  0.27327788339E+03 -0.46925226176E+03  0.59740616322E+03  0.10100000352E+00 0.  1.
</event>
<event>
 5   0  0.2571778E-02  0.8027510E+03  0.7818609E-02  0.9556044E-01
        2   -1    0    0  501    0  0.00000000000E+00  0.00000000000E+00  0.79892231726E+02  0.79892231767E+02  0.25500000920E-02 0.  1.
       -2   -1    0    0    0  501  0.00000000000E+00  0.00000000000E+00 -0.20164952216E+04  0.20164952216E+04  0.25500000920E-02 0. -1.
    10030    2    1    2    0    0  0.00000000000E+00  0.00000000000E+00 -0.19366029899E+04  0.20963874534E+04  0.80275102881E+03 0.  0.
        1    1    3    3  502    0  0.30616504217E+03  0.72205460762E+02 -0.16193554540E+04  0.16496250326E+04  0.50400001928E-02 0. -1.
       -1    1    3    3    0  502 -0.30616504217E+03 -0.72205460762E+02 -0.31724753589E+03  0.44676242083E+03  0.50400001928E-02 0.  1.
</event>
<event>
 5   0  0.1509629E-02  0.8201023E+03  0.7818609E-02  0.9531367E-01
       -1   -1    0    0    0  501  0.00000000000E+00  0.00000000000E+00  0.21041196787E+03  0.21041196793E+03  0.50400001928E-02 0. -1.
        1   -1    0    0  501    0  0.00000000000E+00  0.00000000000E+00 -0.79910826894E+03  0.79910826895E+03  0.50400001928E-02 0.  1.
    10030    2    1    2    0    0  0.00000000000E+00  0.00000000000E+00 -0.58869630107E+03  0.10095202369E+04  0.82010229471E+03 0.  0.
        5    1    3    3  502    0 -0.19701294137E+03  0.14578751927E+02  0.14793328396E+03  0.24684607669E+03  0.46999998093E+01 0. -1.
       -5    1    3    3    0  502  0.19701294137E+03 -0.14578751927E+02 -0.73662958503E+03  0.76267416019E+03  0.46999998093E+01 0.  1.
</event>
<event>
 5   0  0.1523811E-02  0.8006472E+03  0.7818609E-02  0.9559081E-01
        1   -1    0    0  501    0  0.00000000000E+00  0.00000000000E+00  0.81362058050E+03  0.81362058051E+03  0.50400001928E-02 0. -1.
       -1   -1    0    0    0  501  0.00000000000E+00  0.00000000000E+00 -0.19697016698E+03  0.19697016704E+03  0.50400001928E-02 0.  1.
    10030    2    1    2    0    0  0.00000000000E+00  0.00000000000E+00  0.61665041352E+03  0.10105907476E+04  0.80064719231E+03 0.  0.
        1    1    3    3  502    0  0.88176998479E+02 -0.21778885056E+03  0.71743126716E+03  0.75492700946E+03  0.50400001928E-02 0. -1.
       -1    1    3    3    0  502 -0.88176998479E+02  0.21778885056E+03 -0.10078085365E+03  0.25566373809E+03  0.50400001928E-02 0.  1.
</event>
<event>
 5   0  0.9919125E-03  0.7999377E+03  0.7818609E-02  0.9560107E-01
        3   -1    0    0  501    0  0.00000000000E+00  0.00000000000E+00  0.10622490251E+04  0.10622490299E+04  0.10100000352E+00 0.  1.
       -3   -1    0    0    0  501  0.00000000000E+00  0.00000000000E+00 -0.15060033637E+03  0.15060037023E+03  0.10100000352E+00 0. -1.
    10030    2    1    2    0    0  0.00000000000E+00  0.00000000000E+00  0.91164868877E+03  0.12128494002E+04  0.79993770743E+03 0.  0.
        4    1    3    3  502    0 -0.13637735775E+03 -0.28226060444E+03  0.79201988418E+02  0.32333326521E+03  0.12699999809E+01 0. -1.
       -4    1    3    3    0  502  0.13637735775E+03  0.28226060444E+03  0.83244670035E+03  0.88951613496E+03  0.12699999809E+01 0.  1.
</event>
<event>
 5   0  0.2460312E-02  0.7973326E+03  0.7818609E-02  0.9563886E-01
       -2   -1    0    0    0  501  0.00000000000E+00  0.00000000000E+00  0.51755534118E+03  0.51755534119E+03  0.25500000920E-02 0. -1.
        2   -1    0    0  501    0  0.00000000000E+00  0.00000000000E+00 -0.30708755790E+03  0.30708755791E+03  0.25500000920E-02 0.  1.
    10030    2    1    2    0    0  0.00000000000E+00  0.00000000000E+00  0.21046778328E+03  0.82464289910E+03  0.79733256753E+03 0.  0.
        2    1    3    3  502    0  0.32584264819E+02  0.31585504871E+02 -0.30440754557E+03  0.30777155853E+03  0.25500000920E-02 0.  1.
       -2    1    3    3    0  502 -0.32584264819E+02 -0.31585504871E+02  0.51487532886E+03  0.51687134057E+03  0.25500000920E-02 0. -1.
</event>
<event>
 5   0  0.1471290E-02  0.8032083E+03  0.7818609E-02  0.9555385E-01
       -1   -1    0    0    0  501  0.00000000000E+00  0.00000000000E+00  0.14925768827E+03  0.14925768835E+03  0.50400001928E-02 0.  1.
        1   -1    0    0  501    0  0.00000000000E+00  0.00000000000E+00 -0.10805869625E+04  0.10805869625E+04  0.50400001928E-02 0. -1.
    10030    2    1    2    0    0  0.00000000000E+00  0.00000000000E+00 -0.93132927422E+03  0.12298446509E+04  0.80320834670E+03 0.  0.
        2    1    3    3  502    0 -0.18346913200E+03  0.24899245275E+03 -0.85791720460E+03  0.91196496308E+03  0.25500000920E-02 0. -1.
       -2    1    3    3    0  502  0.18346913200E+03 -0.24899245275E+03 -0.73412069612E+02  0.31787968777E+03  0.25500000920E-02 0.  1.
</event>
<event>
 5   0  0.2571778E-02  0.8110427E+03  0.7818609E-02  0.9544169E-01
        2   -1    0    0  501    0  0.00000000000E+00  0.00000000000E+00  0.14606161815E+04  0.14606161815E+04  0.25500000920E-02 0. -1.
       -2   -1    0    0    0  501  0.00000000000E+00  0.00000000000E+00 -0.11258780112E+03  0.11258780115E+03  0.25500000920E-02 0.  1.
    10030    2    1    2    0    0  0.00000000000E+00  0.00000000000E+00  0.13480283804E+04  0.15732039827E+04  0.81104269724E+03 0.  0.
        1    1    3    3  502    0  0.76323095227E+02 -0.27600446898E+03  0.11705863949E+03  0.30936452102E+03  0.50400001928E-02 0.  1.
       -1    1    3    3    0  502 -0.76323095227E+02  0.27600446898E+03  0.12309697409E+04  0.12638394616E+04  0.50400001928E-02 0. -1.
</event>
<event>
 5   0  0.2454354E-02  0.7734251E+03  0.7818609E-02  0.9599300E-01
        2   -1    0    0  501    0  0.00000000000E+00  0.00000000000E+00  0.15758396925E+04  0.15758396925E+04  0.25500000920E-02 0.  1.
       -2   -1    0    0    0  501  0.00000000000E+00  0.00000000000E+00 -0.94899621154E+02  0.94899621188E+02  0.25500000920E-02 0. -1.
    10030    2    1    2    0    0  0.00000000000E+00  0.00000000000E+00  0.14809400714E+04  0.16707393137E+04  0.77342508325E+03 0.  0.
        5    1    3    3  502    0  0.16053777713E+03  0.21583869644E+03  0.14039879657E+03  0.30346768006E+03  0.46999998093E+01 0. -1.
       -5    1    3    3    0  502 -0.16053777713E+03 -0.21583869644E+03  0.13405412748E+04  0.13672716337E+04  0.46999998093E+01 0.  1.
</event>
<event>
 5   0  0.9919125E-03  0.7978771E+03  0.7818609E-02  0.9563095E-01
        3   -1    0    0  501    0  0.00000000000E+00  0.00000000000E+00  0.16218205299E+03  0.16218208444E+03  0.10100000352E+00 0. -1.
       -3   -1    0    0    0  501  0.00000000000E+00  0.00000000000E+00 -0.98131651664E+03  0.98131652184E+03  0.10100000352E+00 0.  1.
    10030    2    1    2    0    0  0.00000000000E+00  0.00000000000E+00 -0.81913446365E+03  0.11434986063E+04  0.79787705383E+03 0.  0.
        4    1    3    3  502    0  0.32968424724E+03  0.20369363402E+03 -0.27384961426E+03  0.47452926522E+03  0.12699999809E+01 0. -1.
       -4    1    3    3    0  502 -0.32968424724E+03 -0.20369363402E+03 -0.54528484938E+03  0.66896934106E+03  0.12699999809E+01 0.  1.
</event>
<event>
 5   0  0.1624094E-02  0.8539279E+03  0.7818609E-02  0.9485080E-01
       -1   -1    0    0    0  501  0.00000000000E+00  0.00000000000E+00  0.13870264282E+04  0.13870264282E+04  0.50400001928E-02 0. -1.
        1   -1    0    0  501    0  0.00000000000E+00  0.00000000000E+00 -0.13143096384E+03  0.13143096394E+03  0.50400001928E-02 0.  1.
    10030    2    1    2    0    0  0.00000000000E+00  0.00000000000E+00  0.12555954644E+04  0.15184573922E+04  0.85392791363E+03 0.  0.
        3    1    3    3  502    0 -0.26778203038E+03 -0.30857824103E+03  0.84825523468E+03  0.94152254354E+03  0.10100000352E+00 0. -1.
       -3    1    3    3    0  502  0.26778203038E+03  0.30857824103E+03  0.40734022969E+03  0.57693484862E+03  0.10100000352E+00 0.  1.
</event>
<event>
 5   0  0.1509629E-02  0.7990095E+03  0.7818609E-02  0.9561452E-01
        1   -1    0    0  501    0  0.00000000000E+00  0.00000000000E+00  0.30150600584E+03  0.30150600588E+03  0.50400001928E-02 0. -1.
       -1   -1    0    0    0  501  0.00000000000E+00  0.00000000000E+00 -0.52935610449E+03  0.52935610451E+03  0.50400001928E-02 0.  1.
    10030    2    1    2    0    0  0.00000000000E+00  0.00000000000E+00 -0.22785009865E+03  0.83086211039E+03  0.79900949871E+03 0.  0.
        5    1    3    3  502    0 -0.31157583839E+03  0.24320718502E+03 -0.53714103396E+02  0.39891920588E+03  0.46999998093E+01 0. -1.
       -5    1    3    3    0  502  0.31157583839E+03 -0.24320718502E+03 -0.17413599525E+03  0.43194290451E+03  0.46999998093E+01 0.  1.
</event>
<event>
 5   0  0.2571778E-02  0.8018516E+03  0.7818609E-02  0.9557341E-01
        2   -1    0    0  501    0  0.00000000000E+00  0.00000000000E+00  0.44414147048E+03  0.44414147049E+03  0.25500000920E-02 0. -1.
       -2   -1    0    0    0  501  0.00000000000E+00  0.00000000000E+00 -0.36191508053E+03  0.36191508054E+03  0.25500000920E-02 0.  1.
    10030    2    1    2    0    0  0.00000000000E+00  0.00000000000E+00  0.82226389945E+02  0.80605655103E+03  0.80185159740E+03 0.  0.
        1    1    3    3  502    0  0.10699955314E+03  0.14802281648E+03 -0.31766436164E+03  0.36642912719E+03  0.50400001928E-02 0.  1.
       -1    1    3    3    0  502 -0.10699955314E+03 -0.14802281648E+03  0.39989075158E+03  0.43962742384E+03  0.50400001928E-02 0. -1.
</event>
<event>
 5   0  0.2422031E-02  0.8134278E+03  0.7818609E-02  0.9540782E-01
       -2   -1    0    0    0  501  0.00000000000E+00  0.00000000000E+00  0.16011401164E+03  0.16011401166E+03  0.25500000920E-02 0.  1.
        2   -1    0    0  501    0  0.00000000000E+00  0.00000000000E+00 -0.10331149642E+04  0.10331149642E+04  0.25500000920E-02 0. -1.
    10030    2    1    2    0    0  0.00000000000E+00  0.00000000000E+00 -0.87300095257E+03  0.11932289759E+04  0.81342776302E+03 0.  0.
        4    1    3    3  502    0  0.11364065331E+03 -0.76485745814E+02 -0.99825461322E+03  0.10076101196E+04  0.12699999809E+01 0. -1.
       -4    1    3    3    0  502 -0.11364065331E+03  0.76485745814E+02  0.12525366065E+03  0.18561885627E+03  0.12699999809E+01 0.  1.
</event>
<event>
 5   0  0.9919125E-03  0.7983537E+03  0.7818609E-02  0.9562403E-01
        4   -1    0    0  501    0  0.00000000000E+00  0.00000000000E+00  0.81857329531E+03  0.81857428050E+03  0.12699999809E+01 0.  1.
       -4   -1    0    0    0  501  0.00000000000E+00  0.00000000000E+00 -0.19465521268E+03  0.19465935561E+03  0.12699999809E+01 0. -1.
    10030    2    1    2    0    0  0.00000000000E+00  0.00000000000E+00  0.62391808263E+03  0.10132336361E+04  0.79835369825E+03 0.  0.
        2    1    3    3  502    0  0.95948355459E+02  0.12868795298E+02 -0.17953371868E+03  0.20397070613E+03  0.25500000920E-02 0. -1.
       -2    1    3    3    0  502 -0.95948355459E+02 -0.12868795298E+02  0.80345180131E+03  0.80926292998E+03  0.25500000920E-02 0.  1.
</event>
<event>
 5   0  0.1471290E-02  0.7996133E+03  0.7818609E-02  0.9560577E-01
       -1   -1    0    0    0  501  0.00000000000E+00  0.00000000000E+00  0.27424266900E+03  0.27424266905E+03  0.50400001928E-02 0. -1.
        1   -1    0    0  501    0  0.00000000000E+00  0.00000000000E+00 -0.58286107613E+03  0.58286107615E+03  0.50400001928E-02 0.  1.
    10030    2    1    2    0    0  0.00000000000E+00  0.00000000000E+00 -0.30861840713E+03  0.85710374520E+03  0.79961334957E+03 0.  0.
        2    1    3    3  502    0  0.18464544663E+03  0.25199738084E+03  0.11312607482E+03  0.33225612067E+03  0.25500000920E-02 0. -1.
       -2    1    3    3    0  502 -0.18464544663E+03 -0.25199738084E+03 -0.42174448195E+03  0.52484762453E+03  0.25500000920E-02 0.  1.
</event>
<event>
 5   0  0.2464780E-02  0.8003279E+03  0.7818609E-02  0.9559543E-01
        2   -1    0    0  501    0  0.00000000000E+00  0.00000000000E+00  0.89892611913E+03  0.89892611913E+03  0.25500000920E-02 0. -1.
       -2   -1    0    0    0  501  0.00000000000E+00  0.00000000000E+00 -0.17813610125E+03  0.17813610126E+03  0.25500000920E-02 0.  1.
    10030    2    1    2    0    0  0.00000000000E+00  0.00000000000E+00  0.72079001788E+03  0.10770622204E+04  0.80032791825E+03 0.  0.
        3    1    3    3  502    0  0.90658702139E+02 -0.38425123280E+03  0.27252526829E+03  0.47972704973E+03  0.10100000352E+00 0. -1.
       -3    1    3    3    0  502 -0.90658702139E+02  0.38425123280E+03  0.44826474959E+03  0.59733517067E+03  0.10100000352E+00 0.  1.
</event>
<event>
 5   0  0.1498375E-02  0.8020929E+03  0.7818609E-02  0.9556993E-01
        1   -1    0    0  501    0  0.00000000000E+00  0.00000000000E+00  0.30345901503E+03  0.30345901507E+03  0.50400001928E-02 0.  1.
       -1   -1    0    0    0  501  0.00000000000E+00  0.00000000000E+00 -0.53001644695E+03  0.53001644698E+03  0.50400001928E-02 0. -1.
    10030    2    1    2    0    0  0.00000000000E+00  0.00000000000E+00 -0.22655743192E+03  0.83347546205E+03  0.80209293469E+03 0.  0.
        4    1    3    3  502    0  0.19794764682E+03  0.33336183340E+03 -0.66820673513E+01  0.38776235735E+03  0.12699999809E+01 0.  1.
       -4    1    3    3    0  502 -0.19794764682E+03 -0.33336183340E+03 -0.21987536457E+03  0.44571310470E+03  0.12699999809E+01 0. -1.
</event>
<event>
 5   0  0.2464780E-02  0.7957288E+03  0.7818609E-02  0.9566220E-01
        2   -1    0    0  501    0  0.00000000000E+00  0.00000000000E+00  0.43458542607E+03  0.43458542608E+03  0.25500000920E-02 0.  1.
       -2   -1    0    0    0  501  0.00000000000E+00  0.00000000000E+00 -0.36424616620E+03  0.36424616621E+03  0.25500000920E-02 0. -1.
    10030    2    1    2    0    0  0.00000000000E+00  0.00000000000E+00  0.70339259870E+02  0.79883159229E+03  0.79572878631E+03 0.  0.
        3    1    3    3  502    0 -0.15606173483E+03 -0.24779158943E+03 -0.23521333263E+03  0.37560785258E+03  0.10100000352E+00 0. -1.
       -3    1    3    3    0  502  0.15606173483E+03  0.24779158943E+03  0.30555259250E+03  0.42322373971E+03  0.10100000352E+00 0.  1.
</event>
<event>
 5   0  0.1471290E-02  0.8035456E+03  0.7818609E-02  0.9554899E-01
        1   -1    0    0  501    0  0.00000000000E+00  0.00000000000E+00  0.32268689993E+03  0.32268689997E+03  0.50400001928E-02 0.  1.
       -1   -1    0    0    0  501  0.00000000000E+00  0.00000000000E+00 -0.50024157351E+03  0.50024157354E+03  0.50400001928E-02 0. -1.
    10030    2    1    2    0    0  0.00000000000E+00  0.00000000000E+00 -0.17755467359E+03  0.82292847351E+03  0.80354564923E+03 0.  0.
        2    1    3    3  502    0  0.33784600869E+03  0.20532256935E+03 -0.15467684302E+02  0.39564697944E+03  0.25500000920E-02 0.  1.
       -2    1    3    3    0  502 -0.33784600869E+03 -0.20532256935E+03 -0.16208698929E+03  0.42728149407E+03  0.25500000920E-02 0. -1.
</event>
<event>
 5   0  0.2571778E-02  0.7914525E+03  0.7818609E-02  0.9572472E-01
        2   -1    0    0  501    0  0.00000000000E+00  0.00000000000E+00  0.57605787587E+03  0.57605787587E+03  0.25500000920E-02 0.  1.
       -2   -1    0    0    0  501  0.00000000000E+00  0.00000000000E+00 -0.27184639222E+03  0.27184639224E+03  0.25500000920E-02 0. -1.
    10030    2    1    2    0    0  0.00000000000E+00  0.00000000000E+00  0.30421148364E+03  0.84790426811E+03  0.79145247557E+03 0.  0.
        1    1    3    3  502    0 -0.31972794881E+03  0.89106990786E+02 -0.78747759305E+02  0.34112640865E+03  0.50400001928E-02 0. -1.
       -1    1    3    3    0  502  0.31972794881E+03 -0.89106990786E+02  0.38295924295E+03  0.50677785946E+03  0.50400001928E-02 0.  1.
</event>
<event>
 5   0  0.2460312E-02  0.8053368E+03  0.7818609E-02  0.9552324E-01
        2   -1    0    0  501    0  0.00000000000E+00  0.00000000000E+00  0.52253523531E+03  0.52253523532E+03  0.25500000920E-02 0.  1.
       -2   -1    0    0    0  501  0.00000000000E+00  0.00000000000E+00 -0.31029842439E+03  0.31029842440E+03  0.25500000920E-02 0. -1.
    10030    2    1    2    0    0  0.00000000000E+00  0.00000000000E+00  0.21223681092E+03  0.83283365971E+03  0.80533684930E+03 0.  0.
        2    1    3    3  502    0  0.18304904606E+03 -0.13591992438E+03  0.44935533174E+03  0.50388629002E+03  0.25500000920E-02 0.  1.
       -2    1    3    3    0  502 -0.18304904606E+03  0.13591992438E+03 -0.23711852082E+03  0.32894736969E+03  0.25500000920E-02 0. -1.
</event>
<event>
 5   0  0.1509629E-02  0.8155895E+03  0.7818609E-02  0.9537722E-01
        1   -1    0    0  501    0  0.00000000000E+00  0.00000000000E+00  0.19139965487E+03  0.19139965494E+03  0.50400001928E-02 0. -1.
       -1   -1    0    0    0  501  0.00000000000E+00  0.00000000000E+00 -0.86884452562E+03  0.86884452563E+03  0.50400001928E-02 0.  1.
    10030    2    1    2    0    0  0.00000000000E+00  0.00000000000E+00 -0.67744487074E+03  0.10602441806E+04  0.81558946139E+03 0.  0.
        5    1    3    3  502    0  0.17543668895E+03  0.24591906020E+03  0.17337825844E+02  0.30261676457E+03  0.46999998093E+01 0. -1.
       -5    1    3    3    0  502 -0.17543668895E+03 -0.24591906020E+03 -0.69478269659E+03  0.75762741600E+03  0.46999998093E+01 0.  1.
</event>
<event>
 5   0  0.1498375E-02  0.7972394E+03  0.7818609E-02  0.9564022E-01
       -1   -1    0    0    0  501  0.00000000000E+00  0.00000000000E+00  0.10681056741E+03  0.10681056753E+03  0.50400001928E-02 0. -1.
        1   -1    0    0  501    0  0.00000000000E+00  0.00000000000E+00 -0.14876587259E+04  0.14876587259E+04  0.50400001928E-02 0.  1.
    10030    2    1    2    0    0  0.00000000000E+00  0.00000000000E+00 -0.13808481585E+04  0.15944692934E+04  0.79723941883E+03 0.  0.
        4    1    3    3  502    0  0.29521767622E+02 -0.63198030334E+02 -0.14753538597E+04  0.14770024204E+04  0.12699999809E+01 0.  1.
       -4    1    3    3    0  502 -0.29521767622E+02  0.63198030334E+02  0.94505701181E+02  0.11746687302E+03  0.12699999809E+01 0. -1.
</event>
<event>
 5   0  0.9919125E-03  0.6074043E+03  0.7818609E-02  0.9890163E-01
       -3   -1    0    0    0  501  0.00000000000E+00  0.00000000000E+00  0.59450364235E+03  0.59450365093E+03  0.10100000352E+00 0. -1.
        3   -1    0    0  501    0  0.00000000000E+00  0.00000000000E+00 -0.15514617628E+03  0.15514620916E+03  0.10100000352E+00 0.  1.
    10030    2    1    2    0    0  0.00000000000E+00  0.00000000000E+00  0.43935746607E+03  0.74964986009E+03  0.60740425561E+03 0.  0.
        4    1    3    3  502    0  0.13954464290E+03 -0.11573338489E+02  0.55228379103E+03  0.56975928975E+03  0.12699999809E+01 0. -1.
       -4    1    3    3    0  502 -0.13954464290E+03  0.11573338489E+02 -0.11292632496E+03  0.17989057033E+03  0.12699999809E+01 0.  1.
</event>
<event>
 5   0  0.2422031E-02  0.8146744E+03  0.7818609E-02  0.9539016E-01
        2   -1    0    0  501    0  0.00000000000E+00  0.00000000000E+00  0.10615747826E+04  0.10615747826E+04  0.25500000920E-02 0.  1.
       -2   -1    0    0    0  501  0.00000000000E+00  0.00000000000E+00 -0.15629949157E+03  0.15629949159E+03  0.25500000920E-02 0. -1.
    10030    2    1    2    0    0  0.00000000000E+00  0.00000000000E+00  0.90527529105E+03  0.12178742742E+04  0.81467441055E+03 0.  0.
        4    1    3    3  502    0  0.30162527935E+03 -0.10323563851E+03  0.83167197116E+03  0.89068248367E+03  0.12699999809E+01 0.  1.
       -4    1    3    3    0  502 -0.30162527935E+03  0.10323563851E+03  0.73603319892E+02  0.32719179054E+03  0.12699999809E+01 0. -1.
</event>
<event>
 5   0  0.2454354E-02  0.7757439E+03  0.7818609E-02  0.9595806E-01
        2   -1    0    0  501    0  0.00000000000E+00  0.00000000000E+00  0.68474148040E+03  0.68474148040E+03  0.25500000920E-02 0. -1.
       -2   -1    0    0    0  501  0.00000000000E+00  0.00000000000E+00 -0.21971016777E+03  0.21971016778E+03  0.25500000920E-02 0.  1.
    10030    2    1    2    0    0  0.00000000000E+00  0.00000000000E+00  0.46503131263E+03  0.90445164818E+03  0.77574394111E+03 0.  0.
        5    1    3    3  502    0 -0.26756640270E+03 -0.64682340651E+02 -0.86031046275E+02  0.28844239627E+03  0.46999998093E+01 0.  1.
       -5    1    3    3    0  502  0.26756640270E+03  0.64682340651E+02  0.55106235890E+03  0.61600925191E+03  0.46999998093E+01 0. -1.
</event>
<event>
 5   0  0.1498375E-02  0.8138647E+03  0.7818609E-02  0.9540162E-01
       -1   -1    0    0    0  501  0.00000000000E+00  0.00000000000E+00  0.72015382418E+02  0.72015382595E+02  0.50400001928E-02 0. -1.
        1   -1    0    0  501    0  0.00000000000E+00  0.00000000000E+00 -0.22994248059E+04  0.22994248059E+04  0.50400001928E-02 0.  1.
    10030    2    1    2    0    0  0.00000000000E+00  0.00000000000E+00 -0.22274094235E+04  0.23714401885E+04  0.81386474787E+03 0.  0.
        4    1    3    3  502    0 -0.32287469658E+03 -0.16005718200E+03 -0.16644514957E+04  0.17030169599E+04  0.12699999809E+01 0.  1.
       -4    1    3    3    0  502  0.32287469658E+03  0.16005718200E+03 -0.56295792775E+03  0.66842322859E+03  0.12699999809E+01 0. -1.
</event>
<event>
 5   0  0.2422031E-02  0.7927696E+03  0.7818609E-02  0.9570542E-01
       -2   -1    0    0    0  501  0.00000000000E+00  0.00000000000E+00  0.19747505466E+03  0.19747505467E+03  0.25500000920E-02 0. -1.
        2   -1    0    0  501    0  0.00000000000E+00  0.00000000000E+00 -0.79564937073E+03  0.79564937074E+03  0.25500000920E-02 0.  1.
    10030    2    1    2    0    0  0.00000000000E+00  0.00000000000E+00 -0.59817431608E+03  0.99312442541E+03  0.79276958313E+03 0.  0.
        4    1    3    3  502    0  0.11410306713E+03 -0.37437439991E+03 -0.37775595329E+03  0.54394565389E+03  0.12699999809E+01 0.  1.
       -4    1    3    3    0  502 -0.11410306713E+03  0.37437439991E+03 -0.22041836278E+03  0.44917877152E+03  0.12699999809E+01 0. -1.
</event>
<event>
 5   0  0.9919125E-03  0.8129968E+03  0.7818609E-02  0.9541393E-01
       -3   -1    0    0    0  501  0.00000000000E+00  0.00000000000E+00  0.12027464362E+03  0.12027468603E+03  0.10100000352E+00 0. -1.
        3   -1    0    0  501    0  0.00000000000E+00  0.00000000000E+00 -0.13738634142E+04  0.13738634179E+04  0.10100000352E+00 0.  1.
    10030    2    1    2    0    0  0.00000000000E+00  0.00000000000E+00 -0.12535887706E+04  0.14941381039E+04  0.81299684373E+03 0.  0.
        2    1    3    3  502    0  0.34440687311E+03 -0.19992611047E+03 -0.77671352675E+03  0.87285190412E+03  0.25500000920E-02 0. -1.
       -2    1    3    3    0  502 -0.34440687311E+03  0.19992611047E+03 -0.47687524381E+03  0.62128619980E+03  0.25500000920E-02 0.  1.
</event>
<event>
 5   0  0.1624094E-02  0.7953829E+03  0.7818609E-02  0.9566724E-01
        1   -1    0    0  501    0  0.00000000000E+00  0.00000000000E+00  0.66034571489E+03  0.66034571491E+03  0.50400001928E-02 0.  1.
       -1   -1    0    0    0  501  0.00000000000E+00  0.00000000000E+00 -0.23950861064E+03  0.23950861069E+03  0.50400001928E-02 0. -1.
    10030    2    1    2    0    0  0.00000000000E+00  0.00000000000E+00  0.42083710426E+03  0.89985432560E+03  0.79538288829E+03 0.  0.
        3    1    3    3  502    0 -0.21695971118E+03 -0.32873943222E+03  0.14827323964E+03  0.42086351038E+03  0.10100000352E+00 0. -1.
       -3    1    3    3    0  502  0.21695971118E+03  0.32873943222E+03  0.27256386462E+03  0.47899081523E+03  0.10100000352E+00 0.  1.
</event>
<event>
 5   0  0.1471290E-02  0.7925525E+03  0.7818609E-02  0.9570860E-01
        1   -1    0    0  501    0  0.00000000000E+00  0.00000000000E+00  0.72897226948E+03  0.72897226949E+03  0.50400001928E-02 0. -1.
       -1   -1    0    0    0  501  0.00000000000E+00  0.00000000000E+00 -0.21541953005E+03  0.21541953011E+03  0.50400001928E-02 0.  1.
    10030    2    1    2    0    0  0.00000000000E+00  0.00000000000E+00  0.51355273943E+03  0.94439179960E+03  0.79255249352E+03 0.  0.
        2    1    3    3  502    0  0.38441312774E+03  0.93067329109E+02  0.22759151582E+03  0.45632540868E+03  0.25500000920E-02 0. -1.
       -2    1    3    3    0  502 -0.38441312774E+03 -0.93067329109E+02  0.28596122361E+03  0.48806639092E+03  0.25500000920E-02 0.  1.
</event>
<event>
 5   0  0.1471290E-02  0.7877255E+03  0.7818609E-02  0.9577956E-01
        1   -1    0    0  501    0  0.00000000000E+00  0.00000000000E+00  0.22059619823E+03  0.22059619828E+03  0.50400001928E-02 0. -1.
       -1   -1    0    0    0  501  0.00000000000E+00  0.00000000000E+00 -0.70322085143E+03  0.70322085145E+03  0.50400001928E-02 0.  1.
    10030    2    1    2    0    0  0.00000000000E+00  0.00000000000E+00 -0.48262465321E+03  0.92381704973E+03  0.78772545058E+03 0.  0.
        2    1    3    3  502    0  0.19743700070E+03  0.31666907124E+03 -0.38903968140E+03  0.53908491320E+03  0.25500000920E-02 0.  1.
       -2    1    3    3    0  502 -0.19743700070E+03 -0.31666907124E+03 -0.93584971806E+02  0.38473213654E+03  0.25500000920E-02 0. -1.
</event>
<event>
 5   0  0.1523811E-02  0.8147355E+03  0.7818609E-02  0.9538930E-01
       -1   -1    0    0    0  501  0.00000000000E+00  0.00000000000E+00  0.94004218920E+02  0.94004219055E+02  0.50400001928E-02 0. -1.
        1   -1    0    0  501    0  0.00000000000E+00  0.00000000000E+00 -0.17653302101E+04  0.17653302102E+04  0.50400001928E-02 0.  1.
    10030    2    1    2    0    0  0.00000000000E+00  0.00000000000E+00 -0.16713259912E+04  0.18593344292E+04  0.81473550965E+03 0.  0.
        1    1    3    3  502    0 -0.19376332804E+03 -0.27018884893E+03 -0.13728240935E+04  0.14125127373E+04  0.50400001928E-02 0.  1.
       -1    1    3    3    0  502  0.19376332804E+03  0.27018884893E+03 -0.29850189775E+03  0.44682169191E+03  0.50400001928E-02 0. -1.
</event>
<event>
 5   0  0.1509629E-02  0.6809859E+03  0.7818609E-02  0.9750313E-01
        1   -1    0    0  501    0  0.00000000000E+00  0.00000000000E+00  0.48134996902E+03  0.48134996904E+03  0.50400001928E-02 0.  1.
       -1   -1    0    0    0  501  0.00000000000E+00  0.00000000000E+00 -0.24085476828E+03  0.24085476834E+03  0.50400001928E-02 0. -1.
    10030    2    1    2    0    0  0.00000000000E+00  0.00000000000E+00  0.24049520073E+03  0.72220473738E+03  0.68098585971E+03 0.  0.
        5    1    3    3  502    0  0.27973851307E+03 -0.19380940022E+03  0.10976896020E+03  0.35761296667E+03  0.46999998093E+01 0. -1.
       -5    1    3    3    0  502 -0.27973851307E+03  0.19380940022E+03  0.13072624053E+03  0.36459177071E+03  0.46999998093E+01 0.  1.
</event>
<event>
 5   0  0.1471290E-02  0.8052838E+03  0.7818609E-02  0.9552400E-01
        1   -1    0    0  501    0  0.00000000000E+00  0.00000000000E+00  0.69590118726E+03  0.69590118728E+03  0.50400001928E-02 0.  1.
       -1   -1    0    0    0  501  0.00000000000E+00  0.00000000000E+00 -0.23296479956E+03  0.23296479962E+03  0.50400001928E-02 0. -1.
    10030    2    1    2    0    0  0.00000000000E+00  0.00000000000E+00  0.46293638770E+03  0.92886598690E+03  0.80528375282E+03 0.  0.
        2    1    3    3  502    0  0.17084563049E+02  0.40223874636E+03  0.22488341160E+03  0.46115121184E+03  0.25500000920E-02 0.  1.
       -2    1    3    3    0  502 -0.17084563049E+02 -0.40223874636E+03  0.23805297610E+03  0.46771477505E+03  0.25500000920E-02 0. -1.
</event>
<event>
 5   0  0.2422031E-02  0.8150102E+03  0.7818609E-02  0.9538541E-01
        2   -1    0    0  501    0  0.00000000000E+00  0.00000000000E+00  0.67038779786E+03  0.67038779787E+03  0.25500000920E-02 0. -1.
       -2   -1    0    0    0  501  0.00000000000E+00  0.00000000000E+00 -0.24770795194E+03  0.24770795195E+03  0.25500000920E-02 0.  1.
    10030    2    1    2    0    0  0.00000000000E+00  0.00000000000E+00  0.42267984592E+03  0.91809574982E+03  0.81501015557E+03 0.  0.
        4    1    3    3  502    0  0.40078559503E+03  0.53110746675E+02  0.26887811968E+03  0.48553774389E+03  0.12699999809E+01 0.  1.
       -4    1    3    3    0  502 -0.40078559503E+03 -0.53110746675E+02  0.15380172624E+03  0.43255800593E+03  0.12699999809E+01 0. -1.
</event>
<event>
 5   0  0.2422031E-02  0.7901202E+03  0.7818609E-02  0.9574429E-01
        2   -1    0    0  501    0  0.00000000000E+00  0.00000000000E+00  0.98712611537E+03  0.98712611538E+03  0.25500000920E-02 0.  1.
       -2   -1    0    0    0  501  0.00000000000E+00  0.00000000000E+00 -0.15810794895E+03  0.15810794897E+03  0.25500000920E-02 0. -1.
    10030    2    1    2    0    0  0.00000000000E+00  0.00000000000E+00  0.82901816642E+03  0.11452340644E+04  0.79012020724E+03 0.  0.
        4    1    3    3  502    0  0.14808105528E+03  0.74808436672E+02 -0.10516533353E+03  0.19643233289E+03  0.12699999809E+01 0. -1.
       -4    1    3    3    0  502 -0.14808105528E+03 -0.74808436672E+02  0.93418349995E+03  0.94880173146E+03  0.12699999809E+01 0.  1.
</event>
<event>
 5   0  0.2571778E-02  0.7747286E+03  0.7818609E-02  0.9597334E-01
        2   -1    0    0  501    0  0.00000000000E+00  0.00000000000E+00  0.15543912313E+04  0.15543912313E+04  0.25500000920E-02 0.  1.
       -2   -1    0    0    0  501  0.00000000000E+00  0.00000000000E+00 -0.96533687455E+02  0.96533687488E+02  0.25500000920E-02 0. -1.
    10030    2    1    2    0    0  0.00000000000E+00  0.00000000000E+00  0.14578575438E+04  0.16509249188E+04  0.77472864238E+03 0.  0.
        1    1    3    3  502    0  0.33451741980E+03 -0.10672272567E+03  0.38033751665E+03  0.51763720009E+03  0.50400001928E-02 0. -1.
       -1    1    3    3    0  502 -0.33451741980E+03  0.10672272567E+03  0.10775200272E+04  0.11332877187E+04  0.50400001928E-02 0.  1.
</event>
<event>
 5   0  0.1498375E-02  0.7964851E+03  0.7818609E-02  0.9565119E-01
        1   -1    0    0  501    0  0.00000000000E+00  0.00000000000E+00  0.98123926898E+03  0.98123926899E+03  0.50400001928E-02 0. -1.
       -1   -1    0    0    0  501  0.00000000000E+00  0.00000000000E+00 -0.16162940600E+03  0.16162940608E+03  0.50400001928E-02 0.  1.
    10030    2    1    2    0    0  0.00000000000E+00  0.00000000000E+00  0.81960986297E+03  0.11428686751E+04  0.79648507894E+03 0.  0.
        4    1    3    3  502    0 -0.79422597725E+02  0.18131196698E+03 -0.86039512720E+02  0.21583880339E+03  0.12699999809E+01 0.  1.
       -4    1    3    3    0  502  0.79422597725E+02 -0.18131196698E+03  0.90564937569E+03  0.92702987168E+03  0.12699999809E+01 0. -1.
</event>
<event>
 5   0  0.1498375E-02  0.7946753E+03  0.7818609E-02  0.9567757E-01
        1   -1    0    0  501    0  0.00000000000E+00  0.00000000000E+00  0.25290128002E+04  0.25290128002E+04  0.50400001928E-02 0. -1.
       -1   -1    0    0    0  501  0.00000000000E+00  0.00000000000E+00 -0.62426410361E+02  0.62426410564E+02  0.50400001928E-02 0.  1.
    10030    2    1    2    0    0  0.00000000000E+00  0.00000000000E+00  0.24665863898E+04  0.25914392107E+04  0.79467525730E+03 0.  0.
        4    1    3    3  502    0  0.22695896346E+03  0.22507184579E+03  0.20029721581E+04  0.20283162441E+04  0.12699999809E+01 0.  1.
       -4    1    3    3    0  502 -0.22695896346E+03 -0.22507184579E+03  0.46361423169E+03  0.56312296667E+03  0.12699999809E+01 0. -1.
</event>
<event>
 5   0  0.2454354E-02  0.7981849E+03  0.7818609E-02  0.9562648E-01
       -2   -1    0    0    0  501  0.00000000000E+00  0.00000000000E+00  0.27336638483E+03  0.27336638484E+03  0.25500000920E-02 0. -1.
        2   -1    0    0  501    0  0.00000000000E+00  0.00000000000E+00 -0.58264210861E+03  0.58264210861E+03  0.25500000920E-02 0.  1.
    10030    2    1    2    0    0  0.00000000000E+00  0.00000000000E+00 -0.30927572378E+03  0.85600849345E+03  0.79818485800E+03 0.  0.
        5    1    3    3  502    0  0.10914665785E+03 -0.32717133115E+03  0.60650022622E+02  0.35022077050E+03  0.46999998093E+01 0. -1.
       -5    1    3    3    0  502 -0.10914665785E+03  0.32717133115E+03 -0.36992574640E+03  0.50578772296E+03  0.46999998093E+01 0.  1.
</event>
<event>
 5   0  0.1509629E-02  0.8264661E+03  0.7818609E-02  0.9522479E-01
       -1   -1    0    0    0  501  0.00000000000E+00  0.00000000000E+00  0.11959464122E+04  0.11959464122E+04  0.50400001928E-02 0.  1.
        1   -1    0    0  501    0  0.00000000000E+00  0.00000000000E+00 -0.14278362146E+03  0.14278362155E+03  0.50400001928E-02 0. -1.
    10030    2    1    2    0    0  0.00000000000E+00  0.00000000000E+00  0.10531627908E+04  0.13387300338E+04  0.82646611517E+03 0.  0.
        5    1    3    3  502    0  0.96460214449E+02 -0.15312099722E+03 -0.75132392498E+02  0.19600402843E+03  0.46999998093E+01 0. -1.
       -5    1    3    3    0  502 -0.96460214449E+02  0.15312099722E+03  0.11282951833E+04  0.11427260054E+04  0.46999998093E+01 0.  1.
</event>
<event>
 5   0  0.1509629E-02  0.8040510E+03  0.7818609E-02  0.9554172E-01
        1   -1    0    0  501    0  0.00000000000E+00  0.00000000000E+00  0.17649186662E+04  0.17649186662E+04  0.50400001928E-02 0. -1.
       -1   -1    0    0    0  501  0.00000000000E+00  0.00000000000E+00 -0.91576184614E+02  0.91576184753E+02  0.50400001928E-02 0.  1.
    10030    2    1    2    0    0  0.00000000000E+00  0.00000000000E+00  0.16733424816E+04  0.18564948510E+04  0.80405103754E+03 0.  0.
        5    1    3    3  502    0  0.11441630686E+03  0.28959292987E+03  0.24960753454E+03  0.39910044801E+03  0.46999998093E+01 0.  1.
       -5    1    3    3    0  502 -0.11441630686E+03 -0.28959292987E+03  0.14237349471E+04  0.14573944030E+04  0.46999998093E+01 0. -1.
</event>
<event>
 5   0  0.2460312E-02  0.7387238E+03  0.7818609E-02  0.9653209E-01
       -2   -1    0    0    0  501  0.00000000000E+00  0.00000000000E+00  0.86199820709E+02  0.86199820747E+02  0.25500000920E-02 0. -1.
        2   -1    0    0  501    0  0.00000000000E+00  0.00000000000E+00 -0.15826972811E+04  0.15826972811E+04  0.25500000920E-02 0.  1.
    10030    2    1    2    0    0  0.00000000000E+00  0.00000000000E+00 -0.14964974604E+04  0.16688971019E+04  0.73872382364E+03 0.  0.
        2    1    3    3  502    0  0.23411720819E+03 -0.25360035763E+03 -0.45106612491E+03  0.56796536656E+03  0.25500000920E-02 0. -1.
       -2    1    3    3    0  502 -0.23411720819E+03  0.25360035763E+03 -0.10454313355E+04  0.11009317353E+04  0.25500000920E-02 0.  1.
</event>
<event>
 5   0  0.1624094E-02  0.7922265E+03  0.7818609E-02  0.9571338E-01
        1   -1    0    0  501    0  0.00000000000E+00  0.00000000000E+00  0.29905768031E+03  0.29905768035E+03  0.50400001928E-02 0.  1.
       -1   -1    0    0    0  501  0.00000000000E+00  0.00000000000E+00 -0.52466706775E+03  0.52466706777E+03  0.50400001928E-02 0. -1.
    10030    2    1    2    0    0  0.00000000000E+00  0.00000000000E+00 -0.22560938744E+03  0.82372474812E+03  0.79222652377E+03 0.  0.
        3    1    3    3  502    0  0.25661368504E+03  0.11968081587E+03 -0.40082289481E+03  0.49074747502E+03  0.10100000352E+00 0. -1.
       -3    1    3    3    0  502 -0.25661368504E+03 -0.11968081587E+03  0.17521350737E+03  0.33297727310E+03  0.10100000352E+00 0.  1.
</event>
<event>
 5   0  0.2464780E-02  0.7711617E+03  0.7818609E-02  0.9602724E-01
       -2   -1    0    0    0  501  0.00000000000E+00  0.00000000000E+00  0.14579757803E+03  0.14579757805E+03  0.25500000920E-02 0. -1.
        2   -1    0    0  501    0  0.00000000000E+00  0.00000000000E+00 -0.10197192473E+04  0.10197192473E+04  0.25500000920E-02 0.  1.
    10030    2    1    2    0    0  0.00000000000E+00  0.00000000000E+00 -0.87392166932E+03  0.11655168254E+04  0.77116171208E+03 0.  0.
        3    1    3    3  502    0 -0.11338847371E+03 -0.35493262855E+03 -0.28704867466E+03  0.47035206878E+03  0.10100000352E+00 0. -1.
       -3    1    3    3    0  502  0.11338847371E+03  0.35493262855E+03 -0.58687299466E+03  0.69516475661E+03  0.10100000352E+00 0.  1.
</event>
<event>
 5   0  0.9919125E-03  0.8302795E+03  0.7818609E-02  0.9517194E-01
        3   -1    0    0  501    0  0.00000000000E+00  0.00000000000E+00  0.69124803207E+03  0.69124803945E+03  0.10100000352E+00 0.  1.
       -3   -1    0    0    0  501  0.00000000000E+00  0.00000000000E+00 -0.24931859914E+03  0.24931861959E+03  0.10100000352E+00 0. -1.
    10030    2    1    2    0    0  0.00000000000E+00  0.00000000000E+00  0.44192943294E+03  0.94056665904E+03  0.83027948090E+03 0.  0.
        4    1    3    3  502    0 -0.61929595595E+02  0.14792908647E+03 -0.21280928040E+03  0.26647268557E+03  0.12699999809E+01 0. -1.
       -4    1    3    3    0  502  0.61929595595E+02 -0.14792908647E+03  0.65473871333E+03  0.67409397347E+03  0.12699999809E+01 0.  1.
</event>
<event>
 5   0  0.2422031E-02  0.7959997E+03  0.7818609E-02  0.9565825E-01
        2   -1    0    0  501    0  0.00000000000E+00  0.00000000000E+00  0.14134469819E+04  0.14134469819E+04  0.25500000920E-02 0.  1.
       -2   -1    0    0    0  501  0.00000000000E+00  0.00000000000E+00 -0.11206921114E+03  0.11206921117E+03  0.25500000920E-02 0. -1.
    10030    2    1    2    0    0  0.00000000000E+00  0.00000000000E+00  0.13013777708E+04  0.15255161931E+04  0.79599971929E+03 0.  0.
        4    1    3    3  502    0  0.17021912470E+03  0.21492554354E+03  0.97776638231E+02  0.29108319011E+03  0.12699999809E+01 0. -1.
       -4    1    3    3    0  502 -0.17021912470E+03 -0.21492554354E+03  0.12036011325E+04  0.12344330030E+04  0.12699999809E+01 0.  1.
</event>
<event>
 5   0  0.2422031E-02  0.8294607E+03  0.7818609E-02  0.9518326E-01
       -2   -1    0    0    0  501  0.00000000000E+00  0.00000000000E+00  0.18251663890E+03  0.18251663892E+03  0.25500000920E-02 0. -1.
        2   -1    0    0  501    0  0.00000000000E+00  0.00000000000E+00 -0.94238683799E+03  0.94238683800E+03  0.25500000920E-02 0.  1.
    10030    2    1    2    0    0  0.00000000000E+00  0.00000000000E+00 -0.75987019909E+03  0.11249034769E+04  0.82946073621E+03 0.  0.
        4    1    3    3  502    0 -0.20449556275E+03  0.28582822955E+03 -0.81316950521E+02  0.36073573615E+03  0.12699999809E+01 0. -1.
       -4    1    3    3    0  502  0.20449556275E+03 -0.28582822955E+03 -0.67855324857E+03  0.76416774077E+03  0.12699999809E+01 0.  1.
</event>
<event>
 5   0  0.1471290E-02  0.7974548E+03  0.7818609E-02  0.9563708E-01
       -1   -1    0    0    0  501  0.00000000000E+00  0.00000000000E+00  0.37327283089E+03  0.37327283092E+03  0.50400001928E-02 0.  1.
        1   -1    0    0  501    0  0.00000000000E+00  0.00000000000E+00 -0.42591783567E+03  0.42591783570E+03  0.50400001928E-02 0. -1.
    10030    2    1    2    0    0  0.00000000000E+00  0.00000000000E+00 -0.52645004785E+02  0.79919066662E+03  0.79745484203E+03 0.  0.
        2    1    3    3  502    0  0.40241291706E+02 -0.13007818049E+03  0.34925164080E+03  0.37485517631E+03  0.25500000920E-02 0.  1.
       -2    1    3    3    0  502 -0.40241291706E+02  0.13007818049E+03 -0.40189664558E+03  0.42433549031E+03  0.25500000920E-02 0. -1.
</event>
<event>
 5   0  0.2571778E-02  0.7972625E+03  0.7818609E-02  0.9563988E-01
       -2   -1    0    0    0  501  0.00000000000E+00  0.00000000000E+00  0.10708993840E+03  0.10708993843E+03  0.25500000920E-02 0. -1.
        2   -1    0    0  501    0  0.00000000000E+00  0.00000000000E+00 -0.14838635509E+04  0.14838635509E+04  0.25500000920E-02 0.  1.
    10030    2    1    2    0    0  0.00000000000E+00  0.00000000000E+00 -0.13767736125E+04  0.15909534894E+04  0.79726245689E+03 0.  0.
        1    1    3    3  502    0  0.36127335784E+03  0.14650508754E+03 -0.85444331951E+03  0.93917813329E+03  0.50400001928E-02 0.  1.
       -1    1    3    3    0  502 -0.36127335784E+03 -0.14650508754E+03 -0.52233029300E+03  0.65177535607E+03  0.50400001928E-02 0. -1.
</event>
<event>
 5   0  0.1523811E-02  0.8037606E+03  0.7818609E-02  0.9554590E-01
        1   -1    0    0  501    0  0.00000000000E+00  0.00000000000E+00  0.17147611844E+04  0.17147611844E+04  0.50400001928E-02 0.  1.
       -1   -1    0    0    0  501  0.00000000000E+00  0.00000000000E+00 -0.94186734207E+02  0.94186734342E+02  0.50400001928E-02 0. -1.
    10030    2    1    2    0    0  0.00000000000E+00  0.00000000000E+00  0.16205744502E+04  0.18089479187E+04  0.80376055149E+03 0.  0.
        1    1    3    3  502    0  0.20459137456E+03 -0.18046441318E+03  0.14613845693E+03  0.30948583746E+03  0.50400001928E-02 0. -1.
       -1    1    3    3    0  502 -0.20459137456E+03  0.18046441318E+03  0.14744359933E+04  0.14994620813E+04  0.50400001928E-02 0.  1.
</event>
<event>
 5   0  0.1509629E-02  0.7981025E+03  0.7818609E-02  0.9562768E-01
        1   -1    0    0  501    0  0.00000000000E+00  0.00000000000E+00  0.19151837401E+04  0.19151837401E+04  0.50400001928E-02 0.  1.
       -1   -1    0    0    0  501  0.00000000000E+00  0.00000000000E+00 -0.83147061924E+02  0.83147062077E+02  0.50400001928E-02 0. -1.
    10030    2    1    2    0    0  0.00000000000E+00  0.00000000000E+00  0.18320366782E+04  0.19983308022E+04  0.79810250268E+03 0.  0.
        5    1    3    3  502    0  0.12935172537E+03  0.37237534490E+03  0.76117283895E+03  0.85720560375E+03  0.46999998093E+01 0. -1.
       -5    1    3    3    0  502 -0.12935172537E+03 -0.37237534490E+03  0.10708638393E+04  0.11411251985E+04  0.46999998093E+01 0.  1.
</event>
<event>
 5   0  0.2571778E-02  0.7594729E+03  0.7818609E-02  0.9620605E-01
        2   -1    0    0  501    0  0.00000000000E+00  0.00000000000E+00  0.13125860604E+04  0.13125860604E+04  0.25500000920E-02 0.  1.
       -2   -1    0    0    0  501  0.00000000000E+00  0.00000000000E+00 -0.10985930227E+03  0.10985930230E+03  0.25500000920E-02 0. -1.
    10030    2    1    2    0    0  0.00000000000E+00  0.00000000000E+00  0.12027267581E+04  0.14224453627E+04  0.75947294564E+03 0.  0.
        1    1    3    3  502    0  0.18073199561E+03  0.89505737344E+02 -0.12583228806E+01  0.20168518701E+03  0.50400001928E-02 0. -1.
       -1    1    3    3    0  502 -0.18073199561E+03 -0.89505737344E+02  0.12039850810E+04  0.12207601757E+04  0.50400001928E-02 0.  1.
</event>
<event>
 5   0  0.1509629E-02  0.7943450E+03  0.7818609E-02  0.9568239E-01
       -1   -1    0    0    0  501  0.00000000000E+00  0.00000000000E+00  0.16178540380E+03  0.16178540388E+03  0.50400001928E-02 0.  1.
        1   -1    0    0  501    0  0.00000000000E+00  0.00000000000E+00 -0.97503225057E+03  0.97503225058E+03  0.50400001928E-02 0. -1.
    10030    2    1    2    0    0  0.00000000000E+00  0.00000000000E+00 -0.81324684677E+03  0.11368176545E+04  0.79434497903E+03 0.  0.
        5    1    3    3  502    0 -0.33858095396E+03 -0.29802771037E+02 -0.70061224992E+03  0.77872002818E+03  0.46999998093E+01 0. -1.
       -5    1    3    3    0  502  0.33858095396E+03  0.29802771037E+02 -0.11263459684E+03  0.35809762628E+03  0.46999998093E+01 0.  1.
</event>
<event>
 5   0  0.1624094E-02  0.7803787E+03  0.7818609E-02  0.9588860E-01
       -1   -1    0    0    0  501  0.00000000000E+00  0.00000000000E+00  0.68172786415E+03  0.68172786416E+03  0.50400001928E-02 0.  1.
        1   -1    0    0  501    0  0.00000000000E+00  0.00000000000E+00 -0.22332627834E+03  0.22332627840E+03  0.50400001928E-02 0. -1.
    10030    2    1    2    0    0  0.00000000000E+00  0.00000000000E+00  0.45840158580E+03  0.90505414256E+03  0.78037874593E+03 0.  0.
        3    1    3    3  502    0 -0.44564263015E+02 -0.35886601742E+03  0.39916417956E+03  0.53861196091E+03  0.10100000352E+00 0.  1.
       -3    1    3    3    0  502  0.44564263015E+02  0.35886601742E+03  0.59237406249E+02  0.36644218165E+03  0.10100000352E+00 0. -1.
</event>
<event>
 5   0  0.1498375E-02  0.7974721E+03  0.7818609E-02  0.9563683E-01
        1   -1    0    0  501    0  0.00000000000E+00  0.00000000000E+00  0.50248292846E+03  0.50248292848E+03  0.50400001928E-02 0.  1.
       -1   -1    0    0    0  501  0.00000000000E+00  0.00000000000E+00 -0.31640964687E+03  0.31640964691E+03  0.50400001928E-02 0. -1.
    10030    2    1    2    0    0  0.00000000000E+00  0.00000000000E+00  0.18607328159E+03  0.81889257539E+03  0.79747212108E+03 0.  0.
        4    1    3    3  502    0 -0.89143955803E+02  0.12209715851E+03  0.47191123122E+03  0.49553625904E+03  0.12699999809E+01 0.  1.
       -4    1    3    3    0  502  0.89143955803E+02 -0.12209715851E+03 -0.28583794963E+03  0.32335631635E+03  0.12699999809E+01 0. -1.
</event>
<event>
 5   0  0.2454354E-02  0.7969627E+03  0.7818609E-02  0.9564424E-01
        2   -1    0    0  501    0  0.00000000000E+00  0.00000000000E+00  0.76136348684E+03  0.76136348685E+03  0.25500000920E-02 0.  1.
       -2   -1    0    0    0  501  0.00000000000E+00  0.00000000000E+00 -0.20855663186E+03  0.20855663188E+03  0.25500000920E-02 0. -1.
    10030    2    1    2    0    0  0.00000000000E+00  0.00000000000E+00  0.55280685498E+03  0.96992011873E+03  0.79696274555E+03 0.  0.
        5    1    3    3  502    0 -0.82087449958E+02  0.38862244501E+03  0.23792631839E+03  0.46302999599E+03  0.46999998093E+01 0. -1.
       -5    1    3    3    0  502  0.82087449958E+02 -0.38862244501E+03  0.31488053658E+03  0.50689012273E+03  0.46999998093E+01 0.  1.
</event>
<event>
 5   0  0.2571778E-02  0.7941937E+03  0.7818609E-02  0.9568460E-01
        2   -1    0    0  501    0  0.00000000000E+00  0.00000000000E+00  0.89000435583E+03  0.89000435583E+03  0.25500000920E-02 0.  1.
       -2   -1    0    0    0  501  0.00000000000E+00  0.00000000000E+00 -0.17717429412E+03  0.17717429414E+03  0.25500000920E-02 0. -1.
    10030    2    1    2    0    0  0.00000000000E+00  0.00000000000E+00  0.71283006170E+03  0.10671786500E+04  0.79419366284E+03 0.  0.
        1    1    3    3  502    0 -0.37086888211E+03 -0.53785401830E+02  0.53289539951E+03  0.65147072383E+03  0.50400001928E-02 0.  1.
       -1    1    3    3    0  502  0.37086888211E+03  0.53785401830E+02  0.17993466220E+03  0.41570792614E+03  0.50400001928E-02 0. -1.
</event>
<event>
 5   0  0.1471290E-02  0.7197571E+03  0.7818609E-02  0.9684029E-01
        1   -1    0    0  501    0  0.00000000000E+00  0.00000000000E+00  0.82992969924E+03  0.82992969926E+03  0.50400001928E-02 0. -1.
       -1   -1    0    0    0  501  0.00000000000E+00  0.00000000000E+00 -0.15605247628E+03  0.15605247637E+03  0.50400001928E-02 0.  1.
    10030    2    1    2    0    0  0.00000000000E+00  0.00000000000E+00  0.67387722296E+03  0.98598217563E+03  0.71975713892E+03 0.  0.
        2    1    3    3  502    0  0.25590335426E+03  0.62680533694E+02  0.11157688824E+01  0.26347034173E+03  0.25500000920E-02 0.  1.
       -2    1    3    3    0  502 -0.25590335426E+03 -0.62680533694E+02  0.67276145408E+03  0.72251183390E+03  0.25500000920E-02 0. -1.
</event>
<event>
 5   0  0.1509629E-02  0.7962809E+03  0.7818609E-02  0.9565416E-01
       -1   -1    0    0    0  501  0.00000000000E+00  0.00000000000E+00  0.13836281901E+04  0.13836281901E+04  0.50400001928E-02 0. -1.
        1   -1    0    0  501    0  0.00000000000E+00  0.00000000000E+00 -0.11456531606E+03  0.11456531617E+03  0.50400001928E-02 0.  1.
    10030    2    1    2    0    0  0.00000000000E+00  0.00000000000E+00  0.12690628740E+04  0.14981935063E+04  0.79628085748E+03 0.  0.
        5    1    3    3  502    0 -0.16837458017E+03  0.34988545668E+03  0.79988721099E+03  0.88916335526E+03  0.46999998093E+01 0. -1.
       -5    1    3    3    0  502  0.16837458017E+03 -0.34988545668E+03  0.46917566303E+03  0.60903015100E+03  0.46999998093E+01 0.  1.
</event>
<event>
 5   0  0.2464780E-02  0.8051190E+03  0.7818609E-02  0.9552637E-01
        2   -1    0    0  501    0  0.00000000000E+00  0.00000000000E+00  0.56731958262E+03  0.56731958263E+03  0.25500000920E-02 0. -1.
       -2   -1    0    0    0  501  0.00000000000E+00  0.00000000000E+00 -0.28564878029E+03  0.28564878030E+03  0.25500000920E-02 0.  1.
    10030    2    1    2    0    0  0.00000000000E+00  0.00000000000E+00  0.28167080233E+03  0.85296836293E+03  0.80511898951E+03 0.  0.
        3    1    3    3  502    0 -0.23597563733E+03 -0.25591112743E+03 -0.73366674917E+02  0.35574947048E+03  0.10100000352E+00 0.  1.
       -3    1    3    3    0  502  0.23597563733E+03  0.25591112743E+03  0.35503747725E+03  0.49721889245E+03  0.10100000352E+00 0. -1.
</event>
<event>
 5   0  0.2571778E-02  0.7883514E+03  0.7818609E-02  0.9577033E-01
        2   -1    0    0  501    0  0.00000000000E+00  0.00000000000E+00  0.12093208453E+04  0.12093208453E+04  0.25500000920E-02 0.  1.
       -2   -1    0    0    0  501  0.00000000000E+00  0.00000000000E+00 -0.12848076830E+03  0.12848076832E+03  0.25500000920E-02 0. -1.
    10030    2    1    2    0    0  0.00000000000E+00  0.00000000000E+00  0.10808400770E+04  0.13378016137E+04  0.78835137178E+03 0.  0.
        1    1    3    3  502    0 -0.76041739283E+02 -0.55253322506E+02  0.11900241865E+04  0.11937306397E+04  0.50400001928E-02 0.  1.
       -1    1    3    3    0  502  0.76041739283E+02  0.55253322506E+02 -0.10918410943E+03  0.14407097396E+03  0.50400001928E-02 0. -1.
</event>
<event>
 5   0  0.9919125E-03  0.8012812E+03  0.7818609E-02  0.9558164E-01
        3   -1    0    0  501    0  0.00000000000E+00  0.00000000000E+00  0.31044224452E+03  0.31044226095E+03  0.10100000352E+00 0.  1.
       -3   -1    0    0    0  501  0.00000000000E+00  0.00000000000E+00 -0.51704586595E+03  0.51704587581E+03  0.10100000352E+00 0. -1.
    10030    2    1    2    0    0  0.00000000000E+00  0.00000000000E+00 -0.20660362143E+03  0.82748813676E+03  0.80128119914E+03 0.  0.
        1    1    3    3  502    0 -0.21636927497E+02 -0.77129286515E+02  0.30208744449E+03  0.31252825090E+03  0.50400001928E-02 0.  1.
       -1    1    3    3    0  502  0.21636927497E+02  0.77129286515E+02 -0.50869106592E+03  0.51495988586E+03  0.50400001928E-02 0. -1.
</event>
<event>
 5   0  0.1509629E-02  0.7899399E+03  0.7818609E-02  0.9574694E-01
        1   -1    0    0  501    0  0.00000000000E+00  0.00000000000E+00  0.10243370557E+04  0.10243370557E+04  0.50400001928E-02 0.  1.
       -1   -1    0    0    0  501  0.00000000000E+00  0.00000000000E+00 -0.15229484007E+03  0.15229484015E+03  0.50400001928E-02 0. -1.
    10030    2    1    2    0    0  0.00000000000E+00  0.00000000000E+00  0.87204221566E+03  0.11766318959E+04  0.78993986641E+03 0.  0.
        5    1    3    3  502    0  0.12303230934E+02 -0.54210878899E+02  0.10184389368E+04  0.10199657577E+04  0.46999998093E+01 0.  1.
       -5    1    3    3    0  502 -0.12303230934E+02  0.54210878899E+02 -0.14639672117E+03  0.15666613817E+03  0.46999998093E+01 0. -1.
</event>
<event>
 5   0  0.1471290E-02  0.7947819E+03  0.7818609E-02  0.9567601E-01
       -1   -1    0    0    0  501  0.00000000000E+00  0.00000000000E+00  0.19484747338E+03  0.19484747344E+03  0.50400001928E-02 0. -1.
        1   -1    0    0  501    0  0.00000000000E+00  0.00000000000E+00 -0.81047797949E+03  0.81047797950E+03  0.50400001928E-02 0.  1.
    10030    2    1    2    0    0  0.00000000000E+00  0.00000000000E+00 -0.61563050611E+03  0.10053254529E+04  0.79478194889E+03 0.  0.
        2    1    3    3  502    0  0.13149765872E+03  0.18506603983E+03  0.10474334392E+03  0.25002448170E+03  0.25500000920E-02 0. -1.
       -2    1    3    3    0  502 -0.13149765872E+03 -0.18506603983E+03 -0.72037385003E+03  0.75530097124E+03  0.25500000920E-02 0.  1.
</event>
<event>
 5   0  0.1509629E-02  0.7995401E+03  0.7818609E-02  0.9560683E-01
        1   -1    0    0  501    0  0.00000000000E+00  0.00000000000E+00  0.29796140252E+03  0.29796140256E+03  0.50400001928E-02 0.  1.
       -1   -1    0    0    0  501  0.00000000000E+00  0.00000000000E+00 -0.53636513128E+03  0.53636513131E+03  0.50400001928E-02 0. -1.
    10030    2    1    2    0    0  0.00000000000E+00  0.00000000000E+00 -0.23840372876E+03  0.83432653387E+03  0.79954013485E+03 0.  0.
        5    1    3    3  502    0 -0.30100228866E+03  0.13643054545E+03 -0.35388295347E+03  0.48422195971E+03  0.46999998093E+01 0. -1.
       -5    1    3    3    0  502  0.30100228866E+03 -0.13643054545E+03  0.11547922471E+03  0.35010457416E+03  0.46999998093E+01 0.  1.
</event>
<event>
 5   0  0.1471290E-02  0.6744929E+03  0.7818609E-02  0.9761875E-01
       -1   -1    0    0    0  501  0.00000000000E+00  0.00000000000E+00  0.10146454959E+03  0.10146454971E+03  0.50400001928E-02 0.  1.
        1   -1    0    0  501    0  0.00000000000E+00  0.00000000000E+00 -0.11209348658E+04  0.11209348659E+04  0.50400001928E-02 0. -1.
    10030    2    1    2    0    0  0.00000000000E+00  0.00000000000E+00 -0.10194703163E+04  0.12223994156E+04  0.67449285056E+03 0.  0.
        2    1    3    3  502    0  0.33538134004E+03 -0.45285348972E+01 -0.44607122760E+03  0.55810455201E+03  0.25500000920E-02 0.  1.
       -2    1    3    3    0  502 -0.33538134004E+03  0.45285348972E+01 -0.57339908866E+03  0.66429486357E+03  0.25500000920E-02 0. -1.
</event>
<event>
 5   0  0.1509629E-02  0.8344722E+03  0.7818609E-02  0.9511418E-01
       -1   -1    0    0    0  501  0.00000000000E+00  0.00000000000E+00  0.80267973254E+02  0.80267973412E+02  0.50400001928E-02 0. -1.
        1   -1    0    0  501    0  0.00000000000E+00  0.00000000000E+00 -0.21688095152E+04  0.21688095152E+04  0.50400001928E-02 0.  1.
    10030    2    1    2    0    0  0.00000000000E+00  0.00000000000E+00 -0.20885415419E+04  0.22490774886E+04  0.83447215494E+03 0.  0.
        5    1    3    3  502    0  0.30302429211E+03  0.14621798639E+03 -0.37936502081E+03  0.50709301924E+03  0.46999998093E+01 0.  1.
       -5    1    3    3    0  502 -0.30302429211E+03 -0.14621798639E+03 -0.17091765211E+04  0.17419844694E+04  0.46999998093E+01 0. -1.
</event>
<event>
 5   0  0.9919125E-03  0.7891814E+03  0.7818609E-02  0.9575810E-01
        4   -1    0    0  501    0  0.00000000000E+00  0.00000000000E+00  0.26485641160E+03  0.26485945644E+03  0.12699999809E+01 0. -1.
       -4   -1    0    0    0  501  0.00000000000E+00  0.00000000000E+00 -0.58786549061E+03  0.58786686244E+03  0.12699999809E+01 0.  1.
    10030    2    1    2    0    0  0.00000000000E+00  0.00000000000E+00 -0.32300907901E+03  0.85272631888E+03  0.78918141754E+03 0.  0.
        4    1    3    3  502    0 -0.24820752344E+03 -0.29872469438E+03 -0.86202318680E+02  0.39783900056E+03  0.12699999809E+01 0.  1.
       -4    1    3    3    0  502  0.24820752344E+03  0.29872469438E+03 -0.23680676033E+03  0.45488731831E+03  0.12699999809E+01 0. -1.
</event>
<event>
 5   0  0.2464780E-02  0.8213645E+03  0.7818609E-02  0.9529597E-01
        2   -1    0    0  501    0  0.00000000000E+00  0.00000000000E+00  0.22668618139E+03  0.22668618140E+03  0.25500000920E-02 0.  1.
       -2   -1    0    0    0  501  0.00000000000E+00  0.00000000000E+00 -0.74402386625E+03  0.74402386626E+03  0.25500000920E-02 0. -1.
    10030    2    1    2    0    0  0.00000000000E+00  0.00000000000E+00 -0.51733768486E+03  0.97071004766E+03  0.82136454541E+03 0.  0.
        3    1    3    3  502    0 -0.11882137359E+03  0.11871680574E+03  0.18423650056E+03  0.24930964106E+03  0.10100000352E+00 0.  1.
       -3    1    3    3    0  502  0.11882137359E+03 -0.11871680574E+03 -0.70157418542E+03  0.72140040660E+03  0.10100000352E+00 0. -1.
</event>
<event>
 5   0  0.2460312E-02  0.7945595E+03  0.7818609E-02  0.9567926E-01
        2   -1    0    0  501    0  0.00000000000E+00  0.00000000000E+00  0.35763663618E+03  0.35763663619E+03  0.25500000920E-02 0.  1.
       -2   -1    0    0    0  501  0.00000000000E+00  0.00000000000E+00 -0.44131721605E+03  0.44131721606E+03  0.25500000920E-02 0. -1.
    10030    2    1    2    0    0  0.00000000000E+00  0.00000000000E+00 -0.83680579872E+02  0.79895385225E+03  0.79455951230E+03 0.  0.
        2    1    3    3  502    0  0.18714091440E+03  0.20099803437E+03 -0.33049809515E+03  0.42971027747E+03  0.25500000920E-02 0. -1.
       -2    1    3    3    0  502 -0.18714091440E+03 -0.20099803437E+03  0.24681751528E+03  0.36924357478E+03  0.25500000920E-02 0.  1.
</event>
<event>
 5   0  0.2571778E-02  0.7812448E+03  0.7818609E-02  0.9587568E-01
       -2   -1    0    0    0  501  0.00000000000E+00  0.00000000000E+00  0.16672662899E+03  0.16672662901E+03  0.25500000920E-02 0.  1.
        2   -1    0    0  501    0  0.00000000000E+00  0.00000000000E+00 -0.91518597170E+03  0.91518597170E+03  0.25500000920E-02 0. -1.
    10030    2    1    2    0    0  0.00000000000E+00  0.00000000000E+00 -0.74845934271E+03  0.10819126007E+04  0.78124483223E+03 0.  0.
        1    1    3    3  502    0  0.27516090415E+03 -0.20224702133E+03 -0.63687285325E+03  0.72265096142E+03  0.50400001928E-02 0. -1.
       -1    1    3    3    0  502 -0.27516090415E+03  0.20224702133E+03 -0.11158648946E+03  0.35926163929E+03  0.50400001928E-02 0.  1.
</event>
<event>
 5   0  0.1471290E-02  0.7686098E+03  0.7818609E-02  0.9606599E-01
        1   -1    0    0  501    0  0.00000000000E+00  0.00000000000E+00  0.13229869837E+04  0.13229869837E+04  0.50400001928E-02 0. -1.
       -1   -1    0    0    0  501  0.00000000000E+00  0.00000000000E+00 -0.11163393164E+03  0.11163393175E+03  0.50400001928E-02 0.  1.
    10030    2    1    2    0    0  0.00000000000E+00  0.00000000000E+00  0.12113530521E+04  0.14346209155E+04  0.76860975426E+03 0.  0.
        2    1    3    3  502    0  0.25922245368E+03 -0.13495063632E+03  0.13986145978E+03  0.32398947926E+03  0.25500000920E-02 0.  1.
       -2    1    3    3    0  502 -0.25922245368E+03  0.13495063632E+03  0.10714915923E+04  0.11106314362E+04  0.25500000920E-02 0. -1.
</event>
<event>
 5   0  0.2422031E-02  0.8095217E+03  0.7818609E-02  0.9546336E-01
       -2   -1    0    0    0  501  0.00000000000E+00  0.00000000000E+00  0.33779931435E+03  0.33779931436E+03  0.25500000920E-02 0.  1.
        2   -1    0    0  501    0  0.00000000000E+00  0.00000000000E+00 -0.48499610686E+03  0.48499610687E+03  0.25500000920E-02 0. -1.
    10030    2    1    2    0    0  0.00000000000E+00  0.00000000000E+00 -0.14719679251E+03  0.82279542123E+03  0.80952171649E+03 0.  0.
        4    1    3    3  502    0  0.16848685185E+03  0.48167333274E+02 -0.44443961453E+03  0.47774061488E+03  0.12699999809E+01 0. -1.
       -4    1    3    3    0  502 -0.16848685185E+03 -0.48167333274E+02  0.29724282202E+03  0.34505480635E+03  0.12699999809E+01 0.  1.
</event>
<event>
 5   0  0.1498375E-02  0.7731549E+03  0.7818609E-02  0.9599708E-01
       -1   -1    0    0    0  501  0.00000000000E+00  0.00000000000E+00  0.13059975045E+03  0.13059975055E+03  0.50400001928E-02 0. -1.
        1   -1    0    0  501    0  0.00000000000E+00  0.00000000000E+00 -0.11442757808E+04  0.11442757808E+04  0.50400001928E-02 0.  1.
    10030    2    1    2    0    0  0.00000000000E+00  0.00000000000E+00 -0.10136760303E+04  0.12748755313E+04  0.77315491716E+03 0.  0.
        4    1    3    3  502    0  0.11779420329E+03 -0.18178698857E+02 -0.11132183946E+04  0.11195815050E+04  0.12699999809E+01 0.  1.
       -4    1    3    3    0  502 -0.11779420329E+03  0.18178698857E+02  0.99542364275E+02  0.15529402631E+03  0.12699999809E+01 0. -1.
</event>
<event>
 5   0  0.1471290E-02  0.7934453E+03  0.7818609E-02  0.9569554E-01
       -1   -1    0    0    0  501  0.00000000000E+00  0.00000000000E+00  0.22964301486E+03  0.22964301492E+03  0.50400001928E-02 0.  1.
        1   -1    0    0  501    0  0.00000000000E+00  0.00000000000E+00 -0.68536317309E+03  0.68536317311E+03  0.50400001928E-02 0. -1.
    10030    2    1    2    0    0  0.00000000000E+00  0.00000000000E+00 -0.45572015823E+03  0.91500618803E+03  0.79344531098E+03 0.  0.
        2    1    3    3  502    0 -0.14937482702E+03  0.11538461489E+03  0.17454519438E+03  0.25708456427E+03  0.25500000920E-02 0.  1.
       -2    1    3    3    0  502  0.14937482702E+03 -0.11538461489E+03 -0.63026535261E+03  0.65792162375E+03  0.25500000920E-02 0. -1.
</event>
<event>
 5   0  0.2464780E-02  0.8003026E+03  0.7818609E-02  0.9559579E-01
        2   -1    0    0  501    0  0.00000000000E+00  0.00000000000E+00  0.99477433229E+03  0.99477433230E+03  0.25500000920E-02 0. -1.
       -2   -1    0    0    0  501  0.00000000000E+00  0.00000000000E+00 -0.16096220697E+03  0.16096220699E+03  0.25500000920E-02 0.  1.
    10030    2    1    2    0    0  0.00000000000E+00  0.00000000000E+00  0.83381212532E+03  0.11557365393E+04  0.80030262271E+03 0.  0.
        3    1    3    3  502    0  0.28966619600E+02  0.28755993304E+03  0.17242760602E+02  0.28952910585E+03  0.10100000352E+00 0.  1.
       -3    1    3    3    0  502 -0.28966619600E+02 -0.28755993304E+03  0.81656936472E+03  0.86620743344E+03  0.10100000352E+00 0. -1.
</event>
<event>
 5   0  0.1509629E-02  0.8036571E+03  0.7818609E-02  0.9554739E-01
       -1   -1    0    0    0  501  0.00000000000E+00  0.00000000000E+00  0.26035363232E+03  0.26035363237E+03  0.50400001928E-02 0.  1.
        1   -1    0    0  501    0  0.00000000000E+00  0.00000000000E+00 -0.62018019146E+03  0.62018019148E+03  0.50400001928E-02 0. -1.
    10030    2    1    2    0    0  0.00000000000E+00  0.00000000000E+00 -0.35982655914E+03  0.88053382385E+03  0.80365705514E+03 0.  0.
        5    1    3    3  502    0 -0.27142977836E+03 -0.29294307943E+03 -0.22834961222E+03  0.46006022189E+03  0.46999998093E+01 0. -1.
       -5    1    3    3    0  502  0.27142977836E+03  0.29294307943E+03 -0.13147694692E+03  0.42047360195E+03  0.46999998093E+01 0.  1.
</event>
<event>
 5   0  0.2464780E-02  0.7882970E+03  0.7818609E-02  0.9577113E-01
        2   -1    0    0  501    0  0.00000000000E+00  0.00000000000E+00  0.81438201145E+03  0.81438201146E+03  0.25500000920E-02 0.  1.
       -2   -1    0    0    0  501  0.00000000000E+00  0.00000000000E+00 -0.19076186810E+03  0.19076186812E+03  0.25500000920E-02 0. -1.
    10030    2    1    2    0    0  0.00000000000E+00  0.00000000000E+00  0.62362014335E+03  0.10051438796E+04  0.78829698429E+03 0.  0.
        3    1    3    3  502    0  0.26671538961E+03  0.10310696097E+03  0.65769581210E+03  0.71716939136E+03  0.10100000352E+00 0.  1.
       -3    1    3    3    0  502 -0.26671538961E+03 -0.10310696097E+03 -0.34075668742E+02  0.28797448821E+03  0.10100000352E+00 0. -1.
</event>
<event>
 5   0  0.9919125E-03  0.8067656E+03  0.7818609E-02  0.9550275E-01
       -3   -1    0    0    0  501  0.00000000000E+00  0.00000000000E+00  0.37771388982E+03  0.37771390333E+03  0.10100000352E+00 0.  1.
        3   -1    0    0  501    0  0.00000000000E+00  0.00000000000E+00 -0.43079612713E+03  0.43079613897E+03  0.10100000352E+00 0. -1.
    10030    2    1    2    0    0  0.00000000000E+00  0.00000000000E+00 -0.53082237309E+02  0.80851004230E+03  0.80676561936E+03 0.  0.
        3    1    3    3  502    0 -0.81281739126E+02 -0.22934532919E+03 -0.34896909273E+03  0.42542383457E+03  0.10100000352E+00 0. -1.
       -3    1    3    3    0  502  0.81281739126E+02  0.22934532919E+03  0.29588685542E+03  0.38308620773E+03  0.10100000352E+00 0.  1.
</event>
<event>
 5   0  0.1498375E-02  0.7937696E+03  0.7818609E-02  0.9569079E-01
        1   -1    0    0  501    0  0.00000000000E+00  0.00000000000E+00  0.34451175921E+03  0.34451175924E+03  0.50400001928E-02 0.  1.
       -1   -1    0    0    0  501  0.00000000000E+00  0.00000000000E+00 -0.45721960382E+03  0.45721960385E+03  0.50400001928E-02 0. -1.
    10030    2    1    2    0    0  0.00000000000E+00  0.00000000000E+00 -0.11270784462E+03  0.80173136310E+03  0.79376956375E+03 0.  0.
        4    1    3    3  502    0 -0.90677789859E+02  0.10159025160E+03 -0.43288380940E+03  0.45379846422E+03  0.12699999809E+01 0. -1.
       -4    1    3    3    0  502  0.90677789859E+02 -0.10159025160E+03  0.32017596478E+03  0.34793289887E+03  0.12699999809E+01 0.  1.
</event>
<event>
 5   0  0.1509629E-02  0.8156686E+03  0.7818609E-02  0.9537610E-01
        1   -1    0    0  501    0  0.00000000000E+00  0.00000000000E+00  0.81470820421E+03  0.81470820423E+03  0.50400001928E-02 0.  1.
       -1   -1    0    0    0  501  0.00000000000E+00  0.00000000000E+00 -0.20415754948E+03  0.20415754954E+03  0.50400001928E-02 0. -1.
    10030    2    1    2    0    0  0.00000000000E+00  0.00000000000E+00  0.61055065473E+03  0.10188657538E+04  0.81566863504E+03 0.  0.
        5    1    3    3  502    0  0.39886465318E+03  0.29885703634E+02  0.40458269102E+03  0.56894236149E+03  0.46999998093E+01 0.  1.
       -5    1    3    3    0  502 -0.39886465318E+03 -0.29885703634E+02  0.20596796372E+03  0.44992339227E+03  0.46999998093E+01 0. -1.
</event>
<event>
 5   0  0.2454354E-02  0.8014575E+03  0.7818609E-02  0.9557910E-01
        2   -1    0    0  501    0  0.00000000000E+00  0.00000000000E+00  0.89284412498E+03  0.89284412498E+03  0.25500000920E-02 0. -1.
       -2   -1    0    0    0  501  0.00000000000E+00  0.00000000000E+00 -0.17985618669E+03  0.17985618670E+03  0.25500000920E-02 0.  1.
    10030    2    1    2    0    0  0.00000000000E+00  0.00000000000E+00  0.71298793829E+03  0.10727003117E+04  0.80145752136E+03 0.  0.
        5    1    3    3  502    0 -0.36222355810E+03  0.16002186934E+03  0.43844025194E+03  0.59081710303E+03  0.46999998093E+01 0. -1.
       -5    1    3    3    0  502  0.36222355810E+03 -0.16002186934E+03  0.27454768635E+03  0.48188320866E+03  0.46999998093E+01 0.  1.
</event>
<event>
 5   0  0.1523811E-02  0.8041262E+03  0.7818609E-02  0.9554064E-01
        1   -1    0    0  501    0  0.00000000000E+00  0.00000000000E+00  0.27774060705E+03  0.27774060710E+03  0.50400001928E-02 0. -1.
       -1   -1    0    0    0  501  0.00000000000E+00  0.00000000000E+00 -0.58203497560E+03  0.58203497562E+03  0.50400001928E-02 0.  1.
    10030    2    1    2    0    0  0.00000000000E+00  0.00000000000E+00 -0.30429436855E+03  0.85977558272E+03  0.80412622760E+03 0.  0.
        1    1    3    3  502    0  0.20323720653E+03  0.31069186223E+03  0.12870816586E+02  0.37148412257E+03  0.50400001928E-02 0. -1.
       -1    1    3    3    0  502 -0.20323720653E+03 -0.31069186223E+03 -0.31716518513E+03  0.48829146016E+03  0.50400001928E-02 0.  1.
</event>
<event>
 5   0  0.2454354E-02  0.6471981E+03  0.7818609E-02  0.9812051E-01
        2   -1    0    0  501    0  0.00000000000E+00  0.00000000000E+00  0.31942409719E+03  0.31942409720E+03  0.25500000920E-02 0. -1.
       -2   -1    0    0    0  501  0.00000000000E+00  0.00000000000E+00 -0.32782860538E+03  0.32782860539E+03  0.25500000920E-02 0.  1.
    10030    2    1    2    0    0  0.00000000000E+00  0.00000000000E+00 -0.84045081891E+01  0.64725270260E+03  0.64719813447E+03 0.  0.
        5    1    3    3  502    0  0.80978816397E+02  0.31216955286E+03  0.22008120059E+02  0.32328601235E+03  0.46999998093E+01 0.  1.
       -5    1    3    3    0  502 -0.80978816397E+02 -0.31216955286E+03 -0.30412628248E+02  0.32396669025E+03  0.46999998093E+01 0. -1.
</event>
<event>
 5   0  0.1471290E-02  0.7395047E+03  0.7818609E-02  0.9651961E-01
        1   -1    0    0  501    0  0.00000000000E+00  0.00000000000E+00  0.49282493622E+03  0.49282493625E+03  0.50400001928E-02 0. -1.
       -1   -1    0    0    0  501  0.00000000000E+00  0.00000000000E+00 -0.27741453965E+03  0.27741453970E+03  0.50400001928E-02 0.  1.
    10030    2    1    2    0    0  0.00000000000E+00  0.00000000000E+00  0.21541039657E+03  0.77023947595E+03  0.73950470678E+03 0.  0.
        2    1    3    3  502    0 -0.40973229748E+02 -0.22410682179E+03 -0.19562729551E+03  0.30028771518E+03  0.25500000920E-02 0.  1.
       -2    1    3    3    0  502  0.40973229748E+02  0.22410682179E+03  0.41103769209E+03  0.46995176077E+03  0.25500000920E-02 0. -1.
</event>
<event>
 5   0  0.1523811E-02  0.7368147E+03  0.7818609E-02  0.9656266E-01
        1   -1    0    0  501    0  0.00000000000E+00  0.00000000000E+00  0.10439463680E+04  0.10439463680E+04  0.50400001928E-02 0.  1.
       -1   -1    0    0    0  501  0.00000000000E+00  0.00000000000E+00 -0.13001049459E+03  0.13001049469E+03  0.50400001928E-02 0. -1.
    10030    2    1    2    0    0  0.00000000000E+00  0.00000000000E+00  0.91393587338E+03  0.11739568627E+04  0.73681472213E+03 0.  0.
        1    1    3    3  502    0  0.34425670926E+02  0.12201233399E+03 -0.94161423827E+02  0.15791931556E+03  0.50400001928E-02 0. -1.
       -1    1    3    3    0  502 -0.34425670926E+02 -0.12201233399E+03  0.10080972972E+04  0.10160375471E+04  0.50400001928E-02 0.  1.
</event>
<event>
 5   0  0.9919125E-03  0.7781902E+03  0.7818609E-02  0.9592134E-01
       -3   -1    0    0    0  501  0.00000000000E+00  0.00000000000E+00  0.74262793257E+03  0.74262793944E+03  0.10100000352E+00 0. -1.
        3   -1    0    0  501    0  0.00000000000E+00  0.00000000000E+00 -0.20386382427E+03  0.20386384928E+03  0.10100000352E+00 0.  1.
    10030    2    1    2    0    0  0.00000000000E+00  0.00000000000E+00  0.53876410830E+03  0.94649178872E+03  0.77819017067E+03 0.  0.
        1    1    3    3  502    0  0.37870219506E+03 -0.65115523460E+02  0.34375992988E+03  0.51558343006E+03  0.50400001928E-02 0. -1.
       -1    1    3    3    0  502 -0.37870219506E+03  0.65115523460E+02  0.19500417843E+03  0.43090835866E+03  0.50400001928E-02 0.  1.
</event>
<event>
 5   0  0.1509629E-02  0.8074983E+03  0.7818609E-02  0.9549227E-01
       -1   -1    0    0    0  501  0.00000000000E+00  0.00000000000E+00  0.13934824053E+03  0.13934824062E+03  0.50400001928E-02 0. -1.
        1   -1    0    0  501    0  0.00000000000E+00  0.00000000000E+00 -0.11698274272E+04  0.11698274272E+04  0.50400001928E-02 0.  1.
    10030    2    1    2    0    0  0.00000000000E+00  0.00000000000E+00 -0.10304791867E+04  0.13091756678E+04  0.80749834370E+03 0.  0.
        5    1    3    3  502    0 -0.97176066771E+02  0.37907804065E+03 -0.67612968930E+03  0.78122774887E+03  0.46999998093E+01 0.  1.
       -5    1    3    3    0  502  0.97176066771E+02 -0.37907804065E+03 -0.35434949739E+03  0.52794791898E+03  0.46999998093E+01 0. -1.
</event>
<event>
 5   0  0.2460312E-02  0.8002400E+03  0.7818609E-02  0.9559670E-01
       -2   -1    0    0    0  501  0.00000000000E+00  0.00000000000E+00  0.10964199137E+03  0.10964199140E+03  0.25500000920E-02 0.  1.
        2   -1    0    0  501    0  0.00000000000E+00  0.00000000000E+00 -0.14601705321E+04  0.14601705321E+04  0.25500000920E-02 0. -1.
    10030    2    1    2    0    0  0.00000000000E+00  0.00000000000E+00 -0.13505285408E+04  0.15698125235E+04  0.80023997628E+03 0.  0.
        2    1    3    3  502    0 -0.14445672284E+03 -0.25941237067E+03 -0.12013942974E+04  0.12375422339E+04  0.25500000920E-02 0. -1.
       -2    1    3    3    0  502  0.14445672284E+03  0.25941237067E+03 -0.14913424336E+03  0.33227028965E+03  0.25500000920E-02 0.  1.
</event>
<event>
 5   0  0.2571778E-02  0.8085534E+03  0.7818609E-02  0.9547718E-01
        2   -1    0    0  501    0  0.00000000000E+00  0.00000000000E+00  0.54393607646E+03  0.54393607646E+03  0.25500000920E-02 0. -1.
       -2   -1    0    0    0  501  0.00000000000E+00  0.00000000000E+00 -0.30047584175E+03  0.30047584176E+03  0.25500000920E-02 0.  1.
    10030    2    1    2    0    0  0.00000000000E+00  0.00000000000E+00  0.24346023471E+03  0.84441191822E+03  0.80855340068E+03 0.  0.
        1    1    3    3  502    0 -0.59616908848E+02  0.78553119433E+02 -0.28772245549E+03  0.30415288888E+03  0.50400001928E-02 0.  1.
       -1    1    3    3    0  502  0.59616908848E+02 -0.78553119433E+02  0.53118269020E+03  0.54025902934E+03  0.50400001928E-02 0. -1.
</event>
<event>
 5   0  0.1498375E-02  0.8048230E+03  0.7818609E-02  0.9553062E-01
       -1   -1    0    0    0  501  0.00000000000E+00  0.00000000000E+00  0.14190797488E+03  0.14190797497E+03  0.50400001928E-02 0. -1.
        1   -1    0    0  501    0  0.00000000000E+00  0.00000000000E+00 -0.11411268999E+04  0.11411268999E+04  0.50400001928E-02 0.  1.
    10030    2    1    2    0    0  0.00000000000E+00  0.00000000000E+00 -0.99921892505E+03  0.12830348749E+04  0.80482298057E+03 0.  0.
        4    1    3    3  502    0  0.36647144114E+03 -0.95841273543E+02 -0.71612816075E+03  0.81014074234E+03  0.12699999809E+01 0.  1.
       -4    1    3    3    0  502 -0.36647144114E+03  0.95841273543E+02 -0.28309076430E+03  0.47289413257E+03  0.12699999809E+01 0. -1.
</event>
<event>
 5   0  0.1624094E-02  0.8059528E+03  0.7818609E-02  0.9551440E-01
       -1   -1    0    0    0  501  0.00000000000E+00  0.00000000000E+00  0.61137130774E+03  0.61137130776E+03  0.50400001928E-02 0.  1.
        1   -1    0    0  501    0  0.00000000000E+00  0.00000000000E+00 -0.26561599108E+03  0.26561599112E+03  0.50400001928E-02 0. -1.
    10030    2    1    2    0    0  0.00000000000E+00  0.00000000000E+00  0.34575531666E+03  0.87698729888E+03  0.80595284192E+03 0.  0.
        3    1    3    3  502    0  0.12701933629E+03  0.36888576775E+03  0.28266290940E+03  0.48177686950E+03  0.10100000352E+00 0.  1.
       -3    1    3    3    0  502 -0.12701933629E+03 -0.36888576775E+03  0.63092407265E+02  0.39521042938E+03  0.10100000352E+00 0. -1.
</event>
<event>
 5   0  0.1523811E-02  0.8006329E+03  0.7818609E-02  0.9559101E-01
        1   -1    0    0  501    0  0.00000000000E+00  0.00000000000E+00  0.39088632407E+03  0.39088632410E+03  0.50400001928E-02 0.  1.
       -1   -1    0    0    0  501  0.00000000000E+00  0.00000000000E+00 -0.40997407393E+03  0.40997407396E+03  0.50400001928E-02 0. -1.
    10030    2    1    2    0    0  0.00000000000E+00  0.00000000000E+00 -0.19087749859E+02  0.80086039806E+03  0.80063289652E+03 0.  0.
        1    1    3    3  502    0 -0.82770083573E+02  0.13819586665E+03  0.35703573575E+03  0.39169312085E+03  0.50400001928E-02 0.  1.
       -1    1    3    3    0  502  0.82770083573E+02 -0.13819586665E+03 -0.37612348561E+03  0.40916727721E+03  0.50400001928E-02 0. -1.
</event>
<event>
 5   0  0.1471290E-02  0.8450349E+03  0.7818609E-02  0.9497025E-01
       -1   -1    0    0    0  501  0.00000000000E+00  0.00000000000E+00  0.19090738463E+03  0.19090738470E+03  0.50400001928E-02 0. -1.
        1   -1    0    0  501    0  0.00000000000E+00  0.00000000000E+00 -0.93511823385E+03  0.93511823386E+03  0.50400001928E-02 0.  1.
    10030    2    1    2    0    0  0.00000000000E+00  0.00000000000E+00 -0.74421084922E+03  0.11260256186E+04  0.84503485464E+03 0.  0.
        2    1    3    3  502    0 -0.38561368550E+02 -0.35408818533E+02 -0.93077965829E+03  0.93225079022E+03  0.25500000920E-02 0.  1.
       -2    1    3    3    0  502  0.38561368550E+02  0.35408818533E+02  0.18656880907E+03  0.19377482834E+03  0.25500000920E-02 0. -1.
</event>
<event>
 5   0  0.2571778E-02  0.8387290E+03  0.7818609E-02  0.9505591E-01
        2   -1    0    0  501    0  0.00000000000E+00  0.00000000000E+00  0.17658098000E+04  0.17658098000E+04  0.25500000920E-02 0.  1.
       -2   -1    0    0    0  501  0.00000000000E+00  0.00000000000E+00 -0.99595434904E+02  0.99595434936E+02  0.25500000920E-02 0. -1.
    10030    2    1    2    0    0  0.00000000000E+00  0.00000000000E+00  0.16662143651E+04  0.18654052349E+04  0.83872902661E+03 0.  0.
        1    1    3    3  502    0  0.25972464575E+03 -0.11032063133E+03  0.15230724164E+04  0.15489922915E+04  0.50400001928E-02 0.  1.
       -1    1    3    3    0  502 -0.25972464575E+03  0.11032063133E+03  0.14314194868E+03  0.31641294348E+03  0.50400001928E-02 0. -1.
</event>
<event>
 5   0  0.2464780E-02  0.7965123E+03  0.7818609E-02  0.9565079E-01
        2   -1    0    0  501    0  0.00000000000E+00  0.00000000000E+00  0.94233757244E+03  0.94233757244E+03  0.25500000920E-02 0. -1.
       -2   -1    0    0    0  501  0.00000000000E+00  0.00000000000E+00 -0.16831330408E+03  0.16831330409E+03  0.25500000920E-02 0.  1.
    10030    2    1    2    0    0  0.00000000000E+00  0.00000000000E+00  0.77402426837E+03  0.11106508765E+04  0.79651227331E+03 0.  0.
        3    1    3    3  502    0 -0.14302678945E+03  0.12415322868E+03 -0.10149767865E+03  0.21487781566E+03  0.10100000352E+00 0.  1.
       -3    1    3    3    0  502  0.14302678945E+03 -0.12415322868E+03  0.87552194701E+03  0.89577306088E+03  0.10100000352E+00 0. -1.
</event>
<event>
 5   0  0.1624094E-02  0.7714719E+03  0.7818609E-02  0.9602254E-01
       -1   -1    0    0    0  501  0.00000000000E+00  0.00000000000E+00  0.20719017144E+03  0.20719017150E+03  0.50400001928E-02 0. -1.
        1   -1    0    0  501    0  0.00000000000E+00  0.00000000000E+00 -0.71814319991E+03  0.71814319993E+03  0.50400001928E-02 0.  1.
    10030    2    1    2    0    0  0.00000000000E+00  0.00000000000E+00 -0.51095302847E+03  0.92533337143E+03  0.77147187310E+03 0.  0.
        3    1    3    3  502    0 -0.38773429264E+02  0.32767614345E+03 -0.15837241421E+02  0.33034203823E+03  0.10100000352E+00 0. -1.
       -3    1    3    3    0  502  0.38773429264E+02 -0.32767614345E+03 -0.49511578705E+03  0.59499133320E+03  0.10100000352E+00 0.  1.
</event>
<event>
 5   0  0.2422031E-02  0.7925114E+03  0.7818609E-02  0.9570920E-01
        2   -1    0    0  501    0  0.00000000000E+00  0.00000000000E+00  0.26920069686E+03  0.26920069687E+03  0.25500000920E-02 0. -1.
       -2   -1    0    0    0  501  0.00000000000E+00  0.00000000000E+00 -0.58327702499E+03  0.58327702500E+03  0.25500000920E-02 0.  1.
    10030    2    1    2    0    0  0.00000000000E+00  0.00000000000E+00 -0.31407632813E+03  0.85247772187E+03  0.79251140458E+03 0.  0.
        4    1    3    3  502    0 -0.64553043471E+01 -0.34341942139E+03 -0.36956976591E+03  0.50454137067E+03  0.12699999809E+01 0.  1.
       -4    1    3    3    0  502  0.64553043471E+01  0.34341942139E+03  0.55493437779E+02  0.34793635119E+03  0.12699999809E+01 0. -1.
</event>
<event>
 5   0  0.1624094E-02  0.8033013E+03  0.7818609E-02  0.9555251E-01
        1   -1    0    0  501    0  0.00000000000E+00  0.00000000000E+00  0.14047669862E+03  0.14047669871E+03  0.50400001928E-02 0.  1.
       -1   -1    0    0    0  501  0.00000000000E+00  0.00000000000E+00 -0.11483986961E+04  0.11483986961E+04  0.50400001928E-02 0. -1.
    10030    2    1    2    0    0  0.00000000000E+00  0.00000000000E+00 -0.10079219975E+04  0.12888753948E+04  0.80330133225E+03 0.  0.
        3    1    3    3  502    0  0.69866220968E+02 -0.28490197577E+03 -0.63759469462E+02  0.30019277935E+03  0.10100000352E+00 0.  1.
       -3    1    3    3    0  502 -0.69866220968E+02  0.28490197577E+03 -0.94416252802E+03  0.98868261547E+03  0.10100000352E+00 0. -1.
</event>
<event>
 5   0  0.1624094E-02  0.8251792E+03  0.7818609E-02  0.9524270E-01
        1   -1    0    0  501    0  0.00000000000E+00  0.00000000000E+00  0.31411793760E+03  0.31411793764E+03  0.50400001928E-02 0. -1.
       -1   -1    0    0    0  501  0.00000000000E+00  0.00000000000E+00 -0.54193083390E+03  0.54193083392E+03  0.50400001928E-02 0.  1.
    10030    2    1    2    0    0  0.00000000000E+00  0.00000000000E+00 -0.22781289630E+03  0.85604877156E+03  0.82517924330E+03 0.  0.
        3    1    3    3  502    0  0.12390769056E+03  0.24676705576E+03  0.20412866633E+03  0.34338843634E+03  0.10100000352E+00 0. -1.
       -3    1    3    3    0  502 -0.12390769056E+03 -0.24676705576E+03 -0.43194156263E+03  0.51266033523E+03  0.10100000352E+00 0.  1.
</event>
<event>
 5   0  0.2464780E-02  0.7987827E+03  0.7818609E-02  0.9561781E-01
        2   -1    0    0  501    0  0.00000000000E+00  0.00000000000E+00  0.12684594866E+04  0.12684594866E+04  0.25500000920E-02 0.  1.
       -2   -1    0    0    0  501  0.00000000000E+00  0.00000000000E+00 -0.12575367691E+03  0.12575367694E+03  0.25500000920E-02 0. -1.
    10030    2    1    2    0    0  0.00000000000E+00  0.00000000000E+00  0.11427058097E+04  0.13942131636E+04  0.79878268504E+03 0.  0.
        3    1    3    3  502    0 -0.37334768495E+02  0.13622320146E+02 -0.12229380228E+03  0.12858941178E+03  0.10100000352E+00 0. -1.
       -3    1    3    3    0  502  0.37334768495E+02 -0.13622320146E+02  0.12649996120E+04  0.12656237518E+04  0.10100000352E+00 0.  1.
</event>
<event>
 5   0  0.1498375E-02  0.7868901E+03  0.7818609E-02  0.9579189E-01
        1   -1    0    0  501    0  0.00000000000E+00  0.00000000000E+00  0.30826632277E+03  0.30826632281E+03  0.50400001928E-02 0. -1.
       -1   -1    0    0    0  501  0.00000000000E+00  0.00000000000E+00 -0.50216000474E+03  0.50216000477E+03  0.50400001928E-02 0.  1.
    10030    2    1    2    0    0  0.00000000000E+00  0.00000000000E+00 -0.19389368198E+03  0.81042632758E+03  0.78689012735E+03 0.  0.
        4    1    3    3  502    0  0.26226533623E+03 -0.14988915295E+03 -0.35657322089E+03  0.46732851348E+03  0.12699999809E+01 0.  1.
       -4    1    3    3    0  502 -0.26226533623E+03  0.14988915295E+03  0.16267953891E+03  0.34309781410E+03  0.12699999809E+01 0. -1.
</event>
<event>
 5   0  0.1624094E-02  0.7968623E+03  0.7818609E-02  0.9564570E-01
       -1   -1    0    0    0  501  0.00000000000E+00  0.00000000000E+00  0.11606273719E+03  0.11606273730E+03  0.50400001928E-02 0.  1.
        1   -1    0    0  501    0  0.00000000000E+00  0.00000000000E+00 -0.13677720438E+04  0.13677720438E+04  0.50400001928E-02 0. -1.
    10030    2    1    2    0    0  0.00000000000E+00  0.00000000000E+00 -0.12517093066E+04  0.14838347811E+04  0.79686226500E+03 0.  0.
        3    1    3    3  502    0 -0.45038243498E+02 -0.17514777837E+03  0.35234786968E+02  0.18424627014E+03  0.10100000352E+00 0.  1.
       -3    1    3    3    0  502  0.45038243498E+02  0.17514777837E+03 -0.12869440936E+04  0.12995885110E+04  0.10100000352E+00 0. -1.
</event>
<event>
 5   0  0.2460312E-02  0.8021490E+03  0.7818609E-02  0.9556912E-01
       -2   -1    0    0    0  501  0.00000000000E+00  0.00000000000E+00  0.11158211231E+03  0.11158211234E+03  0.25500000920E-02 0. -1.
        2   -1    0    0  501    0  0.00000000000E+00  0.00000000000E+00 -0.14416358569E+04  0.14416358569E+04  0.25500000920E-02 0.  1.
    10030    2    1    2    0    0  0.00000000000E+00  0.00000000000E+00 -0.13300537445E+04  0.15532179692E+04  0.80214904877E+03 0.  0.
        2    1    3    3  502    0  0.37249388832E+03  0.13881569407E+03 -0.76820353397E+03  0.86496136524E+03  0.25500000920E-02 0. -1.
       -2    1    3    3    0  502 -0.37249388832E+03 -0.13881569407E+03 -0.56185021058E+03  0.68825660395E+03  0.25500000920E-02 0.  1.
</event>
<event>
 5   0  0.1498375E-02  0.7978595E+03  0.7818609E-02  0.9563121E-01
        1   -1    0    0  501    0  0.00000000000E+00  0.00000000000E+00  0.88628625331E+03  0.88628625333E+03  0.50400001928E-02 0. -1.
       -1   -1    0    0    0  501  0.00000000000E+00  0.00000000000E+00 -0.17956381767E+03  0.17956381774E+03  0.50400001928E-02 0.  1.
    10030    2    1    2    0    0  0.00000000000E+00  0.00000000000E+00  0.70672243564E+03  0.10658500711E+04  0.79785949450E+03 0.  0.
        4    1    3    3  502    0 -0.21328447488E+03  0.34927927216E+01  0.80369752638E+03  0.83152498076E+03  0.12699999809E+01 0. -1.
       -4    1    3    3    0  502  0.21328447488E+03 -0.34927927216E+01 -0.96975090736E+02  0.23432509031E+03  0.12699999809E+01 0.  1.
</event>
<event>
 5   0  0.2571778E-02  0.8300725E+03  0.7818609E-02  0.9517480E-01
        2   -1    0    0  501    0  0.00000000000E+00  0.00000000000E+00  0.59054761286E+03  0.59054761287E+03  0.25500000920E-02 0. -1.
       -2   -1    0    0    0  501  0.00000000000E+00  0.00000000000E+00 -0.29168704423E+03  0.29168704424E+03  0.25500000920E-02 0.  1.
    10030    2    1    2    0    0  0.00000000000E+00  0.00000000000E+00  0.29886056863E+03  0.88223465710E+03  0.83007249726E+03 0.  0.
        1    1    3    3  502    0  0.22144469587E+02 -0.47310064004E+02 -0.28817932153E+03  0.29287529953E+03  0.50400001928E-02 0.  1.
       -1    1    3    3    0  502 -0.22144469587E+02  0.47310064004E+02  0.58703989017E+03  0.58935935758E+03  0.50400001928E-02 0. -1.
</event>
<event>
 5   0  0.9919125E-03  0.8117078E+03  0.7818609E-02  0.9543223E-01
        4   -1    0    0  501    0  0.00000000000E+00  0.00000000000E+00  0.29472566740E+03  0.29472840366E+03  0.12699999809E+01 0.  1.
       -4   -1    0    0    0  501  0.00000000000E+00  0.00000000000E+00 -0.55887771271E+03  0.55887915568E+03  0.12699999809E+01 0. -1.
    10030    2    1    2    0    0  0.00000000000E+00  0.00000000000E+00 -0.26415204530E+03  0.85360755935E+03  0.81170780601E+03 0.  0.
        1    1    3    3  502    0  0.32947738366E+03  0.22380177817E+03 -0.50111706654E+02  0.40143961616E+03  0.50400001928E-02 0. -1.
       -1    1    3    3    0  502 -0.32947738366E+03 -0.22380177817E+03 -0.21404033865E+03  0.45216794319E+03  0.50400001928E-02 0.  1.
</event>
<event>
 5   0  0.1498375E-02  0.7993694E+03  0.7818609E-02  0.9560930E-01
        1   -1    0    0  501    0  0.00000000000E+00  0.00000000000E+00  0.15437338413E+04  0.15437338413E+04  0.50400001928E-02 0. -1.
       -1   -1    0    0    0  501  0.00000000000E+00  0.00000000000E+00 -0.10348146716E+03  0.10348146729E+03  0.50400001928E-02 0.  1.
    10030    2    1    2    0    0  0.00000000000E+00  0.00000000000E+00  0.14402523741E+04  0.16472153086E+04  0.79936935872E+03 0.  0.
        4    1    3    3  502    0  0.34172448154E+02  0.10463168234E+03 -0.71629497330E+02  0.13133142408E+03  0.12699999809E+01 0.  1.
       -4    1    3    3    0  502 -0.34172448154E+02 -0.10463168234E+03  0.15118818715E+04  0.15158838845E+04  0.12699999809E+01 0. -1.
</event>
<event>
 5   0  0.2464780E-02  0.8025616E+03  0.7818609E-02  0.9556317E-01
        2   -1    0    0  501    0  0.00000000000E+00  0.00000000000E+00  0.20434832799E+03  0.20434832800E+03  0.25500000920E-02 0. -1.
       -2   -1    0    0    0  501  0.00000000000E+00  0.00000000000E+00 -0.78799910155E+03  0.78799910155E+03  0.25500000920E-02 0.  1.
    10030    2    1    2    0    0  0.00000000000E+00  0.00000000000E+00 -0.58365077356E+03  0.99234742956E+03  0.80256164590E+03 0.  0.
        3    1    3    3  502    0  0.22584576779E+03  0.11452443990E+03 -0.67673299226E+03  0.72255775629E+03  0.10100000352E+00 0.  1.
       -3    1    3    3    0  502 -0.22584576779E+03 -0.11452443990E+03  0.93082218699E+02  0.26978967327E+03  0.10100000352E+00 0. -1.
</event>
<event>
 5   0  0.1624094E-02  0.7966598E+03  0.7818609E-02  0.9564864E-01
        1   -1    0    0  501    0  0.00000000000E+00  0.00000000000E+00  0.38495880082E+03  0.38495880085E+03  0.50400001928E-02 0. -1.
       -1   -1    0    0    0  501  0.00000000000E+00  0.00000000000E+00 -0.41216545146E+03  0.41216545149E+03  0.50400001928E-02 0.  1.
    10030    2    1    2    0    0  0.00000000000E+00  0.00000000000E+00 -0.27206650647E+02  0.79712425234E+03  0.79665982190E+03 0.  0.
        3    1    3    3  502    0  0.31092497676E+03 -0.33293294834E+02  0.23328719911E+03  0.39013550482E+03  0.10100000352E+00 0. -1.
       -3    1    3    3    0  502 -0.31092497676E+03  0.33293294834E+02 -0.26049384975E+03  0.40698874753E+03  0.10100000352E+00 0.  1.
</event>
<event>
 5   0  0.2460312E-02  0.7941800E+03  0.7818609E-02  0.9568480E-01
        2   -1    0    0  501    0  0.00000000000E+00  0.00000000000E+00  0.77424971665E+03  0.77424971665E+03  0.25500000920E-02 0. -1.
       -2   -1    0    0    0  501  0.00000000000E+00  0.00000000000E+00 -0.20365583476E+03  0.20365583477E+03  0.25500000920E-02 0.  1.
    10030    2    1    2    0    0  0.00000000000E+00  0.00000000000E+00  0.57059388189E+03  0.97790555142E+03  0.79418001074E+03 0.  0.
        2    1    3    3  502    0 -0.22866506303E+03  0.10518511274E+03  0.66347840378E+03  0.70961624227E+03  0.25500000920E-02 0. -1.
       -2    1    3    3    0  502  0.22866506303E+03 -0.10518511274E+03 -0.92884521894E+02  0.26828930916E+03  0.25500000920E-02 0.  1.
</event>
<event>
 5   0  0.2464780E-02  0.8082758E+03  0.7818609E-02  0.9548115E-01
       -2   -1    0    0    0  501  0.00000000000E+00  0.00000000000E+00  0.17846953932E+03  0.17846953934E+03  0.25500000920E-02 0. -1.
        2   -1    0    0  501    0  0.00000000000E+00  0.00000000000E+00 -0.91515581865E+03  0.91515581865E+03  0.25500000920E-02 0.  1.
    10030    2    1    2    0    0  0.00000000000E+00  0.00000000000E+00 -0.73668627933E+03  0.10936253580E+04  0.80827578801E+03 0.  0.
        3    1    3    3  502    0  0.20704832189E+03  0.26245855289E+03 -0.67561593060E+03  0.75379731724E+03  0.10100000352E+00 0.  1.
       -3    1    3    3    0  502 -0.20704832189E+03 -0.26245855289E+03 -0.61070348724E+02  0.33982804075E+03  0.10100000352E+00 0. -1.
</event>
<event>
 5   0  0.2460312E-02  0.8017328E+03  0.7818609E-02  0.9557512E-01
       -2   -1    0    0    0  501  0.00000000000E+00  0.00000000000E+00  0.18786675172E+03  0.18786675174E+03  0.25500000920E-02 0. -1.
        2   -1    0    0  501    0  0.00000000000E+00  0.00000000000E+00 -0.85536094503E+03  0.85536094503E+03  0.25500000920E-02 0.  1.
    10030    2    1    2    0    0  0.00000000000E+00  0.00000000000E+00 -0.66749419331E+03  0.10432276968E+04  0.80173282907E+03 0.  0.
        2    1    3    3  502    0  0.26532818558E+02 -0.33802006600E+03 -0.55480490908E+02  0.34356897467E+03  0.25500000920E-02 0. -1.
       -2    1    3    3    0  502 -0.26532818558E+02  0.33802006600E+03 -0.61201370240E+03  0.69965872210E+03  0.25500000920E-02 0.  1.
</event>
<event>
 5   0  0.2460312E-02  0.7809037E+03  0.7818609E-02  0.9588077E-01
        2   -1    0    0  501    0  0.00000000000E+00  0.00000000000E+00  0.49172471024E+03  0.49172471025E+03  0.25500000920E-02 0.  1.
       -2   -1    0    0    0  501  0.00000000000E+00  0.00000000000E+00 -0.31003657967E+03  0.31003657968E+03  0.25500000920E-02 0. -1.
    10030    2    1    2    0    0  0.00000000000E+00  0.00000000000E+00  0.18168813057E+03  0.80176128993E+03  0.78090370036E+03 0.  0.
        2    1    3    3  502    0  0.26199344212E+03  0.11404121117E+03  0.36404660782E+03  0.46279141547E+03  0.25500000920E-02 0.  1.
       -2    1    3    3    0  502 -0.26199344212E+03 -0.11404121117E+03 -0.18235847725E+03  0.33896987446E+03  0.25500000920E-02 0. -1.
</event>
<event>
 5   0  0.1509629E-02  0.7979110E+03  0.7818609E-02  0.9563046E-01
        1   -1    0    0  501    0  0.00000000000E+00  0.00000000000E+00  0.50101224512E+03  0.50101224515E+03  0.50400001928E-02 0. -1.
       -1   -1    0    0    0  501  0.00000000000E+00  0.00000000000E+00 -0.31768782086E+03  0.31768782090E+03  0.50400001928E-02 0.  1.
    10030    2    1    2    0    0  0.00000000000E+00  0.00000000000E+00  0.18332442426E+03  0.81870006605E+03  0.79791099354E+03 0.  0.
        5    1    3    3  502    0  0.23526596533E+03 -0.31453708894E+03  0.16319037273E+03  0.42536671533E+03  0.46999998093E+01 0. -1.
       -5    1    3    3    0  502 -0.23526596533E+03  0.31453708894E+03  0.20134051528E+02  0.39333335072E+03  0.46999998093E+01 0.  1.
</event>
<event>
 5   0  0.1498375E-02  0.8038454E+03  0.7818609E-02  0.9554468E-01
       -1   -1    0    0    0  501  0.00000000000E+00  0.00000000000E+00  0.86003466428E+03  0.86003466430E+03  0.50400001928E-02 0.  1.
        1   -1    0    0  501    0  0.00000000000E+00  0.00000000000E+00 -0.18783179095E+03  0.18783179102E+03  0.50400001928E-02 0. -1.
    10030    2    1    2    0    0  0.00000000000E+00  0.00000000000E+00  0.67220287334E+03  0.10478664553E+04  0.80384538641E+03 0.  0.
        4    1    3    3  502    0  0.38965402500E+02 -0.71759141969E+01  0.85748013894E+03  0.85839594472E+03  0.12699999809E+01 0.  1.
       -4    1    3    3    0  502 -0.38965402500E+02  0.71759141969E+01 -0.18527726560E+03  0.18947051060E+03  0.12699999809E+01 0. -1.
</event>
<event>
 5   0  0.2460312E-02  0.8327428E+03  0.7818609E-02  0.9513796E-01
       -2   -1    0    0    0  501  0.00000000000E+00  0.00000000000E+00  0.17370783664E+03  0.17370783666E+03  0.25500000920E-02 0.  1.
        2   -1    0    0  501    0  0.00000000000E+00  0.00000000000E+00 -0.99802722303E+03  0.99802722303E+03  0.25500000920E-02 0. -1.
    10030    2    1    2    0    0  0.00000000000E+00  0.00000000000E+00 -0.82431938638E+03  0.11717350597E+04  0.83274281705E+03 0.  0.
        2    1    3    3  502    0 -0.25728881554E+02  0.25988106615E+03 -0.86846356597E+03  0.90687877322E+03  0.25500000920E-02 0. -1.
       -2    1    3    3    0  502  0.25728881554E+02 -0.25988106615E+03  0.44144179583E+02  0.26485628648E+03  0.25500000920E-02 0.  1.
</event>
<event>
 5   0  0.2460312E-02  0.7947192E+03  0.7818609E-02  0.9567692E-01
       -2   -1    0    0    0  501  0.00000000000E+00  0.00000000000E+00  0.12910441209E+03  0.12910441212E+03  0.25500000920E-02 0. -1.
        2   -1    0    0  501    0  0.00000000000E+00  0.00000000000E+00 -0.12229996320E+04  0.12229996320E+04  0.25500000920E-02 0.  1.
    10030    2    1    2    0    0  0.00000000000E+00  0.00000000000E+00 -0.10938952199E+04  0.13521040441E+04  0.79471919190E+03 0.  0.
        2    1    3    3  502    0 -0.22186845204E+03 -0.68578748931E+02  0.16350362958E+01  0.23223119550E+03  0.25500000920E-02 0. -1.
       -2    1    3    3    0  502  0.22186845204E+03  0.68578748931E+02 -0.10955302562E+04  0.11198728486E+04  0.25500000920E-02 0.  1.
</event>
<event>
 5   0  0.9919125E-03  0.8059075E+03  0.7818609E-02  0.9551505E-01
        3   -1    0    0  501    0  0.00000000000E+00  0.00000000000E+00  0.46333925292E+03  0.46333926393E+03  0.10100000352E+00 0. -1.
       -3   -1    0    0    0  501  0.00000000000E+00  0.00000000000E+00 -0.35043806293E+03  0.35043807748E+03  0.10100000352E+00 0.  1.
    10030    2    1    2    0    0  0.00000000000E+00  0.00000000000E+00  0.11290119000E+03  0.81377734141E+03  0.80590749016E+03 0.  0.
        2    1    3    3  502    0  0.63907346752E+02  0.13114197315E+03  0.43573721680E+03  0.45950983472E+03  0.25500000920E-02 0. -1.
       -2    1    3    3    0  502 -0.63907346752E+02 -0.13114197315E+03 -0.32283602680E+03  0.35426750670E+03  0.25500000920E-02 0.  1.
</event>
<event>
 5   0  0.2464780E-02  0.8007802E+03  0.7818609E-02  0.9558888E-01
       -2   -1    0    0    0  501  0.00000000000E+00  0.00000000000E+00  0.91749007939E+02  0.91749007974E+02  0.25500000920E-02 0.  1.
        2   -1    0    0  501    0  0.00000000000E+00  0.00000000000E+00 -0.17472913396E+04  0.17472913396E+04  0.25500000920E-02 0. -1.
    10030    2    1    2    0    0  0.00000000000E+00  0.00000000000E+00 -0.16555423317E+04  0.18390403476E+04  0.80078023709E+03 0.  0.
        3    1    3    3  502    0 -0.18444617943E+03 -0.34259458394E+03 -0.61086111043E+03  0.72425323506E+03  0.10100000352E+00 0. -1.
       -3    1    3    3    0  502  0.18444617943E+03  0.34259458394E+03 -0.10446812213E+04  0.11147871126E+04  0.10100000352E+00 0.  1.
</event>
<event>
 5   0  0.9919125E-03  0.8052073E+03  0.7818609E-02  0.9552510E-01
        4   -1    0    0  501    0  0.00000000000E+00  0.00000000000E+00  0.15415235374E+03  0.15415758517E+03  0.12699999809E+01 0.  1.
       -4   -1    0    0    0  501  0.00000000000E+00  0.00000000000E+00 -0.10514668610E+04  0.10514676280E+04  0.12699999809E+01 0. -1.
    10030    2    1    2    0    0  0.00000000000E+00  0.00000000000E+00 -0.89731450724E+03  0.12056252131E+04  0.80520732089E+03 0.  0.
        2    1    3    3  502    0  0.32118120529E+03  0.23255638126E+03 -0.34438478169E+03  0.52520540264E+03  0.25500000920E-02 0.  1.
       -2    1    3    3    0  502 -0.32118120529E+03 -0.23255638126E+03 -0.55292972555E+03  0.68041981048E+03  0.25500000920E-02 0. -1.
</event>
<event>
 5   0  0.1498375E-02  0.7954653E+03  0.7818609E-02  0.9566604E-01
        1   -1    0    0  501    0  0.00000000000E+00  0.00000000000E+00  0.12511285518E+04  0.12511285518E+04  0.50400001928E-02 0. -1.
       -1   -1    0    0    0  501  0.00000000000E+00  0.00000000000E+00 -0.12643886620E+03  0.12643886630E+03  0.50400001928E-02 0.  1.
    10030    2    1    2    0    0  0.00000000000E+00  0.00000000000E+00  0.11246896856E+04  0.13775674181E+04  0.79546533709E+03 0.  0.
        4    1    3    3  502    0 -0.19697346722E+03  0.34449048282E+03  0.51595965635E+03  0.65091337321E+03  0.12699999809E+01 0.  1.
       -4    1    3    3    0  502  0.19697346722E+03 -0.34449048282E+03  0.60873002921E+03  0.72665404485E+03  0.12699999809E+01 0. -1.
</event>
<event>
 5   0  0.2460312E-02  0.8051316E+03  0.7818609E-02  0.9552619E-01
        2   -1    0    0  501    0  0.00000000000E+00  0.00000000000E+00  0.12136384491E+04  0.12136384491E+04  0.25500000920E-02 0.  1.
       -2   -1    0    0    0  501  0.00000000000E+00  0.00000000000E+00 -0.13353172647E+03  0.13353172650E+03  0.25500000920E-02 0. -1.
    10030    2    1    2    0    0  0.00000000000E+00  0.00000000000E+00  0.10801067226E+04  0.13471701756E+04  0.80513163505E+03 0.  0.
        2    1    3    3  502    0 -0.97135841375E+02  0.10433208651E+03  0.11699941976E+04  0.11786462482E+04  0.25500000920E-02 0.  1.
       -2    1    3    3    0  502  0.97135841375E+02 -0.10433208651E+03 -0.89887474956E+02  0.16852392743E+03  0.25500000920E-02 0. -1.
</event>
<event>
 5   0  0.2454354E-02  0.7885507E+03  0.7818609E-02  0.9576739E-01
       -2   -1    0    0    0  501  0.00000000000E+00  0.00000000000E+00  0.13645761641E+03  0.13645761643E+03  0.25500000920E-02 0.  1.
        2   -1    0    0  501    0  0.00000000000E+00  0.00000000000E+00 -0.11392039428E+04  0.11392039428E+04  0.25500000920E-02 0. -1.
    10030    2    1    2    0    0  0.00000000000E+00  0.00000000000E+00 -0.10027463264E+04  0.12756615592E+04  0.78855070770E+03 0.  0.
        5    1    3    3  502    0  0.54630856445E+02 -0.11325378078E+00  0.13025932473E+03  0.14132984462E+03  0.46999998093E+01 0.  1.
       -5    1    3    3    0  502 -0.54630856445E+02  0.11325378078E+00 -0.11330056511E+04  0.11343317146E+04  0.46999998093E+01 0. -1.
</event>
<event>
 5   0  0.9919125E-03  0.8063454E+03  0.7818609E-02  0.9550877E-01
        4   -1    0    0  501    0  0.00000000000E+00  0.00000000000E+00  0.10434572959E+04  0.10434580687E+04  0.12699999809E+01 0. -1.
       -4   -1    0    0    0  501  0.00000000000E+00  0.00000000000E+00 -0.15577511020E+03  0.15578028713E+03  0.12699999809E+01 0.  1.
    10030    2    1    2    0    0  0.00000000000E+00  0.00000000000E+00  0.88768218567E+03  0.11992383559E+04  0.80634544173E+03 0.  0.
        2    1    3    3  502    0 -0.17297925394E+03  0.25990383499E+02  0.98408588272E+03  0.99951105391E+03  0.25500000920E-02 0. -1.
       -2    1    3    3    0  502  0.17297925394E+03 -0.25990383499E+02 -0.96403697051E+02  0.19972730194E+03  0.25500000920E-02 0.  1.
</event>
<event>
 5   0  0.1509629E-02  0.8024226E+03  0.7818609E-02  0.9556517E-01
       -1   -1    0    0    0  501  0.00000000000E+00  0.00000000000E+00  0.44380051570E+03  0.44380051573E+03  0.50400001928E-02 0. -1.
        1   -1    0    0  501    0  0.00000000000E+00  0.00000000000E+00 -0.36270915723E+03  0.36270915727E+03  0.50400001928E-02 0.  1.
    10030    2    1    2    0    0  0.00000000000E+00  0.00000000000E+00  0.81091358467E+02  0.80650967300E+03  0.80242260949E+03 0.  0.
        5    1    3    3  502    0 -0.37689613862E+03 -0.10363188011E+02 -0.97230323940E+02  0.38940200418E+03  0.46999998093E+01 0.  1.
       -5    1    3    3    0  502  0.37689613862E+03  0.10363188011E+02  0.17832168241E+03  0.41710766882E+03  0.46999998093E+01 0. -1.
</event>
<event>
 5   0  0.2422031E-02  0.8191232E+03  0.7818609E-02  0.9532742E-01
        2   -1    0    0  501    0  0.00000000000E+00  0.00000000000E+00  0.44329432769E+03  0.44329432770E+03  0.25500000920E-02 0.  1.
       -2   -1    0    0    0  501  0.00000000000E+00  0.00000000000E+00 -0.37839576845E+03  0.37839576846E+03  0.25500000920E-02 0. -1.
    10030    2    1    2    0    0  0.00000000000E+00  0.00000000000E+00  0.64898559240E+02  0.82169009615E+03  0.81912318434E+03 0.  0.
        4    1    3    3  502    0  0.44436901060E+02 -0.24064393993E+03 -0.29699263759E+03  0.38482513390E+03  0.12699999809E+01 0. -1.
       -4    1    3    3    0  502 -0.44436901060E+02  0.24064393993E+03  0.36189119683E+03  0.43686496225E+03  0.12699999809E+01 0.  1.
</event>
<event>
 5   0  0.1624094E-02  0.8057853E+03  0.7818609E-02  0.9551681E-01
        1   -1    0    0  501    0  0.00000000000E+00  0.00000000000E+00  0.43028804556E+03  0.43028804559E+03  0.50400001928E-02 0.  1.
       -1   -1    0    0    0  501  0.00000000000E+00  0.00000000000E+00 -0.37724146435E+03  0.37724146438E+03  0.50400001928E-02 0. -1.
    10030    2    1    2    0    0  0.00000000000E+00  0.00000000000E+00  0.53046581212E+02  0.80752950997E+03  0.80578531241E+03 0.  0.
        3    1    3    3  502    0  0.17661027415E+03  0.23082320723E+03  0.30614686016E+03  0.42213321608E+03  0.10100000352E+00 0.  1.
       -3    1    3    3    0  502 -0.17661027415E+03 -0.23082320723E+03 -0.25310027895E+03  0.38539629388E+03  0.10100000352E+00 0. -1.
</event>
<event>
 5   0  0.1471290E-02  0.7942484E+03  0.7818609E-02  0.9568380E-01
        1   -1    0    0  501    0  0.00000000000E+00  0.00000000000E+00  0.60406138686E+03  0.60406138688E+03  0.50400001928E-02 0.  1.
       -1   -1    0    0    0  501  0.00000000000E+00  0.00000000000E+00 -0.26107880864E+03  0.26107880869E+03  0.50400001928E-02 0. -1.
    10030    2    1    2    0    0  0.00000000000E+00  0.00000000000E+00  0.34298257822E+03  0.86514019557E+03  0.79424839253E+03 0.  0.
        2    1    3    3  502    0 -0.29290587490E+03  0.68323072159E+02 -0.11097232621E+03  0.32058813286E+03  0.25500000920E-02 0. -1.
       -2    1    3    3    0  502  0.29290587490E+03 -0.68323072159E+02  0.45395490443E+03  0.54455206271E+03  0.25500000920E-02 0.  1.
</event>
<event>
 5   0  0.2460312E-02  0.7972470E+03  0.7818609E-02  0.9564010E-01
        2   -1    0    0  501    0  0.00000000000E+00  0.00000000000E+00  0.16707987276E+04  0.16707987276E+04  0.25500000920E-02 0.  1.
       -2   -1    0    0    0  501  0.00000000000E+00  0.00000000000E+00 -0.95104640977E+02  0.95104641011E+02  0.25500000920E-02 0. -1.
    10030    2    1    2    0    0  0.00000000000E+00  0.00000000000E+00  0.15756940866E+04  0.17659033686E+04  0.79724704619E+03 0.  0.
        2    1    3    3  502    0  0.63190540619E+01 -0.26257593758E+03  0.12366172912E+03  0.29030721089E+03  0.25500000920E-02 0. -1.
       -2    1    3    3    0  502 -0.63190540619E+01  0.26257593758E+03  0.14520323575E+04  0.14755961577E+04  0.25500000920E-02 0.  1.
</event>
<event>
 5   0  0.2464780E-02  0.8080983E+03  0.7818609E-02  0.9548369E-01
       -2   -1    0    0    0  501  0.00000000000E+00  0.00000000000E+00  0.15636901703E+03  0.15636901705E+03  0.25500000920E-02 0.  1.
        2   -1    0    0  501    0  0.00000000000E+00  0.00000000000E+00 -0.10440414420E+04  0.10440414420E+04  0.25500000920E-02 0. -1.
    10030    2    1    2    0    0  0.00000000000E+00  0.00000000000E+00 -0.88767242497E+03  0.12004104591E+04  0.80809834559E+03 0.  0.
        3    1    3    3  502    0  0.17812501729E+03 -0.71834153875E+02 -0.97189525954E+03  0.99069120979E+03  0.10100000352E+00 0. -1.
       -3    1    3    3    0  502 -0.17812501729E+03  0.71834153875E+02  0.84222834568E+02  0.20971924926E+03  0.10100000352E+00 0.  1.
</event>
<event>
 5   0  0.1498375E-02  0.8831462E+03  0.7818609E-02  0.9446898E-01
        1   -1    0    0  501    0  0.00000000000E+00  0.00000000000E+00  0.78833022078E+03  0.78833022080E+03  0.50400001928E-02 0. -1.
       -1   -1    0    0    0  501  0.00000000000E+00  0.00000000000E+00 -0.24734154526E+03  0.24734154531E+03  0.50400001928E-02 0.  1.
    10030    2    1    2    0    0  0.00000000000E+00  0.00000000000E+00  0.54098867553E+03  0.10356717661E+04  0.88314622802E+03 0.  0.
        4    1    3    3  502    0  0.19134174048E+03  0.19982077758E+03  0.67409163238E+03  0.72865708433E+03  0.12699999809E+01 0. -1.
       -4    1    3    3    0  502 -0.19134174048E+03 -0.19982077758E+03 -0.13310295685E+03  0.30701468178E+03  0.12699999809E+01 0.  1.
</event>
<event>
 5   0  0.2464780E-02  0.8086331E+03  0.7818609E-02  0.9547604E-01
       -2   -1    0    0    0  501  0.00000000000E+00  0.00000000000E+00  0.11194032024E+03  0.11194032027E+03  0.25500000920E-02 0. -1.
        2   -1    0    0  501    0  0.00000000000E+00  0.00000000000E+00 -0.14603484080E+04  0.14603484080E+04  0.25500000920E-02 0.  1.
    10030    2    1    2    0    0  0.00000000000E+00  0.00000000000E+00 -0.13484080878E+04  0.15722887283E+04  0.80863308980E+03 0.  0.
        3    1    3    3  502    0 -0.12177341420E+03  0.35449283784E+03 -0.37946602130E+03  0.53337454758E+03  0.10100000352E+00 0. -1.
       -3    1    3    3    0  502  0.12177341420E+03 -0.35449283784E+03 -0.96894206646E+03  0.10389141807E+04  0.10100000352E+00 0.  1.
</event>
<event>
 5   0  0.9919125E-03  0.7981383E+03  0.7818609E-02  0.9562716E-01
       -3   -1    0    0    0  501  0.00000000000E+00  0.00000000000E+00  0.53419133765E+03  0.53419134720E+03  0.10100000352E+00 0.  1.
        3   -1    0    0  501    0  0.00000000000E+00  0.00000000000E+00 -0.29812568941E+03  0.29812570652E+03  0.10100000352E+00 0. -1.
    10030    2    1    2    0    0  0.00000000000E+00  0.00000000000E+00  0.23606564823E+03  0.83231705372E+03  0.79813826348E+03 0.  0.
        3    1    3    3  502    0 -0.89153487713E+02 -0.41465999546E+02  0.52136196638E+03  0.53055262103E+03  0.10100000352E+00 0.  1.
       -3    1    3    3    0  502  0.89153487713E+02  0.41465999546E+02 -0.28529631815E+03  0.30176443269E+03  0.10100000352E+00 0. -1.
</event>
<event>
 5   0  0.1523811E-02  0.8038839E+03  0.7818609E-02  0.9554412E-01
       -1   -1    0    0    0  501  0.00000000000E+00  0.00000000000E+00  0.57499007029E+03  0.57499007031E+03  0.50400001928E-02 0.  1.
        1   -1    0    0  501    0  0.00000000000E+00  0.00000000000E+00 -0.28097411882E+03  0.28097411886E+03  0.50400001928E-02 0. -1.
    10030    2    1    2    0    0  0.00000000000E+00  0.00000000000E+00  0.29401595147E+03  0.85596418917E+03  0.80388389300E+03 0.  0.
        1    1    3    3  502    0 -0.86409017037E+02 -0.65275227208E+02 -0.26514799228E+03  0.28641025008E+03  0.50400001928E-02 0. -1.
       -1    1    3    3    0  502  0.86409017037E+02  0.65275227208E+02  0.55916394376E+03  0.56955393909E+03  0.50400001928E-02 0.  1.
</event>
<event>
 5   0  0.2460312E-02  0.8016404E+03  0.7818609E-02  0.9557646E-01
        2   -1    0    0  501    0  0.00000000000E+00  0.00000000000E+00  0.51702926866E+03  0.51702926867E+03  0.25500000920E-02 0.  1.
       -2   -1    0    0    0  501  0.00000000000E+00  0.00000000000E+00 -0.31073066700E+03  0.31073066701E+03  0.25500000920E-02 0. -1.
    10030    2    1    2    0    0  0.00000000000E+00  0.00000000000E+00  0.20629860166E+03  0.82775993567E+03  0.80164044188E+03 0.  0.
        2    1    3    3  502    0 -0.32502662424E+03 -0.80868723726E+02 -0.12419431511E+03  0.35722021898E+03  0.25500000920E-02 0. -1.
       -2    1    3    3    0  502  0.32502662424E+03  0.80868723726E+02  0.33049291677E+03  0.47053971669E+03  0.25500000920E-02 0.  1.
</event>
<event>
 5   0  0.2464780E-02  0.8138645E+03  0.7818609E-02  0.9540163E-01
       -2   -1    0    0    0  501  0.00000000000E+00  0.00000000000E+00  0.23753540408E+03  0.23753540409E+03  0.25500000920E-02 0.  1.
        2   -1    0    0  501    0  0.00000000000E+00  0.00000000000E+00 -0.69713330403E+03  0.69713330404E+03  0.25500000920E-02 0. -1.
    10030    2    1    2    0    0  0.00000000000E+00  0.00000000000E+00 -0.45959789995E+03  0.93466870813E+03  0.81386446311E+03 0.  0.
        3    1    3    3  502    0 -0.39928225544E+03 -0.18200470850E+02 -0.31753391722E+03  0.51047563648E+03  0.10100000352E+00 0. -1.
       -3    1    3    3    0  502  0.39928225544E+03  0.18200470850E+02 -0.14206398273E+03  0.42419307165E+03  0.10100000352E+00 0.  1.
</event>
<event>
 5   0  0.2571778E-02  0.8065070E+03  0.7818609E-02  0.9550646E-01
       -2   -1    0    0    0  501  0.00000000000E+00  0.00000000000E+00  0.45186901944E+03  0.45186901945E+03  0.25500000920E-02 0.  1.
        2   -1    0    0  501    0  0.00000000000E+00  0.00000000000E+00 -0.35986841922E+03  0.35986841922E+03  0.25500000920E-02 0. -1.
    10030    2    1    2    0    0  0.00000000000E+00  0.00000000000E+00  0.92000600225E+02  0.81173743867E+03  0.80650701107E+03 0.  0.
        1    1    3    3  502    0 -0.26815708665E+02 -0.18730388513E+03  0.40441586035E+03  0.44649077901E+03  0.50400001928E-02 0.  1.
       -1    1    3    3    0  502  0.26815708665E+02  0.18730388513E+03 -0.31241526012E+03  0.36524665966E+03  0.50400001928E-02 0. -1.
</event>
<event>
 5   0  0.1498375E-02  0.7971027E+03  0.7818609E-02  0.9564220E-01
        1   -1    0    0  501    0  0.00000000000E+00  0.00000000000E+00  0.34371739125E+03  0.34371739129E+03  0.50400001928E-02 0. -1.
       -1   -1    0    0    0  501  0.00000000000E+00  0.00000000000E+00 -0.46213303792E+03  0.46213303795E+03  0.50400001928E-02 0.  1.
    10030    2    1    2    0    0  0.00000000000E+00  0.00000000000E+00 -0.11841564666E+03  0.80585042924E+03  0.79710265896E+03 0.  0.
        4    1    3    3  502    0  0.35244950878E+02 -0.71412868713E-01  0.34213673388E+03  0.34394966090E+03  0.12699999809E+01 0. -1.
       -4    1    3    3    0  502 -0.35244950878E+02  0.71412868713E-01 -0.46055238055E+03  0.46190076834E+03  0.12699999809E+01 0.  1.
</event>
<event>
 5   0  0.2464780E-02  0.8013729E+03  0.7818609E-02  0.9558032E-01
        2   -1    0    0  501    0  0.00000000000E+00  0.00000000000E+00  0.88792650600E+03  0.88792650601E+03  0.25500000920E-02 0.  1.
       -2   -1    0    0    0  501  0.00000000000E+00  0.00000000000E+00 -0.18081410368E+03  0.18081410370E+03  0.25500000920E-02 0. -1.
    10030    2    1    2    0    0  0.00000000000E+00  0.00000000000E+00  0.70711240232E+03  0.10687406097E+04  0.80137291027E+03 0.  0.
        3    1    3    3  502    0 -0.29707278629E+03 -0.52565241919E+02  0.18847318765E+01  0.30169339971E+03  0.10100000352E+00 0.  1.
       -3    1    3    3    0  502  0.29707278629E+03  0.52565241919E+02  0.70522767044E+03  0.76704721000E+03  0.10100000352E+00 0. -1.
</event>
<event>
 5   0  0.1498375E-02  0.8033294E+03  0.7818609E-02  0.9555210E-01
       -1   -1    0    0    0  501  0.00000000000E+00  0.00000000000E+00  0.19559053156E+03  0.19559053163E+03  0.50400001928E-02 0.  1.
        1   -1    0    0  501    0  0.00000000000E+00  0.00000000000E+00 -0.82485850973E+03  0.82485850974E+03  0.50400001928E-02 0. -1.
    10030    2    1    2    0    0  0.00000000000E+00  0.00000000000E+00 -0.62926797816E+03  0.10204490414E+04  0.80332935816E+03 0.  0.
        4    1    3    3  502    0  0.18021352260E+03  0.71695956848E+02  0.13216280910E+03  0.23470373871E+03  0.12699999809E+01 0.  1.
       -4    1    3    3    0  502 -0.18021352260E+03 -0.71695956848E+02 -0.76143078726E+03  0.78574530265E+03  0.12699999809E+01 0. -1.
</event>
<event>
 5   0  0.2454354E-02  0.8218766E+03  0.7818609E-02  0.9528881E-01
        2   -1    0    0  501    0  0.00000000000E+00  0.00000000000E+00  0.15584511719E+03  0.15584511721E+03  0.25500000920E-02 0.  1.
       -2   -1    0    0    0  501  0.00000000000E+00  0.00000000000E+00 -0.10835775316E+04  0.10835775316E+04  0.25500000920E-02 0. -1.
    10030    2    1    2    0    0  0.00000000000E+00  0.00000000000E+00 -0.92773241442E+03  0.12394226488E+04  0.82187655377E+03 0.  0.
        5    1    3    3  502    0  0.20316053260E+03 -0.21785536907E+03 -0.37026934559E+02  0.30021367011E+03  0.46999998093E+01 0.  1.
       -5    1    3    3    0  502 -0.20316053260E+03  0.21785536907E+03 -0.89070547986E+03  0.93920897871E+03  0.46999998093E+01 0. -1.
</event>
<event>
 5   0  0.1498375E-02  0.7606808E+03  0.7818609E-02  0.9618741E-01
       -1   -1    0    0    0  501  0.00000000000E+00  0.00000000000E+00  0.69714705737E+03  0.69714705738E+03  0.50400001928E-02 0. -1.
        1   -1    0    0  501    0  0.00000000000E+00  0.00000000000E+00 -0.20750115377E+03  0.20750115383E+03  0.50400001928E-02 0.  1.
    10030    2    1    2    0    0  0.00000000000E+00  0.00000000000E+00  0.48964590360E+03  0.90464821121E+03  0.76068079714E+03 0.  0.
        4    1    3    3  502    0  0.60260830364E+02 -0.16892970478E+03 -0.15404718148E+03  0.23643341527E+03  0.12699999809E+01 0.  1.
       -4    1    3    3    0  502 -0.60260830364E+02  0.16892970478E+03  0.64369308508E+03  0.66821479594E+03  0.12699999809E+01 0. -1.
</event>
<event>
 5   0  0.1624094E-02  0.7974504E+03  0.7818609E-02  0.9563715E-01
       -1   -1    0    0    0  501  0.00000000000E+00  0.00000000000E+00  0.13030187236E+03  0.13030187246E+03  0.50400001928E-02 0. -1.
        1   -1    0    0  501    0  0.00000000000E+00  0.00000000000E+00 -0.12201037054E+04  0.12201037054E+04  0.50400001928E-02 0.  1.
    10030    2    1    2    0    0  0.00000000000E+00  0.00000000000E+00 -0.10898018330E+04  0.13504055778E+04  0.79745043071E+03 0.  0.
        3    1    3    3  502    0  0.38120299576E+02  0.20816155187E+03  0.27352811933E+02  0.21338363442E+03  0.10100000352E+00 0. -1.
       -3    1    3    3    0  502 -0.38120299576E+02 -0.20816155187E+03 -0.11171546449E+04  0.11370219434E+04  0.10100000352E+00 0.  1.
</event>
<event>
 5   0  0.2571778E-02  0.7908071E+03  0.7818609E-02  0.9573420E-01
       -2   -1    0    0    0  501  0.00000000000E+00  0.00000000000E+00  0.87943119869E+02  0.87943119906E+02  0.25500000920E-02 0. -1.
        2   -1    0    0  501    0  0.00000000000E+00  0.00000000000E+00 -0.17777851414E+04  0.17777851414E+04  0.25500000920E-02 0.  1.
    10030    2    1    2    0    0  0.00000000000E+00  0.00000000000E+00 -0.16898420215E+04  0.18657282613E+04  0.79080711131E+03 0.  0.
        1    1    3    3  502    0 -0.13472185955E+03 -0.18230811355E+03 -0.16092583354E+04  0.16251457220E+04  0.50400001928E-02 0.  1.
       -1    1    3    3    0  502  0.13472185955E+03  0.18230811355E+03 -0.80583686101E+02  0.24058253926E+03  0.50400001928E-02 0. -1.
</event>
<event>
 5   0  0.2422031E-02  0.7995331E+03  0.7818609E-02  0.9560693E-01
        2   -1    0    0  501    0  0.00000000000E+00  0.00000000000E+00  0.33077026096E+03  0.33077026097E+03  0.25500000920E-02 0.  1.
       -2   -1    0    0    0  501  0.00000000000E+00  0.00000000000E+00 -0.48315502416E+03  0.48315502417E+03  0.25500000920E-02 0. -1.
    10030    2    1    2    0    0  0.00000000000E+00  0.00000000000E+00 -0.15238476320E+03  0.81392528513E+03  0.79953314736E+03 0.  0.
        4    1    3    3  502    0  0.12172308124E+03 -0.12616349737E+03  0.28954901582E+03  0.33848778713E+03  0.12699999809E+01 0.  1.
       -4    1    3    3    0  502 -0.12172308124E+03  0.12616349737E+03 -0.44193377902E+03  0.47543749801E+03  0.12699999809E+01 0. -1.
</event>
<event>
 5   0  0.2464780E-02  0.7931239E+03  0.7818609E-02  0.9570024E-01
       -2   -1    0    0    0  501  0.00000000000E+00  0.00000000000E+00  0.99849072498E+03  0.99849072498E+03  0.25500000920E-02 0. -1.
        2   -1    0    0  501    0  0.00000000000E+00  0.00000000000E+00 -0.15749909430E+03  0.15749909432E+03  0.25500000920E-02 0.  1.
    10030    2    1    2    0    0  0.00000000000E+00  0.00000000000E+00  0.84099163069E+03  0.11559898193E+04  0.79312391178E+03 0.  0.
        3    1    3    3  502    0 -0.10323523902E+03  0.52299844336E+02 -0.13233972371E+03  0.17580273310E+03  0.10100000352E+00 0.  1.
       -3    1    3    3    0  502  0.10323523902E+03 -0.52299844336E+02  0.97333135440E+03  0.98018708620E+03  0.10100000352E+00 0. -1.
</event>
<event>
 5   0  0.1471290E-02  0.7986437E+03  0.7818609E-02  0.9561982E-01
       -1   -1    0    0    0  501  0.00000000000E+00  0.00000000000E+00  0.28759627680E+03  0.28759627685E+03  0.50400001928E-02 0. -1.
        1   -1    0    0  501    0  0.00000000000E+00  0.00000000000E+00 -0.55445068862E+03  0.55445068864E+03  0.50400001928E-02 0.  1.
    10030    2    1    2    0    0  0.00000000000E+00  0.00000000000E+00 -0.26685441182E+03  0.84204696549E+03  0.79864373471E+03 0.  0.
        2    1    3    3  502    0  0.38760911636E+03  0.24892811774E+02 -0.23118889043E+03  0.45200529005E+03  0.25500000920E-02 0.  1.
       -2    1    3    3    0  502 -0.38760911636E+03 -0.24892811774E+02 -0.35665521386E+02  0.39004167545E+03  0.25500000920E-02 0. -1.
</event>
<event>
 5   0  0.1471290E-02  0.7811571E+03  0.7818609E-02  0.9587699E-01
        1   -1    0    0  501    0  0.00000000000E+00  0.00000000000E+00  0.26374017966E+03  0.26374017971E+03  0.50400001928E-02 0.  1.
       -1   -1    0    0    0  501  0.00000000000E+00  0.00000000000E+00 -0.57841618491E+03  0.57841618493E+03  0.50400001928E-02 0. -1.
    10030    2    1    2    0    0  0.00000000000E+00  0.00000000000E+00 -0.31467600524E+03  0.84215636464E+03  0.78115706118E+03 0.  0.
        2    1    3    3  502    0  0.27239638922E+03 -0.16160253928E+03  0.89062196266E+02  0.32900949587E+03  0.25500000920E-02 0.  1.
       -2    1    3    3    0  502 -0.27239638922E+03  0.16160253928E+03 -0.40373820151E+03  0.51314686877E+03  0.25500000920E-02 0. -1.
</event>
<event>
 5   0  0.2454354E-02  0.8085152E+03  0.7818609E-02  0.9547773E-01
       -2   -1    0    0    0  501  0.00000000000E+00  0.00000000000E+00  0.30303560251E+03  0.30303560252E+03  0.25500000920E-02 0.  1.
        2   -1    0    0  501    0  0.00000000000E+00  0.00000000000E+00 -0.53929051737E+03  0.53929051737E+03  0.25500000920E-02 0. -1.
    10030    2    1    2    0    0  0.00000000000E+00  0.00000000000E+00 -0.23625491486E+03  0.84232611989E+03  0.80851524875E+03 0.  0.
        5    1    3    3  502    0  0.87491061538E+02 -0.38005582173E+03 -0.73560215266E+01  0.39009398166E+03  0.46999998093E+01 0.  1.
       -5    1    3    3    0  502 -0.87491061538E+02  0.38005582173E+03 -0.22889889333E+03  0.45223213823E+03  0.46999998093E+01 0. -1.
</event>
<event>
 5   0  0.1523811E-02  0.8014612E+03  0.7818609E-02  0.9557904E-01
       -1   -1    0    0    0  501  0.00000000000E+00  0.00000000000E+00  0.70860560705E+02  0.70860560884E+02  0.50400001928E-02 0.  1.
        1   -1    0    0  501    0  0.00000000000E+00  0.00000000000E+00 -0.22662115289E+04  0.22662115289E+04  0.50400001928E-02 0. -1.
    10030    2    1    2    0    0  0.00000000000E+00  0.00000000000E+00 -0.21953509682E+04  0.23370720898E+04  0.80146121511E+03 0.  0.
        1    1    3    3  502    0  0.34305539211E+03  0.19580470180E+03 -0.12945558086E+04  0.13534774564E+04  0.50400001928E-02 0.  1.
       -1    1    3    3    0  502 -0.34305539211E+03 -0.19580470180E+03 -0.90079515956E+03  0.98359463338E+03  0.50400001928E-02 0. -1.
</event>
<event>
 5   0  0.2464780E-02  0.7794129E+03  0.7818609E-02  0.9590304E-01
        2   -1    0    0  501    0  0.00000000000E+00  0.00000000000E+00  0.92905153641E+03  0.92905153642E+03  0.25500000920E-02 0. -1.
       -2   -1    0    0    0  501  0.00000000000E+00  0.00000000000E+00 -0.16346899285E+03  0.16346899287E+03  0.25500000920E-02 0.  1.
    10030    2    1    2    0    0  0.00000000000E+00  0.00000000000E+00  0.76558254356E+03  0.10925205293E+04  0.77941290463E+03 0.  0.
        3    1    3    3  502    0  0.19125289027E+03 -0.56222049986E+02  0.85217476108E+03  0.87518022176E+03  0.10100000352E+00 0. -1.
       -3    1    3    3    0  502 -0.19125289027E+03  0.56222049986E+02 -0.86592217512E+02  0.21734030753E+03  0.10100000352E+00 0.  1.
</event>
<event>
 5   0  0.9919125E-03  0.8204882E+03  0.7818609E-02  0.9530826E-01
       -4   -1    0    0    0  501  0.00000000000E+00  0.00000000000E+00  0.67831143337E+03  0.67831262228E+03  0.12699999809E+01 0.  1.
        4   -1    0    0  501    0  0.00000000000E+00  0.00000000000E+00 -0.24811342400E+03  0.24811667430E+03  0.12699999809E+01 0. -1.
    10030    2    1    2    0    0  0.00000000000E+00  0.00000000000E+00  0.43019800937E+03  0.92642929658E+03  0.82048821704E+03 0.  0.
        1    1    3    3  502    0  0.90819925872E+02 -0.21845898591E+03  0.59352699477E+03  0.63894200128E+03  0.50400001928E-02 0.  1.
       -1    1    3    3    0  502 -0.90819925872E+02  0.21845898591E+03 -0.16332898539E+03  0.28748729530E+03  0.50400001928E-02 0. -1.
</event>
<event>
 5   0  0.1498375E-02  0.7939196E+03  0.7818609E-02  0.9568860E-01
       -1   -1    0    0    0  501  0.00000000000E+00  0.00000000000E+00  0.80534538760E+03  0.80534538762E+03  0.50400001928E-02 0. -1.
        1   -1    0    0  501    0  0.00000000000E+00  0.00000000000E+00 -0.19566396135E+03  0.19566396141E+03  0.50400001928E-02 0.  1.
    10030    2    1    2    0    0  0.00000000000E+00  0.00000000000E+00  0.60968142626E+03  0.10010093490E+04  0.79391956477E+03 0.  0.
        4    1    3    3  502    0  0.50347793277E+02  0.20917139431E+03 -0.11577507527E+03  0.24432161886E+03  0.12699999809E+01 0.  1.
       -4    1    3    3    0  502 -0.50347793277E+02 -0.20917139431E+03  0.72545650153E+03  0.75668773017E+03  0.12699999809E+01 0. -1.
</event>
<event>
 5   0  0.1509629E-02  0.7914317E+03  0.7818609E-02  0.9572503E-01
       -1   -1    0    0    0  501  0.00000000000E+00  0.00000000000E+00  0.17288219668E+03  0.17288219676E+03  0.50400001928E-02 0.  1.
        1   -1    0    0  501    0  0.00000000000E+00  0.00000000000E+00 -0.90576736075E+03  0.90576736077E+03  0.50400001928E-02 0. -1.
    10030    2    1    2    0    0  0.00000000000E+00  0.00000000000E+00 -0.73288516407E+03  0.10786495575E+04  0.79143174325E+03 0.  0.
        5    1    3    3  502    0  0.26161693992E+03 -0.14631860511E+02 -0.77054329561E+03  0.81388978062E+03  0.46999998093E+01 0. -1.
       -5    1    3    3    0  502 -0.26161693992E+03  0.14631860511E+02  0.37658131540E+02  0.26475977690E+03  0.46999998093E+01 0.  1.
</event>
<event>
 5   0  0.2422031E-02  0.8028191E+03  0.7818609E-02  0.9555945E-01
       -2   -1    0    0    0  501  0.00000000000E+00  0.00000000000E+00  0.19284268196E+03  0.19284268198E+03  0.25500000920E-02 0. -1.
        2   -1    0    0  501    0  0.00000000000E+00  0.00000000000E+00 -0.83554965527E+03  0.83554965527E+03  0.25500000920E-02 0.  1.
    10030    2    1    2    0    0  0.00000000000E+00  0.00000000000E+00 -0.64270697331E+03  0.10283923372E+04  0.80281912395E+03 0.  0.
        4    1    3    3  502    0 -0.11294280222E+03 -0.31760169885E+02 -0.81309367292E+03  0.82151550126E+03  0.12699999809E+01 0.  1.
       -4    1    3    3    0  502  0.11294280222E+03  0.31760169885E+02  0.17038669961E+03  0.20687683599E+03  0.12699999809E+01 0. -1.
</event>
<event>
 5   0  0.1509629E-02  0.7954790E+03  0.7818609E-02  0.9566584E-01
       -1   -1    0    0    0  501  0.00000000000E+00  0.00000000000E+00  0.12660295598E+03  0.12660295608E+03  0.50400001928E-02 0. -1.
        1   -1    0    0  501    0  0.00000000000E+00  0.00000000000E+00 -0.12495498538E+04  0.12495498538E+04  0.50400001928E-02 0.  1.
    10030    2    1    2    0    0  0.00000000000E+00  0.00000000000E+00 -0.11229468978E+04  0.13761528099E+04  0.79547898831E+03 0.  0.
        5    1    3    3  502    0 -0.10659983769E+03 -0.16920497889E+03  0.33244912049E+02  0.20278354088E+03  0.46999998093E+01 0. -1.
       -5    1    3    3    0  502  0.10659983769E+03  0.16920497889E+03 -0.11561918098E+04  0.11733692690E+04  0.46999998093E+01 0.  1.
</event>
<event>
 5   0  0.2460312E-02  0.8070813E+03  0.7818609E-02  0.9549823E-01
        2   -1    0    0  501    0  0.00000000000E+00  0.00000000000E+00  0.30514937449E+03  0.30514937450E+03  0.25500000920E-02 0. -1.
       -2   -1    0    0    0  501  0.00000000000E+00  0.00000000000E+00 -0.53365690498E+03  0.53365690498E+03  0.25500000920E-02 0.  1.
    10030    2    1    2    0    0  0.00000000000E+00  0.00000000000E+00 -0.22850753049E+03  0.83880627949E+03  0.80708133606E+03 0.  0.
        2    1    3    3  502    0  0.13324636112E+02 -0.20886837071E+03 -0.47284000172E+03  0.51708916972E+03  0.25500000920E-02 0.  1.
       -2    1    3    3    0  502 -0.13324636112E+02  0.20886837071E+03  0.24433247123E+03  0.32171710977E+03  0.25500000920E-02 0. -1.
</event>
<event>
 5   0  0.1471290E-02  0.8354513E+03  0.7818609E-02  0.9510075E-01
       -1   -1    0    0    0  501  0.00000000000E+00  0.00000000000E+00  0.25152100526E+03  0.25152100531E+03  0.50400001928E-02 0.  1.
        1   -1    0    0  501    0  0.00000000000E+00  0.00000000000E+00 -0.69375798242E+03  0.69375798244E+03  0.50400001928E-02 0. -1.
    10030    2    1    2    0    0  0.00000000000E+00  0.00000000000E+00 -0.44223697716E+03  0.94527898774E+03  0.83545126770E+03 0.  0.
        2    1    3    3  502    0 -0.80543286926E+02  0.36635515523E+03 -0.13128766871E+02  0.37533409832E+03  0.25500000920E-02 0.  1.
       -2    1    3    3    0  502  0.80543286926E+02 -0.36635515523E+03 -0.42910821029E+03  0.56994488942E+03  0.25500000920E-02 0. -1.
</event>
<event>
 5   0  0.1498375E-02  0.7988268E+03  0.7818609E-02  0.9561717E-01
        1   -1    0    0  501    0  0.00000000000E+00  0.00000000000E+00  0.67331011438E+03  0.67331011440E+03  0.50400001928E-02 0. -1.
       -1   -1    0    0    0  501  0.00000000000E+00  0.00000000000E+00 -0.23693547541E+03  0.23693547546E+03  0.50400001928E-02 0.  1.
    10030    2    1    2    0    0  0.00000000000E+00  0.00000000000E+00  0.43637463897E+03  0.91024558986E+03  0.79882676991E+03 0.  0.
        4    1    3    3  502    0 -0.12877547231E+03  0.77709708577E+02 -0.20343114467E+03  0.25299755848E+03  0.12699999809E+01 0.  1.
       -4    1    3    3    0  502  0.12877547231E+03 -0.77709708577E+02  0.63980578364E+03  0.65724803138E+03  0.12699999809E+01 0. -1.
</event>
<event>
 5   0  0.2460312E-02  0.7812069E+03  0.7818609E-02  0.9587625E-01
       -2   -1    0    0    0  501  0.00000000000E+00  0.00000000000E+00  0.53015912269E+03  0.53015912270E+03  0.25500000920E-02 0. -1.
        2   -1    0    0  501    0  0.00000000000E+00  0.00000000000E+00 -0.28778351775E+03  0.28778351776E+03  0.25500000920E-02 0.  1.
    10030    2    1    2    0    0  0.00000000000E+00  0.00000000000E+00  0.24237560494E+03  0.81794264046E+03  0.78120690551E+03 0.  0.
        2    1    3    3  502    0  0.36843411586E+03 -0.11607327264E+03  0.60547510528E+02  0.39100217824E+03  0.25500000920E-02 0.  1.
       -2    1    3    3    0  502 -0.36843411586E+03  0.11607327264E+03  0.18182809441E+03  0.42694046222E+03  0.25500000920E-02 0. -1.
</event>
<event>
 5   0  0.2422031E-02  0.7860193E+03  0.7818609E-02  0.9580477E-01
        2   -1    0    0  501    0  0.00000000000E+00  0.00000000000E+00  0.79416506975E+03  0.79416506976E+03  0.25500000920E-02 0.  1.
       -2   -1    0    0    0  501  0.00000000000E+00  0.00000000000E+00 -0.19448927471E+03  0.19448927472E+03  0.25500000920E-02 0. -1.
    10030    2    1    2    0    0  0.00000000000E+00  0.00000000000E+00  0.59967579504E+03  0.98865434448E+03  0.78601930873E+03 0.  0.
        4    1    3    3  502    0 -0.30787193246E+02 -0.36700734801E+03  0.12731879725E+03  0.38968440281E+03  0.12699999809E+01 0.  1.
       -4    1    3    3    0  502  0.30787193246E+02  0.36700734801E+03  0.47235699779E+03  0.59896994167E+03  0.12699999809E+01 0. -1.
</event>
<event>
 5   0  0.1471290E-02  0.8013697E+03  0.7818609E-02  0.9558037E-01
        1   -1    0    0  501    0  0.00000000000E+00  0.00000000000E+00  0.42331476746E+03  0.42331476749E+03  0.50400001928E-02 0.  1.
       -1   -1    0    0    0  501  0.00000000000E+00  0.00000000000E+00 -0.37926469515E+03  0.37926469518E+03  0.50400001928E-02 0. -1.
    10030    2    1    2    0    0  0.00000000000E+00  0.00000000000E+00  0.44050072311E+02  0.80257946268E+03  0.80136969311E+03 0.  0.
        2    1    3    3  502    0 -0.13230321527E+03 -0.26124622139E+03 -0.25187387172E+03  0.38625661965E+03  0.25500000920E-02 0. -1.
       -2    1    3    3    0  502  0.13230321527E+03  0.26124622139E+03  0.29592394403E+03  0.41632284302E+03  0.25500000920E-02 0.  1.
</event>
<event>
 5   0  0.1523811E-02  0.7468345E+03  0.7818609E-02  0.9640330E-01
        1   -1    0    0  501    0  0.00000000000E+00  0.00000000000E+00  0.57206437374E+03  0.57206437376E+03  0.50400001928E-02 0. -1.
       -1   -1    0    0    0  501  0.00000000000E+00  0.00000000000E+00 -0.24374956289E+03  0.24374956294E+03  0.50400001928E-02 0.  1.
    10030    2    1    2    0    0  0.00000000000E+00  0.00000000000E+00  0.32831481085E+03  0.81581393670E+03  0.74683449591E+03 0.  0.
        1    1    3    3  502    0  0.18965654562E+03 -0.31394532991E+03  0.24069425659E+03  0.43870833209E+03  0.50400001928E-02 0. -1.
       -1    1    3    3    0  502 -0.18965654562E+03  0.31394532991E+03  0.87620554258E+02  0.37710560460E+03  0.50400001928E-02 0.  1.
</event>
<event>
 5   0  0.1498375E-02  0.7934932E+03  0.7818609E-02  0.9569483E-01
       -1   -1    0    0    0  501  0.00000000000E+00  0.00000000000E+00  0.16041817441E+03  0.16041817449E+03  0.50400001928E-02 0.  1.
        1   -1    0    0  501    0  0.00000000000E+00  0.00000000000E+00 -0.98123469932E+03  0.98123469934E+03  0.50400001928E-02 0. -1.
    10030    2    1    2    0    0  0.00000000000E+00  0.00000000000E+00 -0.82081652492E+03  0.11416528738E+04  0.79349323673E+03 0.  0.
        4    1    3    3  502    0 -0.11387785501E+03 -0.16853257777E+02  0.13585789569E+03  0.17807632881E+03  0.12699999809E+01 0.  1.
       -4    1    3    3    0  502  0.11387785501E+03  0.16853257777E+02 -0.95667442061E+03  0.96357654502E+03  0.12699999809E+01 0. -1.
</event>
<event>
 5   0  0.2422031E-02  0.8089445E+03  0.7818609E-02  0.9547160E-01
       -2   -1    0    0    0  501  0.00000000000E+00  0.00000000000E+00  0.80022646644E+02  0.80022646684E+02  0.25500000920E-02 0. -1.
        2   -1    0    0  501    0  0.00000000000E+00  0.00000000000E+00 -0.20443937814E+04  0.20443937814E+04  0.25500000920E-02 0.  1.
    10030    2    1    2    0    0  0.00000000000E+00  0.00000000000E+00 -0.19643711348E+04  0.21244164281E+04  0.80894450048E+03 0.  0.
        4    1    3    3  502    0 -0.37080768651E+03 -0.16000475839E+03 -0.10406920654E+04  0.11163070594E+04  0.12699999809E+01 0.  1.
       -4    1    3    3    0  502  0.37080768651E+03  0.16000475839E+03 -0.92367906938E+03  0.10081093687E+04  0.12699999809E+01 0. -1.
</event>
<event>
 5   0  0.1624094E-02  0.7729481E+03  0.7818609E-02  0.9600021E-01
       -1   -1    0    0    0  501  0.00000000000E+00  0.00000000000E+00  0.29039279186E+03  0.29039279190E+03  0.50400001928E-02 0.  1.
        1   -1    0    0  501    0  0.00000000000E+00  0.00000000000E+00 -0.51434536906E+03  0.51434536908E+03  0.50400001928E-02 0. -1.
    10030    2    1    2    0    0  0.00000000000E+00  0.00000000000E+00 -0.22395257720E+03  0.80473816099E+03  0.77294809070E+03 0.  0.
        3    1    3    3  502    0  0.23580610635E+03  0.30535521746E+03 -0.13562271544E+03  0.40894970322E+03  0.10100000352E+00 0. -1.
       -3    1    3    3    0  502 -0.23580610635E+03 -0.30535521746E+03 -0.88329861764E+02  0.39578845777E+03  0.10100000352E+00 0.  1.
</event>
<event>
 5   0  0.1523811E-02  0.7809497E+03  0.7818609E-02  0.9588009E-01
        1   -1    0    0  501    0  0.00000000000E+00  0.00000000000E+00  0.20330667721E+03  0.20330667727E+03  0.50400001928E-02 0. -1.
       -1   -1    0    0    0  501  0.00000000000E+00  0.00000000000E+00 -0.74995368617E+03  0.74995368619E+03  0.50400001928E-02 0.  1.
    10030    2    1    2    0    0  0.00000000000E+00  0.00000000000E+00 -0.54664700896E+03  0.95326036346E+03  0.78094965788E+03 0.  0.
        1    1    3    3  502    0  0.29305840857E+03  0.25796185718E+03 -0.26531536223E+03  0.47203791379E+03  0.50400001928E-02 0.  1.
       -1    1    3    3    0  502 -0.29305840857E+03 -0.25796185718E+03 -0.28133164673E+03  0.48122244968E+03  0.50400001928E-02 0. -1.
</event>
<event>
 5   0  0.1523811E-02  0.8009813E+03  0.7818609E-02  0.9558598E-01
        1   -1    0    0  501    0  0.00000000000E+00  0.00000000000E+00  0.88203966148E+03  0.88203966149E+03  0.50400001928E-02 0.  1.
       -1   -1    0    0    0  501  0.00000000000E+00  0.00000000000E+00 -0.18184301142E+03  0.18184301149E+03  0.50400001928E-02 0. -1.
    10030    2    1    2    0    0  0.00000000000E+00  0.00000000000E+00  0.70019665006E+03  0.10638826730E+04  0.80098126890E+03 0.  0.
        1    1    3    3  502    0  0.37525316057E+03 -0.13986619155E+03  0.34490936907E+03  0.52852621406E+03  0.50400001928E-02 0. -1.
       -1    1    3    3    0  502 -0.37525316057E+03  0.13986619155E+03  0.35528728099E+03  0.53535645892E+03  0.50400001928E-02 0.  1.
</event>
<event>
 5   0  0.2422031E-02  0.7514313E+03  0.7818609E-02  0.9633108E-01
        2   -1    0    0  501    0  0.00000000000E+00  0.00000000000E+00  0.83108013785E+03  0.83108013785E+03  0.25500000920E-02 0. -1.
       -2   -1    0    0    0  501  0.00000000000E+00  0.00000000000E+00 -0.16985396318E+03  0.16985396320E+03  0.25500000920E-02 0.  1.
    10030    2    1    2    0    0  0.00000000000E+00  0.00000000000E+00  0.66122617467E+03  0.10009341011E+04  0.75143131461E+03 0.  0.
        4    1    3    3  502    0 -0.27028581106E+03 -0.10591564521E+03  0.64832017645E+03  0.71034724442E+03  0.12699999809E+01 0. -1.
       -4    1    3    3    0  502  0.27028581106E+03  0.10591564521E+03  0.12905998217E+02  0.29058685663E+03  0.12699999809E+01 0.  1.
</event>
<event>
 5   0  0.2464780E-02  0.7754452E+03  0.7818609E-02  0.9596255E-01
        2   -1    0    0  501    0  0.00000000000E+00  0.00000000000E+00  0.14206903098E+04  0.14206903098E+04  0.25500000920E-02 0.  1.
       -2   -1    0    0    0  501  0.00000000000E+00  0.00000000000E+00 -0.10581392017E+03  0.10581392020E+03  0.25500000920E-02 0. -1.
    10030    2    1    2    0    0  0.00000000000E+00  0.00000000000E+00  0.13148763896E+04  0.15265042300E+04  0.77544519097E+03 0.  0.
        3    1    3    3  502    0  0.31491727220E+03 -0.22568813308E+03  0.62818819325E+03  0.73805720516E+03  0.10100000352E+00 0.  1.
       -3    1    3    3    0  502 -0.31491727220E+03  0.22568813308E+03  0.68668819640E+03  0.78844702486E+03  0.10100000352E+00 0. -1.
</event>
<event>
 5   0  0.9919125E-03  0.8050621E+03  0.7818609E-02  0.9552719E-01
        3   -1    0    0  501    0  0.00000000000E+00  0.00000000000E+00  0.36611739053E+03  0.36611740446E+03  0.10100000352E+00 0. -1.
       -3   -1    0    0    0  501  0.00000000000E+00  0.00000000000E+00 -0.44256631993E+03  0.44256633145E+03  0.10100000352E+00 0.  1.
    10030    2    1    2    0    0  0.00000000000E+00  0.00000000000E+00 -0.76448929399E+02  0.80868373591E+03  0.80506207582E+03 0.  0.
        3    1    3    3  502    0 -0.31383882053E+03 -0.44438083241E+02  0.21100797209E+03  0.38078067572E+03  0.10100000352E+00 0. -1.
       -3    1    3    3    0  502  0.31383882053E+03  0.44438083241E+02 -0.28745690149E+03  0.42790306020E+03  0.10100000352E+00 0.  1.
</event>
<event>
 5   0  0.2454354E-02  0.7941068E+03  0.7818609E-02  0.9568587E-01
        2   -1    0    0  501    0  0.00000000000E+00  0.00000000000E+00  0.47877356208E+03  0.47877356209E+03  0.25500000920E-02 0.  1.
       -2   -1    0    0    0  501  0.00000000000E+00  0.00000000000E+00 -0.32928175575E+03  0.32928175576E+03  0.25500000920E-02 0. -1.
    10030    2    1    2    0    0  0.00000000000E+00  0.00000000000E+00  0.14949180633E+03  0.80805531785E+03  0.79410679164E+03 0.  0.
        5    1    3    3  502    0 -0.39229204731E+02 -0.25143189060E+03 -0.23535674644E+03  0.34665806526E+03  0.46999998093E+01 0. -1.
       -5    1    3    3    0  502  0.39229204731E+02  0.25143189060E+03  0.38484855278E+03  0.46139725258E+03  0.46999998093E+01 0.  1.
</event>
<event>
 5   0  0.2464780E-02  0.9541714E+03  0.7818609E-02  0.9360288E-01
       -2   -1    0    0    0  501  0.00000000000E+00  0.00000000000E+00  0.35260760154E+03  0.35260760155E+03  0.25500000920E-02 0. -1.
        2   -1    0    0  501    0  0.00000000000E+00  0.00000000000E+00 -0.64550729307E+03  0.64550729308E+03  0.25500000920E-02 0.  1.
    10030    2    1    2    0    0  0.00000000000E+00  0.00000000000E+00 -0.29289969153E+03  0.99811489463E+03  0.95417142777E+03 0.  0.
        3    1    3    3  502    0 -0.85028943013E+01  0.40708917558E+03  0.11363056474E+03  0.42273610152E+03  0.10100000352E+00 0. -1.
       -3    1    3    3    0  502  0.85028943013E+01 -0.40708917558E+03 -0.40653025627E+03  0.57537879310E+03  0.10100000352E+00 0.  1.
</event>
<event>
 5   0  0.1624094E-02  0.7762856E+03  0.7818609E-02  0.9594991E-01
       -1   -1    0    0    0  501  0.00000000000E+00  0.00000000000E+00  0.39486245973E+03  0.39486245976E+03  0.50400001928E-02 0. -1.
        1   -1    0    0  501    0  0.00000000000E+00  0.00000000000E+00 -0.38153753675E+03  0.38153753678E+03  0.50400001928E-02 0.  1.
    10030    2    1    2    0    0  0.00000000000E+00  0.00000000000E+00  0.13324922978E+02  0.77639999654E+03  0.77628564398E+03 0.  0.
        3    1    3    3  502    0  0.29056385963E+02 -0.34985498628E+03  0.17225271381E+03  0.39104193203E+03  0.10100000352E+00 0. -1.
       -3    1    3    3    0  502 -0.29056385963E+02  0.34985498628E+03 -0.15892779083E+03  0.38535806451E+03  0.10100000352E+00 0.  1.
</event>
<event>
 5   0  0.2454354E-02  0.7970099E+03  0.7818609E-02  0.9564355E-01
        2   -1    0    0  501    0  0.00000000000E+00  0.00000000000E+00  0.73499213058E+03  0.73499213058E+03  0.25500000920E-02 0. -1.
       -2   -1    0    0    0  501  0.00000000000E+00  0.00000000000E+00 -0.21606515640E+03  0.21606515641E+03  0.25500000920E-02 0.  1.
    10030    2    1    2    0    0  0.00000000000E+00  0.00000000000E+00  0.51892697418E+03  0.95105728699E+03  0.79700988614E+03 0.  0.
        5    1    3    3  502    0 -0.19129733233E+03 -0.31553412720E+03  0.79964233863E+02  0.37758816649E+03  0.46999998093E+01 0. -1.
       -5    1    3    3    0  502  0.19129733233E+03  0.31553412720E+03  0.43896274032E+03  0.57346912050E+03  0.46999998093E+01 0.  1.
</event>
<event>
 5   0  0.2460312E-02  0.7723920E+03  0.7818609E-02  0.9600861E-01
        2   -1    0    0  501    0  0.00000000000E+00  0.00000000000E+00  0.17894082657E+03  0.17894082659E+03  0.25500000920E-02 0. -1.
       -2   -1    0    0    0  501  0.00000000000E+00  0.00000000000E+00 -0.83350085704E+03  0.83350085705E+03  0.25500000920E-02 0.  1.
    10030    2    1    2    0    0  0.00000000000E+00  0.00000000000E+00 -0.65456003047E+03  0.10124416836E+04  0.77239195314E+03 0.  0.
        2    1    3    3  502    0 -0.30867853947E+03  0.12035578414E+03 -0.58739579324E+03  0.67438992684E+03  0.25500000920E-02 0.  1.
       -2    1    3    3    0  502  0.30867853947E+03 -0.12035578414E+03 -0.67164237233E+02  0.33805175680E+03  0.25500000920E-02 0. -1.
</event>
<event>
 5   0  0.2454354E-02  0.8075564E+03  0.7818609E-02  0.9549143E-01
        2   -1    0    0  501    0  0.00000000000E+00  0.00000000000E+00  0.22867467747E+03  0.22867467748E+03  0.25500000920E-02 0. -1.
       -2   -1    0    0    0  501  0.00000000000E+00  0.00000000000E+00 -0.71296409905E+03  0.71296409905E+03  0.25500000920E-02 0.  1.
    10030    2    1    2    0    0  0.00000000000E+00  0.00000000000E+00 -0.48428942158E+03  0.94163877653E+03  0.80755640151E+03 0.  0.
        5    1    3    3  502    0 -0.60146337573E+02 -0.31032970629E+03 -0.53503219224E+03  0.62145285039E+03  0.46999998093E+01 0.  1.
       -5    1    3    3    0  502  0.60146337573E+02  0.31032970629E+03  0.50742770657E+02  0.32018592614E+03  0.46999998093E+01 0. -1.
</event>
<event>
 5   0  0.1523811E-02  0.7478915E+03  0.7818609E-02  0.9638664E-01
       -1   -1    0    0    0  501  0.00000000000E+00  0.00000000000E+00  0.33322632296E+03  0.33322632300E+03  0.50400001928E-02 0. -1.
        1   -1    0    0  501    0  0.00000000000E+00  0.00000000000E+00 -0.41964098484E+03  0.41964098487E+03  0.50400001928E-02 0.  1.
    10030    2    1    2    0    0  0.00000000000E+00  0.00000000000E+00 -0.86414661877E+02  0.75286730787E+03  0.74789149578E+03 0.  0.
        1    1    3    3  502    0  0.24770290042E+03  0.66975126115E+02 -0.31703368505E+03  0.40786364373E+03  0.50400001928E-02 0.  1.
       -1    1    3    3    0  502 -0.24770290042E+03 -0.66975126115E+02  0.23061902317E+03  0.34500366414E+03  0.50400001928E-02 0. -1.
</event>
<event>
 5   0  0.2460312E-02  0.8005590E+03  0.7818609E-02  0.9559208E-01
        2   -1    0    0  501    0  0.00000000000E+00  0.00000000000E+00  0.30026437432E+03  0.30026437433E+03  0.25500000920E-02 0.  1.
       -2   -1    0    0    0  501  0.00000000000E+00  0.00000000000E+00 -0.53360865561E+03  0.53360865561E+03  0.25500000920E-02 0. -1.
    10030    2    1    2    0    0  0.00000000000E+00  0.00000000000E+00 -0.23334428128E+03  0.83387302995E+03  0.80055897750E+03 0.  0.
        2    1    3    3  502    0 -0.19872816828E+03  0.28050529193E+03 -0.33026022623E+03  0.47670527656E+03  0.25500000920E-02 0. -1.
       -2    1    3    3    0  502  0.19872816828E+03 -0.28050529193E+03  0.96915944948E+02  0.35716775338E+03  0.25500000920E-02 0.  1.
</event>
<event>
 5   0  0.1509629E-02  0.7888293E+03  0.7818609E-02  0.9576329E-01
        1   -1    0    0  501    0  0.00000000000E+00  0.00000000000E+00  0.73960748090E+03  0.73960748092E+03  0.50400001928E-02 0.  1.
       -1   -1    0    0    0  501  0.00000000000E+00  0.00000000000E+00 -0.21033170319E+03  0.21033170325E+03  0.50400001928E-02 0. -1.
    10030    2    1    2    0    0  0.00000000000E+00  0.00000000000E+00  0.52927577771E+03  0.94993918417E+03  0.78882926211E+03 0.  0.
        5    1    3    3  502    0 -0.78683621167E+02 -0.12996222489E+03  0.70292063746E+03  0.71916674332E+03  0.46999998093E+01 0.  1.
       -5    1    3    3    0  502  0.78683621167E+02  0.12996222489E+03 -0.17364485975E+03  0.23077244085E+03  0.46999998093E+01 0. -1.
</event>
<event>
 5   0  0.1624094E-02  0.7978167E+03  0.7818609E-02  0.9563183E-01
        1   -1    0    0  501    0  0.00000000000E+00  0.00000000000E+00  0.51921575903E+03  0.51921575905E+03  0.50400001928E-02 0. -1.
       -1   -1    0    0    0  501  0.00000000000E+00  0.00000000000E+00 -0.30647738543E+03  0.30647738547E+03  0.50400001928E-02 0.  1.
    10030    2    1    2    0    0  0.00000000000E+00  0.00000000000E+00  0.21273837360E+03  0.82569314452E+03  0.79781674169E+03 0.  0.
        3    1    3    3  502    0  0.21163791292E+02  0.25137449044E+03  0.42618238671E+03  0.49524587575E+03  0.10100000352E+00 0. -1.
       -3    1    3    3    0  502 -0.21163791292E+02 -0.25137449044E+03 -0.21344401311E+03  0.33044726877E+03  0.10100000352E+00 0.  1.
</event>
<event>
 5   0  0.2422031E-02  0.8224486E+03  0.7818609E-02  0.9528080E-01
       -2   -1    0    0    0  501  0.00000000000E+00  0.00000000000E+00  0.10070656792E+03  0.10070656795E+03  0.25500000920E-02 0.  1.
        2   -1    0    0  501    0  0.00000000000E+00  0.00000000000E+00 -0.16791897796E+04  0.16791897796E+04  0.25500000920E-02 0. -1.
    10030    2    1    2    0    0  0.00000000000E+00  0.00000000000E+00 -0.15784832117E+04  0.17798963476E+04  0.82244863578E+03 0.  0.
        4    1    3    3  502    0  0.33253980357E+02  0.40684072773E+03 -0.68149811127E+03  0.79439693700E+03  0.12699999809E+01 0.  1.
       -4    1    3    3    0  502 -0.33253980357E+02 -0.40684072773E+03 -0.89698510041E+03  0.98549941056E+03  0.12699999809E+01 0. -1.
</event>
<event>
 5   0  0.1624094E-02  0.8874445E+03  0.7818609E-02  0.9441414E-01
       -1   -1    0    0    0  501  0.00000000000E+00  0.00000000000E+00  0.29467091285E+03  0.29467091289E+03  0.50400001928E-02 0.  1.
        1   -1    0    0  501    0  0.00000000000E+00  0.00000000000E+00 -0.66816717791E+03  0.66816717793E+03  0.50400001928E-02 0. -1.
    10030    2    1    2    0    0  0.00000000000E+00  0.00000000000E+00 -0.37349626506E+03  0.96283809083E+03  0.88744449355E+03 0.  0.
        3    1    3    3  502    0  0.25303243888E+03 -0.10540124925E+03 -0.56532556712E+03  0.62827370271E+03  0.10100000352E+00 0. -1.
       -3    1    3    3    0  502 -0.25303243888E+03  0.10540124925E+03  0.19182930206E+03  0.33456438812E+03  0.10100000352E+00 0.  1.
</event>
<event>
 5   0  0.1498375E-02  0.7975964E+03  0.7818609E-02  0.9563503E-01
       -1   -1    0    0    0  501  0.00000000000E+00  0.00000000000E+00  0.11159480213E+03  0.11159480224E+03  0.50400001928E-02 0. -1.
        1   -1    0    0  501    0  0.00000000000E+00  0.00000000000E+00 -0.14251558862E+04  0.14251558862E+04  0.50400001928E-02 0.  1.
    10030    2    1    2    0    0  0.00000000000E+00  0.00000000000E+00 -0.13135610840E+04  0.15367506884E+04  0.79759636210E+03 0.  0.
        4    1    3    3  502    0 -0.96918456255E+02 -0.31424625980E+03 -0.10914464526E+04  0.11399126593E+04  0.12699999809E+01 0. -1.
       -4    1    3    3    0  502  0.96918456255E+02  0.31424625980E+03 -0.22211463139E+03  0.39683802910E+03  0.12699999809E+01 0.  1.
</event>
<event>
 5   0  0.1624094E-02  0.7870133E+03  0.7818609E-02  0.9579007E-01
        1   -1    0    0  501    0  0.00000000000E+00  0.00000000000E+00  0.12664111783E+04  0.12664111783E+04  0.50400001928E-02 0. -1.
       -1   -1    0    0    0  501  0.00000000000E+00  0.00000000000E+00 -0.12227266882E+03  0.12227266893E+03  0.50400001928E-02 0.  1.
    10030    2    1    2    0    0  0.00000000000E+00  0.00000000000E+00  0.11441385094E+04  0.13886838472E+04  0.78701327733E+03 0.  0.
        3    1    3    3  502    0 -0.18989644311E+03  0.21637807349E+03  0.98712003708E+02  0.30434224102E+03  0.10100000352E+00 0.  1.
       -3    1    3    3    0  502  0.18989644311E+03 -0.21637807349E+03  0.10454265057E+04  0.10843416062E+04  0.10100000352E+00 0. -1.
</event>
<event>
 5   0  0.2454354E-02  0.7798035E+03  0.7818609E-02  0.9589720E-01
        2   -1    0    0  501    0  0.00000000000E+00  0.00000000000E+00  0.16656427723E+04  0.16656427723E+04  0.25500000920E-02 0.  1.
       -2   -1    0    0    0  501  0.00000000000E+00  0.00000000000E+00 -0.91270085103E+02  0.91270085139E+02  0.25500000920E-02 0. -1.
    10030    2    1    2    0    0  0.00000000000E+00  0.00000000000E+00  0.15743726872E+04  0.17569128574E+04  0.77980345628E+03 0.  0.
        5    1    3    3  502    0  0.31703542889E+03  0.11473631153E+03  0.34611553214E+03  0.48321210243E+03  0.46999998093E+01 0. -1.
       -5    1    3    3    0  502 -0.31703542889E+03 -0.11473631153E+03  0.12282571550E+04  0.12737007550E+04  0.46999998093E+01 0.  1.
</event>
<event>
 5   0  0.1498375E-02  0.8014351E+03  0.7818609E-02  0.9557942E-01
       -1   -1    0    0    0  501  0.00000000000E+00  0.00000000000E+00  0.45138181935E+03  0.45138181938E+03  0.50400001928E-02 0.  1.
        1   -1    0    0  501    0  0.00000000000E+00  0.00000000000E+00 -0.35574000871E+03  0.35574000874E+03  0.50400001928E-02 0. -1.
    10030    2    1    2    0    0  0.00000000000E+00  0.00000000000E+00  0.95641810649E+02  0.80712182812E+03  0.80143514366E+03 0.  0.
        4    1    3    3  502    0 -0.18925754130E+03  0.57152304269E+02 -0.30320379823E+03  0.36196541130E+03  0.12699999809E+01 0. -1.
       -4    1    3    3    0  502  0.18925754130E+03 -0.57152304269E+02  0.39884560887E+03  0.44515641682E+03  0.12699999809E+01 0.  1.
</event>
<event>
 5   0  0.1509629E-02  0.8044616E+03  0.7818609E-02  0.9553581E-01
        1   -1    0    0  501    0  0.00000000000E+00  0.00000000000E+00  0.58033454400E+03  0.58033454402E+03  0.50400001928E-02 0.  1.
       -1   -1    0    0    0  501  0.00000000000E+00  0.00000000000E+00 -0.27878683277E+03  0.27878683282E+03  0.50400001928E-02 0. -1.
    10030    2    1    2    0    0  0.00000000000E+00  0.00000000000E+00  0.30154771123E+03  0.85912137684E+03  0.80446163239E+03 0.  0.
        5    1    3    3  502    0 -0.27854401132E+03 -0.10160172172E+03  0.44100736921E+03  0.53143133686E+03  0.46999998093E+01 0.  1.
       -5    1    3    3    0  502  0.27854401132E+03  0.10160172172E+03 -0.13945965799E+03  0.32769003998E+03  0.46999998093E+01 0. -1.
</event>
<event>
 5   0  0.2454354E-02  0.7908984E+03  0.7818609E-02  0.9573286E-01
       -2   -1    0    0    0  501  0.00000000000E+00  0.00000000000E+00  0.69571004728E+02  0.69571004774E+02  0.25500000920E-02 0. -1.
        2   -1    0    0  501    0  0.00000000000E+00  0.00000000000E+00 -0.22477763619E+04  0.22477763619E+04  0.25500000920E-02 0.  1.
    10030    2    1    2    0    0  0.00000000000E+00  0.00000000000E+00 -0.21782053572E+04  0.23173473667E+04  0.79089837516E+03 0.  0.
        5    1    3    3  502    0  0.21247039803E+03 -0.19678598033E+03 -0.18779777650E+04  0.19001818250E+04  0.46999998093E+01 0.  1.
       -5    1    3    3    0  502 -0.21247039803E+03  0.19678598033E+03 -0.30022759218E+03  0.41716554172E+03  0.46999998093E+01 0. -1.
</event>
<event>
 5   0  0.1509629E-02  0.7934708E+03  0.7818609E-02  0.9569516E-01
       -1   -1    0    0    0  501  0.00000000000E+00  0.00000000000E+00  0.32341693252E+03  0.32341693256E+03  0.50400001928E-02 0. -1.
        1   -1    0    0  501    0  0.00000000000E+00  0.00000000000E+00 -0.48667509197E+03  0.48667509200E+03  0.50400001928E-02 0.  1.
    10030    2    1    2    0    0  0.00000000000E+00  0.00000000000E+00 -0.16325815945E+03  0.81009202456E+03  0.79347076923E+03 0.  0.
        5    1    3    3  502    0 -0.15859960492E+03  0.73002721816E+02 -0.44531237847E+03  0.47833924832E+03  0.46999998093E+01 0.  1.
       -5    1    3    3    0  502  0.15859960492E+03 -0.73002721816E+02  0.28205421902E+03  0.33175277623E+03  0.46999998093E+01 0. -1.
</event>
<event>
 5   0  0.2422031E-02  0.7633972E+03  0.7818609E-02  0.9614564E-01
       -2   -1    0    0    0  501  0.00000000000E+00  0.00000000000E+00  0.93367915799E+02  0.93367915834E+02  0.25500000920E-02 0.  1.
        2   -1    0    0  501    0  0.00000000000E+00  0.00000000000E+00 -0.15604271507E+04  0.15604271507E+04  0.25500000920E-02 0. -1.
    10030    2    1    2    0    0  0.00000000000E+00  0.00000000000E+00 -0.14670592349E+04  0.16537950665E+04  0.76339722516E+03 0.  0.
        4    1    3    3  502    0  0.20619565690E+03  0.30502829865E+03 -0.51545420896E+03  0.63344578800E+03  0.12699999809E+01 0.  1.
       -4    1    3    3    0  502 -0.20619565690E+03 -0.30502829865E+03 -0.95160502590E+03  0.10203492785E+04  0.12699999809E+01 0. -1.
</event>
<event>
 5   0  0.1471290E-02  0.7977892E+03  0.7818609E-02  0.9563223E-01
       -1   -1    0    0    0  501  0.00000000000E+00  0.00000000000E+00  0.17584054296E+03  0.17584054303E+03  0.50400001928E-02 0. -1.
        1   -1    0    0  501    0  0.00000000000E+00  0.00000000000E+00 -0.90489311766E+03  0.90489311767E+03  0.50400001928E-02 0.  1.
    10030    2    1    2    0    0  0.00000000000E+00  0.00000000000E+00 -0.72905257470E+03  0.10807336607E+04  0.79778918814E+03 0.  0.
        2    1    3    3  502    0  0.14724435986E+03 -0.34363199042E+03 -0.55298023985E+03  0.66749606143E+03  0.25500000920E-02 0.  1.
       -2    1    3    3    0  502 -0.14724435986E+03  0.34363199042E+03 -0.17607233484E+03  0.41323759928E+03  0.25500000920E-02 0. -1.
</event>
<event>
 5   0  0.1471290E-02  0.8099534E+03  0.7818609E-02  0.9545721E-01
       -1   -1    0    0    0  501  0.00000000000E+00  0.00000000000E+00  0.19222336287E+03  0.19222336294E+03  0.50400001928E-02 0. -1.
        1   -1    0    0  501    0  0.00000000000E+00  0.00000000000E+00 -0.85320609372E+03  0.85320609374E+03  0.50400001928E-02 0.  1.
    10030    2    1    2    0    0  0.00000000000E+00  0.00000000000E+00 -0.66098273085E+03  0.10454294567E+04  0.80995344212E+03 0.  0.
        2    1    3    3  502    0 -0.11550963534E+03 -0.11408448730E+03  0.14838153284E+03  0.21994277754E+03  0.25500000920E-02 0. -1.
       -2    1    3    3    0  502  0.11550963534E+03  0.11408448730E+03 -0.80936426369E+03  0.82548667914E+03  0.25500000920E-02 0.  1.
</event>
<event>
 5   0  0.1523811E-02  0.7957705E+03  0.7818609E-02  0.9566159E-01
       -1   -1    0    0    0  501  0.00000000000E+00  0.00000000000E+00  0.23215437447E+04  0.23215437447E+04  0.50400001928E-02 0.  1.
        1   -1    0    0  501    0  0.00000000000E+00  0.00000000000E+00 -0.68192849863E+02  0.68192850049E+02  0.50400001928E-02 0. -1.
    10030    2    1    2    0    0  0.00000000000E+00  0.00000000000E+00  0.22533508948E+04  0.23897365947E+04  0.79577053039E+03 0.  0.
        1    1    3    3  502    0  0.12620675708E+03 -0.28709553048E+03  0.18620278428E+04  0.18882530753E+04  0.50400001928E-02 0.  1.
       -1    1    3    3    0  502 -0.12620675708E+03  0.28709553048E+03  0.39132305200E+03  0.50148351938E+03  0.50400001928E-02 0. -1.
</event>
<event>
 5   0  0.2464780E-02  0.8270969E+03  0.7818609E-02  0.9521603E-01
        2   -1    0    0  501    0  0.00000000000E+00  0.00000000000E+00  0.75075974929E+03  0.75075974929E+03  0.25500000920E-02 0. -1.
       -2   -1    0    0    0  501  0.00000000000E+00  0.00000000000E+00 -0.22779898028E+03  0.22779898029E+03  0.25500000920E-02 0.  1.
    10030    2    1    2    0    0  0.00000000000E+00  0.00000000000E+00  0.52296076901E+03  0.97855872958E+03  0.82709686332E+03 0.  0.
        3    1    3    3  502    0  0.33940508348E+03  0.23386541428E+03  0.22164837903E+03  0.46799236833E+03  0.10100000352E+00 0. -1.
       -3    1    3    3    0  502 -0.33940508348E+03 -0.23386541428E+03  0.30131238998E+03  0.51056636125E+03  0.10100000352E+00 0.  1.
</event>
<event>
 5   0  0.1471290E-02  0.7421983E+03  0.7818609E-02  0.9647670E-01
        1   -1    0    0  501    0  0.00000000000E+00  0.00000000000E+00  0.25494905582E+03  0.25494905587E+03  0.50400001928E-02 0. -1.
       -1   -1    0    0    0  501  0.00000000000E+00  0.00000000000E+00 -0.54016503068E+03  0.54016503070E+03  0.50400001928E-02 0.  1.
    10030    2    1    2    0    0  0.00000000000E+00  0.00000000000E+00 -0.28521597485E+03  0.79511408658E+03  0.74219826082E+03 0.  0.
        2    1    3    3  502    0  0.28660282971E+02  0.36794710271E+03 -0.18421073816E+03  0.41248039744E+03  0.25500000920E-02 0.  1.
       -2    1    3    3    0  502 -0.28660282971E+02 -0.36794710271E+03 -0.10100523670E+03  0.38263368913E+03  0.25500000920E-02 0. -1.
</event>
<event>
 5   0  0.9919125E-03  0.7932990E+03  0.7818609E-02  0.9569768E-01
       -3   -1    0    0    0  501  0.00000000000E+00  0.00000000000E+00  0.11676811851E+03  0.11676816219E+03  0.10100000352E+00 0.  1.
        3   -1    0    0  501    0  0.00000000000E+00  0.00000000000E+00 -0.13473778098E+04  0.13473778136E+04  0.10100000352E+00 0. -1.
    10030    2    1    2    0    0  0.00000000000E+00  0.00000000000E+00 -0.12306096913E+04  0.14641459758E+04  0.79329895128E+03 0.  0.
        1    1    3    3  502    0  0.16461497268E+03  0.34337520472E+03 -0.82021423422E+03  0.90429862904E+03  0.50400001928E-02 0. -1.
       -1    1    3    3    0  502 -0.16461497268E+03 -0.34337520472E+03 -0.41039545709E+03  0.55984734676E+03  0.50400001928E-02 0.  1.
</event>
<event>
 5   0  0.1471290E-02  0.7972605E+03  0.7818609E-02  0.9563991E-01
        1   -1    0    0  501    0  0.00000000000E+00  0.00000000000E+00  0.52383367398E+03  0.52383367401E+03  0.50400001928E-02 0. -1.
       -1   -1    0    0    0  501  0.00000000000E+00  0.00000000000E+00 -0.30335212932E+03  0.30335212936E+03  0.50400001928E-02 0.  1.
    10030    2    1    2    0    0  0.00000000000E+00  0.00000000000E+00  0.22048154467E+03  0.82718580336E+03  0.79726046042E+03 0.  0.
        2    1    3    3  502    0 -0.16736518070E+03 -0.26636237994E+03  0.36426965211E+03  0.48130281592E+03  0.25500000920E-02 0. -1.
       -2    1    3    3    0  502  0.16736518070E+03  0.26636237994E+03 -0.14378810744E+03  0.34588298745E+03  0.25500000920E-02 0.  1.
</event>
<event>
 5   0  0.2454354E-02  0.8382738E+03  0.7818609E-02  0.9506212E-01
       -2   -1    0    0    0  501  0.00000000000E+00  0.00000000000E+00  0.78060198576E+03  0.78060198577E+03  0.25500000920E-02 0.  1.
        2   -1    0    0  501    0  0.00000000000E+00  0.00000000000E+00 -0.22505162031E+03  0.22505162032E+03  0.25500000920E-02 0. -1.
    10030    2    1    2    0    0  0.00000000000E+00  0.00000000000E+00  0.55555036546E+03  0.10056536061E+04  0.83827380186E+03 0.  0.
        5    1    3    3  502    0  0.62338443515E+02  0.38146410620E+03  0.83396086740E+02  0.39544651110E+03  0.46999998093E+01 0. -1.
       -5    1    3    3    0  502 -0.62338443515E+02 -0.38146410620E+03  0.47215427872E+03  0.61020709499E+03  0.46999998093E+01 0.  1.
</event>
<event>
 5   0  0.2422031E-02  0.7884556E+03  0.7818609E-02  0.9576879E-01
       -2   -1    0    0    0  501  0.00000000000E+00  0.00000000000E+00  0.11312339089E+03  0.11312339092E+03  0.25500000920E-02 0. -1.
        2   -1    0    0  501    0  0.00000000000E+00  0.00000000000E+00 -0.13738588336E+04  0.13738588336E+04  0.25500000920E-02 0.  1.
    10030    2    1    2    0    0  0.00000000000E+00  0.00000000000E+00 -0.12607354427E+04  0.14869822245E+04  0.78845562940E+03 0.  0.
        4    1    3    3  502    0  0.36620595282E+03 -0.13713269005E+03 -0.72469847119E+03  0.82346928395E+03  0.12699999809E+01 0.  1.
       -4    1    3    3    0  502 -0.36620595282E+03  0.13713269005E+03 -0.53603697151E+03  0.66351294056E+03  0.12699999809E+01 0. -1.
</event>
<event>
 5   0  0.1471290E-02  0.7956515E+03  0.7818609E-02  0.9566333E-01
        1   -1    0    0  501    0  0.00000000000E+00  0.00000000000E+00  0.72738163847E+03  0.72738163849E+03  0.50400001928E-02 0.  1.
       -1   -1    0    0    0  501  0.00000000000E+00  0.00000000000E+00 -0.21758224137E+03  0.21758224143E+03  0.50400001928E-02 0. -1.
    10030    2    1    2    0    0  0.00000000000E+00  0.00000000000E+00  0.50979939710E+03  0.94496387992E+03  0.79565149975E+03 0.  0.
        2    1    3    3  502    0 -0.26545766212E+03  0.15350366135E+03  0.55590588704E+03  0.63487203409E+03  0.25500000920E-02 0.  1.
       -2    1    3    3    0  502  0.26545766212E+03 -0.15350366135E+03 -0.46106489936E+02  0.31009184582E+03  0.25500000920E-02 0. -1.
</event>
<event>
 5   0  0.1523811E-02  0.7902772E+03  0.7818609E-02  0.9574198E-01
        1   -1    0    0  501    0  0.00000000000E+00  0.00000000000E+00  0.68461448721E+03  0.68461448722E+03  0.50400001928E-02 0.  1.
       -1   -1    0    0    0  501  0.00000000000E+00  0.00000000000E+00 -0.22806192565E+03  0.22806192571E+03  0.50400001928E-02 0. -1.
    10030    2    1    2    0    0  0.00000000000E+00  0.00000000000E+00  0.45655256155E+03  0.91267641293E+03  0.79027716230E+03 0.  0.
        1    1    3    3  502    0  0.32264871012E+03  0.48027878617E+01 -0.35100602859E+02  0.32458790683E+03  0.50400001928E-02 0. -1.
       -1    1    3    3    0  502 -0.32264871012E+03 -0.48027878617E+01  0.49165316441E+03  0.58808850611E+03  0.50400001928E-02 0.  1.
</event>
<event>
 5   0  0.1624094E-02  0.7567178E+03  0.7818609E-02  0.9624870E-01
        1   -1    0    0  501    0  0.00000000000E+00  0.00000000000E+00  0.35663435001E+03  0.35663435005E+03  0.50400001928E-02 0.  1.
       -1   -1    0    0    0  501  0.00000000000E+00  0.00000000000E+00 -0.40140685918E+03  0.40140685921E+03  0.50400001928E-02 0. -1.
    10030    2    1    2    0    0  0.00000000000E+00  0.00000000000E+00 -0.44772509168E+02  0.75804120926E+03  0.75671784527E+03 0.  0.
        3    1    3    3  502    0 -0.21332206769E+03 -0.13996044270E+03 -0.30226747855E+03  0.39555134796E+03  0.10100000352E+00 0. -1.
       -3    1    3    3    0  502  0.21332206769E+03  0.13996044270E+03  0.25749496938E+03  0.36248986130E+03  0.10100000352E+00 0.  1.
</event>
<event>
 5   0  0.2460312E-02  0.8237291E+03  0.7818609E-02  0.9526291E-01
       -2   -1    0    0    0  501  0.00000000000E+00  0.00000000000E+00  0.69486149045E+02  0.69486149092E+02  0.25500000920E-02 0. -1.
        2   -1    0    0  501    0  0.00000000000E+00  0.00000000000E+00 -0.24412408255E+04  0.24412408255E+04  0.25500000920E-02 0.  1.
    10030    2    1    2    0    0  0.00000000000E+00  0.00000000000E+00 -0.23717546764E+04  0.25107269746E+04  0.82372913974E+03 0.  0.
        2    1    3    3  502    0 -0.30874256134E+03 -0.17491171739E+03 -0.18231671645E+04  0.18573784181E+04  0.25500000920E-02 0.  1.
       -2    1    3    3    0  502  0.30874256134E+03  0.17491171739E+03 -0.54858751190E+03  0.65334855650E+03  0.25500000920E-02 0. -1.
</event>
<event>
 5   0  0.1523811E-02  0.7835645E+03  0.7818609E-02  0.9584116E-01
        1   -1    0    0  501    0  0.00000000000E+00  0.00000000000E+00  0.13560399771E+04  0.13560399771E+04  0.50400001928E-02 0.  1.
       -1   -1    0    0    0  501  0.00000000000E+00  0.00000000000E+00 -0.11319234491E+03  0.11319234502E+03  0.50400001928E-02 0. -1.
    10030    2    1    2    0    0  0.00000000000E+00  0.00000000000E+00  0.12428476322E+04  0.14692323222E+04  0.78356453439E+03 0.  0.
        1    1    3    3  502    0 -0.19226000975E+03  0.16551896784E+03  0.11812261868E+04  0.12081621350E+04  0.50400001928E-02 0.  1.
       -1    1    3    3    0  502  0.19226000975E+03 -0.16551896784E+03  0.61621445443E+02  0.26107018717E+03  0.50400001928E-02 0. -1.
</event>
<event>
 5   0  0.2454354E-02  0.8465001E+03  0.7818609E-02  0.9495047E-01
        2   -1    0    0  501    0  0.00000000000E+00  0.00000000000E+00  0.24035075852E+04  0.24035075852E+04  0.25500000920E-02 0. -1.
       -2   -1    0    0    0  501  0.00000000000E+00  0.00000000000E+00 -0.74532980532E+02  0.74532980576E+02  0.25500000920E-02 0.  1.
    10030    2    1    2    0    0  0.00000000000E+00  0.00000000000E+00  0.23289746047E+04  0.24780405658E+04  0.84650005106E+03 0.  0.
        5    1    3    3  502    0 -0.19540365724E+03 -0.52068185457E+02  0.22528519386E+04  0.22619145945E+04  0.46999998093E+01 0. -1.
       -5    1    3    3    0  502  0.19540365724E+03  0.52068185457E+02  0.76122666038E+02  0.21612597133E+03  0.46999998093E+01 0.  1.
</event>
<event>
 5   0  0.1523811E-02  0.7932681E+03  0.7818609E-02  0.9569813E-01
       -1   -1    0    0    0  501  0.00000000000E+00  0.00000000000E+00  0.14426170704E+03  0.14426170713E+03  0.50400001928E-02 0.  1.
        1   -1    0    0  501    0  0.00000000000E+00  0.00000000000E+00 -0.10905081858E+04  0.10905081859E+04  0.50400001928E-02 0. -1.
    10030    2    1    2    0    0  0.00000000000E+00  0.00000000000E+00 -0.94624647880E+03  0.12347698930E+04  0.79326810724E+03 0.  0.
        1    1    3    3  502    0  0.12713573480E+03  0.37081230733E+03 -0.56720583890E+03  0.68948366626E+03  0.50400001928E-02 0. -1.
       -1    1    3    3    0  502 -0.12713573480E+03 -0.37081230733E+03 -0.37904063990E+03  0.54528622672E+03  0.50400001928E-02 0.  1.
</event>
<event>
 5   0  0.2460312E-02  0.8170828E+03  0.7818609E-02  0.9535614E-01
        2   -1    0    0  501    0  0.00000000000E+00  0.00000000000E+00  0.30991518684E+03  0.30991518685E+03  0.25500000920E-02 0.  1.
       -2   -1    0    0    0  501  0.00000000000E+00  0.00000000000E+00 -0.53855402432E+03  0.53855402433E+03  0.25500000920E-02 0. -1.
    10030    2    1    2    0    0  0.00000000000E+00  0.00000000000E+00 -0.22863883748E+03  0.84846921118E+03  0.81708278914E+03 0.  0.
        2    1    3    3  502    0  0.86034352783E+02 -0.30068423967E+03  0.15863335929E+03  0.35068142884E+03  0.25500000920E-02 0.  1.
       -2    1    3    3    0  502 -0.86034352783E+02  0.30068423967E+03 -0.38727219677E+03  0.49778778234E+03  0.25500000920E-02 0. -1.
</event>
<event>
 5   0  0.9919125E-03  0.8005113E+03  0.7818609E-02  0.9559277E-01
        3   -1    0    0  501    0  0.00000000000E+00  0.00000000000E+00  0.39022967566E+03  0.39022968873E+03  0.10100000352E+00 0.  1.
       -3   -1    0    0    0  501  0.00000000000E+00  0.00000000000E+00 -0.41053921005E+03  0.41053922247E+03  0.10100000352E+00 0. -1.
    10030    2    1    2    0    0  0.00000000000E+00  0.00000000000E+00 -0.20309534386E+02  0.80076891120E+03  0.80051131907E+03 0.  0.
        2    1    3    3  502    0 -0.66958675094E+02  0.31024554833E+03  0.23378601867E+03  0.39419749740E+03  0.25500000920E-02 0.  1.
       -2    1    3    3    0  502  0.66958675094E+02 -0.31024554833E+03 -0.25409555306E+03  0.40657141380E+03  0.25500000920E-02 0. -1.
</event>
<event>
 5   0  0.2454354E-02  0.8016545E+03  0.7818609E-02  0.9557625E-01
       -2   -1    0    0    0  501  0.00000000000E+00  0.00000000000E+00  0.28929069433E+03  0.28929069434E+03  0.25500000920E-02 0.  1.
        2   -1    0    0  501    0  0.00000000000E+00  0.00000000000E+00 -0.55536698712E+03  0.55536698712E+03  0.25500000920E-02 0. -1.
    10030    2    1    2    0    0  0.00000000000E+00  0.00000000000E+00 -0.26607629279E+03  0.84465768147E+03  0.80165454235E+03 0.  0.
        5    1    3    3  502    0 -0.75225960541E+02 -0.28932413503E+03 -0.41432927248E+03  0.51093858367E+03  0.46999998093E+01 0. -1.
       -5    1    3    3    0  502  0.75225960541E+02  0.28932413503E+03  0.14825297969E+03  0.33371909780E+03  0.46999998093E+01 0.  1.
</event>
<event>
 5   0  0.1523811E-02  0.8809353E+03  0.7818609E-02  0.9449732E-01
       -1   -1    0    0    0  501  0.00000000000E+00  0.00000000000E+00  0.12950834659E+04  0.12950834659E+04  0.50400001928E-02 0. -1.
        1   -1    0    0  501    0  0.00000000000E+00  0.00000000000E+00 -0.14980638062E+03  0.14980638070E+03  0.50400001928E-02 0.  1.
    10030    2    1    2    0    0  0.00000000000E+00  0.00000000000E+00  0.11452770853E+04  0.14448898466E+04  0.88093533631E+03 0.  0.
        1    1    3    3  502    0  0.23114776986E+03 -0.20833517731E+03  0.10839396846E+04  0.11277225179E+04  0.50400001928E-02 0. -1.
       -1    1    3    3    0  502 -0.23114776986E+03  0.20833517731E+03  0.61337400673E+02  0.31716732865E+03  0.50400001928E-02 0.  1.
</event>
<event>
 5   0  0.1471290E-02  0.7613723E+03  0.7818609E-02  0.9617676E-01
        1   -1    0    0  501    0  0.00000000000E+00  0.00000000000E+00  0.33448141563E+03  0.33448141566E+03  0.50400001928E-02 0.  1.
       -1   -1    0    0    0  501  0.00000000000E+00  0.00000000000E+00 -0.43327352807E+03  0.43327352810E+03  0.50400001928E-02 0. -1.
    10030    2    1    2    0    0  0.00000000000E+00  0.00000000000E+00 -0.98792112445E+02  0.76775494376E+03  0.76137229539E+03 0.  0.
        2    1    3    3  502    0 -0.13412999787E+03 -0.35504412508E+03 -0.19571842242E+02  0.38003979278E+03  0.25500000920E-02 0.  1.
       -2    1    3    3    0  502  0.13412999787E+03  0.35504412508E+03 -0.79220270203E+02  0.38771515098E+03  0.25500000920E-02 0. -1.
</event>
<event>
 5   0  0.2464780E-02  0.8095314E+03  0.7818609E-02  0.9546322E-01
        2   -1    0    0  501    0  0.00000000000E+00  0.00000000000E+00  0.10801983138E+04  0.10801983138E+04  0.25500000920E-02 0.  1.
       -2   -1    0    0    0  501  0.00000000000E+00  0.00000000000E+00 -0.15167145704E+03  0.15167145706E+03  0.25500000920E-02 0. -1.
    10030    2    1    2    0    0  0.00000000000E+00  0.00000000000E+00  0.92852685676E+03  0.12318697709E+04  0.80953135125E+03 0.  0.
        3    1    3    3  502    0 -0.34209273961E+03 -0.21589053361E+03  0.48573390237E+03  0.63211834265E+03  0.10100000352E+00 0. -1.
       -3    1    3    3    0  502  0.34209273961E+03  0.21589053361E+03  0.44279295439E+03  0.59975142822E+03  0.10100000352E+00 0.  1.
</event>
<event>
 5   0  0.1624094E-02  0.7431790E+03  0.7818609E-02  0.9646113E-01
       -1   -1    0    0    0  501  0.00000000000E+00  0.00000000000E+00  0.11167277496E+04  0.11167277496E+04  0.50400001928E-02 0.  1.
        1   -1    0    0  501    0  0.00000000000E+00  0.00000000000E+00 -0.12364585289E+03  0.12364585299E+03  0.50400001928E-02 0. -1.
    10030    2    1    2    0    0  0.00000000000E+00  0.00000000000E+00  0.99308189673E+03  0.12403736026E+04  0.74317899625E+03 0.  0.
        3    1    3    3  502    0  0.36089472193E+02  0.11091001247E+03 -0.92303542322E+02  0.14873948700E+03  0.10100000352E+00 0. -1.
       -3    1    3    3    0  502 -0.36089472193E+02 -0.11091001247E+03  0.10853854391E+04  0.10916341156E+04  0.10100000352E+00 0.  1.
</event>
<event>
 5   0  0.2571778E-02  0.8085289E+03  0.7818609E-02  0.9547753E-01
        2   -1    0    0  501    0  0.00000000000E+00  0.00000000000E+00  0.38711266441E+03  0.38711266442E+03  0.25500000920E-02 0. -1.
       -2   -1    0    0    0  501  0.00000000000E+00  0.00000000000E+00 -0.42217613442E+03  0.42217613443E+03  0.25500000920E-02 0.  1.
    10030    2    1    2    0    0  0.00000000000E+00  0.00000000000E+00 -0.35063470016E+02  0.80928879885E+03  0.80852885725E+03 0.  0.
        1    1    3    3  502    0 -0.11031004722E+03 -0.38885699073E+03 -0.10337318526E+02  0.40433269215E+03  0.50400001928E-02 0.  1.
       -1    1    3    3    0  502  0.11031004722E+03  0.38885699073E+03 -0.24726151491E+02  0.40495610670E+03  0.50400001928E-02 0. -1.
</event>
<event>
 5   0  0.1523811E-02  0.8258746E+03  0.7818609E-02  0.9523302E-01
       -1   -1    0    0    0  501  0.00000000000E+00  0.00000000000E+00  0.15308710229E+03  0.15308710237E+03  0.50400001928E-02 0. -1.
        1   -1    0    0  501    0  0.00000000000E+00  0.00000000000E+00 -0.11138576060E+04  0.11138576060E+04  0.50400001928E-02 0.  1.
    10030    2    1    2    0    0  0.00000000000E+00  0.00000000000E+00 -0.96077050371E+03  0.12669447084E+04  0.82587464744E+03 0.  0.
        1    1    3    3  502    0 -0.33642795355E+03  0.22689357308E+03 -0.36302411022E+03  0.54447310866E+03  0.50400001928E-02 0. -1.
       -1    1    3    3    0  502  0.33642795355E+03 -0.22689357308E+03 -0.59774639349E+03  0.72247159971E+03  0.50400001928E-02 0.  1.
</event>
<event>
 5   0  0.2460312E-02  0.8002725E+03  0.7818609E-02  0.9559623E-01
        2   -1    0    0  501    0  0.00000000000E+00  0.00000000000E+00  0.82354380904E+03  0.82354380905E+03  0.25500000920E-02 0. -1.
       -2   -1    0    0    0  501  0.00000000000E+00  0.00000000000E+00 -0.19441470120E+03  0.19441470121E+03  0.25500000920E-02 0.  1.
    10030    2    1    2    0    0  0.00000000000E+00  0.00000000000E+00  0.62912910785E+03  0.10179585103E+04  0.80027251250E+03 0.  0.
        2    1    3    3  502    0  0.14910972310E+03  0.21712249210E+03  0.69772012241E+03  0.74578097007E+03  0.25500000920E-02 0. -1.
       -2    1    3    3    0  502 -0.14910972310E+03 -0.21712249210E+03 -0.68591014558E+02  0.27217754019E+03  0.25500000920E-02 0.  1.
</event>
<event>
 5   0  0.1624094E-02  0.7924015E+03  0.7818609E-02  0.9571081E-01
       -1   -1    0    0    0  501  0.00000000000E+00  0.00000000000E+00  0.17931475978E+03  0.17931475985E+03  0.50400001928E-02 0.  1.
        1   -1    0    0  501    0  0.00000000000E+00  0.00000000000E+00 -0.87541609432E+03  0.87541609433E+03  0.50400001928E-02 0. -1.
    10030    2    1    2    0    0  0.00000000000E+00  0.00000000000E+00 -0.69610133454E+03  0.10547308542E+04  0.79240148083E+03 0.  0.
        3    1    3    3  502    0  0.24040036451E+03 -0.30154988648E+03 -0.22714894566E+03  0.44757270137E+03  0.10100000352E+00 0.  1.
       -3    1    3    3    0  502 -0.24040036451E+03  0.30154988648E+03 -0.46895238888E+03  0.60715815281E+03  0.10100000352E+00 0. -1.
</event>
<event>
 5   0  0.2422031E-02  0.7989995E+03  0.7818609E-02  0.9561466E-01
        2   -1    0    0  501    0  0.00000000000E+00  0.00000000000E+00  0.43710780917E+03  0.43710780917E+03  0.25500000920E-02 0.  1.
       -2   -1    0    0    0  501  0.00000000000E+00  0.00000000000E+00 -0.36512745122E+03  0.36512745123E+03  0.25500000920E-02 0. -1.
    10030    2    1    2    0    0  0.00000000000E+00  0.00000000000E+00  0.71980357949E+02  0.80223526040E+03  0.79899952509E+03 0.  0.
        4    1    3    3  502    0 -0.21405735150E+03  0.29350910369E+03 -0.13090663821E+03  0.38614285505E+03  0.12699999809E+01 0. -1.
       -4    1    3    3    0  502  0.21405735150E+03 -0.29350910369E+03  0.20288699616E+03  0.41609240535E+03  0.12699999809E+01 0.  1.
</event>
<event>
 5   0  0.2571778E-02  0.7854948E+03  0.7818609E-02  0.9581253E-01
        2   -1    0    0  501    0  0.00000000000E+00  0.00000000000E+00  0.46874820057E+03  0.46874820058E+03  0.25500000920E-02 0. -1.
       -2   -1    0    0    0  501  0.00000000000E+00  0.00000000000E+00 -0.32906905865E+03  0.32906905866E+03  0.25500000920E-02 0.  1.
    10030    2    1    2    0    0  0.00000000000E+00  0.00000000000E+00  0.13967914192E+03  0.79781725924E+03  0.78549482268E+03 0.  0.
        1    1    3    3  502    0 -0.12555959157E+03  0.37182379000E+03  0.85322967673E+02  0.40161941024E+03  0.50400001928E-02 0.  1.
       -1    1    3    3    0  502  0.12555959157E+03 -0.37182379000E+03  0.54356174247E+02  0.39619784900E+03  0.50400001928E-02 0. -1.
</event>
<event>
 5   0  0.1624094E-02  0.8083469E+03  0.7818609E-02  0.9548013E-01
       -1   -1    0    0    0  501  0.00000000000E+00  0.00000000000E+00  0.43366129020E+03  0.43366129023E+03  0.50400001928E-02 0. -1.
        1   -1    0    0  501    0  0.00000000000E+00  0.00000000000E+00 -0.37669073425E+03  0.37669073429E+03  0.50400001928E-02 0.  1.
    10030    2    1    2    0    0  0.00000000000E+00  0.00000000000E+00  0.56970555949E+02  0.81035202452E+03  0.80834693010E+03 0.  0.
        3    1    3    3  502    0 -0.36550198013E+03 -0.57886309634E+02  0.19141120391E+03  0.41663026954E+03  0.10100000352E+00 0. -1.
       -3    1    3    3    0  502  0.36550198013E+03  0.57886309634E+02 -0.13444064796E+03  0.39372175498E+03  0.10100000352E+00 0.  1.
</event>
<event>
 5   0  0.1509629E-02  0.7827338E+03  0.7818609E-02  0.9585351E-01
        1   -1    0    0  501    0  0.00000000000E+00  0.00000000000E+00  0.90854383907E+03  0.90854383908E+03  0.50400001928E-02 0. -1.
       -1   -1    0    0    0  501  0.00000000000E+00  0.00000000000E+00 -0.16858632429E+03  0.16858632437E+03  0.50400001928E-02 0.  1.
    10030    2    1    2    0    0  0.00000000000E+00  0.00000000000E+00  0.73995751478E+03  0.10771301634E+04  0.78273384067E+03 0.  0.
        5    1    3    3  502    0  0.16210374532E+03  0.23914538907E+03  0.73322522632E+03  0.78810498277E+03  0.46999998093E+01 0. -1.
       -5    1    3    3    0  502 -0.16210374532E+03 -0.23914538907E+03  0.67322884596E+01  0.28902518068E+03  0.46999998093E+01 0.  1.
</event>
<event>
 5   0  0.1624094E-02  0.7880553E+03  0.7818609E-02  0.9577469E-01
        1   -1    0    0  501    0  0.00000000000E+00  0.00000000000E+00  0.90214279797E+03  0.90214279798E+03  0.50400001928E-02 0. -1.
       -1   -1    0    0    0  501  0.00000000000E+00  0.00000000000E+00 -0.17209891249E+03  0.17209891256E+03  0.50400001928E-02 0.  1.
    10030    2    1    2    0    0  0.00000000000E+00  0.00000000000E+00  0.73004388548E+03  0.10742417105E+04  0.78805531401E+03 0.  0.
        3    1    3    3  502    0  0.72729663263E+02  0.35525072881E+03  0.15487884370E+03  0.39430971414E+03  0.10100000352E+00 0.  1.
       -3    1    3    3    0  502 -0.72729663263E+02 -0.35525072881E+03  0.57516504178E+03  0.67993199640E+03  0.10100000352E+00 0. -1.
</event>
<event>
 5   0  0.1509629E-02  0.7978382E+03  0.7818609E-02  0.9563151E-01
       -1   -1    0    0    0  501  0.00000000000E+00  0.00000000000E+00  0.83991740425E+03  0.83991740427E+03  0.50400001928E-02 0.  1.
        1   -1    0    0  501    0  0.00000000000E+00  0.00000000000E+00 -0.18946680508E+03  0.18946680515E+03  0.50400001928E-02 0. -1.
    10030    2    1    2    0    0  0.00000000000E+00  0.00000000000E+00  0.65045059917E+03  0.10293842094E+04  0.79783824716E+03 0.  0.
        5    1    3    3  502    0  0.18150557285E+03  0.24974581109E+03 -0.65884776212E+00  0.30877138340E+03  0.46999998093E+01 0. -1.
       -5    1    3    3    0  502 -0.18150557285E+03 -0.24974581109E+03  0.65110944693E+03  0.72061282601E+03  0.46999998093E+01 0.  1.
</event>
<event>
 5   0  0.2460312E-02  0.8081674E+03  0.7818609E-02  0.9548270E-01
        2   -1    0    0  501    0  0.00000000000E+00  0.00000000000E+00  0.68290935487E+03  0.68290935488E+03  0.25500000920E-02 0.  1.
       -2   -1    0    0    0  501  0.00000000000E+00  0.00000000000E+00 -0.23910003563E+03  0.23910003565E+03  0.25500000920E-02 0. -1.
    10030    2    1    2    0    0  0.00000000000E+00  0.00000000000E+00  0.44380931924E+03  0.92200939052E+03  0.80816743585E+03 0.  0.
        2    1    3    3  502    0  0.49903323350E+02 -0.80083091694E+02  0.67016418456E+03  0.67677446578E+03  0.25500000920E-02 0.  1.
       -2    1    3    3    0  502 -0.49903323350E+02  0.80083091694E+02 -0.22635486532E+03  0.24523492475E+03  0.25500000920E-02 0. -1.
</event>
<event>
 5   0  0.1523811E-02  0.8086583E+03  0.7818609E-02  0.9547568E-01
        1   -1    0    0  501    0  0.00000000000E+00  0.00000000000E+00  0.75679160257E+03  0.75679160259E+03  0.50400001928E-02 0.  1.
       -1   -1    0    0    0  501  0.00000000000E+00  0.00000000000E+00 -0.21601991974E+03  0.21601991980E+03  0.50400001928E-02 0. -1.
    10030    2    1    2    0    0  0.00000000000E+00  0.00000000000E+00  0.54077168283E+03  0.97281152238E+03  0.80865829937E+03 0.  0.
        1    1    3    3  502    0 -0.32315061484E+03  0.16517123196E+03  0.55948206851E+02  0.36720301962E+03  0.50400001928E-02 0. -1.
       -1    1    3    3    0  502  0.32315061484E+03 -0.16517123196E+03  0.48482347598E+03  0.60560850277E+03  0.50400001928E-02 0.  1.
</event>
<event>
 5   0  0.2571778E-02  0.7897785E+03  0.7818609E-02  0.9574931E-01
       -2   -1    0    0    0  501  0.00000000000E+00  0.00000000000E+00  0.16247528815E+03  0.16247528817E+03  0.25500000920E-02 0.  1.
        2   -1    0    0  501    0  0.00000000000E+00  0.00000000000E+00 -0.95976136481E+03  0.95976136482E+03  0.25500000920E-02 0. -1.
    10030    2    1    2    0    0  0.00000000000E+00  0.00000000000E+00 -0.79728607666E+03  0.11222366530E+04  0.78977846087E+03 0.  0.
        1    1    3    3  502    0 -0.30855845290E+03 -0.24641103985E+03 -0.40330948920E+03  0.56443357760E+03  0.50400001928E-02 0. -1.
       -1    1    3    3    0  502  0.30855845290E+03  0.24641103985E+03 -0.39397658747E+03  0.55780307539E+03  0.50400001928E-02 0.  1.
</event>
<event>
 5   0  0.2422031E-02  0.8387600E+03  0.7818609E-02  0.9505548E-01
       -2   -1    0    0    0  501  0.00000000000E+00  0.00000000000E+00  0.10681276957E+03  0.10681276960E+03  0.25500000920E-02 0.  1.
        2   -1    0    0  501    0  0.00000000000E+00  0.00000000000E+00 -0.16466156113E+04  0.16466156113E+04  0.25500000920E-02 0. -1.
    10030    2    1    2    0    0  0.00000000000E+00  0.00000000000E+00 -0.15398028417E+04  0.17534283809E+04  0.83875997494E+03 0.  0.
        4    1    3    3  502    0 -0.27641514694E+03  0.28244365210E+03 -0.47649897808E+03  0.61905786408E+03  0.12699999809E+01 0.  1.
       -4    1    3    3    0  502  0.27641514694E+03 -0.28244365210E+03 -0.10633038636E+04  0.11343705168E+04  0.12699999809E+01 0. -1.
</event>
<event>
 5   0  0.1624094E-02  0.7840363E+03  0.7818609E-02  0.9583416E-01
        1   -1    0    0  501    0  0.00000000000E+00  0.00000000000E+00  0.78092883568E+03  0.78092883570E+03  0.50400001928E-02 0.  1.
       -1   -1    0    0    0  501  0.00000000000E+00  0.00000000000E+00 -0.19678901549E+03  0.19678901556E+03  0.50400001928E-02 0. -1.
    10030    2    1    2    0    0  0.00000000000E+00  0.00000000000E+00  0.58413982019E+03  0.97771785126E+03  0.78403626647E+03 0.  0.
        3    1    3    3  502    0  0.25914195219E+02  0.65273283630E+02  0.77302012981E+03  0.77620376085E+03  0.10100000352E+00 0.  1.
       -3    1    3    3    0  502 -0.25914195219E+02 -0.65273283630E+02 -0.18888030962E+03  0.20151409041E+03  0.10100000352E+00 0. -1.
</event>
<event>
 5   0  0.2464780E-02  0.8097577E+03  0.7818609E-02  0.9546000E-01
       -2   -1    0    0    0  501  0.00000000000E+00  0.00000000000E+00  0.65604318263E+03  0.65604318263E+03  0.25500000920E-02 0. -1.
        2   -1    0    0  501    0  0.00000000000E+00  0.00000000000E+00 -0.24987212147E+03  0.24987212148E+03  0.25500000920E-02 0.  1.
    10030    2    1    2    0    0  0.00000000000E+00  0.00000000000E+00  0.40617106116E+03  0.90591530412E+03  0.80975774606E+03 0.  0.
        3    1    3    3  502    0 -0.29023461094E+03  0.22605094086E+03  0.39225573606E+03  0.53777293529E+03  0.10100000352E+00 0. -1.
       -3    1    3    3    0  502  0.29023461094E+03 -0.22605094086E+03  0.13915325101E+02  0.36814236883E+03  0.10100000352E+00 0.  1.
</event>
<event>
 5   0  0.2464780E-02  0.8090521E+03  0.7818609E-02  0.9547006E-01
       -2   -1    0    0    0  501  0.00000000000E+00  0.00000000000E+00  0.10297225663E+03  0.10297225666E+03  0.25500000920E-02 0. -1.
        2   -1    0    0  501    0  0.00000000000E+00  0.00000000000E+00 -0.15891788980E+04  0.15891788980E+04  0.25500000920E-02 0.  1.
    10030    2    1    2    0    0  0.00000000000E+00  0.00000000000E+00 -0.14862066414E+04  0.16921511547E+04  0.80905213019E+03 0.  0.
        3    1    3    3  502    0 -0.56085942673E+02  0.23023001184E+03 -0.57384059252E+02  0.24381228799E+03  0.10100000352E+00 0. -1.
       -3    1    3    3    0  502  0.56085942673E+02 -0.23023001184E+03 -0.14288225821E+04  0.14483388667E+04  0.10100000352E+00 0.  1.
</event>
<event>
 5   0  0.1471290E-02  0.8368805E+03  0.7818609E-02  0.9508117E-01
       -1   -1    0    0    0  501  0.00000000000E+00  0.00000000000E+00  0.36522360065E+03  0.36522360069E+03  0.50400001928E-02 0.  1.
        1   -1    0    0  501    0  0.00000000000E+00  0.00000000000E+00 -0.47941110139E+03  0.47941110142E+03  0.50400001928E-02 0. -1.
    10030    2    1    2    0    0  0.00000000000E+00  0.00000000000E+00 -0.11418750074E+03  0.84463470211E+03  0.83688051398E+03 0.  0.
        2    1    3    3  502    0 -0.41128247841E+03  0.41080765513E+02 -0.12290020644E+03  0.43121382989E+03  0.25500000920E-02 0. -1.
       -2    1    3    3    0  502  0.41128247841E+03 -0.41080765513E+02  0.87127056952E+01  0.41342087222E+03  0.25500000920E-02 0.  1.
</event>
<event>
 5   0  0.1509629E-02  0.7525536E+03  0.7818609E-02  0.9631353E-01
        1   -1    0    0  501    0  0.00000000000E+00  0.00000000000E+00  0.37300466390E+03  0.37300466394E+03  0.50400001928E-02 0.  1.
       -1   -1    0    0    0  501  0.00000000000E+00  0.00000000000E+00 -0.37957765794E+03  0.37957765798E+03  0.50400001928E-02 0. -1.
    10030    2    1    2    0    0  0.00000000000E+00  0.00000000000E+00 -0.65729940415E+01  0.75258232191E+03  0.75255361736E+03 0.  0.
        5    1    3    3  502    0 -0.29576661585E+03  0.73891363918E+02  0.21723114729E+03  0.37436517742E+03  0.46999998093E+01 0.  1.
       -5    1    3    3    0  502  0.29576661585E+03 -0.73891363918E+02 -0.22380414133E+03  0.37821714449E+03  0.46999998093E+01 0. -1.
</event>
<event>
 5   0  0.1523811E-02  0.8014877E+03  0.7818609E-02  0.9557866E-01
        1   -1    0    0  501    0  0.00000000000E+00  0.00000000000E+00  0.90984484501E+03  0.90984484502E+03  0.50400001928E-02 0. -1.
       -1   -1    0    0    0  501  0.00000000000E+00  0.00000000000E+00 -0.17650879774E+03  0.17650879781E+03  0.50400001928E-02 0.  1.
    10030    2    1    2    0    0  0.00000000000E+00  0.00000000000E+00  0.73333604727E+03  0.10863536428E+04  0.80148766621E+03 0.  0.
        1    1    3    3  502    0 -0.33082114848E+03  0.38383040811E+02  0.64558794098E+02  0.33923992693E+03  0.50400001928E-02 0.  1.
       -1    1    3    3    0  502  0.33082114848E+03 -0.38383040811E+02  0.66877725317E+03  0.74711371590E+03  0.50400001928E-02 0. -1.
</event>
<event>
 5   0  0.2454354E-02  0.8066475E+03  0.7818609E-02  0.9550445E-01
        2   -1    0    0  501    0  0.00000000000E+00  0.00000000000E+00  0.80466457361E+03  0.80466457362E+03  0.25500000920E-02 0.  1.
       -2   -1    0    0    0  501  0.00000000000E+00  0.00000000000E+00 -0.20215885325E+03  0.20215885327E+03  0.25500000920E-02 0. -1.
    10030    2    1    2    0    0  0.00000000000E+00  0.00000000000E+00  0.60250572036E+03  0.10068234269E+04  0.80664754996E+03 0.  0.
        5    1    3    3  502    0  0.17232584217E+03 -0.13858699953E+02 -0.15352849745E+03  0.23126034890E+03  0.46999998093E+01 0. -1.
       -5    1    3    3    0  502 -0.17232584217E+03  0.13858699953E+02  0.75603421781E+03  0.77556307799E+03  0.46999998093E+01 0.  1.
</event>
<event>
 5   0  0.2464780E-02  0.7749649E+03  0.7818609E-02  0.9596978E-01
        2   -1    0    0  501    0  0.00000000000E+00  0.00000000000E+00  0.25018447190E+04  0.25018447190E+04  0.25500000920E-02 0.  1.
       -2   -1    0    0    0  501  0.00000000000E+00  0.00000000000E+00 -0.60012775952E+02  0.60012776006E+02  0.25500000920E-02 0. -1.
    10030    2    1    2    0    0  0.00000000000E+00  0.00000000000E+00  0.24418319431E+04  0.25618574950E+04  0.77496489381E+03 0.  0.
        3    1    3    3  502    0 -0.10792549209E+03 -0.70964185858E+02  0.24285811976E+04  0.24320136659E+04  0.10100000352E+00 0.  1.
       -3    1    3    3    0  502  0.10792549209E+03  0.70964185858E+02  0.13250745502E+02  0.12984382917E+03  0.10100000352E+00 0. -1.
</event>
<event>
 5   0  0.2422031E-02  0.8197289E+03  0.7818609E-02  0.9531891E-01
       -2   -1    0    0    0  501  0.00000000000E+00  0.00000000000E+00  0.11172177891E+03  0.11172177894E+03  0.25500000920E-02 0. -1.
        2   -1    0    0  501    0  0.00000000000E+00  0.00000000000E+00 -0.15036359328E+04  0.15036359328E+04  0.25500000920E-02 0.  1.
    10030    2    1    2    0    0  0.00000000000E+00  0.00000000000E+00 -0.13919141539E+04  0.16153577117E+04  0.81972893388E+03 0.  0.
        4    1    3    3  502    0 -0.28218160846E+03 -0.14091041866E+03 -0.18018268350E+03  0.36324870072E+03  0.12699999809E+01 0.  1.
       -4    1    3    3    0  502  0.28218160846E+03  0.14091041866E+03 -0.12117314703E+04  0.12521090110E+04  0.12699999809E+01 0. -1.
</event>
<event>
 5   0  0.2464780E-02  0.8061959E+03  0.7818609E-02  0.9551092E-01
        2   -1    0    0  501    0  0.00000000000E+00  0.00000000000E+00  0.97365261253E+03  0.97365261253E+03  0.25500000920E-02 0. -1.
       -2   -1    0    0    0  501  0.00000000000E+00  0.00000000000E+00 -0.16688492600E+03  0.16688492602E+03  0.25500000920E-02 0.  1.
    10030    2    1    2    0    0  0.00000000000E+00  0.00000000000E+00  0.80676768653E+03  0.11405375386E+04  0.80619586754E+03 0.  0.
        3    1    3    3  502    0 -0.14907525839E+03  0.37428440186E+03  0.42213551096E+03  0.58353290049E+03  0.10100000352E+00 0.  1.
       -3    1    3    3    0  502  0.14907525839E+03 -0.37428440186E+03  0.38463217557E+03  0.55700463807E+03  0.10100000352E+00 0. -1.
</event>
<event>
 5   0  0.1509629E-02  0.8189450E+03  0.7818609E-02  0.9532993E-01
       -1   -1    0    0    0  501  0.00000000000E+00  0.00000000000E+00  0.11125349324E+04  0.11125349324E+04  0.50400001928E-02 0. -1.
        1   -1    0    0  501    0  0.00000000000E+00  0.00000000000E+00 -0.15070784009E+03  0.15070784018E+03  0.50400001928E-02 0.  1.
    10030    2    1    2    0    0  0.00000000000E+00  0.00000000000E+00  0.96182709232E+03  0.12632427726E+04  0.81894502074E+03 0.  0.
        5    1    3    3  502    0  0.23642882357E+03 -0.19571978538E+03  0.89893718867E+03  0.94990261720E+03  0.46999998093E+01 0. -1.
       -5    1    3    3    0  502 -0.23642882357E+03  0.19571978538E+03  0.62889903656E+02  0.31334015540E+03  0.46999998093E+01 0.  1.
</event>
<event>
 5   0  0.1498375E-02  0.7976533E+03  0.7818609E-02  0.9563420E-01
        1   -1    0    0  501    0  0.00000000000E+00  0.00000000000E+00  0.17528557356E+03  0.17528557363E+03  0.50400001928E-02 0. -1.
       -1   -1    0    0    0  501  0.00000000000E+00  0.00000000000E+00 -0.90744893492E+03  0.90744893494E+03  0.50400001928E-02 0.  1.
    10030    2    1    2    0    0  0.00000000000E+00  0.00000000000E+00 -0.73216336137E+03  0.10827345086E+04  0.79765332590E+03 0.  0.
        4    1    3    3  502    0 -0.18023102322E+03  0.14167754106E+03  0.76907892072E+02  0.24181022338E+03  0.12699999809E+01 0. -1.
       -4    1    3    3    0  502  0.18023102322E+03 -0.14167754106E+03 -0.80907125344E+03  0.84092428518E+03  0.12699999809E+01 0.  1.
</event>
<event>
 5   0  0.1509629E-02  0.8054108E+03  0.7818609E-02  0.9552218E-01
        1   -1    0    0  501    0  0.00000000000E+00  0.00000000000E+00  0.13280726692E+04  0.13280726693E+04  0.50400001928E-02 0. -1.
       -1   -1    0    0    0  501  0.00000000000E+00  0.00000000000E+00 -0.12211050256E+03  0.12211050266E+03  0.50400001928E-02 0.  1.
    10030    2    1    2    0    0  0.00000000000E+00  0.00000000000E+00  0.12059621667E+04  0.14501831719E+04  0.80541075522E+03 0.  0.
        5    1    3    3  502    0  0.24552342232E+03  0.31912158466E+03  0.59325236489E+03  0.71700125185E+03  0.46999998093E+01 0. -1.
       -5    1    3    3    0  502 -0.24552342232E+03 -0.31912158466E+03  0.61270980179E+03  0.73318192007E+03  0.46999998093E+01 0.  1.
</event>
<event>
 5   0  0.1498375E-02  0.8042390E+03  0.7818609E-02  0.9553901E-01
       -1   -1    0    0    0  501  0.00000000000E+00  0.00000000000E+00  0.42181051663E+03  0.42181051666E+03  0.50400001928E-02 0. -1.
        1   -1    0    0  501    0  0.00000000000E+00  0.00000000000E+00 -0.38334774403E+03  0.38334774407E+03  0.50400001928E-02 0.  1.
    10030    2    1    2    0    0  0.00000000000E+00  0.00000000000E+00  0.38462772598E+02  0.80515826073E+03  0.80423904403E+03 0.  0.
        4    1    3    3  502    0  0.72103026515E+02 -0.92952056710E+02  0.40419600213E+03  0.42096906337E+03  0.12699999809E+01 0. -1.
       -4    1    3    3    0  502 -0.72103026515E+02  0.92952056710E+02 -0.36573322953E+03  0.38418919735E+03  0.12699999809E+01 0.  1.
</event>
<event>
 5   0  0.2464780E-02  0.7946204E+03  0.7818609E-02  0.9567837E-01
        2   -1    0    0  501    0  0.00000000000E+00  0.00000000000E+00  0.10597508525E+04  0.10597508525E+04  0.25500000920E-02 0. -1.
       -2   -1    0    0    0  501  0.00000000000E+00  0.00000000000E+00 -0.14895520667E+03  0.14895520669E+03  0.25500000920E-02 0.  1.
    10030    2    1    2    0    0  0.00000000000E+00  0.00000000000E+00  0.91079564587E+03  0.12087060592E+04  0.79462043084E+03 0.  0.
        3    1    3    3  502    0 -0.49410820580E+02  0.32671444674E+03  0.11981559428E+03  0.35148192803E+03  0.10100000352E+00 0.  1.
       -3    1    3    3    0  502  0.49410820580E+02 -0.32671444674E+03  0.79098005159E+03  0.85722413121E+03  0.10100000352E+00 0. -1.
</event>
<event>
 5   0  0.1624094E-02  0.7734980E+03  0.7818609E-02  0.9599190E-01
        1   -1    0    0  501    0  0.00000000000E+00  0.00000000000E+00  0.12050241235E+03  0.12050241245E+03  0.50400001928E-02 0. -1.
       -1   -1    0    0    0  501  0.00000000000E+00  0.00000000000E+00 -0.12412596675E+04  0.12412596675E+04  0.50400001928E-02 0.  1.
    10030    2    1    2    0    0  0.00000000000E+00  0.00000000000E+00 -0.11207572551E+04  0.13617620799E+04  0.77349798800E+03 0.  0.
        3    1    3    3  502    0  0.21147885014E+03 -0.25686091249E+03 -0.21326526089E+03  0.39519984075E+03  0.10100000352E+00 0. -1.
       -3    1    3    3    0  502 -0.21147885014E+03  0.25686091249E+03 -0.90749199424E+03  0.96656223919E+03  0.10100000352E+00 0.  1.
</event>
<event>
 5   0  0.2454354E-02  0.8173446E+03  0.7818609E-02  0.9535245E-01
       -2   -1    0    0    0  501  0.00000000000E+00  0.00000000000E+00  0.24461265766E+03  0.24461265767E+03  0.25500000920E-02 0. -1.
        2   -1    0    0  501    0  0.00000000000E+00  0.00000000000E+00 -0.68276528247E+03  0.68276528247E+03  0.25500000920E-02 0.  1.
    10030    2    1    2    0    0  0.00000000000E+00  0.00000000000E+00 -0.43815262481E+03  0.92737794014E+03  0.81734455478E+03 0.  0.
        5    1    3    3  502    0 -0.84816472150E+01  0.26691430244E+03  0.13187958219E+03  0.29787496938E+03  0.46999998093E+01 0. -1.
       -5    1    3    3    0  502  0.84816472150E+01 -0.26691430244E+03 -0.57003220700E+03  0.62950297076E+03  0.46999998093E+01 0.  1.
</event>
<event>
 5   0  0.2464780E-02  0.7955271E+03  0.7818609E-02  0.9566514E-01
        2   -1    0    0  501    0  0.00000000000E+00  0.00000000000E+00  0.45599366814E+03  0.45599366815E+03  0.25500000920E-02 0.  1.
       -2   -1    0    0    0  501  0.00000000000E+00  0.00000000000E+00 -0.34696934513E+03  0.34696934514E+03  0.25500000920E-02 0. -1.
    10030    2    1    2    0    0  0.00000000000E+00  0.00000000000E+00  0.10902432301E+03  0.80296301330E+03  0.79552705656E+03 0.  0.
        3    1    3    3  502    0 -0.32062049266E+03 -0.99260519387E+02 -0.16094425576E+03  0.37222736961E+03  0.10100000352E+00 0. -1.
       -3    1    3    3    0  502  0.32062049266E+03  0.99260519387E+02  0.26996857877E+03  0.43073564369E+03  0.10100000352E+00 0.  1.
</event>
<event>
 5   0  0.1624094E-02  0.8070235E+03  0.7818609E-02  0.9549906E-01
        1   -1    0    0  501    0  0.00000000000E+00  0.00000000000E+00  0.22046667284E+03  0.22046667290E+03  0.50400001928E-02 0. -1.
       -1   -1    0    0    0  501  0.00000000000E+00  0.00000000000E+00 -0.73853209405E+03  0.73853209407E+03  0.50400001928E-02 0.  1.
    10030    2    1    2    0    0  0.00000000000E+00  0.00000000000E+00 -0.51806542121E+03  0.95899876697E+03  0.80702345344E+03 0.  0.
        3    1    3    3  502    0  0.21189694229E+03  0.13843977695E+03  0.11440075627E+03  0.27776506122E+03  0.10100000352E+00 0. -1.
       -3    1    3    3    0  502 -0.21189694229E+03 -0.13843977695E+03 -0.63246617749E+03  0.68123370576E+03  0.10100000352E+00 0.  1.
</event>
<event>
 5   0  0.2422031E-02  0.8079084E+03  0.7818609E-02  0.9548640E-01
       -2   -1    0    0    0  501  0.00000000000E+00  0.00000000000E+00  0.41087516852E+03  0.41087516853E+03  0.25500000920E-02 0. -1.
        2   -1    0    0  501    0  0.00000000000E+00  0.00000000000E+00 -0.39714977358E+03  0.39714977359E+03  0.25500000920E-02 0.  1.
    10030    2    1    2    0    0  0.00000000000E+00  0.00000000000E+00  0.13725394942E+02  0.80802494211E+03  0.80790836152E+03 0.  0.
        4    1    3    3  502    0 -0.27287463338E+03  0.25416072609E+03  0.16218844636E+03  0.40665088868E+03  0.12699999809E+01 0. -1.
       -4    1    3    3    0  502  0.27287463338E+03 -0.25416072609E+03 -0.14846305142E+03  0.40137405343E+03  0.12699999809E+01 0.  1.
</event>
<event>
 5   0  0.2454354E-02  0.8262830E+03  0.7818609E-02  0.9522734E-01
       -2   -1    0    0    0  501  0.00000000000E+00  0.00000000000E+00  0.80728076641E+03  0.80728076642E+03  0.25500000920E-02 0. -1.
        2   -1    0    0  501    0  0.00000000000E+00  0.00000000000E+00 -0.21143313980E+03  0.21143313982E+03  0.25500000920E-02 0.  1.
    10030    2    1    2    0    0  0.00000000000E+00  0.00000000000E+00  0.59584762661E+03  0.10187139062E+04  0.82628301968E+03 0.  0.
        5    1    3    3  502    0  0.30488862141E+03  0.27460139244E+03  0.23878606027E+03  0.47476717322E+03  0.46999998093E+01 0.  1.
       -5    1    3    3    0  502 -0.30488862141E+03 -0.27460139244E+03  0.35706156634E+03  0.54394673301E+03  0.46999998093E+01 0. -1.
</event>
<event>
 5   0  0.1471290E-02  0.7154332E+03  0.7818609E-02  0.9691197E-01
       -1   -1    0    0    0  501  0.00000000000E+00  0.00000000000E+00  0.83541636385E+03  0.83541636387E+03  0.50400001928E-02 0.  1.
        1   -1    0    0  501    0  0.00000000000E+00  0.00000000000E+00 -0.15317054962E+03  0.15317054970E+03  0.50400001928E-02 0. -1.
    10030    2    1    2    0    0  0.00000000000E+00  0.00000000000E+00  0.68224581423E+03  0.98858691357E+03  0.71543324961E+03 0.  0.
        2    1    3    3  502    0  0.22562057181E+03 -0.16794244682E+03  0.64653509153E+03  0.70506519731E+03  0.25500000920E-02 0.  1.
       -2    1    3    3    0  502 -0.22562057181E+03  0.16794244682E+03  0.35710722698E+02  0.28352171626E+03  0.25500000920E-02 0. -1.
</event>
<event>
 5   0  0.1498375E-02  0.8032580E+03  0.7818609E-02  0.9555313E-01
       -1   -1    0    0    0  501  0.00000000000E+00  0.00000000000E+00  0.38687435918E+03  0.38687435922E+03  0.50400001928E-02 0.  1.
        1   -1    0    0  501    0  0.00000000000E+00  0.00000000000E+00 -0.41694632854E+03  0.41694632857E+03  0.50400001928E-02 0. -1.
    10030    2    1    2    0    0  0.00000000000E+00  0.00000000000E+00 -0.30071969352E+02  0.80382068778E+03  0.80325797523E+03 0.  0.
        4    1    3    3  502    0 -0.14969570519E+03  0.23028372519E+03 -0.30826827793E+03  0.41288054243E+03  0.12699999809E+01 0. -1.
       -4    1    3    3    0  502  0.14969570519E+03 -0.23028372519E+03  0.27819630858E+03  0.39094014535E+03  0.12699999809E+01 0.  1.
</event>
<event>
 5   0  0.1624094E-02  0.8026991E+03  0.7818609E-02  0.9556118E-01
       -1   -1    0    0    0  501  0.00000000000E+00  0.00000000000E+00  0.11973145437E+03  0.11973145447E+03  0.50400001928E-02 0.  1.
        1   -1    0    0  501    0  0.00000000000E+00  0.00000000000E+00 -0.13453562975E+04  0.13453562975E+04  0.50400001928E-02 0. -1.
    10030    2    1    2    0    0  0.00000000000E+00  0.00000000000E+00 -0.12256248431E+04  0.14650877519E+04  0.80269911229E+03 0.  0.
        3    1    3    3  502    0  0.77281901201E+02  0.31254165890E+03 -0.10502012552E+04  0.10984432017E+04  0.10100000352E+00 0. -1.
       -3    1    3    3    0  502 -0.77281901201E+02 -0.31254165890E+03 -0.17542358788E+03  0.36664455020E+03  0.10100000352E+00 0.  1.
</event>
<event>
 5   0  0.1509629E-02  0.8102641E+03  0.7818609E-02  0.9545278E-01
        1   -1    0    0  501    0  0.00000000000E+00  0.00000000000E+00  0.53990191532E+03  0.53990191535E+03  0.50400001928E-02 0. -1.
       -1   -1    0    0    0  501  0.00000000000E+00  0.00000000000E+00 -0.30400333106E+03  0.30400333110E+03  0.50400001928E-02 0.  1.
    10030    2    1    2    0    0  0.00000000000E+00  0.00000000000E+00  0.23589858426E+03  0.84390524645E+03  0.81026410690E+03 0.  0.
        5    1    3    3  502    0  0.76165157190E+02  0.10439355717E+03 -0.28193252424E+03  0.31017282952E+03  0.46999998093E+01 0.  1.
       -5    1    3    3    0  502 -0.76165157190E+02 -0.10439355717E+03  0.51783110850E+03  0.53373241693E+03  0.46999998093E+01 0. -1.
</event>
<event>
 5   0  0.2571778E-02  0.8075740E+03  0.7818609E-02  0.9549118E-01
        2   -1    0    0  501    0  0.00000000000E+00  0.00000000000E+00  0.14845910556E+04  0.14845910556E+04  0.25500000920E-02 0.  1.
       -2   -1    0    0    0  501  0.00000000000E+00  0.00000000000E+00 -0.10982413453E+03  0.10982413456E+03  0.25500000920E-02 0. -1.
    10030    2    1    2    0    0  0.00000000000E+00  0.00000000000E+00  0.13747669211E+04  0.15944151902E+04  0.80757396651E+03 0.  0.
        1    1    3    3  502    0 -0.35984796748E+03 -0.18155987072E+03  0.63945236553E+03  0.75587953680E+03  0.50400001928E-02 0. -1.
       -1    1    3    3    0  502  0.35984796748E+03  0.18155987072E+03  0.73531455555E+03  0.83853565338E+03  0.50400001928E-02 0.  1.
</event>
<event>
 5   0  0.1523811E-02  0.8039608E+03  0.7818609E-02  0.9554302E-01
       -1   -1    0    0    0  501  0.00000000000E+00  0.00000000000E+00  0.81942405837E+03  0.81942405839E+03  0.50400001928E-02 0.  1.
        1   -1    0    0  501    0  0.00000000000E+00  0.00000000000E+00 -0.19719735523E+03  0.19719735529E+03  0.50400001928E-02 0. -1.
    10030    2    1    2    0    0  0.00000000000E+00  0.00000000000E+00  0.62222670314E+03  0.10166214137E+04  0.80396083776E+03 0.  0.
        1    1    3    3  502    0 -0.20365828786E+03  0.28713304511E+03  0.65698913385E+02  0.35810393889E+03  0.50400001928E-02 0. -1.
       -1    1    3    3    0  502  0.20365828786E+03 -0.28713304511E+03  0.55652778976E+03  0.65851747479E+03  0.50400001928E-02 0.  1.
</event>
<event>
 5   0  0.2571778E-02  0.7927242E+03  0.7818609E-02  0.9570609E-01
       -2   -1    0    0    0  501  0.00000000000E+00  0.00000000000E+00  0.26800761963E+03  0.26800761964E+03  0.25500000920E-02 0. -1.
        2   -1    0    0  501    0  0.00000000000E+00  0.00000000000E+00 -0.58618828089E+03  0.58618828089E+03  0.25500000920E-02 0.  1.
    10030    2    1    2    0    0  0.00000000000E+00  0.00000000000E+00 -0.31818066126E+03  0.85419590053E+03  0.79272422903E+03 0.  0.
        1    1    3    3  502    0  0.31166777155E+03  0.24380835686E+03 -0.13443335693E+03  0.41791343862E+03  0.50400001928E-02 0.  1.
       -1    1    3    3    0  502 -0.31166777155E+03 -0.24380835686E+03 -0.18374730433E+03  0.43628246191E+03  0.50400001928E-02 0. -1.
</event>
<event>
 5   0  0.1624094E-02  0.7929584E+03  0.7818609E-02  0.9570266E-01
       -1   -1    0    0    0  501  0.00000000000E+00  0.00000000000E+00  0.21114362961E+03  0.21114362967E+03  0.50400001928E-02 0.  1.
        1   -1    0    0  501    0  0.00000000000E+00  0.00000000000E+00 -0.74449672061E+03  0.74449672063E+03  0.50400001928E-02 0. -1.
    10030    2    1    2    0    0  0.00000000000E+00  0.00000000000E+00 -0.53335309100E+03  0.95564035029E+03  0.79295835920E+03 0.  0.
        3    1    3    3  502    0 -0.64728301370E+02 -0.37763377225E+03 -0.14378164979E+03  0.40923122066E+03  0.10100000352E+00 0. -1.
       -3    1    3    3    0  502  0.64728301370E+02  0.37763377225E+03 -0.38957144121E+03  0.54640912964E+03  0.10100000352E+00 0.  1.
</event>
<event>
 5   0  0.1471290E-02  0.7970926E+03  0.7818609E-02  0.9564235E-01
        1   -1    0    0  501    0  0.00000000000E+00  0.00000000000E+00  0.10416589656E+03  0.10416589668E+03  0.50400001928E-02 0.  1.
       -1   -1    0    0    0  501  0.00000000000E+00  0.00000000000E+00 -0.15248672743E+04  0.15248672743E+04  0.50400001928E-02 0. -1.
    10030    2    1    2    0    0  0.00000000000E+00  0.00000000000E+00 -0.14207013777E+04  0.16290331710E+04  0.79709263419E+03 0.  0.
        2    1    3    3  502    0 -0.34776802501E+03  0.11794463797E+03 -0.39383393942E+03  0.53847814133E+03  0.25500000920E-02 0.  1.
       -2    1    3    3    0  502  0.34776802501E+03 -0.11794463797E+03 -0.10268674383E+04  0.10905550297E+04  0.25500000920E-02 0. -1.
</event>
<event>
 5   0  0.1509629E-02  0.8131049E+03  0.7818609E-02  0.9541240E-01
       -1   -1    0    0    0  501  0.00000000000E+00  0.00000000000E+00  0.22212701431E+03  0.22212701437E+03  0.50400001928E-02 0. -1.
        1   -1    0    0  501    0  0.00000000000E+00  0.00000000000E+00 -0.74410091549E+03  0.74410091550E+03  0.50400001928E-02 0.  1.
    10030    2    1    2    0    0  0.00000000000E+00  0.00000000000E+00 -0.52197390118E+03  0.96622792987E+03  0.81310494953E+03 0.  0.
        5    1    3    3  502    0 -0.11504873843E+03  0.26305572604E+03  0.81010091432E+02  0.29836094270E+03  0.46999998093E+01 0. -1.
       -5    1    3    3    0  502  0.11504873843E+03 -0.26305572604E+03 -0.60298399261E+03  0.66786698717E+03  0.46999998093E+01 0.  1.
</event>
<event>
 5   0  0.2454354E-02  0.7941076E+03  0.7818609E-02  0.9568586E-01
        2   -1    0    0  501    0  0.00000000000E+00  0.00000000000E+00  0.54463019198E+03  0.54463019199E+03  0.25500000920E-02 0.  1.
       -2   -1    0    0    0  501  0.00000000000E+00  0.00000000000E+00 -0.28946559658E+03  0.28946559659E+03  0.25500000920E-02 0. -1.
    10030    2    1    2    0    0  0.00000000000E+00  0.00000000000E+00  0.25516459540E+03  0.83409578858E+03  0.79410755807E+03 0.  0.
        5    1    3    3  502    0  0.29224270403E+03  0.26596460215E+03  0.16808092956E+03  0.42943713921E+03  0.46999998093E+01 0. -1.
       -5    1    3    3    0  502 -0.29224270403E+03 -0.26596460215E+03  0.87083665843E+02  0.40465864937E+03  0.46999998093E+01 0.  1.
</event>
<event>
 5   0  0.2454354E-02  0.7845666E+03  0.7818609E-02  0.9582629E-01
       -2   -1    0    0    0  501  0.00000000000E+00  0.00000000000E+00  0.49316507928E+03  0.49316507928E+03  0.25500000920E-02 0.  1.
        2   -1    0    0  501    0  0.00000000000E+00  0.00000000000E+00 -0.31203791537E+03  0.31203791538E+03  0.25500000920E-02 0. -1.
    10030    2    1    2    0    0  0.00000000000E+00  0.00000000000E+00  0.18112716391E+03  0.80520299466E+03  0.78456664032E+03 0.  0.
        5    1    3    3  502    0 -0.59846752304E+02 -0.10747537098E+03 -0.29170017357E+03  0.31661280832E+03  0.46999998093E+01 0. -1.
       -5    1    3    3    0  502  0.59846752304E+02  0.10747537098E+03  0.47282733748E+03  0.48859018635E+03  0.46999998093E+01 0.  1.
</event>
<event>
 5   0  0.2454354E-02  0.8045823E+03  0.7818609E-02  0.9553408E-01
       -2   -1    0    0    0  501  0.00000000000E+00  0.00000000000E+00  0.79069274219E+02  0.79069274260E+02  0.25500000920E-02 0. -1.
        2   -1    0    0  501    0  0.00000000000E+00  0.00000000000E+00 -0.20467897042E+04  0.20467897042E+04  0.25500000920E-02 0.  1.
    10030    2    1    2    0    0  0.00000000000E+00  0.00000000000E+00 -0.19677204299E+04  0.21258589784E+04  0.80458231756E+03 0.  0.
        5    1    3    3  502    0 -0.25797949865E+02  0.27514923946E+03 -0.21152942069E+03  0.34805089284E+03  0.46999998093E+01 0. -1.
       -5    1    3    3    0  502  0.25797949865E+02 -0.27514923946E+03 -0.17561910093E+04  0.17778080856E+04  0.46999998093E+01 0.  1.
</event>
<event>
 5   0  0.1498375E-02  0.7994573E+03  0.7818609E-02  0.9560803E-01
       -1   -1    0    0    0  501  0.00000000000E+00  0.00000000000E+00  0.15421464957E+03  0.15421464965E+03  0.50400001928E-02 0. -1.
        1   -1    0    0  501    0  0.00000000000E+00  0.00000000000E+00 -0.10361077700E+04  0.10361077700E+04  0.50400001928E-02 0.  1.
    10030    2    1    2    0    0  0.00000000000E+00  0.00000000000E+00 -0.88189312043E+03  0.11903224197E+04  0.79945730774E+03 0.  0.
        4    1    3    3  502    0 -0.13085992086E+03  0.36538870399E+03 -0.58335515833E+03  0.70066973500E+03  0.12699999809E+01 0. -1.
       -4    1    3    3    0  502  0.13085992086E+03 -0.36538870399E+03 -0.29853796210E+03  0.48965268467E+03  0.12699999809E+01 0.  1.
</event>
<event>
 5   0  0.2460312E-02  0.8025206E+03  0.7818609E-02  0.9556376E-01
       -2   -1    0    0    0  501  0.00000000000E+00  0.00000000000E+00  0.75736023724E+02  0.75736023767E+02  0.25500000920E-02 0. -1.
        2   -1    0    0  501    0  0.00000000000E+00  0.00000000000E+00 -0.21259345986E+04  0.21259345986E+04  0.25500000920E-02 0.  1.
    10030    2    1    2    0    0  0.00000000000E+00  0.00000000000E+00 -0.20501985748E+04  0.22016706223E+04  0.80252061217E+03 0.  0.
        2    1    3    3  502    0  0.10678802623E+03 -0.24695241594E+03 -0.18418013068E+04  0.18613493041E+04  0.25500000920E-02 0.  1.
       -2    1    3    3    0  502 -0.10678802623E+03  0.24695241594E+03 -0.20839726805E+03  0.34032131820E+03  0.25500000920E-02 0. -1.
</event>
<event>
 5   0  0.2464780E-02  0.7905574E+03  0.7818609E-02  0.9573786E-01
       -2   -1    0    0    0  501  0.00000000000E+00  0.00000000000E+00  0.37340908808E+03  0.37340908808E+03  0.25500000920E-02 0. -1.
        2   -1    0    0  501    0  0.00000000000E+00  0.00000000000E+00 -0.41842916726E+03  0.41842916727E+03  0.25500000920E-02 0.  1.
    10030    2    1    2    0    0  0.00000000000E+00  0.00000000000E+00 -0.45020079185E+02  0.79183825535E+03  0.79055740785E+03 0.  0.
        3    1    3    3  502    0  0.84721807567E+02  0.48617819159E+02 -0.40614987784E+03  0.41773102648E+03  0.10100000352E+00 0.  1.
       -3    1    3    3    0  502 -0.84721807567E+02 -0.48617819159E+02  0.36112979865E+03  0.37410722887E+03  0.10100000352E+00 0. -1.
</event>
<event>
 5   0  0.1523811E-02  0.7802807E+03  0.7818609E-02  0.9589007E-01
        1   -1    0    0  501    0  0.00000000000E+00  0.00000000000E+00  0.19385020609E+03  0.19385020616E+03  0.50400001928E-02 0. -1.
       -1   -1    0    0    0  501  0.00000000000E+00  0.00000000000E+00 -0.78519121913E+03  0.78519121915E+03  0.50400001928E-02 0.  1.
    10030    2    1    2    0    0  0.00000000000E+00  0.00000000000E+00 -0.59134101304E+03  0.97904142531E+03  0.78028066666E+03 0.  0.
        1    1    3    3  502    0  0.25081511329E+03  0.11984073830E+03 -0.63915369839E+03  0.69698455779E+03  0.50400001928E-02 0.  1.
       -1    1    3    3    0  502 -0.25081511329E+03 -0.11984073830E+03  0.47812685352E+02  0.28205686752E+03  0.50400001928E-02 0. -1.
</event>
<event>
 5   0  0.2464780E-02  0.7971651E+03  0.7818609E-02  0.9564130E-01
        2   -1    0    0  501    0  0.00000000000E+00  0.00000000000E+00  0.28334623611E+03  0.28334623612E+03  0.25500000920E-02 0. -1.
       -2   -1    0    0    0  501  0.00000000000E+00  0.00000000000E+00 -0.56068524150E+03  0.56068524150E+03  0.25500000920E-02 0.  1.
    10030    2    1    2    0    0  0.00000000000E+00  0.00000000000E+00 -0.27733900539E+03  0.84403147763E+03  0.79716510919E+03 0.  0.
        3    1    3    3  502    0  0.22681944851E+03  0.15850208351E+03  0.16507273407E+03  0.32220954429E+03  0.10100000352E+00 0. -1.
       -3    1    3    3    0  502 -0.22681944851E+03 -0.15850208351E+03 -0.44241173945E+03  0.52182193333E+03  0.10100000352E+00 0.  1.
</event>
<event>
 5   0  0.1498375E-02  0.7910476E+03  0.7818609E-02  0.9573066E-01
       -1   -1    0    0    0  501  0.00000000000E+00  0.00000000000E+00  0.29138924882E+03  0.29138924886E+03  0.50400001928E-02 0. -1.
        1   -1    0    0  501    0  0.00000000000E+00  0.00000000000E+00 -0.53687325713E+03  0.53687325716E+03  0.50400001928E-02 0.  1.
    10030    2    1    2    0    0  0.00000000000E+00  0.00000000000E+00 -0.24548400831E+03  0.82826250602E+03  0.79104764745E+03 0.  0.
        4    1    3    3  502    0  0.38443741132E+03  0.64970986188E+02 -0.53098711294E+02  0.39349007396E+03  0.12699999809E+01 0. -1.
       -4    1    3    3    0  502 -0.38443741132E+03 -0.64970986188E+02 -0.19238529702E+03  0.43477243206E+03  0.12699999809E+01 0.  1.
</event>
<event>
 5   0  0.2454354E-02  0.8039714E+03  0.7818609E-02  0.9554286E-01
       -2   -1    0    0    0  501  0.00000000000E+00  0.00000000000E+00  0.69356346726E+03  0.69356346727E+03  0.25500000920E-02 0.  1.
        2   -1    0    0  501    0  0.00000000000E+00  0.00000000000E+00 -0.23298875465E+03  0.23298875467E+03  0.25500000920E-02 0. -1.
    10030    2    1    2    0    0  0.00000000000E+00  0.00000000000E+00  0.46057471261E+03  0.92655222194E+03  0.80397136397E+03 0.  0.
        5    1    3    3  502    0 -0.97497522963E+02 -0.36010191586E+03  0.40273942598E+03  0.54899935521E+03  0.46999998093E+01 0. -1.
       -5    1    3    3    0  502  0.97497522963E+02  0.36010191586E+03  0.57835286629E+02  0.37755286672E+03  0.46999998093E+01 0.  1.
</event>
<event>
 5   0  0.1624094E-02  0.7926478E+03  0.7818609E-02  0.9570721E-01
       -1   -1    0    0    0  501  0.00000000000E+00  0.00000000000E+00  0.18040264394E+04  0.18040264394E+04  0.50400001928E-02 0.  1.
        1   -1    0    0  501    0  0.00000000000E+00  0.00000000000E+00 -0.87067809902E+02  0.87067810048E+02  0.50400001928E-02 0. -1.
    10030    2    1    2    0    0  0.00000000000E+00  0.00000000000E+00  0.17169586295E+04  0.18910942494E+04  0.79264779373E+03 0.  0.
        3    1    3    3  502    0  0.35453722584E+02  0.31754646324E+03  0.29906331318E+03  0.43764323170E+03  0.10100000352E+00 0. -1.
       -3    1    3    3    0  502 -0.35453722584E+02 -0.31754646324E+03  0.14178953163E+04  0.14534510177E+04  0.10100000352E+00 0.  1.
</event>
<event>
 5   0  0.2460312E-02  0.7942627E+03  0.7818609E-02  0.9568359E-01
       -2   -1    0    0    0  501  0.00000000000E+00  0.00000000000E+00  0.25038584363E+03  0.25038584364E+03  0.25500000920E-02 0. -1.
        2   -1    0    0  501    0  0.00000000000E+00  0.00000000000E+00 -0.62988109301E+03  0.62988109301E+03  0.25500000920E-02 0.  1.
    10030    2    1    2    0    0  0.00000000000E+00  0.00000000000E+00 -0.37949524938E+03  0.88026693665E+03  0.79426269928E+03 0.  0.
        2    1    3    3  502    0  0.29310784712E+03 -0.24019787546E+03 -0.32137717120E+03  0.49688078610E+03  0.25500000920E-02 0. -1.
       -2    1    3    3    0  502 -0.29310784712E+03  0.24019787546E+03 -0.58118078176E+02  0.38338615055E+03  0.25500000920E-02 0.  1.
</event>
<event>
 5   0  0.1509629E-02  0.7890006E+03  0.7818609E-02  0.9576076E-01
       -1   -1    0    0    0  501  0.00000000000E+00  0.00000000000E+00  0.11936400302E+03  0.11936400312E+03  0.50400001928E-02 0. -1.
        1   -1    0    0  501    0  0.00000000000E+00  0.00000000000E+00 -0.13038309401E+04  0.13038309401E+04  0.50400001928E-02 0.  1.
    10030    2    1    2    0    0  0.00000000000E+00  0.00000000000E+00 -0.11844669371E+04  0.14231949432E+04  0.78900058390E+03 0.  0.
        5    1    3    3  502    0  0.22280505667E+03  0.23480333734E+03 -0.18554403882E+03  0.37312649443E+03  0.46999998093E+01 0. -1.
       -5    1    3    3    0  502 -0.22280505667E+03 -0.23480333734E+03 -0.99892289823E+03  0.10500684488E+04  0.46999998093E+01 0.  1.
</event>
<event>
 5   0  0.1471290E-02  0.7972537E+03  0.7818609E-02  0.9564001E-01
       -1   -1    0    0    0  501  0.00000000000E+00  0.00000000000E+00  0.22394224398E+03  0.22394224403E+03  0.50400001928E-02 0. -1.
        1   -1    0    0  501    0  0.00000000000E+00  0.00000000000E+00 -0.70957306406E+03  0.70957306408E+03  0.50400001928E-02 0.  1.
    10030    2    1    2    0    0  0.00000000000E+00  0.00000000000E+00 -0.48563082008E+03  0.93351530811E+03  0.79725374698E+03 0.  0.
        2    1    3    3  502    0  0.13239991265E+03  0.32352502296E+03 -0.18484709122E+02  0.35005694084E+03  0.25500000920E-02 0. -1.
       -2    1    3    3    0  502 -0.13239991265E+03 -0.32352502296E+03 -0.46714611096E+03  0.58345836727E+03  0.25500000920E-02 0.  1.
</event>
<event>
 5   0  0.1509629E-02  0.8178662E+03  0.7818609E-02  0.9534511E-01
        1   -1    0    0  501    0  0.00000000000E+00  0.00000000000E+00  0.11399003328E+04  0.11399003328E+04  0.50400001928E-02 0.  1.
       -1   -1    0    0    0  501  0.00000000000E+00  0.00000000000E+00 -0.14670253346E+03  0.14670253355E+03  0.50400001928E-02 0. -1.
    10030    2    1    2    0    0  0.00000000000E+00  0.00000000000E+00  0.99319779935E+03  0.12866028664E+04  0.81786616699E+03 0.  0.
        5    1    3    3  502    0 -0.17447174248E+03 -0.45611725703E+02 -0.80724606088E+02  0.19763443645E+03  0.46999998093E+01 0. -1.
       -5    1    3    3    0  502  0.17447174248E+03  0.45611725703E+02  0.10739224054E+04  0.10889684299E+04  0.46999998093E+01 0.  1.
</event>
<event>
 5   0  0.2454354E-02  0.8067021E+03  0.7818609E-02  0.9550366E-01
       -2   -1    0    0    0  501  0.00000000000E+00  0.00000000000E+00  0.34962434167E+03  0.34962434167E+03  0.25500000920E-02 0. -1.
        2   -1    0    0  501    0  0.00000000000E+00  0.00000000000E+00 -0.46533395894E+03  0.46533395895E+03  0.25500000920E-02 0.  1.
    10030    2    1    2    0    0  0.00000000000E+00  0.00000000000E+00 -0.11570961728E+03  0.81495830063E+03  0.80670212360E+03 0.  0.
        5    1    3    3  502    0 -0.62128036012E+02 -0.39195104110E+03  0.14885424332E+02  0.39715132800E+03  0.46999998093E+01 0. -1.
       -5    1    3    3    0  502  0.62128036012E+02  0.39195104110E+03 -0.13059504161E+03  0.41780697262E+03  0.46999998093E+01 0.  1.
</event>
<event>
 5   0  0.1509629E-02  0.8238266E+03  0.7818609E-02  0.9526155E-01
        1   -1    0    0  501    0  0.00000000000E+00  0.00000000000E+00  0.12893862774E+04  0.12893862774E+04  0.50400001928E-02 0. -1.
       -1   -1    0    0    0  501  0.00000000000E+00  0.00000000000E+00 -0.13159171636E+03  0.13159171645E+03  0.50400001928E-02 0.  1.
    10030    2    1    2    0    0  0.00000000000E+00  0.00000000000E+00  0.11577945610E+04  0.14209779939E+04  0.82382656758E+03 0.  0.
        5    1    3    3  502    0 -0.14236162126E+03  0.14570313382E+03  0.11963703625E+04  0.12135981084E+04  0.46999998093E+01 0. -1.
       -5    1    3    3    0  502  0.14236162126E+03 -0.14570313382E+03 -0.38575801517E+02  0.20737988542E+03  0.46999998093E+01 0.  1.
</event>
<event>
 5   0  0.2571778E-02  0.7969292E+03  0.7818609E-02  0.9564473E-01
       -2   -1    0    0    0  501  0.00000000000E+00  0.00000000000E+00  0.35663490301E+03  0.35663490302E+03  0.25500000920E-02 0. -1.
        2   -1    0    0  501    0  0.00000000000E+00  0.00000000000E+00 -0.44520052845E+03  0.44520052846E+03  0.25500000920E-02 0.  1.
    10030    2    1    2    0    0  0.00000000000E+00  0.00000000000E+00 -0.88565625439E+02  0.80183543148E+03  0.79692922470E+03 0.  0.
        1    1    3    3  502    0  0.11800753311E+03  0.38054354043E+03 -0.50225376489E+02  0.40157409342E+03  0.50400001928E-02 0. -1.
       -1    1    3    3    0  502 -0.11800753311E+03 -0.38054354043E+03 -0.38340248950E+02  0.40026133807E+03  0.50400001928E-02 0.  1.
</event>
<event>
 5   0  0.2454354E-02  0.8220707E+03  0.7818609E-02  0.9528609E-01
        2   -1    0    0  501    0  0.00000000000E+00  0.00000000000E+00  0.54066477942E+03  0.54066477942E+03  0.25500000920E-02 0.  1.
       -2   -1    0    0    0  501  0.00000000000E+00  0.00000000000E+00 -0.31248580965E+03  0.31248580966E+03  0.25500000920E-02 0. -1.
    10030    2    1    2    0    0  0.00000000000E+00  0.00000000000E+00  0.22817896976E+03  0.85315058909E+03  0.82207073018E+03 0.  0.
        5    1    3    3  502    0  0.98389952521E+02  0.29679032260E+03  0.39093872621E+03  0.50061987175E+03  0.46999998093E+01 0.  1.
       -5    1    3    3    0  502 -0.98389952521E+02 -0.29679032260E+03 -0.16275975645E+03  0.35253071733E+03  0.46999998093E+01 0. -1.
</event>
<event>
 5   0  0.2454354E-02  0.7982949E+03  0.7818609E-02  0.9562488E-01
       -2   -1    0    0    0  501  0.00000000000E+00  0.00000000000E+00  0.22886256742E+03  0.22886256743E+03  0.25500000920E-02 0.  1.
        2   -1    0    0  501    0  0.00000000000E+00  0.00000000000E+00 -0.69613265342E+03  0.69613265343E+03  0.25500000920E-02 0. -1.
    10030    2    1    2    0    0  0.00000000000E+00  0.00000000000E+00 -0.46727008600E+03  0.92499522086E+03  0.79829494884E+03 0.  0.
        5    1    3    3  502    0  0.10588694192E+03  0.38286981560E+03 -0.18882897705E+03  0.43986340236E+03  0.46999998093E+01 0. -1.
       -5    1    3    3    0  502 -0.10588694192E+03 -0.38286981560E+03 -0.27844110895E+03  0.48513181850E+03  0.46999998093E+01 0.  1.
</event>
<event>
 5   0  0.1624094E-02  0.8133442E+03  0.7818609E-02  0.9540900E-01
       -1   -1    0    0    0  501  0.00000000000E+00  0.00000000000E+00  0.92614695365E+02  0.92614695502E+02  0.50400001928E-02 0.  1.
        1   -1    0    0  501    0  0.00000000000E+00  0.00000000000E+00 -0.17857015139E+04  0.17857015139E+04  0.50400001928E-02 0. -1.
    10030    2    1    2    0    0  0.00000000000E+00  0.00000000000E+00 -0.16930868185E+04  0.18783162094E+04  0.81334421213E+03 0.  0.
        3    1    3    3  502    0 -0.38728419668E+03  0.10779071824E+03 -0.70466616382E+03  0.81127202625E+03  0.10100000352E+00 0. -1.
       -3    1    3    3    0  502  0.38728419668E+03 -0.10779071824E+03 -0.98842065466E+03  0.10670441831E+04  0.10100000352E+00 0.  1.
</event>
<event>
 5   0  0.1509629E-02  0.7968321E+03  0.7818609E-02  0.9564614E-01
        1   -1    0    0  501    0  0.00000000000E+00  0.00000000000E+00  0.86494028573E+03  0.86494028574E+03  0.50400001928E-02 0. -1.
       -1   -1    0    0    0  501  0.00000000000E+00  0.00000000000E+00 -0.18352175185E+03  0.18352175192E+03  0.50400001928E-02 0.  1.
    10030    2    1    2    0    0  0.00000000000E+00  0.00000000000E+00  0.68141853388E+03  0.10484620377E+04  0.79683211914E+03 0.  0.
        5    1    3    3  502    0 -0.22081356428E+02  0.39721875899E+03  0.36840145157E+03  0.54222877857E+03  0.46999998093E+01 0. -1.
       -5    1    3    3    0  502  0.22081356428E+02 -0.39721875899E+03  0.31301708231E+03  0.50623325909E+03  0.46999998093E+01 0.  1.
</event>
<event>
 5   0  0.2454354E-02  0.7709269E+03  0.7818609E-02  0.9603080E-01
        2   -1    0    0  501    0  0.00000000000E+00  0.00000000000E+00  0.50062452510E+03  0.50062452511E+03  0.25500000920E-02 0.  1.
       -2   -1    0    0    0  501  0.00000000000E+00  0.00000000000E+00 -0.29679340421E+03  0.29679340422E+03  0.25500000920E-02 0. -1.
    10030    2    1    2    0    0  0.00000000000E+00  0.00000000000E+00  0.20383112090E+03  0.79741792933E+03  0.77092686305E+03 0.  0.
        5    1    3    3  502    0 -0.24461089226E+03  0.12382070045E+03  0.38213795336E+03  0.47033770832E+03  0.46999998093E+01 0.  1.
       -5    1    3    3    0  502  0.24461089226E+03 -0.12382070045E+03 -0.17830683246E+03  0.32708022101E+03  0.46999998093E+01 0. -1.
</event>
<event>
 5   0  0.1471290E-02  0.7699420E+03  0.7818609E-02  0.9604574E-01
       -1   -1    0    0    0  501  0.00000000000E+00  0.00000000000E+00  0.11875361949E+03  0.11875361960E+03  0.50400001928E-02 0. -1.
        1   -1    0    0  501    0  0.00000000000E+00  0.00000000000E+00 -0.12479845128E+04  0.12479845128E+04  0.50400001928E-02 0.  1.
    10030    2    1    2    0    0  0.00000000000E+00  0.00000000000E+00 -0.11292308933E+04  0.13667381324E+04  0.76994201871E+03 0.  0.
        2    1    3    3  502    0  0.99634161636E+02 -0.34597061228E+03 -0.32265147870E+03  0.48345279754E+03  0.25500000920E-02 0. -1.
       -2    1    3    3    0  502 -0.99634161636E+02  0.34597061228E+03 -0.80657941459E+03  0.88328533486E+03  0.25500000920E-02 0.  1.
</event>
<event>
 5   0  0.2571778E-02  0.8005281E+03  0.7818609E-02  0.9559253E-01
       -2   -1    0    0    0  501  0.00000000000E+00  0.00000000000E+00  0.15336165873E+03  0.15336165876E+03  0.25500000920E-02 0. -1.
        2   -1    0    0  501    0  0.00000000000E+00  0.00000000000E+00 -0.10446634074E+04  0.10446634074E+04  0.25500000920E-02 0.  1.
    10030    2    1    2    0    0  0.00000000000E+00  0.00000000000E+00 -0.89130174864E+03  0.11980250661E+04  0.80052810816E+03 0.  0.
        1    1    3    3  502    0 -0.77992482925E+02  0.14398306048E+03  0.10094071290E+03  0.19236157788E+03  0.50400001928E-02 0. -1.
       -1    1    3    3    0  502  0.77992482925E+02 -0.14398306048E+03 -0.99224246154E+03  0.10056634882E+04  0.50400001928E-02 0.  1.
</event>
<event>
 5   0  0.1509629E-02  0.8045361E+03  0.7818609E-02  0.9553474E-01
       -1   -1    0    0    0  501  0.00000000000E+00  0.00000000000E+00  0.19489328173E+03  0.19489328179E+03  0.50400001928E-02 0. -1.
        1   -1    0    0  501    0  0.00000000000E+00  0.00000000000E+00 -0.83029835802E+03  0.83029835804E+03  0.50400001928E-02 0.  1.
    10030    2    1    2    0    0  0.00000000000E+00  0.00000000000E+00 -0.63540507630E+03  0.10251916398E+04  0.80453606967E+03 0.  0.
        5    1    3    3  502    0  0.18313764731E+03  0.96755345785E+02  0.12168126935E+03  0.24026946562E+03  0.46999998093E+01 0. -1.
       -5    1    3    3    0  502 -0.18313764731E+03 -0.96755345785E+02 -0.75708634565E+03  0.78492217421E+03  0.46999998093E+01 0.  1.
</event>
<event>
 5   0  0.1523811E-02  0.7850076E+03  0.7818609E-02  0.9581975E-01
       -1   -1    0    0    0  501  0.00000000000E+00  0.00000000000E+00  0.24108276700E+03  0.24108276705E+03  0.50400001928E-02 0.  1.
        1   -1    0    0  501    0  0.00000000000E+00  0.00000000000E+00 -0.63903038755E+03  0.63903038757E+03  0.50400001928E-02 0. -1.
    10030    2    1    2    0    0  0.00000000000E+00  0.00000000000E+00 -0.39794762055E+03  0.88011315462E+03  0.78500755171E+03 0.  0.
        1    1    3    3  502    0 -0.35015813966E+03 -0.55051845326E+02 -0.99746850010E+01  0.35459966556E+03  0.50400001928E-02 0.  1.
       -1    1    3    3    0  502  0.35015813966E+03  0.55051845326E+02 -0.38797293555E+03  0.52551348907E+03  0.50400001928E-02 0. -1.
</event>
<event>
 5   0  0.1523811E-02  0.8038163E+03  0.7818609E-02  0.9554510E-01
        1   -1    0    0  501    0  0.00000000000E+00  0.00000000000E+00  0.28173036032E+03  0.28173036036E+03  0.50400001928E-02 0.  1.
       -1   -1    0    0    0  501  0.00000000000E+00  0.00000000000E+00 -0.57335022258E+03  0.57335022260E+03  0.50400001928E-02 0. -1.
    10030    2    1    2    0    0  0.00000000000E+00  0.00000000000E+00 -0.29161986226E+03  0.85508058296E+03  0.80381630942E+03 0.  0.
        1    1    3    3  502    0 -0.21768081009E+02 -0.39362759822E+03 -0.22898626687E+03  0.45590705837E+03  0.50400001928E-02 0. -1.
       -1    1    3    3    0  502  0.21768081009E+02  0.39362759822E+03 -0.62633595391E+02  0.39917352459E+03  0.50400001928E-02 0.  1.
</event>
<event>
 5   0  0.1471290E-02  0.8101079E+03  0.7818609E-02  0.9545500E-01
       -1   -1    0    0    0  501  0.00000000000E+00  0.00000000000E+00  0.61779339346E+03  0.61779339348E+03  0.50400001928E-02 0. -1.
        1   -1    0    0  501    0  0.00000000000E+00  0.00000000000E+00 -0.26557214714E+03  0.26557214719E+03  0.50400001928E-02 0.  1.
    10030    2    1    2    0    0  0.00000000000E+00  0.00000000000E+00  0.35222124632E+03  0.88336554067E+03  0.81010793854E+03 0.  0.
        2    1    3    3  502    0  0.21197645478E+03 -0.15818944095E+03 -0.15840569003E+03  0.30830225307E+03  0.25500000920E-02 0.  1.
       -2    1    3    3    0  502 -0.21197645478E+03  0.15818944095E+03  0.51062693635E+03  0.57506328760E+03  0.25500000920E-02 0. -1.
</event>
<event>
 5   0  0.2422031E-02  0.7942085E+03  0.7818609E-02  0.9568438E-01
        2   -1    0    0  501    0  0.00000000000E+00  0.00000000000E+00  0.10705089925E+04  0.10705089925E+04  0.25500000920E-02 0.  1.
       -2   -1    0    0    0  501  0.00000000000E+00  0.00000000000E+00 -0.14730541191E+03  0.14730541193E+03  0.25500000920E-02 0. -1.
    10030    2    1    2    0    0  0.00000000000E+00  0.00000000000E+00  0.92320358061E+03  0.12178144044E+04  0.79420845654E+03 0.  0.
        4    1    3    3  502    0  0.38714741709E+03  0.19258023142E+02  0.32937453073E+03  0.50866805326E+03  0.12699999809E+01 0.  1.
       -4    1    3    3    0  502 -0.38714741709E+03 -0.19258023142E+02  0.59382904988E+03  0.70914635119E+03  0.12699999809E+01 0. -1.
</event>
<event>
 5   0  0.2571778E-02  0.7473649E+03  0.7818609E-02  0.9639494E-01
        2   -1    0    0  501    0  0.00000000000E+00  0.00000000000E+00  0.60245321882E+03  0.60245321883E+03  0.25500000920E-02 0. -1.
       -2   -1    0    0    0  501  0.00000000000E+00  0.00000000000E+00 -0.23178324519E+03  0.23178324520E+03  0.25500000920E-02 0.  1.
    10030    2    1    2    0    0  0.00000000000E+00  0.00000000000E+00  0.37066997363E+03  0.83423646403E+03  0.74736486977E+03 0.  0.
        1    1    3    3  502    0 -0.19459447167E+03  0.11785613084E+03  0.51624140079E+03  0.56414737427E+03  0.50400001928E-02 0. -1.
       -1    1    3    3    0  502  0.19459447167E+03 -0.11785613084E+03 -0.14557142715E+03  0.27008908977E+03  0.50400001928E-02 0.  1.
</event>
<event>
 5   0  0.1498375E-02  0.8401780E+03  0.7818609E-02  0.9503615E-01
        1   -1    0    0  501    0  0.00000000000E+00  0.00000000000E+00  0.11109501980E+04  0.11109501980E+04  0.50400001928E-02 0.  1.
       -1   -1    0    0    0  501  0.00000000000E+00  0.00000000000E+00 -0.15885030644E+03  0.15885030652E+03  0.50400001928E-02 0. -1.
    10030    2    1    2    0    0  0.00000000000E+00  0.00000000000E+00  0.95209989157E+03  0.12698005045E+04  0.84017802744E+03 0.  0.
        4    1    3    3  502    0  0.25952307421E+03 -0.17666321056E+03  0.89790543631E+03  0.95120865296E+03  0.12699999809E+01 0.  1.
       -4    1    3    3    0  502 -0.25952307421E+03  0.17666321056E+03  0.54194455264E+02  0.31859185158E+03  0.12699999809E+01 0. -1.
</event>
<event>
 5   0  0.2454354E-02  0.7936177E+03  0.7818609E-02  0.9569301E-01
       -2   -1    0    0    0  501  0.00000000000E+00  0.00000000000E+00  0.41734769947E+03  0.41734769948E+03  0.25500000920E-02 0. -1.
        2   -1    0    0  501    0  0.00000000000E+00  0.00000000000E+00 -0.37728080638E+03  0.37728080639E+03  0.25500000920E-02 0.  1.
    10030    2    1    2    0    0  0.00000000000E+00  0.00000000000E+00  0.40066893089E+02  0.79462850586E+03  0.79361773317E+03 0.  0.
        5    1    3    3  502    0 -0.45041539540E+02 -0.30068447403E+03  0.27529989224E+03  0.41018534089E+03  0.46999998093E+01 0. -1.
       -5    1    3    3    0  502  0.45041539540E+02  0.30068447403E+03 -0.23523299915E+03  0.38444316498E+03  0.46999998093E+01 0.  1.
</event>
<event>
 5   0  0.2464780E-02  0.8058610E+03  0.7818609E-02  0.9551572E-01
       -2   -1    0    0    0  501  0.00000000000E+00  0.00000000000E+00  0.12844003092E+04  0.12844003092E+04  0.25500000920E-02 0. -1.
        2   -1    0    0  501    0  0.00000000000E+00  0.00000000000E+00 -0.12640372323E+03  0.12640372325E+03  0.25500000920E-02 0.  1.
    10030    2    1    2    0    0  0.00000000000E+00  0.00000000000E+00  0.11579965860E+04  0.14108040325E+04  0.80586098358E+03 0.  0.
        3    1    3    3  502    0 -0.24506557611E+03 -0.18246414672E+03  0.10388729843E+04  0.10828699779E+04  0.10100000352E+00 0. -1.
       -3    1    3    3    0  502  0.24506557611E+03  0.18246414672E+03  0.11912360168E+03  0.32793405451E+03  0.10100000352E+00 0.  1.
</event>
<event>
 5   0  0.2422031E-02  0.8009633E+03  0.7818609E-02  0.9558624E-01
        2   -1    0    0  501    0  0.00000000000E+00  0.00000000000E+00  0.14715256538E+04  0.14715256538E+04  0.25500000920E-02 0. -1.
       -2   -1    0    0    0  501  0.00000000000E+00  0.00000000000E+00 -0.10899270514E+03  0.10899270517E+03  0.25500000920E-02 0.  1.
    10030    2    1    2    0    0  0.00000000000E+00  0.00000000000E+00  0.13625329487E+04  0.15805183590E+04  0.80096332428E+03 0.  0.
        4    1    3    3  502    0 -0.58756085912E+02  0.85544350575E+02 -0.81994034374E+02  0.13226771382E+03  0.12699999809E+01 0.  1.
       -4    1    3    3    0  502  0.58756085912E+02 -0.85544350575E+02  0.14445269830E+04  0.14482506451E+04  0.12699999809E+01 0. -1.
</event>
<event>
 5   0  0.2460312E-02  0.7956395E+03  0.7818609E-02  0.9566350E-01
       -2   -1    0    0    0  501  0.00000000000E+00  0.00000000000E+00  0.35621550139E+03  0.35621550140E+03  0.25500000920E-02 0. -1.
        2   -1    0    0  501    0  0.00000000000E+00  0.00000000000E+00 -0.44428319551E+03  0.44428319552E+03  0.25500000920E-02 0.  1.
    10030    2    1    2    0    0  0.00000000000E+00  0.00000000000E+00 -0.88067694126E+02  0.80049869692E+03  0.79563951952E+03 0.  0.
        2    1    3    3  502    0 -0.31747825722E+03  0.23877309174E+03 -0.22560394852E+02  0.39788692435E+03  0.25500000920E-02 0.  1.
       -2    1    3    3    0  502  0.31747825722E+03 -0.23877309174E+03 -0.65507299274E+02  0.40261177257E+03  0.25500000920E-02 0. -1.
</event>
<event>
 5   0  0.2460312E-02  0.7741130E+03  0.7818609E-02  0.9598262E-01
       -2   -1    0    0    0  501  0.00000000000E+00  0.00000000000E+00  0.49606531349E+03  0.49606531350E+03  0.25500000920E-02 0.  1.
        2   -1    0    0  501    0  0.00000000000E+00  0.00000000000E+00 -0.30200203366E+03  0.30200203367E+03  0.25500000920E-02 0. -1.
    10030    2    1    2    0    0  0.00000000000E+00  0.00000000000E+00  0.19406327983E+03  0.79806734717E+03  0.77411299824E+03 0.  0.
        2    1    3    3  502    0 -0.31195556155E+03 -0.22824271265E+03  0.11769494281E+03  0.40405829757E+03  0.25500000920E-02 0. -1.
       -2    1    3    3    0  502  0.31195556155E+03  0.22824271265E+03  0.76368337017E+02  0.39400904960E+03  0.25500000920E-02 0.  1.
</event>
<event>
 5   0  0.2460312E-02  0.7323398E+03  0.7818609E-02  0.9663471E-01
        2   -1    0    0  501    0  0.00000000000E+00  0.00000000000E+00  0.68087789908E+03  0.68087789909E+03  0.25500000920E-02 0. -1.
       -2   -1    0    0    0  501  0.00000000000E+00  0.00000000000E+00 -0.19692282587E+03  0.19692282588E+03  0.25500000920E-02 0.  1.
    10030    2    1    2    0    0  0.00000000000E+00  0.00000000000E+00  0.48395507322E+03  0.87780072497E+03  0.73233981174E+03 0.  0.
        2    1    3    3  502    0  0.53981161722E+02 -0.16868781217E+03  0.62611924706E+03  0.65068798617E+03  0.25500000920E-02 0. -1.
       -2    1    3    3    0  502 -0.53981161722E+02  0.16868781217E+03 -0.14216417384E+03  0.22711273880E+03  0.25500000920E-02 0.  1.
</event>
<event>
 5   0  0.2464780E-02  0.7712127E+03  0.7818609E-02  0.9602646E-01
        2   -1    0    0  501    0  0.00000000000E+00  0.00000000000E+00  0.71197957748E+03  0.71197957749E+03  0.25500000920E-02 0. -1.
       -2   -1    0    0    0  501  0.00000000000E+00  0.00000000000E+00 -0.20884342682E+03  0.20884342683E+03  0.25500000920E-02 0.  1.
    10030    2    1    2    0    0  0.00000000000E+00  0.00000000000E+00  0.50313615067E+03  0.92082300432E+03  0.77121269387E+03 0.  0.
        3    1    3    3  502    0  0.16547181120E+03 -0.27601635907E+03  0.50520753807E+03  0.59899968071E+03  0.10100000352E+00 0. -1.
       -3    1    3    3    0  502 -0.16547181120E+03  0.27601635907E+03 -0.20713873999E+01  0.32182332361E+03  0.10100000352E+00 0.  1.
</event>
<event>
 5   0  0.2422031E-02  0.8177853E+03  0.7818609E-02  0.9534624E-01
       -2   -1    0    0    0  501  0.00000000000E+00  0.00000000000E+00  0.27931986437E+03  0.27931986438E+03  0.25500000920E-02 0.  1.
        2   -1    0    0  501    0  0.00000000000E+00  0.00000000000E+00 -0.59857259630E+03  0.59857259630E+03  0.25500000920E-02 0. -1.
    10030    2    1    2    0    0  0.00000000000E+00  0.00000000000E+00 -0.31925273193E+03  0.87789246068E+03  0.81778534205E+03 0.  0.
        4    1    3    3  502    0  0.30903451018E+03 -0.13191865617E+02  0.12745256944E+03  0.33454764109E+03  0.12699999809E+01 0.  1.
       -4    1    3    3    0  502 -0.30903451018E+03  0.13191865617E+02 -0.44670530137E+03  0.54334481959E+03  0.12699999809E+01 0. -1.
</event>
<event>
 5   0  0.2571778E-02  0.7975926E+03  0.7818609E-02  0.9563508E-01
       -2   -1    0    0    0  501  0.00000000000E+00  0.00000000000E+00  0.26529003208E+03  0.26529003209E+03  0.25500000920E-02 0. -1.
        2   -1    0    0  501    0  0.00000000000E+00  0.00000000000E+00 -0.59948918124E+03  0.59948918124E+03  0.25500000920E-02 0.  1.
    10030    2    1    2    0    0  0.00000000000E+00  0.00000000000E+00 -0.33419914916E+03  0.86477921333E+03  0.79759263820E+03 0.  0.
        1    1    3    3  502    0 -0.23549027305E+03 -0.16798879834E+03 -0.46474693736E+03  0.54741722742E+03  0.50400001928E-02 0.  1.
       -1    1    3    3    0  502  0.23549027305E+03  0.16798879834E+03  0.13054778820E+03  0.31736198591E+03  0.50400001928E-02 0. -1.
</event>
<event>
 5   0  0.1498375E-02  0.8074219E+03  0.7818609E-02  0.9549336E-01
        1   -1    0    0  501    0  0.00000000000E+00  0.00000000000E+00  0.10042563677E+04  0.10042563677E+04  0.50400001928E-02 0.  1.
       -1   -1    0    0    0  501  0.00000000000E+00  0.00000000000E+00 -0.16229175908E+03  0.16229175916E+03  0.50400001928E-02 0. -1.
    10030    2    1    2    0    0  0.00000000000E+00  0.00000000000E+00  0.84196460864E+03  0.11665481269E+04  0.80742190343E+03 0.  0.
        4    1    3    3  502    0  0.34358683809E+03  0.16602819996E+03  0.61136283580E+03  0.72068259892E+03  0.12699999809E+01 0.  1.
       -4    1    3    3    0  502 -0.34358683809E+03 -0.16602819996E+03  0.23060177284E+03  0.44586552796E+03  0.12699999809E+01 0. -1.
</event>
<event>
 5   0  0.1624094E-02  0.7961289E+03  0.7818609E-02  0.9565637E-01
        1   -1    0    0  501    0  0.00000000000E+00  0.00000000000E+00  0.65576866378E+03  0.65576866379E+03  0.50400001928E-02 0. -1.
       -1   -1    0    0    0  501  0.00000000000E+00  0.00000000000E+00 -0.24163294288E+03  0.24163294294E+03  0.50400001928E-02 0.  1.
    10030    2    1    2    0    0  0.00000000000E+00  0.00000000000E+00  0.41413572089E+03  0.89740160673E+03  0.79612891446E+03 0.  0.
        3    1    3    3  502    0 -0.94142639697E+02 -0.58970140820E+02  0.63794239627E+03  0.64754214170E+03  0.10100000352E+00 0. -1.
       -3    1    3    3    0  502  0.94142639697E+02  0.58970140820E+02 -0.22380667538E+03  0.24985946503E+03  0.10100000352E+00 0.  1.
</event>
<event>
 5   0  0.1498375E-02  0.7978538E+03  0.7818609E-02  0.9563129E-01
       -1   -1    0    0    0  501  0.00000000000E+00  0.00000000000E+00  0.70165249136E+02  0.70165249317E+02  0.50400001928E-02 0. -1.
        1   -1    0    0  501    0  0.00000000000E+00  0.00000000000E+00 -0.22681123621E+04  0.22681123621E+04  0.50400001928E-02 0.  1.
    10030    2    1    2    0    0  0.00000000000E+00  0.00000000000E+00 -0.21979471130E+04  0.23382776115E+04  0.79785379407E+03 0.  0.
        4    1    3    3  502    0 -0.31267525971E+03  0.59862313969E+02 -0.39443356783E+03  0.50688141315E+03  0.12699999809E+01 0. -1.
       -4    1    3    3    0  502  0.31267525971E+03 -0.59862313969E+02 -0.18035135452E+04  0.18313961983E+04  0.12699999809E+01 0.  1.
</event>
<event>
 5   0  0.2422031E-02  0.8089914E+03  0.7818609E-02  0.9547093E-01
        2   -1    0    0  501    0  0.00000000000E+00  0.00000000000E+00  0.20216601433E+03  0.20216601434E+03  0.25500000920E-02 0.  1.
       -2   -1    0    0    0  501  0.00000000000E+00  0.00000000000E+00 -0.80931895117E+03  0.80931895117E+03  0.25500000920E-02 0. -1.
    10030    2    1    2    0    0  0.00000000000E+00  0.00000000000E+00 -0.60715293684E+03  0.10114849655E+04  0.80899143800E+03 0.  0.
        4    1    3    3  502    0  0.51398450978E+01 -0.21077182944E+03 -0.73518301948E+03  0.76481819220E+03  0.12699999809E+01 0. -1.
       -4    1    3    3    0  502 -0.51398450978E+01  0.21077182944E+03  0.12803008264E+03  0.24666677331E+03  0.12699999809E+01 0.  1.
</event>
<event>
 5   0  0.2460312E-02  0.8080184E+03  0.7818609E-02  0.9548483E-01
        2   -1    0    0  501    0  0.00000000000E+00  0.00000000000E+00  0.49204754606E+03  0.49204754607E+03  0.25500000920E-02 0.  1.
       -2   -1    0    0    0  501  0.00000000000E+00  0.00000000000E+00 -0.33172288565E+03  0.33172288566E+03  0.25500000920E-02 0. -1.
    10030    2    1    2    0    0  0.00000000000E+00  0.00000000000E+00  0.16032466042E+03  0.82377043173E+03  0.80801839549E+03 0.  0.
        2    1    3    3  502    0 -0.10969929972E+03  0.35660111597E+03 -0.77859799681E+02  0.38113047724E+03  0.25500000920E-02 0. -1.
       -2    1    3    3    0  502  0.10969929972E+03 -0.35660111597E+03  0.23818446010E+03  0.44263995449E+03  0.25500000920E-02 0.  1.
</event>
<event>
 5   0  0.2460312E-02  0.8036645E+03  0.7818609E-02  0.9554728E-01
        2   -1    0    0  501    0  0.00000000000E+00  0.00000000000E+00  0.12539385375E+04  0.12539385375E+04  0.25500000920E-02 0.  1.
       -2   -1    0    0    0  501  0.00000000000E+00  0.00000000000E+00 -0.12876957936E+03  0.12876957938E+03  0.25500000920E-02 0. -1.
    10030    2    1    2    0    0  0.00000000000E+00  0.00000000000E+00  0.11251689581E+04  0.13827081169E+04  0.80366445245E+03 0.  0.
        2    1    3    3  502    0  0.26620029183E+03 -0.28661849403E+03  0.72079961833E+03  0.82010050986E+03  0.25500000920E-02 0.  1.
       -2    1    3    3    0  502 -0.26620029183E+03  0.28661849403E+03  0.40436933980E+03  0.56260760701E+03  0.25500000920E-02 0. -1.
</event>
<event>
 5   0  0.2571778E-02  0.7895537E+03  0.7818609E-02  0.9575262E-01
        2   -1    0    0  501    0  0.00000000000E+00  0.00000000000E+00  0.47607143837E+03  0.47607143837E+03  0.25500000920E-02 0.  1.
       -2   -1    0    0    0  501  0.00000000000E+00  0.00000000000E+00 -0.32736423637E+03  0.32736423638E+03  0.25500000920E-02 0. -1.
    10030    2    1    2    0    0  0.00000000000E+00  0.00000000000E+00  0.14870720199E+03  0.80343567476E+03  0.78955370403E+03 0.  0.
        1    1    3    3  502    0  0.97286174426E+02 -0.18657344188E+01  0.46367772920E+03  0.47377749765E+03  0.50400001928E-02 0.  1.
       -1    1    3    3    0  502 -0.97286174426E+02  0.18657344188E+01 -0.31497052721E+03  0.32965817711E+03  0.50400001928E-02 0. -1.
</event>
<event>
 5   0  0.2454354E-02  0.7898712E+03  0.7818609E-02  0.9574795E-01
       -2   -1    0    0    0  501  0.00000000000E+00  0.00000000000E+00  0.10464187794E+03  0.10464187797E+03  0.25500000920E-02 0.  1.
        2   -1    0    0  501    0  0.00000000000E+00  0.00000000000E+00 -0.14905518553E+04  0.14905518553E+04  0.25500000920E-02 0. -1.
    10030    2    1    2    0    0  0.00000000000E+00  0.00000000000E+00 -0.13859099773E+04  0.15951937332E+04  0.78987124349E+03 0.  0.
        5    1    3    3  502    0 -0.12391548730E+03 -0.21907994095E+03 -0.78394069622E+02  0.26366415886E+03  0.46999998093E+01 0.  1.
       -5    1    3    3    0  502  0.12391548730E+03  0.21907994095E+03 -0.13075159077E+04  0.13315295744E+04  0.46999998093E+01 0. -1.
</event>
<event>
 5   0  0.1471290E-02  0.8037906E+03  0.7818609E-02  0.9554547E-01
        1   -1    0    0  501    0  0.00000000000E+00  0.00000000000E+00  0.81909347288E+03  0.81909347289E+03  0.50400001928E-02 0.  1.
       -1   -1    0    0    0  501  0.00000000000E+00  0.00000000000E+00 -0.19719338600E+03  0.19719338607E+03  0.50400001928E-02 0. -1.
    10030    2    1    2    0    0  0.00000000000E+00  0.00000000000E+00  0.62190008687E+03  0.10162868590E+04  0.80379055832E+03 0.  0.
        2    1    3    3  502    0 -0.10658830576E+03 -0.24712003785E+03  0.68833879388E+03  0.73908029009E+03  0.25500000920E-02 0.  1.
       -2    1    3    3    0  502  0.10658830576E+03  0.24712003785E+03 -0.66438707008E+02  0.27720656887E+03  0.25500000920E-02 0. -1.
</event>
<event>
 5   0  0.1624094E-02  0.7892900E+03  0.7818609E-02  0.9575650E-01
        1   -1    0    0  501    0  0.00000000000E+00  0.00000000000E+00  0.57948555976E+03  0.57948555978E+03  0.50400001928E-02 0.  1.
       -1   -1    0    0    0  501  0.00000000000E+00  0.00000000000E+00 -0.26876371285E+03  0.26876371290E+03  0.50400001928E-02 0. -1.
    10030    2    1    2    0    0  0.00000000000E+00  0.00000000000E+00  0.31072184691E+03  0.84824927267E+03  0.78929003696E+03 0.  0.
        3    1    3    3  502    0  0.19771871929E+03 -0.19095767892E+03  0.45968707437E+03  0.53560222520E+03  0.10100000352E+00 0.  1.
       -3    1    3    3    0  502 -0.19771871929E+03  0.19095767892E+03 -0.14896522746E+03  0.31264704747E+03  0.10100000352E+00 0. -1.
</event>
<event>
 5   0  0.1523811E-02  0.7889174E+03  0.7818609E-02  0.9576199E-01
       -1   -1    0    0    0  501  0.00000000000E+00  0.00000000000E+00  0.18400924802E+03  0.18400924809E+03  0.50400001928E-02 0.  1.
        1   -1    0    0  501    0  0.00000000000E+00  0.00000000000E+00 -0.84559698184E+03  0.84559698186E+03  0.50400001928E-02 0. -1.
    10030    2    1    2    0    0  0.00000000000E+00  0.00000000000E+00 -0.66158773382E+03  0.10296062300E+04  0.78891739695E+03 0.  0.
        1    1    3    3  502    0  0.29820237968E+03  0.13949883009E+03 -0.47216997282E+02  0.33258687241E+03  0.50400001928E-02 0.  1.
       -1    1    3    3    0  502 -0.29820237968E+03 -0.13949883009E+03 -0.61437073654E+03  0.69701935754E+03  0.50400001928E-02 0. -1.
</event>
<event>
 5   0  0.1471290E-02  0.7953476E+03  0.7818609E-02  0.9566776E-01
        1   -1    0    0  501    0  0.00000000000E+00  0.00000000000E+00  0.66058368570E+03  0.66058368572E+03  0.50400001928E-02 0. -1.
       -1   -1    0    0    0  501  0.00000000000E+00  0.00000000000E+00 -0.23940106652E+03  0.23940106658E+03  0.50400001928E-02 0.  1.
    10030    2    1    2    0    0  0.00000000000E+00  0.00000000000E+00  0.42118261918E+03  0.89998475230E+03  0.79534756910E+03 0.  0.
        2    1    3    3  502    0 -0.12489769199E+03 -0.24888179712E+03 -0.11066629011E+03  0.29964747650E+03  0.25500000920E-02 0.  1.
       -2    1    3    3    0  502  0.12489769199E+03  0.24888179712E+03  0.53184890928E+03  0.60033727580E+03  0.25500000920E-02 0. -1.
</event>
<event>
 5   0  0.2464780E-02  0.8175160E+03  0.7818609E-02  0.9535004E-01
        2   -1    0    0  501    0  0.00000000000E+00  0.00000000000E+00  0.68986818183E+03  0.68986818183E+03  0.25500000920E-02 0.  1.
       -2   -1    0    0    0  501  0.00000000000E+00  0.00000000000E+00 -0.24219569725E+03  0.24219569727E+03  0.25500000920E-02 0. -1.
    10030    2    1    2    0    0  0.00000000000E+00  0.00000000000E+00  0.44767248458E+03  0.93206387910E+03  0.81751600674E+03 0.  0.
        3    1    3    3  502    0 -0.18383247092E+03 -0.16273907279E+03  0.59643775997E+03  0.64499332934E+03  0.10100000352E+00 0.  1.
       -3    1    3    3    0  502  0.18383247092E+03  0.16273907279E+03 -0.14876527539E+03  0.28707054976E+03  0.10100000352E+00 0. -1.
</event>
<event>
 5   0  0.1471290E-02  0.8638532E+03  0.7818609E-02  0.9471930E-01
       -1   -1    0    0    0  501  0.00000000000E+00  0.00000000000E+00  0.10369048142E+03  0.10369048154E+03  0.50400001928E-02 0.  1.
        1   -1    0    0  501    0  0.00000000000E+00  0.00000000000E+00 -0.17992066020E+04  0.17992066020E+04  0.50400001928E-02 0. -1.
    10030    2    1    2    0    0  0.00000000000E+00  0.00000000000E+00 -0.16955161205E+04  0.19028970835E+04  0.86385322561E+03 0.  0.
        2    1    3    3  502    0  0.20059913488E+03  0.13841034105E+03 -0.62240310574E+02  0.25153785340E+03  0.25500000920E-02 0.  1.
       -2    1    3    3    0  502 -0.20059913488E+03 -0.13841034105E+03 -0.16332758100E+04  0.16513592301E+04  0.25500000920E-02 0. -1.
</event>
<event>
 5   0  0.2454354E-02  0.8047593E+03  0.7818609E-02  0.9553154E-01
       -2   -1    0    0    0  501  0.00000000000E+00  0.00000000000E+00  0.14933287828E+03  0.14933287830E+03  0.25500000920E-02 0.  1.
        2   -1    0    0  501    0  0.00000000000E+00  0.00000000000E+00 -0.10842178104E+04  0.10842178104E+04  0.25500000920E-02 0. -1.
    10030    2    1    2    0    0  0.00000000000E+00  0.00000000000E+00 -0.93488493212E+03  0.12335506887E+04  0.80475925922E+03 0.  0.
        5    1    3    3  502    0  0.18838493570E+02 -0.15534877464E+03 -0.10356186612E+04  0.10473854267E+04  0.46999998093E+01 0. -1.
       -5    1    3    3    0  502 -0.18838493570E+02  0.15534877464E+03  0.10073372905E+03  0.18616526204E+03  0.46999998093E+01 0.  1.
</event>
<event>
 5   0  0.2422031E-02  0.8158562E+03  0.7818609E-02  0.9537345E-01
        2   -1    0    0  501    0  0.00000000000E+00  0.00000000000E+00  0.72661697193E+03  0.72661697193E+03  0.25500000920E-02 0. -1.
       -2   -1    0    0    0  501  0.00000000000E+00  0.00000000000E+00 -0.22901381921E+03  0.22901381922E+03  0.25500000920E-02 0.  1.
    10030    2    1    2    0    0  0.00000000000E+00  0.00000000000E+00  0.49760315272E+03  0.95563079115E+03  0.81585618304E+03 0.  0.
        4    1    3    3  502    0  0.19239382201E+03  0.69641937751E+02 -0.16455804334E+03  0.26257635988E+03  0.12699999809E+01 0.  1.
       -4    1    3    3    0  502 -0.19239382201E+03 -0.69641937751E+02  0.66216119606E+03  0.69305443127E+03  0.12699999809E+01 0. -1.
</event>
<event>
 5   0  0.1509629E-02  0.8048663E+03  0.7818609E-02  0.9553000E-01
        1   -1    0    0  501    0  0.00000000000E+00  0.00000000000E+00  0.10525581630E+04  0.10525581631E+04  0.50400001928E-02 0.  1.
       -1   -1    0    0    0  501  0.00000000000E+00  0.00000000000E+00 -0.15386556337E+03  0.15386556345E+03  0.50400001928E-02 0. -1.
    10030    2    1    2    0    0  0.00000000000E+00  0.00000000000E+00  0.89869259967E+03  0.12064237265E+04  0.80486633622E+03 0.  0.
        5    1    3    3  502    0  0.39008319384E+03  0.47573977707E+02  0.31951782871E+03  0.50649966864E+03  0.46999998093E+01 0. -1.
       -5    1    3    3    0  502 -0.39008319384E+03 -0.47573977707E+02  0.57917477096E+03  0.69992405787E+03  0.46999998093E+01 0.  1.
</event>
<event>
 5   0  0.1624094E-02  0.7954901E+03  0.7818609E-02  0.9566568E-01
       -1   -1    0    0    0  501  0.00000000000E+00  0.00000000000E+00  0.91238719986E+02  0.91238720125E+02  0.50400001928E-02 0. -1.
        1   -1    0    0  501    0  0.00000000000E+00  0.00000000000E+00 -0.17339250872E+04  0.17339250872E+04  0.50400001928E-02 0.  1.
    10030    2    1    2    0    0  0.00000000000E+00  0.00000000000E+00 -0.16426863672E+04  0.18251638074E+04  0.79549005184E+03 0.  0.
        3    1    3    3  502    0  0.16190153920E+03 -0.21001482173E+03 -0.14117088036E+03  0.30041231899E+03  0.10100000352E+00 0. -1.
       -3    1    3    3    0  502 -0.16190153920E+03  0.21001482173E+03 -0.15015154869E+04  0.15247514884E+04  0.10100000352E+00 0.  1.
</event>
<event>
 5   0  0.1498375E-02  0.7966351E+03  0.7818609E-02  0.9564900E-01
       -1   -1    0    0    0  501  0.00000000000E+00  0.00000000000E+00  0.20937478287E+03  0.20937478293E+03  0.50400001928E-02 0.  1.
        1   -1    0    0  501    0  0.00000000000E+00  0.00000000000E+00 -0.75776498247E+03  0.75776498249E+03  0.50400001928E-02 0. -1.
    10030    2    1    2    0    0  0.00000000000E+00  0.00000000000E+00 -0.54839019960E+03  0.96713976542E+03  0.79663512026E+03 0.  0.
        4    1    3    3  502    0  0.14236809557E+03 -0.23286245946E+03  0.78002955750E+02  0.28386559085E+03  0.12699999809E+01 0.  1.
       -4    1    3    3    0  502 -0.14236809557E+03  0.23286245946E+03 -0.62639315535E+03  0.68327417457E+03  0.12699999809E+01 0. -1.
</event>
<event>
 5   0  0.1509629E-02  0.8006813E+03  0.7818609E-02  0.9559031E-01
        1   -1    0    0  501    0  0.00000000000E+00  0.00000000000E+00  0.18476428430E+03  0.18476428437E+03  0.50400001928E-02 0. -1.
       -1   -1    0    0    0  501  0.00000000000E+00  0.00000000000E+00 -0.86744385908E+03  0.86744385909E+03  0.50400001928E-02 0.  1.
    10030    2    1    2    0    0  0.00000000000E+00  0.00000000000E+00 -0.68267957478E+03  0.10522081435E+04  0.80068131946E+03 0.  0.
        5    1    3    3  502    0 -0.52441566501E+02  0.45766936470E+02  0.17671489922E+03  0.18998677843E+03  0.46999998093E+01 0. -1.
       -5    1    3    3    0  502  0.52441566501E+02 -0.45766936470E+02 -0.85939447400E+03  0.86222136503E+03  0.46999998093E+01 0.  1.
</event>
<event>
 5   0  0.2460312E-02  0.8095179E+03  0.7818609E-02  0.9546342E-01
        2   -1    0    0  501    0  0.00000000000E+00  0.00000000000E+00  0.86021436725E+03  0.86021436725E+03  0.25500000920E-02 0.  1.
       -2   -1    0    0    0  501  0.00000000000E+00  0.00000000000E+00 -0.19045229765E+03  0.19045229767E+03  0.25500000920E-02 0. -1.
    10030    2    1    2    0    0  0.00000000000E+00  0.00000000000E+00  0.66976206960E+03  0.10506666649E+04  0.80951788795E+03 0.  0.
        2    1    3    3  502    0  0.82914154007E+02  0.36032034822E+03  0.12112533076E+03  0.38907178776E+03  0.25500000920E-02 0. -1.
       -2    1    3    3    0  502 -0.82914154007E+02 -0.36032034822E+03  0.54863673884E+03  0.66159487716E+03  0.25500000920E-02 0.  1.
</event>
<event>
 5   0  0.1471290E-02  0.7852541E+03  0.7818609E-02  0.9581610E-01
       -1   -1    0    0    0  501  0.00000000000E+00  0.00000000000E+00  0.33297596127E+03  0.33297596131E+03  0.50400001928E-02 0.  1.
        1   -1    0    0  501    0  0.00000000000E+00  0.00000000000E+00 -0.46296433518E+03  0.46296433521E+03  0.50400001928E-02 0. -1.
    10030    2    1    2    0    0  0.00000000000E+00  0.00000000000E+00 -0.12998837391E+03  0.79594029652E+03  0.78525408516E+03 0.  0.
        2    1    3    3  502    0  0.34864120626E+03 -0.16221337488E+03  0.15408202279E+02  0.38483929425E+03  0.25500000920E-02 0. -1.
       -2    1    3    3    0  502 -0.34864120626E+03  0.16221337488E+03 -0.14539657619E+03  0.41110100227E+03  0.25500000920E-02 0.  1.
</event>
<event>
 5   0  0.2454354E-02  0.7788622E+03  0.7818609E-02  0.9591127E-01
       -2   -1    0    0    0  501  0.00000000000E+00  0.00000000000E+00  0.31566965136E+03  0.31566965137E+03  0.25500000920E-02 0.  1.
        2   -1    0    0  501    0  0.00000000000E+00  0.00000000000E+00 -0.48042814985E+03  0.48042814985E+03  0.25500000920E-02 0. -1.
    10030    2    1    2    0    0  0.00000000000E+00  0.00000000000E+00 -0.16475849849E+03  0.79609780122E+03  0.77886221264E+03 0.  0.
        5    1    3    3  502    0  0.25313426313E+03 -0.19161689561E+03  0.14808879986E+03  0.35035178392E+03  0.46999998093E+01 0.  1.
       -5    1    3    3    0  502 -0.25313426313E+03  0.19161689561E+03 -0.31284729835E+03  0.44574601730E+03  0.46999998093E+01 0. -1.
</event>
<event>
 5   0  0.1523811E-02  0.8208296E+03  0.7818609E-02  0.9530347E-01
       -1   -1    0    0    0  501  0.00000000000E+00  0.00000000000E+00  0.14388035402E+03  0.14388035411E+03  0.50400001928E-02 0.  1.
        1   -1    0    0  501    0  0.00000000000E+00  0.00000000000E+00 -0.11706970580E+04  0.11706970580E+04  0.50400001928E-02 0. -1.
    10030    2    1    2    0    0  0.00000000000E+00  0.00000000000E+00 -0.10268167039E+04  0.13145774121E+04  0.82082959794E+03 0.  0.
        1    1    3    3  502    0  0.22947585968E+03  0.23344306108E+03 -0.90987981478E+03  0.96697265231E+03  0.50400001928E-02 0. -1.
       -1    1    3    3    0  502 -0.22947585968E+03 -0.23344306108E+03 -0.11693688916E+03  0.34760475977E+03  0.50400001928E-02 0.  1.
</event>
<event>
 5   0  0.2464780E-02  0.8228803E+03  0.7818609E-02  0.9527477E-01
       -2   -1    0    0    0  501  0.00000000000E+00  0.00000000000E+00  0.61227923771E+03  0.61227923771E+03  0.25500000920E-02 0. -1.
        2   -1    0    0  501    0  0.00000000000E+00  0.00000000000E+00 -0.27648004641E+03  0.27648004642E+03  0.25500000920E-02 0.  1.
    10030    2    1    2    0    0  0.00000000000E+00  0.00000000000E+00  0.33579919130E+03  0.88875928414E+03  0.82288028793E+03 0.  0.
        3    1    3    3  502    0  0.30798550253E+03  0.42298423062E+02  0.45899254675E+03  0.55436305301E+03  0.10100000352E+00 0. -1.
       -3    1    3    3    0  502 -0.30798550253E+03 -0.42298423062E+02 -0.12319335546E+03  0.33439623113E+03  0.10100000352E+00 0.  1.
</event>
<event>
 5   0  0.2454354E-02  0.7973324E+03  0.7818609E-02  0.9563886E-01
        2   -1    0    0  501    0  0.00000000000E+00  0.00000000000E+00  0.87538281962E+03  0.87538281962E+03  0.25500000920E-02 0.  1.
       -2   -1    0    0    0  501  0.00000000000E+00  0.00000000000E+00 -0.18156024784E+03  0.18156024785E+03  0.25500000920E-02 0. -1.
    10030    2    1    2    0    0  0.00000000000E+00  0.00000000000E+00  0.69382257178E+03  0.10569430675E+04  0.79733235653E+03 0.  0.
        5    1    3    3  502    0 -0.26890611938E+03 -0.92486799665E+02  0.71724563267E+03  0.77157481603E+03  0.46999998093E+01 0.  1.
       -5    1    3    3    0  502  0.26890611938E+03  0.92486799665E+02 -0.23423060888E+02  0.28536825144E+03  0.46999998093E+01 0. -1.
</event>
<event>
 5   0  0.2454354E-02  0.8049934E+03  0.7818609E-02  0.9552817E-01
       -2   -1    0    0    0  501  0.00000000000E+00  0.00000000000E+00  0.12455136053E+03  0.12455136055E+03  0.25500000920E-02 0. -1.
        2   -1    0    0  501    0  0.00000000000E+00  0.00000000000E+00 -0.13006970973E+04  0.13006970973E+04  0.25500000920E-02 0.  1.
    10030    2    1    2    0    0  0.00000000000E+00  0.00000000000E+00 -0.11761457368E+04  0.14252484579E+04  0.80499339903E+03 0.  0.
        5    1    3    3  502    0 -0.10259065705E+03 -0.25343217629E+03 -0.65161371771E+02  0.28110639492E+03  0.46999998093E+01 0. -1.
       -5    1    3    3    0  502  0.10259065705E+03  0.25343217629E+03 -0.11109843650E+04  0.11441420629E+04  0.46999998093E+01 0.  1.
</event>
<event>
 5   0  0.2464780E-02  0.7967399E+03  0.7818609E-02  0.9564748E-01
        2   -1    0    0  501    0  0.00000000000E+00  0.00000000000E+00  0.65405170166E+03  0.65405170167E+03  0.25500000920E-02 0.  1.
       -2   -1    0    0    0  501  0.00000000000E+00  0.00000000000E+00 -0.24263923847E+03  0.24263923849E+03  0.25500000920E-02 0. -1.
    10030    2    1    2    0    0  0.00000000000E+00  0.00000000000E+00  0.41141246319E+03  0.89669094015E+03  0.79673987429E+03 0.  0.
        3    1    3    3  502    0  0.59497608707E+02  0.82533492335E+02  0.63918257291E+03  0.64722956863E+03  0.10100000352E+00 0.  1.
       -3    1    3    3    0  502 -0.59497608707E+02 -0.82533492335E+02 -0.22777010972E+03  0.24946137152E+03  0.10100000352E+00 0. -1.
</event>
<event>
 5   0  0.1523811E-02  0.7542626E+03  0.7818609E-02  0.9628687E-01
        1   -1    0    0  501    0  0.00000000000E+00  0.00000000000E+00  0.98695091018E+03  0.98695091019E+03  0.50400001928E-02 0.  1.
       -1   -1    0    0    0  501  0.00000000000E+00  0.00000000000E+00 -0.14410849375E+03  0.14410849384E+03  0.50400001928E-02 0. -1.
    10030    2    1    2    0    0  0.00000000000E+00  0.00000000000E+00  0.84284241642E+03  0.11310594040E+04  0.75426257797E+03 0.  0.
        1    1    3    3  502    0 -0.35096228971E+03  0.83206405881E+02  0.25626444039E+03  0.44245824460E+03  0.50400001928E-02 0. -1.
       -1    1    3    3    0  502  0.35096228971E+03 -0.83206405881E+02  0.58657797603E+03  0.68860115943E+03  0.50400001928E-02 0.  1.
</event>
<event>
 5   0  0.1471290E-02  0.7067473E+03  0.7818609E-02  0.9705762E-01
       -1   -1    0    0    0  501  0.00000000000E+00  0.00000000000E+00  0.21988518950E+03  0.21988518956E+03  0.50400001928E-02 0.  1.
        1   -1    0    0  501    0  0.00000000000E+00  0.00000000000E+00 -0.56790063862E+03  0.56790063865E+03  0.50400001928E-02 0. -1.
    10030    2    1    2    0    0  0.00000000000E+00  0.00000000000E+00 -0.34801544912E+03  0.78778582821E+03  0.70674730866E+03 0.  0.
        2    1    3    3  502    0 -0.31683507468E+03  0.10406142994E+03 -0.30428374477E+03  0.45144417494E+03  0.25500000920E-02 0. -1.
       -2    1    3    3    0  502  0.31683507468E+03 -0.10406142994E+03 -0.43731704354E+02  0.33634165327E+03  0.25500000920E-02 0.  1.
</event>
<event>
 5   0  0.1509629E-02  0.7898961E+03  0.7818609E-02  0.9574758E-01
        1   -1    0    0  501    0  0.00000000000E+00  0.00000000000E+00  0.57248326314E+03  0.57248326317E+03  0.50400001928E-02 0.  1.
       -1   -1    0    0    0  501  0.00000000000E+00  0.00000000000E+00 -0.27246903313E+03  0.27246903317E+03  0.50400001928E-02 0. -1.
    10030    2    1    2    0    0  0.00000000000E+00  0.00000000000E+00  0.30001423002E+03  0.84495229634E+03  0.78989609752E+03 0.  0.
        5    1    3    3  502    0  0.95625546306E+02  0.38316776212E+03  0.15033189167E+03  0.42259146547E+03  0.46999998093E+01 0. -1.
       -5    1    3    3    0  502 -0.95625546306E+02 -0.38316776212E+03  0.14968233835E+03  0.42236083087E+03  0.46999998093E+01 0.  1.
</event>
<event>
 5   0  0.2460312E-02  0.7878477E+03  0.7818609E-02  0.9577775E-01
        2   -1    0    0  501    0  0.00000000000E+00  0.00000000000E+00  0.96429701674E+03  0.96429701675E+03  0.25500000920E-02 0. -1.
       -2   -1    0    0    0  501  0.00000000000E+00  0.00000000000E+00 -0.16092138519E+03  0.16092138521E+03  0.25500000920E-02 0.  1.
    10030    2    1    2    0    0  0.00000000000E+00  0.00000000000E+00  0.80337563155E+03  0.11252184020E+04  0.78784773069E+03 0.  0.
        2    1    3    3  502    0  0.28141842909E+03 -0.64505192437E+02  0.18939324326E+02  0.28933708731E+03  0.25500000920E-02 0.  1.
       -2    1    3    3    0  502 -0.28141842909E+03  0.64505192437E+02  0.78443630722E+03  0.83588131465E+03  0.25500000920E-02 0. -1.
</event>
<event>
 5   0  0.1624094E-02  0.8048506E+03  0.7818609E-02  0.9553022E-01
        1   -1    0    0  501    0  0.00000000000E+00  0.00000000000E+00  0.20218015022E+03  0.20218015028E+03  0.50400001928E-02 0.  1.
       -1   -1    0    0    0  501  0.00000000000E+00  0.00000000000E+00 -0.80099918803E+03  0.80099918805E+03  0.50400001928E-02 0. -1.
    10030    2    1    2    0    0  0.00000000000E+00  0.00000000000E+00 -0.59881903781E+03  0.10031793383E+04  0.80485063510E+03 0.  0.
        3    1    3    3  502    0  0.11301311806E+03 -0.35915308208E+03 -0.12233398244E+03  0.39588952333E+03  0.10100000352E+00 0.  1.
       -3    1    3    3    0  502 -0.11301311806E+03  0.35915308208E+03 -0.47648505537E+03  0.60728981501E+03  0.10100000352E+00 0. -1.
</event>
<event>
 5   0  0.1498375E-02  0.8030420E+03  0.7818609E-02  0.9555624E-01
        1   -1    0    0  501    0  0.00000000000E+00  0.00000000000E+00  0.29720858500E+03  0.29720858504E+03  0.50400001928E-02 0. -1.
       -1   -1    0    0    0  501  0.00000000000E+00  0.00000000000E+00 -0.54244432554E+03  0.54244432556E+03  0.50400001928E-02 0.  1.
    10030    2    1    2    0    0  0.00000000000E+00  0.00000000000E+00 -0.24523574054E+03  0.83965291060E+03  0.80304199258E+03 0.  0.
        4    1    3    3  502    0 -0.65762348292E+02  0.35827366121E+03  0.53999615581E+02  0.36824214065E+03  0.12699999809E+01 0. -1.
       -4    1    3    3    0  502  0.65762348292E+02 -0.35827366121E+03 -0.29923535612E+03  0.47141076995E+03  0.12699999809E+01 0.  1.
</event>
<event>
 5   0  0.2422031E-02  0.7958871E+03  0.7818609E-02  0.9565989E-01
       -2   -1    0    0    0  501  0.00000000000E+00  0.00000000000E+00  0.88815764304E+03  0.88815764304E+03  0.25500000920E-02 0. -1.
        2   -1    0    0  501    0  0.00000000000E+00  0.00000000000E+00 -0.17830064461E+03  0.17830064463E+03  0.25500000920E-02 0.  1.
    10030    2    1    2    0    0  0.00000000000E+00  0.00000000000E+00  0.70985699843E+03  0.10664582877E+04  0.79588712838E+03 0.  0.
        4    1    3    3  502    0 -0.91584762841E+02 -0.27342947461E+03 -0.12538800786E+02  0.28863520367E+03  0.12699999809E+01 0.  1.
       -4    1    3    3    0  502  0.91584762841E+02  0.27342947461E+03  0.72239579922E+03  0.77782308400E+03  0.12699999809E+01 0. -1.
</event>
<event>
 5   0  0.9919125E-03  0.7874179E+03  0.7818609E-02  0.9578410E-01
       -3   -1    0    0    0  501  0.00000000000E+00  0.00000000000E+00  0.25532629160E+03  0.25532631158E+03  0.10100000352E+00 0. -1.
        3   -1    0    0  501    0  0.00000000000E+00  0.00000000000E+00 -0.60709268862E+03  0.60709269703E+03  0.10100000352E+00 0.  1.
    10030    2    1    2    0    0  0.00000000000E+00  0.00000000000E+00 -0.35176639702E+03  0.86241900860E+03  0.78741789942E+03 0.  0.
        1    1    3    3  502    0 -0.14419769254E+03  0.25122807089E+03  0.11615684069E+03  0.31209122032E+03  0.50400001928E-02 0. -1.
       -1    1    3    3    0  502  0.14419769254E+03 -0.25122807089E+03 -0.46792323771E+03  0.55032778828E+03  0.50400001928E-02 0.  1.
</event>
<event>
 5   0  0.1498375E-02  0.7894894E+03  0.7818609E-02  0.9575357E-01
       -1   -1    0    0    0  501  0.00000000000E+00  0.00000000000E+00  0.39062685935E+03  0.39062685939E+03  0.50400001928E-02 0.  1.
        1   -1    0    0  501    0  0.00000000000E+00  0.00000000000E+00 -0.39890593810E+03  0.39890593813E+03  0.50400001928E-02 0. -1.
    10030    2    1    2    0    0  0.00000000000E+00  0.00000000000E+00 -0.82790787455E+01  0.78953279752E+03  0.78948938892E+03 0.  0.
        4    1    3    3  502    0  0.67860517039E+02  0.38862685808E+03 -0.17773935321E+02  0.39490936969E+03  0.12699999809E+01 0.  1.
       -4    1    3    3    0  502 -0.67860517039E+02 -0.38862685808E+03  0.94948565750E+01  0.39462342783E+03  0.12699999809E+01 0. -1.
</event>
<event>
 5   0  0.1498375E-02  0.7882783E+03  0.7818609E-02  0.9577141E-01
       -1   -1    0    0    0  501  0.00000000000E+00  0.00000000000E+00  0.54142870177E+03  0.54142870180E+03  0.50400001928E-02 0. -1.
        1   -1    0    0  501    0  0.00000000000E+00  0.00000000000E+00 -0.28691803758E+03  0.28691803762E+03  0.50400001928E-02 0.  1.
    10030    2    1    2    0    0  0.00000000000E+00  0.00000000000E+00  0.25451066420E+03  0.82834673942E+03  0.78827827733E+03 0.  0.
        4    1    3    3  502    0  0.37419689868E+03 -0.12289177251E+03  0.11172787807E+03  0.40940253831E+03  0.12699999809E+01 0.  1.
       -4    1    3    3    0  502 -0.37419689868E+03  0.12289177251E+03  0.14278278612E+03  0.41894420111E+03  0.12699999809E+01 0. -1.
</event>
<event>
 5   0  0.1523811E-02  0.8037969E+03  0.7818609E-02  0.9554537E-01
       -1   -1    0    0    0  501  0.00000000000E+00  0.00000000000E+00  0.29414659282E+03  0.29414659286E+03  0.50400001928E-02 0.  1.
        1   -1    0    0  501    0  0.00000000000E+00  0.00000000000E+00 -0.54912200153E+03  0.54912200155E+03  0.50400001928E-02 0. -1.
    10030    2    1    2    0    0  0.00000000000E+00  0.00000000000E+00 -0.25497540871E+03  0.84326859441E+03  0.80379690424E+03 0.  0.
        1    1    3    3  502    0  0.31836552170E+03 -0.12375568933E+03 -0.34966630323E+03  0.48881346104E+03  0.50400001928E-02 0. -1.
       -1    1    3    3    0  502 -0.31836552170E+03  0.12375568933E+03  0.94690894519E+02  0.35445513338E+03  0.50400001928E-02 0.  1.
</event>
<event>
 5   0  0.2571778E-02  0.8090672E+03  0.7818609E-02  0.9546985E-01
        2   -1    0    0  501    0  0.00000000000E+00  0.00000000000E+00  0.18277508189E+04  0.18277508189E+04  0.25500000920E-02 0. -1.
       -2   -1    0    0    0  501  0.00000000000E+00  0.00000000000E+00 -0.89534875302E+02  0.89534875338E+02  0.25500000920E-02 0.  1.
    10030    2    1    2    0    0  0.00000000000E+00  0.00000000000E+00  0.17382159436E+04  0.19172856942E+04  0.80906722017E+03 0.  0.
        1    1    3    3  502    0 -0.25329214834E+03 -0.30720197620E+02  0.16130232641E+04  0.16330782876E+04  0.50400001928E-02 0. -1.
       -1    1    3    3    0  502  0.25329214834E+03  0.30720197620E+02  0.12519267951E+03  0.28420740663E+03  0.50400001928E-02 0.  1.
</event>
<event>
 5   0  0.1624094E-02  0.8021804E+03  0.7818609E-02  0.9556866E-01
        1   -1    0    0  501    0  0.00000000000E+00  0.00000000000E+00  0.10771579831E+04  0.10771579831E+04  0.50400001928E-02 0. -1.
       -1   -1    0    0    0  501  0.00000000000E+00  0.00000000000E+00 -0.14934981153E+03  0.14934981162E+03  0.50400001928E-02 0.  1.
    10030    2    1    2    0    0  0.00000000000E+00  0.00000000000E+00  0.92780817152E+03  0.12265077947E+04  0.80218038325E+03 0.  0.
        3    1    3    3  502    0 -0.31823118169E+02 -0.29390958560E+02  0.10735707605E+04  0.10744443808E+04  0.10100000352E+00 0. -1.
       -3    1    3    3    0  502  0.31823118169E+02  0.29390958560E+02 -0.14576258901E+03  0.15206341391E+03  0.10100000352E+00 0.  1.
</event>
<event>
 5   0  0.2460312E-02  0.7979602E+03  0.7818609E-02  0.9562974E-01
       -2   -1    0    0    0  501  0.00000000000E+00  0.00000000000E+00  0.14705978152E+03  0.14705978154E+03  0.25500000920E-02 0.  1.
        2   -1    0    0  501    0  0.00000000000E+00  0.00000000000E+00 -0.10824517813E+04  0.10824517813E+04  0.25500000920E-02 0. -1.
    10030    2    1    2    0    0  0.00000000000E+00  0.00000000000E+00 -0.93539199974E+03  0.12295115628E+04  0.79796020570E+03 0.  0.
        2    1    3    3  502    0  0.17508778200E+03  0.69559759631E+02 -0.10095972304E+04  0.10270252476E+04  0.25500000920E-02 0. -1.
       -2    1    3    3    0  502 -0.17508778200E+03 -0.69559759631E+02  0.74205230689E+02  0.20248631518E+03  0.25500000920E-02 0.  1.
</event>
<event>
 5   0  0.2464780E-02  0.8170616E+03  0.7818609E-02  0.9535644E-01
       -2   -1    0    0    0  501  0.00000000000E+00  0.00000000000E+00  0.18954591530E+03  0.18954591532E+03  0.25500000920E-02 0. -1.
        2   -1    0    0  501    0  0.00000000000E+00  0.00000000000E+00 -0.88051190206E+03  0.88051190207E+03  0.25500000920E-02 0.  1.
    10030    2    1    2    0    0  0.00000000000E+00  0.00000000000E+00 -0.69096598677E+03  0.10700578174E+04  0.81706164864E+03 0.  0.
        3    1    3    3  502    0 -0.10793096561E+02  0.23715858385E+03 -0.78090035605E+03  0.81618996631E+03  0.10100000352E+00 0.  1.
       -3    1    3    3    0  502  0.10793096561E+02 -0.23715858385E+03  0.89934369284E+02  0.25386785107E+03  0.10100000352E+00 0. -1.
</event>
<event>
 5   0  0.9919125E-03  0.8071120E+03  0.7818609E-02  0.9549779E-01
       -3   -1    0    0    0  501  0.00000000000E+00  0.00000000000E+00  0.55580768679E+03  0.55580769596E+03  0.10100000352E+00 0. -1.
        3   -1    0    0  501    0  0.00000000000E+00  0.00000000000E+00 -0.29301038436E+03  0.29301040177E+03  0.10100000352E+00 0.  1.
    10030    2    1    2    0    0  0.00000000000E+00  0.00000000000E+00  0.26279730242E+03  0.84881809773E+03  0.80711197542E+03 0.  0.
        2    1    3    3  502    0  0.21036691086E+03 -0.13129709392E+03  0.46622782444E+03  0.52807343082E+03  0.25500000920E-02 0. -1.
       -2    1    3    3    0  502 -0.21036691086E+03  0.13129709392E+03 -0.20343052201E+03  0.32074466691E+03  0.25500000920E-02 0.  1.
</event>
<event>
 5   0  0.1509629E-02  0.8179664E+03  0.7818609E-02  0.9534369E-01
       -1   -1    0    0    0  501  0.00000000000E+00  0.00000000000E+00  0.41863590351E+03  0.41863590354E+03  0.50400001928E-02 0. -1.
        1   -1    0    0  501    0  0.00000000000E+00  0.00000000000E+00 -0.39955306940E+03  0.39955306943E+03  0.50400001928E-02 0.  1.
    10030    2    1    2    0    0  0.00000000000E+00  0.00000000000E+00  0.19082834107E+02  0.81818897297E+03  0.81796640575E+03 0.  0.
        5    1    3    3  502    0 -0.47119188836E+02  0.33833228524E+03  0.23444969459E+03  0.41434008071E+03  0.46999998093E+01 0. -1.
       -5    1    3    3    0  502  0.47119188836E+02 -0.33833228524E+03 -0.21536686048E+03  0.40384889226E+03  0.46999998093E+01 0.  1.
</event>
<event>
 5   0  0.2422031E-02  0.8090058E+03  0.7818609E-02  0.9547072E-01
       -2   -1    0    0    0  501  0.00000000000E+00  0.00000000000E+00  0.36452258820E+03  0.36452258820E+03  0.25500000920E-02 0. -1.
        2   -1    0    0  501    0  0.00000000000E+00  0.00000000000E+00 -0.44886816750E+03  0.44886816751E+03  0.25500000920E-02 0.  1.
    10030    2    1    2    0    0  0.00000000000E+00  0.00000000000E+00 -0.84345579306E+02  0.81339075571E+03  0.80900577546E+03 0.  0.
        4    1    3    3  502    0  0.25158658211E+03 -0.16296466027E+03 -0.31524699970E+03  0.43501215215E+03  0.12699999809E+01 0.  1.
       -4    1    3    3    0  502 -0.25158658211E+03  0.16296466027E+03  0.23090142039E+03  0.37837860357E+03  0.12699999809E+01 0. -1.
</event>
<event>
 5   0  0.2422031E-02  0.7991508E+03  0.7818609E-02  0.9561247E-01
       -2   -1    0    0    0  501  0.00000000000E+00  0.00000000000E+00  0.44560819086E+03  0.44560819086E+03  0.25500000920E-02 0. -1.
        2   -1    0    0  501    0  0.00000000000E+00  0.00000000000E+00 -0.35829794658E+03  0.35829794659E+03  0.25500000920E-02 0.  1.
    10030    2    1    2    0    0  0.00000000000E+00  0.00000000000E+00  0.87310244279E+02  0.80390613745E+03  0.79915079870E+03 0.  0.
        4    1    3    3  502    0  0.18358368312E+03  0.34475050271E+03  0.12843597680E+03  0.41116090629E+03  0.12699999809E+01 0.  1.
       -4    1    3    3    0  502 -0.18358368312E+03 -0.34475050271E+03 -0.41125732525E+02  0.39274523116E+03  0.12699999809E+01 0. -1.
</event>
<event>
 5   0  0.2460312E-02  0.7892923E+03  0.7818609E-02  0.9575647E-01
        2   -1    0    0  501    0  0.00000000000E+00  0.00000000000E+00  0.25043446620E+03  0.25043446621E+03  0.25500000920E-02 0.  1.
       -2   -1    0    0    0  501  0.00000000000E+00  0.00000000000E+00 -0.62190159224E+03  0.62190159225E+03  0.25500000920E-02 0. -1.
    10030    2    1    2    0    0  0.00000000000E+00  0.00000000000E+00 -0.37146712605E+03  0.87233605846E+03  0.78929232427E+03 0.  0.
        2    1    3    3  502    0  0.10863213958E+02  0.31991471436E+03 -0.44084906784E+03  0.54480394135E+03  0.25500000920E-02 0. -1.
       -2    1    3    3    0  502 -0.10863213958E+02 -0.31991471436E+03  0.69381941795E+02  0.32753211711E+03  0.25500000920E-02 0.  1.
</event>
<event>
 5   0  0.1624094E-02  0.7875642E+03  0.7818609E-02  0.9578194E-01
        1   -1    0    0  501    0  0.00000000000E+00  0.00000000000E+00  0.99715249121E+03  0.99715249122E+03  0.50400001928E-02 0. -1.
       -1   -1    0    0    0  501  0.00000000000E+00  0.00000000000E+00 -0.15550714191E+03  0.15550714199E+03  0.50400001928E-02 0.  1.
    10030    2    1    2    0    0  0.00000000000E+00  0.00000000000E+00  0.84164534930E+03  0.11526596332E+04  0.78756417900E+03 0.  0.
        3    1    3    3  502    0 -0.15304429532E+03  0.34788174516E+03  0.26999584880E+03  0.46619956404E+03  0.10100000352E+00 0.  1.
       -3    1    3    3    0  502  0.15304429532E+03 -0.34788174516E+03  0.57164950050E+03  0.68646006917E+03  0.10100000352E+00 0. -1.
</event>
<event>
 5   0  0.2464780E-02  0.7981349E+03  0.7818609E-02  0.9562721E-01
       -2   -1    0    0    0  501  0.00000000000E+00  0.00000000000E+00  0.21117005471E+03  0.21117005473E+03  0.25500000920E-02 0. -1.
        2   -1    0    0  501    0  0.00000000000E+00  0.00000000000E+00 -0.75415439516E+03  0.75415439517E+03  0.25500000920E-02 0.  1.
    10030    2    1    2    0    0  0.00000000000E+00  0.00000000000E+00 -0.54298434045E+03  0.96532444990E+03  0.79813488809E+03 0.  0.
        3    1    3    3  502    0 -0.56106315466E+02 -0.37791688589E+03 -0.13208355454E+03  0.40424641848E+03  0.10100000352E+00 0. -1.
       -3    1    3    3    0  502  0.56106315466E+02  0.37791688589E+03 -0.41090078591E+03  0.56107803142E+03  0.10100000352E+00 0.  1.
</event>
<event>
 5   0  0.1509629E-02  0.7972059E+03  0.7818609E-02  0.9564070E-01
        1   -1    0    0  501    0  0.00000000000E+00  0.00000000000E+00  0.56766672816E+03  0.56766672818E+03  0.50400001928E-02 0.  1.
       -1   -1    0    0    0  501  0.00000000000E+00  0.00000000000E+00 -0.27989014929E+03  0.27989014933E+03  0.50400001928E-02 0. -1.
    10030    2    1    2    0    0  0.00000000000E+00  0.00000000000E+00  0.28777657887E+03  0.84755687751E+03  0.79720593404E+03 0.  0.
        5    1    3    3  502    0  0.38635057775E+03  0.50763630172E+02  0.23295616797E+03  0.45402024323E+03  0.46999998093E+01 0. -1.
       -5    1    3    3    0  502 -0.38635057775E+03 -0.50763630172E+02  0.54820410903E+02  0.39353663428E+03  0.46999998093E+01 0.  1.
</event>
<event>
 5   0  0.1624094E-02  0.8087742E+03  0.7818609E-02  0.9547403E-01
       -1   -1    0    0    0  501  0.00000000000E+00  0.00000000000E+00  0.31406109434E+03  0.31406109438E+03  0.50400001928E-02 0.  1.
        1   -1    0    0  501    0  0.00000000000E+00  0.00000000000E+00 -0.52069146267E+03  0.52069146269E+03  0.50400001928E-02 0. -1.
    10030    2    1    2    0    0  0.00000000000E+00  0.00000000000E+00 -0.20663036832E+03  0.83475255707E+03  0.80877420979E+03 0.  0.
        3    1    3    3  502    0 -0.17524895321E+02  0.35739089629E+02  0.31203421534E+03  0.31456281762E+03  0.10100000352E+00 0.  1.
       -3    1    3    3    0  502  0.17524895321E+02 -0.35739089629E+02 -0.51866458367E+03  0.52018973945E+03  0.10100000352E+00 0. -1.
</event>
<event>
 5   0  0.1509629E-02  0.8022054E+03  0.7818609E-02  0.9556830E-01
        1   -1    0    0  501    0  0.00000000000E+00  0.00000000000E+00  0.35019779149E+03  0.35019779153E+03  0.50400001928E-02 0. -1.
       -1   -1    0    0    0  501  0.00000000000E+00  0.00000000000E+00 -0.45940713575E+03  0.45940713578E+03  0.50400001928E-02 0.  1.
    10030    2    1    2    0    0  0.00000000000E+00  0.00000000000E+00 -0.10920934426E+03  0.80960492731E+03  0.80220537111E+03 0.  0.
        5    1    3    3  502    0 -0.33793953429E+03  0.10218208814E+03  0.13745828543E+03  0.37889467957E+03  0.46999998093E+01 0.  1.
       -5    1    3    3    0  502  0.33793953429E+03 -0.10218208814E+03 -0.24666762969E+03  0.43071024774E+03  0.46999998093E+01 0. -1.
</event>
<event>
 5   0  0.2422031E-02  0.7345507E+03  0.7818609E-02  0.9659904E-01
        2   -1    0    0  501    0  0.00000000000E+00  0.00000000000E+00  0.44047112752E+03  0.44047112753E+03  0.25500000920E-02 0.  1.
       -2   -1    0    0    0  501  0.00000000000E+00  0.00000000000E+00 -0.30624298283E+03  0.30624298284E+03  0.25500000920E-02 0. -1.
    10030    2    1    2    0    0  0.00000000000E+00  0.00000000000E+00  0.13422814469E+03  0.74671411038E+03  0.73455072514E+03 0.  0.
        4    1    3    3  502    0  0.15503214878E+03  0.14358079756E+03 -0.23825855373E+03  0.31846375604E+03  0.12699999809E+01 0. -1.
       -4    1    3    3    0  502 -0.15503214878E+03 -0.14358079756E+03  0.37248669842E+03  0.42825035433E+03  0.12699999809E+01 0.  1.
</event>
<event>
 5   0  0.1471290E-02  0.8067908E+03  0.7818609E-02  0.9550239E-01
       -1   -1    0    0    0  501  0.00000000000E+00  0.00000000000E+00  0.15957753295E+03  0.15957753303E+03  0.50400001928E-02 0. -1.
        1   -1    0    0  501    0  0.00000000000E+00  0.00000000000E+00 -0.10197415129E+04  0.10197415129E+04  0.50400001928E-02 0.  1.
    10030    2    1    2    0    0  0.00000000000E+00  0.00000000000E+00 -0.86016397993E+03  0.11793190459E+04  0.80679076576E+03 0.  0.
        2    1    3    3  502    0 -0.49046875857E+02  0.16725707714E+03 -0.96185703291E+03  0.97752211108E+03  0.25500000920E-02 0. -1.
       -2    1    3    3    0  502  0.49046875857E+02 -0.16725707714E+03  0.10169305298E+03  0.20179693485E+03  0.25500000920E-02 0.  1.
</event>
<event>
 5   0  0.1624094E-02  0.8034959E+03  0.7818609E-02  0.9554971E-01
        1   -1    0    0  501    0  0.00000000000E+00  0.00000000000E+00  0.15607496705E+03  0.15607496713E+03  0.50400001928E-02 0.  1.
       -1   -1    0    0    0  501  0.00000000000E+00  0.00000000000E+00 -0.10341274734E+04  0.10341274734E+04  0.50400001928E-02 0. -1.
    10030    2    1    2    0    0  0.00000000000E+00  0.00000000000E+00 -0.87805250635E+03  0.11902024405E+04  0.80349589019E+03 0.  0.
        3    1    3    3  502    0 -0.31839888416E+03  0.15179664674E+03 -0.72388426486E+03  0.80525058864E+03  0.10100000352E+00 0. -1.
       -3    1    3    3    0  502  0.31839888416E+03 -0.15179664674E+03 -0.15416824149E+03  0.38495185190E+03  0.10100000352E+00 0.  1.
</event>
<event>
 5   0  0.2460312E-02  0.7306006E+03  0.7818609E-02  0.9666286E-01
        2   -1    0    0  501    0  0.00000000000E+00  0.00000000000E+00  0.85298669712E+03  0.85298669712E+03  0.25500000920E-02 0.  1.
       -2   -1    0    0    0  501  0.00000000000E+00  0.00000000000E+00 -0.15644359684E+03  0.15644359686E+03  0.25500000920E-02 0. -1.
    10030    2    1    2    0    0  0.00000000000E+00  0.00000000000E+00  0.69654310027E+03  0.10094302940E+04  0.73060059395E+03 0.  0.
        2    1    3    3  502    0 -0.13742345094E+03 -0.27238592249E+03  0.70684723185E+02  0.31317028234E+03  0.25500000920E-02 0. -1.
       -2    1    3    3    0  502  0.13742345094E+03  0.27238592249E+03  0.62585837709E+03  0.69626001165E+03  0.25500000920E-02 0.  1.
</event>
<event>
 5   0  0.1624094E-02  0.7483112E+03  0.7818609E-02  0.9638004E-01
        1   -1    0    0  501    0  0.00000000000E+00  0.00000000000E+00  0.45058667592E+03  0.45058667595E+03  0.50400001928E-02 0.  1.
       -1   -1    0    0    0  501  0.00000000000E+00  0.00000000000E+00 -0.31068917101E+03  0.31068917106E+03  0.50400001928E-02 0. -1.
    10030    2    1    2    0    0  0.00000000000E+00  0.00000000000E+00  0.13989750491E+03  0.76127584701E+03  0.74831116747E+03 0.  0.
        3    1    3    3  502    0 -0.95854555087E+02  0.35457956647E+02 -0.29621348404E+03  0.31334932703E+03  0.10100000352E+00 0. -1.
       -3    1    3    3    0  502  0.95854555087E+02 -0.35457956647E+02  0.43611098895E+03  0.44792651998E+03  0.10100000352E+00 0.  1.
</event>
<event>
 5   0  0.2422031E-02  0.7979784E+03  0.7818609E-02  0.9562948E-01
       -2   -1    0    0    0  501  0.00000000000E+00  0.00000000000E+00  0.31576983025E+03  0.31576983026E+03  0.25500000920E-02 0.  1.
        2   -1    0    0  501    0  0.00000000000E+00  0.00000000000E+00 -0.50414050740E+03  0.50414050741E+03  0.25500000920E-02 0. -1.
    10030    2    1    2    0    0  0.00000000000E+00  0.00000000000E+00 -0.18837067715E+03  0.81991033767E+03  0.79797835172E+03 0.  0.
        4    1    3    3  502    0 -0.81745179531E+02  0.19834976221E+03 -0.43983245789E+03  0.48936602504E+03  0.12699999809E+01 0. -1.
       -4    1    3    3    0  502  0.81745179531E+02 -0.19834976221E+03  0.25146178074E+03  0.33054431264E+03  0.12699999809E+01 0.  1.
</event>
<event>
 5   0  0.2571778E-02  0.7991897E+03  0.7818609E-02  0.9561191E-01
        2   -1    0    0  501    0  0.00000000000E+00  0.00000000000E+00  0.39368084517E+03  0.39368084517E+03  0.25500000920E-02 0.  1.
       -2   -1    0    0    0  501  0.00000000000E+00  0.00000000000E+00 -0.40559765943E+03  0.40559765944E+03  0.25500000920E-02 0. -1.
    10030    2    1    2    0    0  0.00000000000E+00  0.00000000000E+00 -0.11916814265E+02  0.79927850461E+03  0.79918966302E+03 0.  0.
        1    1    3    3  502    0 -0.13930196017E+03 -0.33589647347E+03 -0.17164079730E+03  0.40210948797E+03  0.50400001928E-02 0. -1.
       -1    1    3    3    0  502  0.13930196017E+03  0.33589647347E+03  0.15972398304E+03  0.39716901664E+03  0.50400001928E-02 0.  1.
</event>
<event>
 5   0  0.2571778E-02  0.7602980E+03  0.7818609E-02  0.9619332E-01
       -2   -1    0    0    0  501  0.00000000000E+00  0.00000000000E+00  0.15845439377E+03  0.15845439379E+03  0.25500000920E-02 0. -1.
        2   -1    0    0  501    0  0.00000000000E+00  0.00000000000E+00 -0.91201796603E+03  0.91201796603E+03  0.25500000920E-02 0.  1.
    10030    2    1    2    0    0  0.00000000000E+00  0.00000000000E+00 -0.75356357226E+03  0.10704723598E+04  0.76029797824E+03 0.  0.
        1    1    3    3  502    0 -0.33192210710E+03 -0.16834477391E+03 -0.26771220470E+03  0.45845618401E+03  0.50400001928E-02 0. -1.
       -1    1    3    3    0  502  0.33192210710E+03  0.16834477391E+03 -0.48585136755E+03  0.61201617582E+03  0.50400001928E-02 0.  1.
</event>
<event>
 5   0  0.2464780E-02  0.9487024E+03  0.7818609E-02  0.9366669E-01
        2   -1    0    0  501    0  0.00000000000E+00  0.00000000000E+00  0.27696118953E+03  0.27696118954E+03  0.25500000920E-02 0. -1.
       -2   -1    0    0    0  501  0.00000000000E+00  0.00000000000E+00 -0.81242095029E+03  0.81242095029E+03  0.25500000920E-02 0.  1.
    10030    2    1    2    0    0  0.00000000000E+00  0.00000000000E+00 -0.53545976076E+03  0.10893821398E+04  0.94870242500E+03 0.  0.
        3    1    3    3  502    0 -0.12141964195E+03 -0.40223222633E+03 -0.14909722041E+02  0.42042336206E+03  0.10100000352E+00 0.  1.
       -3    1    3    3    0  502  0.12141964195E+03  0.40223222633E+03 -0.52055003872E+03  0.66895877777E+03  0.10100000352E+00 0. -1.
</event>
<event>
 5   0  0.2454354E-02  0.7845923E+03  0.7818609E-02  0.9582591E-01
        2   -1    0    0  501    0  0.00000000000E+00  0.00000000000E+00  0.64557683188E+03  0.64557683188E+03  0.25500000920E-02 0. -1.
       -2   -1    0    0    0  501  0.00000000000E+00  0.00000000000E+00 -0.23838569426E+03  0.23838569427E+03  0.25500000920E-02 0.  1.
    10030    2    1    2    0    0  0.00000000000E+00  0.00000000000E+00  0.40719113761E+03  0.88396252615E+03  0.78459233051E+03 0.  0.
        5    1    3    3  502    0 -0.34999610080E+03 -0.78235233822E+02  0.38264524186E+03  0.52445923912E+03  0.46999998093E+01 0. -1.
       -5    1    3    3    0  502  0.34999610080E+03  0.78235233822E+02  0.24545895757E+02  0.35950328703E+03  0.46999998093E+01 0.  1.
</event>
<event>
 5   0  0.1624094E-02  0.8066061E+03  0.7818609E-02  0.9550504E-01
        1   -1    0    0  501    0  0.00000000000E+00  0.00000000000E+00  0.10034656045E+04  0.10034656046E+04  0.50400001928E-02 0.  1.
       -1   -1    0    0    0  501  0.00000000000E+00  0.00000000000E+00 -0.16209160506E+03  0.16209160514E+03  0.50400001928E-02 0. -1.
    10030    2    1    2    0    0  0.00000000000E+00  0.00000000000E+00  0.84137399949E+03  0.11655572097E+04  0.80660610093E+03 0.  0.
        3    1    3    3  502    0  0.39938921035E+03 -0.50851264967E+02  0.45475220232E+03  0.60736905437E+03  0.10100000352E+00 0.  1.
       -3    1    3    3    0  502 -0.39938921035E+03  0.50851264967E+02  0.38662179717E+03  0.55818815532E+03  0.10100000352E+00 0. -1.
</event>
<event>
 5   0  0.1498375E-02  0.7996418E+03  0.7818609E-02  0.9560536E-01
       -1   -1    0    0    0  501  0.00000000000E+00  0.00000000000E+00  0.48477335506E+03  0.48477335508E+03  0.50400001928E-02 0. -1.
        1   -1    0    0  501    0  0.00000000000E+00  0.00000000000E+00 -0.32975563515E+03  0.32975563518E+03  0.50400001928E-02 0.  1.
    10030    2    1    2    0    0  0.00000000000E+00  0.00000000000E+00  0.15501771991E+03  0.81452899027E+03  0.79964178386E+03 0.  0.
        4    1    3    3  502    0 -0.19363337132E+03 -0.20780812183E+03 -0.20911390635E+03  0.35271565987E+03  0.12699999809E+01 0. -1.
       -4    1    3    3    0  502  0.19363337132E+03  0.20780812183E+03  0.36413162626E+03  0.46181333040E+03  0.12699999809E+01 0.  1.
</event>
<event>
 5   0  0.2422031E-02  0.7916165E+03  0.7818609E-02  0.9572232E-01
        2   -1    0    0  501    0  0.00000000000E+00  0.00000000000E+00  0.87492494241E+03  0.87492494241E+03  0.25500000920E-02 0.  1.
       -2   -1    0    0    0  501  0.00000000000E+00  0.00000000000E+00 -0.17906013041E+03  0.17906013043E+03  0.25500000920E-02 0. -1.
    10030    2    1    2    0    0  0.00000000000E+00  0.00000000000E+00  0.69586481199E+03  0.10539850728E+04  0.79161650893E+03 0.  0.
        4    1    3    3  502    0 -0.15098497339E+03 -0.10207929938E+03  0.81572999646E+03  0.83584309866E+03  0.12699999809E+01 0.  1.
       -4    1    3    3    0  502  0.15098497339E+03  0.10207929938E+03 -0.11986518447E+03  0.21814197418E+03  0.12699999809E+01 0. -1.
</event>
<event>
 5   0  0.1624094E-02  0.7753553E+03  0.7818609E-02  0.9596391E-01
       -1   -1    0    0    0  501  0.00000000000E+00  0.00000000000E+00  0.51721411652E+03  0.51721411655E+03  0.50400001928E-02 0.  1.
        1   -1    0    0  501    0  0.00000000000E+00  0.00000000000E+00 -0.29058361406E+03  0.29058361411E+03  0.50400001928E-02 0. -1.
    10030    2    1    2    0    0  0.00000000000E+00  0.00000000000E+00  0.22663050246E+03  0.80779773065E+03  0.77535526632E+03 0.  0.
        3    1    3    3  502    0 -0.41976957831E+02 -0.33400122566E+03  0.31365000299E+03  0.46010348652E+03  0.10100000352E+00 0.  1.
       -3    1    3    3    0  502  0.41976957831E+02  0.33400122566E+03 -0.87019500528E+02  0.34769424413E+03  0.10100000352E+00 0. -1.
</event>
<event>
 5   0  0.1471290E-02  0.8013590E+03  0.7818609E-02  0.9558052E-01
       -1   -1    0    0    0  501  0.00000000000E+00  0.00000000000E+00  0.30348909911E+03  0.30348909915E+03  0.50400001928E-02 0.  1.
        1   -1    0    0  501    0  0.00000000000E+00  0.00000000000E+00 -0.52899443499E+03  0.52899443501E+03  0.50400001928E-02 0. -1.
    10030    2    1    2    0    0  0.00000000000E+00  0.00000000000E+00 -0.22550533588E+03  0.83248353416E+03  0.80135895711E+03 0.  0.
        2    1    3    3  502    0  0.29786980264E+02  0.33092758987E+03 -0.34537788471E+03  0.47925589948E+03  0.25500000920E-02 0. -1.
       -2    1    3    3    0  502 -0.29786980264E+02 -0.33092758987E+03  0.11987254883E+03  0.35322763468E+03  0.25500000920E-02 0.  1.
</event>
<event>
 5   0  0.1624094E-02  0.8059144E+03  0.7818609E-02  0.9551496E-01
        1   -1    0    0  501    0  0.00000000000E+00  0.00000000000E+00  0.32854364056E+03  0.32854364060E+03  0.50400001928E-02 0.  1.
       -1   -1    0    0    0  501  0.00000000000E+00  0.00000000000E+00 -0.49422504978E+03  0.49422504981E+03  0.50400001928E-02 0. -1.
    10030    2    1    2    0    0  0.00000000000E+00  0.00000000000E+00 -0.16568140922E+03  0.82276869041E+03  0.80591438042E+03 0.  0.
        3    1    3    3  502    0 -0.26284751179E+02  0.13424981267E+03 -0.46979321560E+03  0.48930519717E+03  0.10100000352E+00 0. -1.
       -3    1    3    3    0  502  0.26284751179E+02 -0.13424981267E+03  0.30411180638E+03  0.33346349325E+03  0.10100000352E+00 0.  1.
</event>
<event>
 5   0  0.1523811E-02  0.7715762E+03  0.7818609E-02  0.9602096E-01
        1   -1    0    0  501    0  0.00000000000E+00  0.00000000000E+00  0.96621088632E+03  0.96621088633E+03  0.50400001928E-02 0.  1.
       -1   -1    0    0    0  501  0.00000000000E+00  0.00000000000E+00 -0.15403724769E+03  0.15403724777E+03  0.50400001928E-02 0. -1.
    10030    2    1    2    0    0  0.00000000000E+00  0.00000000000E+00  0.81217363863E+03  0.11202481341E+04  0.77157621961E+03 0.  0.
        1    1    3    3  502    0  0.29237067482E+03 -0.11036173129E+02  0.77117450284E+03  0.82481059794E+03  0.50400001928E-02 0.  1.
       -1    1    3    3    0  502 -0.29237067482E+03  0.11036173129E+02  0.40999135789E+02  0.29543753616E+03  0.50400001928E-02 0. -1.
</event>
<event>
 5   0  0.1509629E-02  0.8097223E+03  0.7818609E-02  0.9546050E-01
        1   -1    0    0  501    0  0.00000000000E+00  0.00000000000E+00  0.26056426803E+03  0.26056426808E+03  0.50400001928E-02 0. -1.
       -1   -1    0    0    0  501  0.00000000000E+00  0.00000000000E+00 -0.62906771891E+03  0.62906771893E+03  0.50400001928E-02 0.  1.
    10030    2    1    2    0    0  0.00000000000E+00  0.00000000000E+00 -0.36850345088E+03  0.88963198701E+03  0.80972234686E+03 0.  0.
        5    1    3    3  502    0 -0.31564533262E+03 -0.25278501359E+03 -0.20504685811E+03  0.45342975545E+03  0.46999998093E+01 0.  1.
       -5    1    3    3    0  502  0.31564533262E+03  0.25278501359E+03 -0.16345659277E+03  0.43620223157E+03  0.46999998093E+01 0. -1.
</event>
<event>
 5   0  0.9919125E-03  0.7938038E+03  0.7818609E-02  0.9569029E-01
       -4   -1    0    0    0  501  0.00000000000E+00  0.00000000000E+00  0.39175930095E+03  0.39176135948E+03  0.12699999809E+01 0.  1.
        4   -1    0    0  501    0  0.00000000000E+00  0.00000000000E+00 -0.40210793806E+03  0.40210994361E+03  0.12699999809E+01 0. -1.
    10030    2    1    2    0    0  0.00000000000E+00  0.00000000000E+00 -0.10348637114E+02  0.79387130309E+03  0.79380384956E+03 0.  0.
        5    1    3    3  502    0 -0.39323631448E+02  0.74028097599E+02 -0.39312807390E+03  0.40199288515E+03  0.46999998093E+01 0. -1.
       -5    1    3    3    0  502  0.39323631448E+02 -0.74028097599E+02  0.38277943679E+03  0.39187841794E+03  0.46999998093E+01 0.  1.
</event>
<event>
 5   0  0.9919125E-03  0.8143270E+03  0.7818609E-02  0.9539508E-01
        3   -1    0    0  501    0  0.00000000000E+00  0.00000000000E+00  0.22131160797E+03  0.22131163101E+03  0.10100000352E+00 0.  1.
       -3   -1    0    0    0  501  0.00000000000E+00  0.00000000000E+00 -0.74908909017E+03  0.74908909698E+03  0.10100000352E+00 0. -1.
    10030    2    1    2    0    0  0.00000000000E+00  0.00000000000E+00 -0.52777748220E+03  0.97040072799E+03  0.81432702409E+03 0.  0.
        4    1    3    3  502    0  0.30718364099E+03  0.10450097853E+03  0.29216605078E+02  0.32578745636E+03  0.12699999809E+01 0.  1.
       -4    1    3    3    0  502 -0.30718364099E+03 -0.10450097853E+03 -0.55699408728E+03  0.64461327163E+03  0.12699999809E+01 0. -1.
</event>
<event>
 5   0  0.9919125E-03  0.8062224E+03  0.7818609E-02  0.9551054E-01
       -4   -1    0    0    0  501  0.00000000000E+00  0.00000000000E+00  0.40227063597E+03  0.40227264071E+03  0.12699999809E+01 0.  1.
        4   -1    0    0  501    0  0.00000000000E+00  0.00000000000E+00 -0.40394946532E+03  0.40395146173E+03  0.12699999809E+01 0. -1.
    10030    2    1    2    0    0  0.00000000000E+00  0.00000000000E+00 -0.16788293441E+01  0.80622410244E+03  0.80622235449E+03 0.  0.
        4    1    3    3  502    0  0.19438414544E+03 -0.27984231183E+03 -0.21624668946E+03  0.40356060151E+03  0.12699999809E+01 0. -1.
       -4    1    3    3    0  502 -0.19438414544E+03  0.27984231183E+03  0.21456786012E+03  0.40266350093E+03  0.12699999809E+01 0.  1.
</event>
<event>
 5   0  0.2454354E-02  0.7467478E+03  0.7818609E-02  0.9640466E-01
        2   -1    0    0  501    0  0.00000000000E+00  0.00000000000E+00  0.17163711917E+03  0.17163711919E+03  0.25500000920E-02 0. -1.
       -2   -1    0    0    0  501  0.00000000000E+00  0.00000000000E+00 -0.81222570007E+03  0.81222570007E+03  0.25500000920E-02 0.  1.
    10030    2    1    2    0    0  0.00000000000E+00  0.00000000000E+00 -0.64058858090E+03  0.98386281926E+03  0.74674782702E+03 0.  0.
        5    1    3    3  502    0 -0.11268001032E+03  0.30301614355E+03 -0.56632492032E+03  0.65212082726E+03  0.46999998093E+01 0.  1.
       -5    1    3    3    0  502  0.11268001032E+03 -0.30301614355E+03 -0.74263660583E+02  0.33174199200E+03  0.46999998093E+01 0. -1.
</event>
<event>
 5   0  0.1523811E-02  0.8052325E+03  0.7818609E-02  0.9552474E-01
       -1   -1    0    0    0  501  0.00000000000E+00  0.00000000000E+00  0.11363136890E+03  0.11363136901E+03  0.50400001928E-02 0. -1.
        1   -1    0    0  501    0  0.00000000000E+00  0.00000000000E+00 -0.14265412059E+04  0.14265412059E+04  0.50400001928E-02 0.  1.
    10030    2    1    2    0    0  0.00000000000E+00  0.00000000000E+00 -0.13129098370E+04  0.15401725749E+04  0.80523246360E+03 0.  0.
        1    1    3    3  502    0  0.19439932818E+03  0.16910743915E+03 -0.12481935961E+04  0.12745099757E+04  0.50400001928E-02 0.  1.
       -1    1    3    3    0  502 -0.19439932818E+03 -0.16910743915E+03 -0.64716240916E+02  0.26566259924E+03  0.50400001928E-02 0. -1.
</event>
<event>
 5   0  0.2454354E-02  0.7897454E+03  0.7818609E-02  0.9574980E-01
        2   -1    0    0  501    0  0.00000000000E+00  0.00000000000E+00  0.23948758672E+03  0.23948758673E+03  0.25500000920E-02 0.  1.
       -2   -1    0    0    0  501  0.00000000000E+00  0.00000000000E+00 -0.65107521898E+03  0.65107521898E+03  0.25500000920E-02 0. -1.
    10030    2    1    2    0    0  0.00000000000E+00  0.00000000000E+00 -0.41158763226E+03  0.89056280571E+03  0.78974535889E+03 0.  0.
        5    1    3    3  502    0 -0.10348027488E+03 -0.32552970678E+03  0.17541113978E+02  0.34206364607E+03  0.46999998093E+01 0. -1.
       -5    1    3    3    0  502  0.10348027488E+03  0.32552970678E+03 -0.42912874624E+03  0.54849915964E+03  0.46999998093E+01 0.  1.
</event>
<event>
 5   0  0.1624094E-02  0.8012945E+03  0.7818609E-02  0.9558145E-01
        1   -1    0    0  501    0  0.00000000000E+00  0.00000000000E+00  0.20064418946E+03  0.20064418953E+03  0.50400001928E-02 0.  1.
       -1   -1    0    0    0  501  0.00000000000E+00  0.00000000000E+00 -0.80001433675E+03  0.80001433677E+03  0.50400001928E-02 0. -1.
    10030    2    1    2    0    0  0.00000000000E+00  0.00000000000E+00 -0.59937014729E+03  0.10006585263E+04  0.80129452312E+03 0.  0.
        3    1    3    3  502    0 -0.23187413350E+03  0.26888699202E+03 -0.67890427033E+02  0.36148990104E+03  0.10100000352E+00 0.  1.
       -3    1    3    3    0  502  0.23187413350E+03 -0.26888699202E+03 -0.53147972026E+03  0.63916862526E+03  0.10100000352E+00 0. -1.
</event>
<event>
 5   0  0.2422031E-02  0.9660353E+03  0.7818609E-02  0.9346602E-01
        2   -1    0    0  501    0  0.00000000000E+00  0.00000000000E+00  0.58726137155E+03  0.58726137155E+03  0.25500000920E-02 0.  1.
       -2   -1    0    0    0  501  0.00000000000E+00  0.00000000000E+00 -0.39727806432E+03  0.39727806433E+03  0.25500000920E-02 0. -1.
    10030    2    1    2    0    0  0.00000000000E+00  0.00000000000E+00  0.18998330723E+03  0.98453943588E+03  0.96603532222E+03 0.  0.
        4    1    3    3  502    0 -0.40069232980E+03  0.25068907008E+03 -0.64390489078E+01  0.47269697193E+03  0.12699999809E+01 0.  1.
       -4    1    3    3    0  502  0.40069232980E+03 -0.25068907008E+03  0.19642235614E+03  0.51184246396E+03  0.12699999809E+01 0. -1.
</event>
<event>
 5   0  0.1498375E-02  0.8136682E+03  0.7818609E-02  0.9540441E-01
       -1   -1    0    0    0  501  0.00000000000E+00  0.00000000000E+00  0.11378078322E+03  0.11378078333E+03  0.50400001928E-02 0.  1.
        1   -1    0    0  501    0  0.00000000000E+00  0.00000000000E+00 -0.14546744253E+04  0.14546744253E+04  0.50400001928E-02 0. -1.
    10030    2    1    2    0    0  0.00000000000E+00  0.00000000000E+00 -0.13408936421E+04  0.15684552087E+04  0.81366822608E+03 0.  0.
        4    1    3    3  502    0  0.14920196366E+03 -0.29184920632E+03 -0.11349836075E+04  0.11813664069E+04  0.12699999809E+01 0. -1.
       -4    1    3    3    0  502 -0.14920196366E+03  0.29184920632E+03 -0.20591003462E+03  0.38708880176E+03  0.12699999809E+01 0.  1.
</event>
<event>
 5   0  0.2422031E-02  0.8680768E+03  0.7818609E-02  0.9466391E-01
        2   -1    0    0  501    0  0.00000000000E+00  0.00000000000E+00  0.73828905918E+03  0.73828905919E+03  0.25500000920E-02 0. -1.
       -2   -1    0    0    0  501  0.00000000000E+00  0.00000000000E+00 -0.25517016173E+03  0.25517016175E+03  0.25500000920E-02 0.  1.
    10030    2    1    2    0    0  0.00000000000E+00  0.00000000000E+00  0.48311889745E+03  0.99345922093E+03  0.86807681376E+03 0.  0.
        4    1    3    3  502    0 -0.96806414253E+02  0.22002991007E+02 -0.24200020771E+03  0.26157470612E+03  0.12699999809E+01 0.  1.
       -4    1    3    3    0  502  0.96806414253E+02 -0.22002991007E+02  0.72511910516E+03  0.73188451481E+03  0.12699999809E+01 0. -1.
</event>
<event>
 5   0  0.2460312E-02  0.8011827E+03  0.7818609E-02  0.9558307E-01
        2   -1    0    0  501    0  0.00000000000E+00  0.00000000000E+00  0.34057702947E+03  0.34057702948E+03  0.25500000920E-02 0. -1.
       -2   -1    0    0    0  501  0.00000000000E+00  0.00000000000E+00 -0.47118098713E+03  0.47118098714E+03  0.25500000920E-02 0.  1.
    10030    2    1    2    0    0  0.00000000000E+00  0.00000000000E+00 -0.13060395766E+03  0.81175801663E+03  0.80118267817E+03 0.  0.
        2    1    3    3  502    0  0.40702822675E+02  0.33212319225E+03  0.15785714107E+03  0.36997487968E+03  0.25500000920E-02 0. -1.
       -2    1    3    3    0  502 -0.40702822675E+02 -0.33212319225E+03 -0.28846109873E+03  0.44178313694E+03  0.25500000920E-02 0.  1.
</event>
<event>
 5   0  0.1523811E-02  0.7842733E+03  0.7818609E-02  0.9583064E-01
        1   -1    0    0  501    0  0.00000000000E+00  0.00000000000E+00  0.81047789272E+03  0.81047789274E+03  0.50400001928E-02 0. -1.
       -1   -1    0    0    0  501  0.00000000000E+00  0.00000000000E+00 -0.18972899093E+03  0.18972899100E+03  0.50400001928E-02 0.  1.
    10030    2    1    2    0    0  0.00000000000E+00  0.00000000000E+00  0.62074890179E+03  0.10002068837E+04  0.78427330134E+03 0.  0.
        1    1    3    3  502    0 -0.11614301928E+03  0.22833967336E+03  0.68900546782E+03  0.73508961499E+03  0.50400001928E-02 0. -1.
       -1    1    3    3    0  502  0.11614301928E+03 -0.22833967336E+03 -0.68256566024E+02  0.26511726875E+03  0.50400001928E-02 0.  1.
</event>
<event>
 5   0  0.1509629E-02  0.7924468E+03  0.7818609E-02  0.9571015E-01
        1   -1    0    0  501    0  0.00000000000E+00  0.00000000000E+00  0.62401668046E+03  0.62401668048E+03  0.50400001928E-02 0. -1.
       -1   -1    0    0    0  501  0.00000000000E+00  0.00000000000E+00 -0.25158461732E+03  0.25158461737E+03  0.50400001928E-02 0.  1.
    10030    2    1    2    0    0  0.00000000000E+00  0.00000000000E+00  0.37243206314E+03  0.87560129785E+03  0.79244683805E+03 0.  0.
        5    1    3    3  502    0  0.17520617797E+03  0.34239090408E+03  0.81147506289E+02  0.39311034554E+03  0.46999998093E+01 0.  1.
       -5    1    3    3    0  502 -0.17520617797E+03 -0.34239090408E+03  0.29128455686E+03  0.48249095231E+03  0.46999998093E+01 0. -1.
</event>
<event>
 5   0  0.1523811E-02  0.7938841E+03  0.7818609E-02  0.9568912E-01
        1   -1    0    0  501    0  0.00000000000E+00  0.00000000000E+00  0.15801248068E+04  0.15801248068E+04  0.50400001928E-02 0.  1.
       -1   -1    0    0    0  501  0.00000000000E+00  0.00000000000E+00 -0.99715526457E+02  0.99715526585E+02  0.50400001928E-02 0. -1.
    10030    2    1    2    0    0  0.00000000000E+00  0.00000000000E+00  0.14804092804E+04  0.16798403334E+04  0.79388406482E+03 0.  0.
        1    1    3    3  502    0 -0.81524127797E+02  0.11652338178E+03 -0.43961364528E+02  0.14885054085E+03  0.50400001928E-02 0. -1.
       -1    1    3    3    0  502  0.81524127797E+02 -0.11652338178E+03  0.15243706449E+04  0.15309897926E+04  0.50400001928E-02 0.  1.
</event>
<event>
 5   0  0.2454354E-02  0.8003886E+03  0.7818609E-02  0.9559455E-01
       -2   -1    0    0    0  501  0.00000000000E+00  0.00000000000E+00  0.14241145658E+03  0.14241145660E+03  0.25500000920E-02 0. -1.
        2   -1    0    0  501    0  0.00000000000E+00  0.00000000000E+00 -0.11245968075E+04  0.11245968075E+04  0.25500000920E-02 0.  1.
    10030    2    1    2    0    0  0.00000000000E+00  0.00000000000E+00 -0.98218535093E+03  0.12670082641E+04  0.80038857921E+03 0.  0.
        5    1    3    3  502    0  0.12277850551E+03  0.13424047239E+03 -0.10553093599E+04  0.10708851484E+04  0.46999998093E+01 0.  1.
       -5    1    3    3    0  502 -0.12277850551E+03 -0.13424047239E+03  0.73124008989E+02  0.19612311575E+03  0.46999998093E+01 0. -1.
</event>
<event>
 5   0  0.2464780E-02  0.8608599E+03  0.7818609E-02  0.9475876E-01
       -2   -1    0    0    0  501  0.00000000000E+00  0.00000000000E+00  0.11597967484E+04  0.11597967484E+04  0.25500000920E-02 0.  1.
        2   -1    0    0  501    0  0.00000000000E+00  0.00000000000E+00 -0.15974346404E+03  0.15974346406E+03  0.25500000920E-02 0. -1.
    10030    2    1    2    0    0  0.00000000000E+00  0.00000000000E+00  0.10000532844E+04  0.13195402125E+04  0.86085991936E+03 0.  0.
        3    1    3    3  502    0  0.35525332661E+03 -0.17868690880E+03  0.75252762759E+03  0.85113558141E+03  0.10100000352E+00 0. -1.
       -3    1    3    3    0  502 -0.35525332661E+03  0.17868690880E+03  0.24752565678E+03  0.46840463107E+03  0.10100000352E+00 0.  1.
</event>
<event>
 5   0  0.2464780E-02  0.7884555E+03  0.7818609E-02  0.9576879E-01
        2   -1    0    0  501    0  0.00000000000E+00  0.00000000000E+00  0.32682921951E+03  0.32682921952E+03  0.25500000920E-02 0.  1.
       -2   -1    0    0    0  501  0.00000000000E+00  0.00000000000E+00 -0.47552518270E+03  0.47552518271E+03  0.25500000920E-02 0. -1.
    10030    2    1    2    0    0  0.00000000000E+00  0.00000000000E+00 -0.14869596319E+03  0.80235440223E+03  0.78845551384E+03 0.  0.
        3    1    3    3  502    0  0.20211886903E+03 -0.18215872907E+03 -0.36465153749E+03  0.45497757504E+03  0.10100000352E+00 0. -1.
       -3    1    3    3    0  502 -0.20211886903E+03  0.18215872907E+03  0.21595557430E+03  0.34737682719E+03  0.10100000352E+00 0.  1.
</event>
<event>
 5   0  0.1471290E-02  0.8067266E+03  0.7818609E-02  0.9550331E-01
       -1   -1    0    0    0  501  0.00000000000E+00  0.00000000000E+00  0.86001681852E+03  0.86001681854E+03  0.50400001928E-02 0. -1.
        1   -1    0    0  501    0  0.00000000000E+00  0.00000000000E+00 -0.18918459335E+03  0.18918459341E+03  0.50400001928E-02 0.  1.
    10030    2    1    2    0    0  0.00000000000E+00  0.00000000000E+00  0.67083222518E+03  0.10492014120E+04  0.80672655126E+03 0.  0.
        2    1    3    3  502    0 -0.34109679718E+03 -0.17608117749E+03  0.49655164455E+03  0.62762659427E+03  0.25500000920E-02 0. -1.
       -2    1    3    3    0  502  0.34109679718E+03  0.17608117749E+03  0.17428058062E+03  0.42157481768E+03  0.25500000920E-02 0.  1.
</event>
<event>
 5   0  0.2422031E-02  0.7819019E+03  0.7818609E-02  0.9586589E-01
        2   -1    0    0  501    0  0.00000000000E+00  0.00000000000E+00  0.40144661721E+03  0.40144661721E+03  0.25500000920E-02 0.  1.
       -2   -1    0    0    0  501  0.00000000000E+00  0.00000000000E+00 -0.38072968982E+03  0.38072968983E+03  0.25500000920E-02 0. -1.
    10030    2    1    2    0    0  0.00000000000E+00  0.00000000000E+00  0.20716927385E+02  0.78217630704E+03  0.78190190192E+03 0.  0.
        4    1    3    3  502    0  0.26215968389E+03 -0.28848043133E+03  0.40241577577E+02  0.39187964554E+03  0.12699999809E+01 0. -1.
       -4    1    3    3    0  502 -0.26215968389E+03  0.28848043133E+03 -0.19524650192E+02  0.39029666151E+03  0.12699999809E+01 0.  1.
</event>
<event>
 5   0  0.1523811E-02  0.8030653E+03  0.7818609E-02  0.9555591E-01
        1   -1    0    0  501    0  0.00000000000E+00  0.00000000000E+00  0.11732309090E+03  0.11732309101E+03  0.50400001928E-02 0.  1.
       -1   -1    0    0    0  501  0.00000000000E+00  0.00000000000E+00 -0.13742262077E+04  0.13742262077E+04  0.50400001928E-02 0. -1.
    10030    2    1    2    0    0  0.00000000000E+00  0.00000000000E+00 -0.12569031168E+04  0.14915492987E+04  0.80306529340E+03 0.  0.
        1    1    3    3  502    0 -0.24090738863E+03 -0.58191839042E+01 -0.12249903683E+04  0.12484677150E+04  0.50400001928E-02 0. -1.
       -1    1    3    3    0  502  0.24090738863E+03  0.58191839042E+01 -0.31912748431E+02  0.24308158371E+03  0.50400001928E-02 0.  1.
</event>
<event>
 5   0  0.2464780E-02  0.7963805E+03  0.7818609E-02  0.9565271E-01
       -2   -1    0    0    0  501  0.00000000000E+00  0.00000000000E+00  0.10039938046E+04  0.10039938046E+04  0.25500000920E-02 0.  1.
        2   -1    0    0  501    0  0.00000000000E+00  0.00000000000E+00 -0.15792474932E+03  0.15792474934E+03  0.25500000920E-02 0. -1.
    10030    2    1    2    0    0  0.00000000000E+00  0.00000000000E+00  0.84606905530E+03  0.11619185540E+04  0.79638048677E+03 0.  0.
        3    1    3    3  502    0 -0.23346752057E+03 -0.54352016404E+02  0.88692801063E+03  0.91875052713E+03  0.10100000352E+00 0.  1.
       -3    1    3    3    0  502  0.23346752057E+03  0.54352016404E+02 -0.40858955331E+02  0.24316802684E+03  0.10100000352E+00 0. -1.
</event>
<event>
 5   0  0.1523811E-02  0.8105099E+03  0.7818609E-02  0.9544928E-01
       -1   -1    0    0    0  501  0.00000000000E+00  0.00000000000E+00  0.50940588440E+03  0.50940588442E+03  0.50400001928E-02 0.  1.
        1   -1    0    0  501    0  0.00000000000E+00  0.00000000000E+00 -0.32239826732E+03  0.32239826736E+03  0.50400001928E-02 0. -1.
    10030    2    1    2    0    0  0.00000000000E+00  0.00000000000E+00  0.18700761707E+03  0.83180415178E+03  0.81050990005E+03 0.  0.
        1    1    3    3  502    0  0.88721665866E+02 -0.15695853173E+03  0.46597725163E+03  0.49964218571E+03  0.50400001928E-02 0.  1.
       -1    1    3    3    0  502 -0.88721665866E+02  0.15695853173E+03 -0.27896963456E+03  0.33216196608E+03  0.50400001928E-02 0. -1.
</event>
<event>
 5   0  0.2454354E-02  0.7673407E+03  0.7818609E-02  0.9608532E-01
        2   -1    0    0  501    0  0.00000000000E+00  0.00000000000E+00  0.50675016373E+03  0.50675016374E+03  0.25500000920E-02 0.  1.
       -2   -1    0    0    0  501  0.00000000000E+00  0.00000000000E+00 -0.29048422365E+03  0.29048422366E+03  0.25500000920E-02 0. -1.
    10030    2    1    2    0    0  0.00000000000E+00  0.00000000000E+00  0.21626594008E+03  0.79723438739E+03  0.76734067506E+03 0.  0.
        5    1    3    3  502    0  0.25326078055E+03 -0.27932524015E+03  0.34541140697E+02  0.37865392266E+03  0.46999998093E+01 0. -1.
       -5    1    3    3    0  502 -0.25326078055E+03  0.27932524015E+03  0.18172479939E+03  0.41858046473E+03  0.46999998093E+01 0.  1.
</event>
<event>
 5   0  0.9919125E-03  0.7199525E+03  0.7818609E-02  0.9683706E-01
       -3   -1    0    0    0  501  0.00000000000E+00  0.00000000000E+00  0.16848405592E+03  0.16848408619E+03  0.10100000352E+00 0.  1.
        3   -1    0    0  501    0  0.00000000000E+00  0.00000000000E+00 -0.76911075701E+03  0.76911076364E+03  0.10100000352E+00 0. -1.
    10030    2    1    2    0    0  0.00000000000E+00  0.00000000000E+00 -0.60062670109E+03  0.93759484984E+03  0.71995254592E+03 0.  0.
        2    1    3    3  502    0  0.32666000327E+03  0.20660341893E+02 -0.10518838641E+03  0.34379965693E+03  0.25500000920E-02 0.  1.
       -2    1    3    3    0  502 -0.32666000327E+03 -0.20660341893E+02 -0.49543831468E+03  0.59379519291E+03  0.25500000920E-02 0. -1.
</event>
<event>
 5   0  0.1471290E-02  0.7779248E+03  0.7818609E-02  0.9592531E-01
       -1   -1    0    0    0  501  0.00000000000E+00  0.00000000000E+00  0.19026056860E+03  0.19026056867E+03  0.50400001928E-02 0.  1.
        1   -1    0    0  501    0  0.00000000000E+00  0.00000000000E+00 -0.79518193898E+03  0.79518193899E+03  0.50400001928E-02 0. -1.
    10030    2    1    2    0    0  0.00000000000E+00  0.00000000000E+00 -0.60492137037E+03  0.98544250767E+03  0.77792484957E+03 0.  0.
        2    1    3    3  502    0 -0.28918336294E+02 -0.24034495542E+03  0.83203775554E+02  0.25597819446E+03  0.25500000920E-02 0.  1.
       -2    1    3    3    0  502  0.28918336294E+02  0.24034495542E+03 -0.68812514593E+03  0.72946431320E+03  0.25500000920E-02 0. -1.
</event>
<event>
 5   0  0.2460312E-02  0.7708340E+03  0.7818609E-02  0.9603220E-01
       -2   -1    0    0    0  501  0.00000000000E+00  0.00000000000E+00  0.69648751841E+03  0.69648751841E+03  0.25500000920E-02 0. -1.
        2   -1    0    0  501    0  0.00000000000E+00  0.00000000000E+00 -0.21327916208E+03  0.21327916209E+03  0.25500000920E-02 0.  1.
    10030    2    1    2    0    0  0.00000000000E+00  0.00000000000E+00  0.48320835633E+03  0.90976668051E+03  0.77083402710E+03 0.  0.
        2    1    3    3  502    0  0.31382070447E+03 -0.19622050648E+03  0.11470620370E+03  0.38748346402E+03  0.25500000920E-02 0.  1.
       -2    1    3    3    0  502 -0.31382070447E+03  0.19622050648E+03  0.36850215263E+03  0.52228321648E+03  0.25500000920E-02 0. -1.
</event>
<event>
 5   0  0.2464780E-02  0.8160807E+03  0.7818609E-02  0.9537028E-01
        2   -1    0    0  501    0  0.00000000000E+00  0.00000000000E+00  0.80639240839E+03  0.80639240839E+03  0.25500000920E-02 0. -1.
       -2   -1    0    0    0  501  0.00000000000E+00  0.00000000000E+00 -0.20647135543E+03  0.20647135544E+03  0.25500000920E-02 0.  1.
    10030    2    1    2    0    0  0.00000000000E+00  0.00000000000E+00  0.59992105296E+03  0.10128637638E+04  0.81608071556E+03 0.  0.
        3    1    3    3  502    0  0.12713297441E+03  0.17074158986E+03  0.73201247952E+03  0.76233704099E+03  0.10100000352E+00 0. -1.
       -3    1    3    3    0  502 -0.12713297441E+03 -0.17074158986E+03 -0.13209142656E+03  0.25052672285E+03  0.10100000352E+00 0.  1.
</event>
<event>
 5   0  0.1624094E-02  0.7998270E+03  0.7818609E-02  0.9560268E-01
       -1   -1    0    0    0  501  0.00000000000E+00  0.00000000000E+00  0.29632486951E+03  0.29632486955E+03  0.50400001928E-02 0.  1.
        1   -1    0    0  501    0  0.00000000000E+00  0.00000000000E+00 -0.53971439748E+03  0.53971439750E+03  0.50400001928E-02 0. -1.
    10030    2    1    2    0    0  0.00000000000E+00  0.00000000000E+00 -0.24338952797E+03  0.83603926705E+03  0.79982697736E+03 0.  0.
        3    1    3    3  502    0  0.18829394670E+03  0.31574734652E+03 -0.28623777764E+03  0.46592174531E+03  0.10100000352E+00 0. -1.
       -3    1    3    3    0  502 -0.18829394670E+03 -0.31574734652E+03  0.42848249672E+02  0.37011752174E+03  0.10100000352E+00 0.  1.
</event>
<event>
 5   0  0.2454354E-02  0.8005496E+03  0.7818609E-02  0.9559222E-01
       -2   -1    0    0    0  501  0.00000000000E+00  0.00000000000E+00  0.64987771592E+02  0.64987771642E+02  0.25500000920E-02 0.  1.
        2   -1    0    0  501    0  0.00000000000E+00  0.00000000000E+00 -0.24653853001E+04  0.24653853001E+04  0.25500000920E-02 0. -1.
    10030    2    1    2    0    0  0.00000000000E+00  0.00000000000E+00 -0.24003975285E+04  0.25303730717E+04  0.80054955333E+03 0.  0.
        5    1    3    3  502    0  0.30873237405E+03  0.85102463015E+01 -0.39553145886E+03  0.50185189849E+03  0.46999998093E+01 0.  1.
       -5    1    3    3    0  502 -0.30873237405E+03 -0.85102463015E+01 -0.20048660696E+04  0.20285211732E+04  0.46999998093E+01 0. -1.
</event>
<event>
 5   0  0.2422031E-02  0.8708622E+03  0.7818609E-02  0.9462756E-01
        2   -1    0    0  501    0  0.00000000000E+00  0.00000000000E+00  0.33142004052E+03  0.33142004053E+03  0.25500000920E-02 0.  1.
       -2   -1    0    0    0  501  0.00000000000E+00  0.00000000000E+00 -0.57208443762E+03  0.57208443763E+03  0.25500000920E-02 0. -1.
    10030    2    1    2    0    0  0.00000000000E+00  0.00000000000E+00 -0.24066439710E+03  0.90350447816E+03  0.87086221070E+03 0.  0.
        4    1    3    3  502    0 -0.15798195196E+03  0.36479082567E+03  0.64001329632E+02  0.40265174373E+03  0.12699999809E+01 0.  1.
       -4    1    3    3    0  502  0.15798195196E+03 -0.36479082567E+03 -0.30466572674E+03  0.50085273443E+03  0.12699999809E+01 0. -1.
</event>
<event>
 5   0  0.2460312E-02  0.8218664E+03  0.7818609E-02  0.9528895E-01
        2   -1    0    0  501    0  0.00000000000E+00  0.00000000000E+00  0.33702866807E+03  0.33702866808E+03  0.25500000920E-02 0. -1.
       -2   -1    0    0    0  501  0.00000000000E+00  0.00000000000E+00 -0.50104375947E+03  0.50104375948E+03  0.25500000920E-02 0.  1.
    10030    2    1    2    0    0  0.00000000000E+00  0.00000000000E+00 -0.16401509140E+03  0.83807242755E+03  0.82186643904E+03 0.  0.
        2    1    3    3  502    0  0.16972101184E+03 -0.98151382556E+02  0.28626079388E+03  0.34696420259E+03  0.25500000920E-02 0. -1.
       -2    1    3    3    0  502 -0.16972101184E+03  0.98151382556E+02 -0.45027588528E+03  0.49110822497E+03  0.25500000920E-02 0.  1.
</event>
<event>
 5   0  0.9919125E-03  0.7834684E+03  0.7818609E-02  0.9584259E-01
       -4   -1    0    0    0  501  0.00000000000E+00  0.00000000000E+00  0.24093300637E+03  0.24093635354E+03  0.12699999809E+01 0.  1.
        4   -1    0    0  501    0  0.00000000000E+00  0.00000000000E+00 -0.63691419151E+03  0.63691545769E+03  0.12699999809E+01 0. -1.
    10030    2    1    2    0    0  0.00000000000E+00  0.00000000000E+00 -0.39598118514E+03  0.87785181124E+03  0.78346838067E+03 0.  0.
        1    1    3    3  502    0 -0.86154907113E+02 -0.31039510838E+03  0.51770617122E+02  0.32626367886E+03  0.50400001928E-02 0.  1.
       -1    1    3    3    0  502  0.86154907113E+02  0.31039510838E+03 -0.44775180226E+03  0.55158813238E+03  0.50400001928E-02 0. -1.
</event>
<event>
 5   0  0.2460312E-02  0.7009712E+03  0.7818609E-02  0.9715573E-01
       -2   -1    0    0    0  501  0.00000000000E+00  0.00000000000E+00  0.14842755489E+03  0.14842755492E+03  0.25500000920E-02 0. -1.
        2   -1    0    0  501    0  0.00000000000E+00  0.00000000000E+00 -0.82761014635E+03  0.82761014635E+03  0.25500000920E-02 0.  1.
    10030    2    1    2    0    0  0.00000000000E+00  0.00000000000E+00 -0.67918259146E+03  0.97603770127E+03  0.70097118469E+03 0.  0.
        2    1    3    3  502    0 -0.14256540845E+03  0.24099347129E+03 -0.63311336190E+03  0.69226821241E+03  0.25500000920E-02 0.  1.
       -2    1    3    3    0  502  0.14256540845E+03 -0.24099347129E+03 -0.46069229559E+02  0.28376948886E+03  0.25500000920E-02 0. -1.
</event>
<event>
 5   0  0.2454354E-02  0.7965457E+03  0.7818609E-02  0.9565031E-01
        2   -1    0    0  501    0  0.00000000000E+00  0.00000000000E+00  0.18485005242E+03  0.18485005244E+03  0.25500000920E-02 0.  1.
       -2   -1    0    0    0  501  0.00000000000E+00  0.00000000000E+00 -0.85810771996E+03  0.85810771996E+03  0.25500000920E-02 0. -1.
    10030    2    1    2    0    0  0.00000000000E+00  0.00000000000E+00 -0.67325766753E+03  0.10429577724E+04  0.79654568490E+03 0.  0.
        5    1    3    3  502    0  0.18276414363E+03 -0.41930356214E+02  0.12339567111E+03  0.22452053050E+03  0.46999998093E+01 0.  1.
       -5    1    3    3    0  502 -0.18276414363E+03  0.41930356214E+02 -0.79665333864E+03  0.81843724191E+03  0.46999998093E+01 0. -1.
</event>
<event>
 5   0  0.2422031E-02  0.8136046E+03  0.7818609E-02  0.9540531E-01
       -2   -1    0    0    0  501  0.00000000000E+00  0.00000000000E+00  0.14001462151E+03  0.14001462154E+03  0.25500000920E-02 0. -1.
        2   -1    0    0  501    0  0.00000000000E+00  0.00000000000E+00 -0.11819346079E+04  0.11819346079E+04  0.25500000920E-02 0.  1.
    10030    2    1    2    0    0  0.00000000000E+00  0.00000000000E+00 -0.10419199864E+04  0.13219492295E+04  0.81360463814E+03 0.  0.
        4    1    3    3  502    0 -0.12859390120E+03 -0.16974930993E+03  0.42206319657E+02  0.21710413622E+03  0.12699999809E+01 0. -1.
       -4    1    3    3    0  502  0.12859390120E+03  0.16974930993E+03 -0.10841263061E+04  0.11048450933E+04  0.12699999809E+01 0.  1.
</event>
<event>
 5   0  0.2460312E-02  0.8068526E+03  0.7818609E-02  0.9550151E-01
        2   -1    0    0  501    0  0.00000000000E+00  0.00000000000E+00  0.20837895750E+03  0.20837895752E+03  0.25500000920E-02 0. -1.
       -2   -1    0    0    0  501  0.00000000000E+00  0.00000000000E+00 -0.78104227814E+03  0.78104227814E+03  0.25500000920E-02 0.  1.
    10030    2    1    2    0    0  0.00000000000E+00  0.00000000000E+00 -0.57266332063E+03  0.98942123566E+03  0.80685259049E+03 0.  0.
        2    1    3    3  502    0  0.27622790895E+02 -0.40031316316E+03 -0.33747073522E+03  0.52430920677E+03  0.25500000920E-02 0.  1.
       -2    1    3    3    0  502 -0.27622790895E+02  0.40031316316E+03 -0.23519258542E+03  0.46511202889E+03  0.25500000920E-02 0. -1.
</event>
<event>
 5   0  0.2454354E-02  0.7975892E+03  0.7818609E-02  0.9563513E-01
       -2   -1    0    0    0  501  0.00000000000E+00  0.00000000000E+00  0.13090514335E+03  0.13090514338E+03  0.25500000920E-02 0. -1.
        2   -1    0    0  501    0  0.00000000000E+00  0.00000000000E+00 -0.12149036436E+04  0.12149036436E+04  0.25500000920E-02 0.  1.
    10030    2    1    2    0    0  0.00000000000E+00  0.00000000000E+00 -0.10839985002E+04  0.13458087869E+04  0.79758920664E+03 0.  0.
        5    1    3    3  502    0  0.74790233121E+02  0.29396468073E+03 -0.10522030673E+03  0.32109533699E+03  0.46999998093E+01 0. -1.
       -5    1    3    3    0  502 -0.74790233121E+02 -0.29396468073E+03 -0.97877819348E+03  0.10247134500E+04  0.46999998093E+01 0.  1.
</event>
<event>
 5   0  0.1523811E-02  0.8232873E+03  0.7818609E-02  0.9526908E-01
        1   -1    0    0  501    0  0.00000000000E+00  0.00000000000E+00  0.34601381238E+03  0.34601381242E+03  0.50400001928E-02 0. -1.
       -1   -1    0    0    0  501  0.00000000000E+00  0.00000000000E+00 -0.48972172685E+03  0.48972172687E+03  0.50400001928E-02 0.  1.
    10030    2    1    2    0    0  0.00000000000E+00  0.00000000000E+00 -0.14370791446E+03  0.83573553929E+03  0.82328726879E+03 0.  0.
        1    1    3    3  502    0 -0.22128865785E+02 -0.23004438589E+03 -0.41765160439E+03  0.47732899435E+03  0.50400001928E-02 0.  1.
       -1    1    3    3    0  502  0.22128865785E+02  0.23004438589E+03  0.27394368992E+03  0.35840654494E+03  0.50400001928E-02 0. -1.
</event>
<event>
 5   0  0.2464780E-02  0.8258874E+03  0.7818609E-02  0.9523284E-01
        2   -1    0    0  501    0  0.00000000000E+00  0.00000000000E+00  0.22116853214E+04  0.22116853214E+04  0.25500000920E-02 0.  1.
       -2   -1    0    0    0  501  0.00000000000E+00  0.00000000000E+00 -0.77100714248E+02  0.77100714290E+02  0.25500000920E-02 0. -1.
    10030    2    1    2    0    0  0.00000000000E+00  0.00000000000E+00  0.21345846072E+04  0.22887860357E+04  0.82588744518E+03 0.  0.
        3    1    3    3  502    0  0.38846613457E+03 -0.13429156173E+03  0.11775312706E+04  0.12472049009E+04  0.10100000352E+00 0.  1.
       -3    1    3    3    0  502 -0.38846613457E+03  0.13429156173E+03  0.95705333656E+03  0.10415811349E+04  0.10100000352E+00 0. -1.
</event>
<event>
 5   0  0.1523811E-02  0.7937040E+03  0.7818609E-02  0.9569175E-01
        1   -1    0    0  501    0  0.00000000000E+00  0.00000000000E+00  0.23637565978E+04  0.23637565978E+04  0.50400001928E-02 0.  1.
       -1   -1    0    0    0  501  0.00000000000E+00  0.00000000000E+00 -0.66627638057E+02  0.66627638248E+02  0.50400001928E-02 0. -1.
    10030    2    1    2    0    0  0.00000000000E+00  0.00000000000E+00  0.22971289598E+04  0.24303842361E+04  0.79370402366E+03 0.  0.
        1    1    3    3  502    0 -0.99910587964E+02 -0.69109931222E+02 -0.82903811464E+01  0.12176632796E+03  0.50400001928E-02 0. -1.
       -1    1    3    3    0  502  0.99910587964E+02  0.69109931222E+02  0.23054193409E+04  0.23086179081E+04  0.50400001928E-02 0.  1.
</event>
<event>
 5   0  0.2460312E-02  0.8016474E+03  0.7818609E-02  0.9557636E-01
       -2   -1    0    0    0  501  0.00000000000E+00  0.00000000000E+00  0.24088606926E+03  0.24088606927E+03  0.25500000920E-02 0.  1.
        2   -1    0    0  501    0  0.00000000000E+00  0.00000000000E+00 -0.66695286964E+03  0.66695286964E+03  0.25500000920E-02 0. -1.
    10030    2    1    2    0    0  0.00000000000E+00  0.00000000000E+00 -0.42606680038E+03  0.90783893891E+03  0.80164744160E+03 0.  0.
        2    1    3    3  502    0 -0.29090202073E+01 -0.22308235937E+03  0.16407194173E+03  0.27693646118E+03  0.25500000920E-02 0.  1.
       -2    1    3    3    0  502  0.29090202073E+01  0.22308235937E+03 -0.59013874211E+03  0.63090247773E+03  0.25500000920E-02 0. -1.
</event>
<event>
 5   0  0.2454354E-02  0.8082789E+03  0.7818609E-02  0.9548110E-01
        2   -1    0    0  501    0  0.00000000000E+00  0.00000000000E+00  0.71269283488E+03  0.71269283489E+03  0.25500000920E-02 0.  1.
       -2   -1    0    0    0  501  0.00000000000E+00  0.00000000000E+00 -0.22917124944E+03  0.22917124945E+03  0.25500000920E-02 0. -1.
    10030    2    1    2    0    0  0.00000000000E+00  0.00000000000E+00  0.48352158545E+03  0.94186408434E+03  0.80827893068E+03 0.  0.
        5    1    3    3  502    0  0.11950660133E+03 -0.37167890909E+03  0.12021693743E+03  0.40853548349E+03  0.46999998093E+01 0. -1.
       -5    1    3    3    0  502 -0.11950660133E+03  0.37167890909E+03  0.36330464801E+03  0.53332860085E+03  0.46999998093E+01 0.  1.
</event>
<event>
 5   0  0.1523811E-02  0.8023921E+03  0.7818609E-02  0.9556561E-01
        1   -1    0    0  501    0  0.00000000000E+00  0.00000000000E+00  0.69225224120E+03  0.69225224122E+03  0.50400001928E-02 0.  1.
       -1   -1    0    0    0  501  0.00000000000E+00  0.00000000000E+00 -0.23251388008E+03  0.23251388013E+03  0.50400001928E-02 0. -1.
    10030    2    1    2    0    0  0.00000000000E+00  0.00000000000E+00  0.45973836112E+03  0.92476612135E+03  0.80239206035E+03 0.  0.
        1    1    3    3  502    0 -0.22632815619E+03  0.15442935318E+03 -0.10788827753E+03  0.29447026991E+03  0.50400001928E-02 0. -1.
       -1    1    3    3    0  502  0.22632815619E+03 -0.15442935318E+03  0.56762663865E+03  0.63029585144E+03  0.50400001928E-02 0.  1.
</event>
<event>
 5   0  0.1498375E-02  0.7960597E+03  0.7818609E-02  0.9565738E-01
       -1   -1    0    0    0  501  0.00000000000E+00  0.00000000000E+00  0.18558109304E+03  0.18558109311E+03  0.50400001928E-02 0. -1.
        1   -1    0    0  501    0  0.00000000000E+00  0.00000000000E+00 -0.85368490981E+03  0.85368490983E+03  0.50400001928E-02 0.  1.
    10030    2    1    2    0    0  0.00000000000E+00  0.00000000000E+00 -0.66810381677E+03  0.10392660029E+04  0.79605974328E+03 0.  0.
        4    1    3    3  502    0 -0.14600788597E+03  0.13273108462E+03  0.11722948178E+03  0.22952169372E+03  0.12699999809E+01 0. -1.
       -4    1    3    3    0  502  0.14600788597E+03 -0.13273108462E+03 -0.78533329855E+03  0.80974430921E+03  0.12699999809E+01 0.  1.
</event>
<event>
 5   0  0.1624094E-02  0.8094741E+03  0.7818609E-02  0.9546404E-01
       -1   -1    0    0    0  501  0.00000000000E+00  0.00000000000E+00  0.33888798960E+03  0.33888798964E+03  0.50400001928E-02 0. -1.
        1   -1    0    0  501    0  0.00000000000E+00  0.00000000000E+00 -0.48338114420E+03  0.48338114423E+03  0.50400001928E-02 0.  1.
    10030    2    1    2    0    0  0.00000000000E+00  0.00000000000E+00 -0.14449315460E+03  0.82226913387E+03  0.80947406184E+03 0.  0.
        3    1    3    3  502    0 -0.16170887260E+03  0.35224157070E+03 -0.19065743940E+03  0.43194230287E+03  0.10100000352E+00 0.  1.
       -3    1    3    3    0  502  0.16170887260E+03 -0.35224157070E+03  0.46164284808E+02  0.39032683100E+03  0.10100000352E+00 0. -1.
</event>
<event>
 5   0  0.9919125E-03  0.7922010E+03  0.7818609E-02  0.9571375E-01
       -3   -1    0    0    0  501  0.00000000000E+00  0.00000000000E+00  0.44935951802E+03  0.44935952937E+03  0.10100000352E+00 0.  1.
        3   -1    0    0  501    0  0.00000000000E+00  0.00000000000E+00 -0.34915384846E+03  0.34915386307E+03  0.10100000352E+00 0. -1.
    10030    2    1    2    0    0  0.00000000000E+00  0.00000000000E+00  0.10020566956E+03  0.79851339244E+03  0.79220102354E+03 0.  0.
        2    1    3    3  502    0 -0.26898250579E+02 -0.23759589403E+03 -0.26819858302E+03  0.35931296203E+03  0.25500000920E-02 0. -1.
       -2    1    3    3    0  502  0.26898250579E+02  0.23759589403E+03  0.36840425258E+03  0.43920043041E+03  0.25500000920E-02 0.  1.
</event>
<event>
 5   0  0.1509629E-02  0.7858275E+03  0.7818609E-02  0.9580761E-01
       -1   -1    0    0    0  501  0.00000000000E+00  0.00000000000E+00  0.40593283657E+03  0.40593283660E+03  0.50400001928E-02 0. -1.
        1   -1    0    0  501    0  0.00000000000E+00  0.00000000000E+00 -0.38031223822E+03  0.38031223825E+03  0.50400001928E-02 0.  1.
    10030    2    1    2    0    0  0.00000000000E+00  0.00000000000E+00  0.25620598352E+02  0.78624507485E+03  0.78582752730E+03 0.  0.
        5    1    3    3  502    0 -0.21336563829E+03 -0.32954548340E+03  0.28115957828E+02  0.39362128793E+03  0.46999998093E+01 0. -1.
       -5    1    3    3    0  502  0.21336563829E+03  0.32954548340E+03 -0.24953594765E+01  0.39262378691E+03  0.46999998093E+01 0.  1.
</event>
<event>
 5   0  0.1624094E-02  0.7957892E+03  0.7818609E-02  0.9566132E-01
        1   -1    0    0  501    0  0.00000000000E+00  0.00000000000E+00  0.11540469522E+03  0.11540469533E+03  0.50400001928E-02 0.  1.
       -1   -1    0    0    0  501  0.00000000000E+00  0.00000000000E+00 -0.13718689316E+04  0.13718689316E+04  0.50400001928E-02 0. -1.
    10030    2    1    2    0    0  0.00000000000E+00  0.00000000000E+00 -0.12564642364E+04  0.14872736269E+04  0.79578920831E+03 0.  0.
        3    1    3    3  502    0  0.31503665837E+03  0.22836647902E+03 -0.78371040839E+03  0.87498649091E+03  0.10100000352E+00 0. -1.
       -3    1    3    3    0  502 -0.31503665837E+03 -0.22836647902E+03 -0.47275382800E+03  0.61228713603E+03  0.10100000352E+00 0.  1.
</event>
<event>
 5   0  0.2454354E-02  0.7963200E+03  0.7818609E-02  0.9565359E-01
        2   -1    0    0  501    0  0.00000000000E+00  0.00000000000E+00  0.16365783766E+04  0.16365783766E+04  0.25500000920E-02 0. -1.
       -2   -1    0    0    0  501  0.00000000000E+00  0.00000000000E+00 -0.96867571156E+02  0.96867571190E+02  0.25500000920E-02 0.  1.
    10030    2    1    2    0    0  0.00000000000E+00  0.00000000000E+00  0.15397108054E+04  0.17334459478E+04  0.79631996679E+03 0.  0.
        5    1    3    3  502    0  0.30113032479E+03 -0.22092616254E+03  0.46963209798E+03  0.60005353033E+03  0.46999998093E+01 0. -1.
       -5    1    3    3    0  502 -0.30113032479E+03  0.22092616254E+03  0.10700787074E+04  0.11333924174E+04  0.46999998093E+01 0.  1.
</event>
<event>
 5   0  0.9919125E-03  0.8017017E+03  0.7818609E-02  0.9557557E-01
        3   -1    0    0  501    0  0.00000000000E+00  0.00000000000E+00  0.25128814789E+03  0.25128816819E+03  0.10100000352E+00 0.  1.
       -3   -1    0    0    0  501  0.00000000000E+00  0.00000000000E+00 -0.63943090722E+03  0.63943091519E+03  0.10100000352E+00 0. -1.
    10030    2    1    2    0    0  0.00000000000E+00  0.00000000000E+00 -0.38814275933E+03  0.89071908338E+03  0.80170174247E+03 0.  0.
        5    1    3    3  502    0 -0.58913721436E+02 -0.38606244842E+03 -0.29433757894E+03  0.48905187969E+03  0.46999998093E+01 0.  1.
       -5    1    3    3    0  502  0.58913721436E+02  0.38606244842E+03 -0.93805180381E+02  0.40166720369E+03  0.46999998093E+01 0. -1.
</event>
<event>
 5   0  0.1509629E-02  0.9397215E+03  0.7818609E-02  0.9377246E-01
        1   -1    0    0  501    0  0.00000000000E+00  0.00000000000E+00  0.12678883265E+03  0.12678883275E+03  0.50400001928E-02 0. -1.
       -1   -1    0    0    0  501  0.00000000000E+00  0.00000000000E+00 -0.17412347710E+04  0.17412347710E+04  0.50400001928E-02 0.  1.
    10030    2    1    2    0    0  0.00000000000E+00  0.00000000000E+00 -0.16144459384E+04  0.18680236038E+04  0.93972149935E+03 0.  0.
        5    1    3    3  502    0  0.13810098293E+03 -0.42787627127E+03 -0.53613813901E+03  0.69972578851E+03  0.46999998093E+01 0. -1.
       -5    1    3    3    0  502 -0.13810098293E+03  0.42787627127E+03 -0.10783077994E+04  0.11682978153E+04  0.46999998093E+01 0.  1.
</event>
<event>
 5   0  0.2454354E-02  0.7963696E+03  0.7818609E-02  0.9565287E-01
        2   -1    0    0  501    0  0.00000000000E+00  0.00000000000E+00  0.15266291875E+04  0.15266291875E+04  0.25500000920E-02 0. -1.
       -2   -1    0    0    0  501  0.00000000000E+00  0.00000000000E+00 -0.10385700371E+03  0.10385700374E+03  0.25500000920E-02 0.  1.
    10030    2    1    2    0    0  0.00000000000E+00  0.00000000000E+00  0.14227721838E+04  0.16304861913E+04  0.79636959566E+03 0.  0.
        5    1    3    3  502    0 -0.33337695868E+03 -0.12170907566E+03  0.34185613655E+03  0.49278900533E+03  0.46999998093E+01 0.  1.
       -5    1    3    3    0  502  0.33337695868E+03  0.12170907566E+03  0.10809160473E+04  0.11376971860E+04  0.46999998093E+01 0. -1.
</event>
<event>
 5   0  0.1498375E-02  0.8132384E+03  0.7818609E-02  0.9541050E-01
       -1   -1    0    0    0  501  0.00000000000E+00  0.00000000000E+00  0.44698758219E+03  0.44698758222E+03  0.50400001928E-02 0.  1.
        1   -1    0    0  501    0  0.00000000000E+00  0.00000000000E+00 -0.36989653911E+03  0.36989653915E+03  0.50400001928E-02 0. -1.
    10030    2    1    2    0    0  0.00000000000E+00  0.00000000000E+00  0.77091043076E+02  0.81688412136E+03  0.81323836531E+03 0.  0.
        4    1    3    3  502    0  0.33536399607E+03 -0.17493146383E+03  0.18843754425E+03  0.42258768070E+03  0.12699999809E+01 0.  1.
       -4    1    3    3    0  502 -0.33536399607E+03  0.17493146383E+03 -0.11134650118E+03  0.39429644066E+03  0.12699999809E+01 0. -1.
</event>
<event>
 5   0  0.1509629E-02  0.7286069E+03  0.7818609E-02  0.9669524E-01
       -1   -1    0    0    0  501  0.00000000000E+00  0.00000000000E+00  0.11107052740E+03  0.11107052752E+03  0.50400001928E-02 0. -1.
        1   -1    0    0  501    0  0.00000000000E+00  0.00000000000E+00 -0.11948894915E+04  0.11948894915E+04  0.50400001928E-02 0.  1.
    10030    2    1    2    0    0  0.00000000000E+00  0.00000000000E+00 -0.10838189641E+04  0.13059600191E+04  0.72860690662E+03 0.  0.
        5    1    3    3  502    0  0.35930244855E+03 -0.24120709162E+02 -0.44349250409E+03  0.57130355270E+03  0.46999998093E+01 0. -1.
       -5    1    3    3    0  502 -0.35930244855E+03  0.24120709162E+02 -0.64032646004E+03  0.73465646636E+03  0.46999998093E+01 0.  1.
</event>
<event>
 5   0  0.2464780E-02  0.8058099E+03  0.7818609E-02  0.9551645E-01
        2   -1    0    0  501    0  0.00000000000E+00  0.00000000000E+00  0.11794015256E+04  0.11794015256E+04  0.25500000920E-02 0.  1.
       -2   -1    0    0    0  501  0.00000000000E+00  0.00000000000E+00 -0.13763963429E+03  0.13763963432E+03  0.25500000920E-02 0. -1.
    10030    2    1    2    0    0  0.00000000000E+00  0.00000000000E+00  0.10417618913E+04  0.13170411599E+04  0.80580988994E+03 0.  0.
        3    1    3    3  502    0 -0.36165757943E+03 -0.69309180676E+02  0.25365054090E+03  0.44714491430E+03  0.10100000352E+00 0. -1.
       -3    1    3    3    0  502  0.36165757943E+03  0.69309180676E+02  0.78811135038E+03  0.86989624558E+03  0.10100000352E+00 0.  1.
</event>
<event>
 5   0  0.2454354E-02  0.7937926E+03  0.7818609E-02  0.9569046E-01
        2   -1    0    0  501    0  0.00000000000E+00  0.00000000000E+00  0.26511175432E+03  0.26511175434E+03  0.25500000920E-02 0.  1.
       -2   -1    0    0    0  501  0.00000000000E+00  0.00000000000E+00 -0.59418964186E+03  0.59418964187E+03  0.25500000920E-02 0. -1.
    10030    2    1    2    0    0  0.00000000000E+00  0.00000000000E+00 -0.32907788754E+03  0.85930139620E+03  0.79379256324E+03 0.  0.
        5    1    3    3  502    0  0.33940037709E+02 -0.39083785388E+02  0.26141159911E+03  0.26652876502E+03  0.46999998093E+01 0.  1.
       -5    1    3    3    0  502 -0.33940037709E+02  0.39083785388E+02 -0.59048948665E+03  0.59277263118E+03  0.46999998093E+01 0. -1.
</event>
<event>
 5   0  0.1509629E-02  0.7966315E+03  0.7818609E-02  0.9564906E-01
        1   -1    0    0  501    0  0.00000000000E+00  0.00000000000E+00  0.63269638032E+03  0.63269638034E+03  0.50400001928E-02 0. -1.
       -1   -1    0    0    0  501  0.00000000000E+00  0.00000000000E+00 -0.25076074868E+03  0.25076074873E+03  0.50400001928E-02 0.  1.
    10030    2    1    2    0    0  0.00000000000E+00  0.00000000000E+00  0.38193563164E+03  0.88345712907E+03  0.79663145317E+03 0.  0.
        5    1    3    3  502    0  0.62230084920E+02  0.53619408155E+02  0.62316952385E+03  0.62857773573E+03  0.46999998093E+01 0. -1.
       -5    1    3    3    0  502 -0.62230084920E+02 -0.53619408155E+02 -0.24123389221E+03  0.25487939334E+03  0.46999998093E+01 0.  1.
</event>
<event>
 5   0  0.2422031E-02  0.8044842E+03  0.7818609E-02  0.9553549E-01
        2   -1    0    0  501    0  0.00000000000E+00  0.00000000000E+00  0.38606730335E+03  0.38606730336E+03  0.25500000920E-02 0.  1.
       -2   -1    0    0    0  501  0.00000000000E+00  0.00000000000E+00 -0.41909452471E+03  0.41909452472E+03  0.25500000920E-02 0. -1.
    10030    2    1    2    0    0  0.00000000000E+00  0.00000000000E+00 -0.33027221359E+02  0.80516182808E+03  0.80448416520E+03 0.  0.
        4    1    3    3  502    0 -0.54375804634E+02 -0.33553562105E+02 -0.41398100080E+03  0.41888477125E+03  0.12699999809E+01 0. -1.
       -4    1    3    3    0  502  0.54375804634E+02  0.33553562105E+02  0.38095377945E+03  0.38627705683E+03  0.12699999809E+01 0.  1.
</event>
<event>
 5   0  0.1523811E-02  0.7932875E+03  0.7818609E-02  0.9569784E-01
       -1   -1    0    0    0  501  0.00000000000E+00  0.00000000000E+00  0.35050153810E+03  0.35050153814E+03  0.50400001928E-02 0.  1.
        1   -1    0    0  501    0  0.00000000000E+00  0.00000000000E+00 -0.44886045177E+03  0.44886045180E+03  0.50400001928E-02 0. -1.
    10030    2    1    2    0    0  0.00000000000E+00  0.00000000000E+00 -0.98358913665E+02  0.79936198993E+03  0.79328753618E+03 0.  0.
        1    1    3    3  502    0  0.25271989786E+03  0.27758765274E+03  0.79879485149E+02  0.38380070857E+03  0.50400001928E-02 0.  1.
       -1    1    3    3    0  502 -0.25271989786E+03 -0.27758765274E+03 -0.17823839881E+03  0.41556128136E+03  0.50400001928E-02 0. -1.
</event>
<event>
 5   0  0.1471290E-02  0.7889656E+03  0.7818609E-02  0.9576128E-01
        1   -1    0    0  501    0  0.00000000000E+00  0.00000000000E+00  0.11169564884E+04  0.11169564884E+04  0.50400001928E-02 0. -1.
       -1   -1    0    0    0  501  0.00000000000E+00  0.00000000000E+00 -0.13932204901E+03  0.13932204910E+03  0.50400001928E-02 0.  1.
    10030    2    1    2    0    0  0.00000000000E+00  0.00000000000E+00  0.97763443942E+03  0.12562785375E+04  0.78896556752E+03 0.  0.
        2    1    3    3  502    0  0.83104784713E+02  0.12788459153E+03 -0.90477229445E+02  0.17733302864E+03  0.25500000920E-02 0.  1.
       -2    1    3    3    0  502 -0.83104784713E+02 -0.12788459153E+03  0.10681116689E+04  0.10789455089E+04  0.25500000920E-02 0. -1.
</event>
<event>
 5   0  0.1498375E-02  0.8349310E+03  0.7818609E-02  0.9510788E-01
       -1   -1    0    0    0  501  0.00000000000E+00  0.00000000000E+00  0.26399258518E+03  0.26399258523E+03  0.50400001928E-02 0. -1.
        1   -1    0    0  501    0  0.00000000000E+00  0.00000000000E+00 -0.66016033785E+03  0.66016033787E+03  0.50400001928E-02 0.  1.
    10030    2    1    2    0    0  0.00000000000E+00  0.00000000000E+00 -0.39616775267E+03  0.92415292310E+03  0.83493097740E+03 0.  0.
        4    1    3    3  502    0  0.15032232421E+02  0.38157076718E+03 -0.11376317453E+02  0.38203828587E+03  0.12699999809E+01 0. -1.
       -4    1    3    3    0  502 -0.15032232421E+02 -0.38157076718E+03 -0.38479143522E+03  0.54211463722E+03  0.12699999809E+01 0.  1.
</event>
<event>
 5   0  0.1498375E-02  0.8012958E+03  0.7818609E-02  0.9558143E-01
       -1   -1    0    0    0  501  0.00000000000E+00  0.00000000000E+00  0.34616230241E+03  0.34616230244E+03  0.50400001928E-02 0.  1.
        1   -1    0    0  501    0  0.00000000000E+00  0.00000000000E+00 -0.46370942359E+03  0.46370942362E+03  0.50400001928E-02 0. -1.
    10030    2    1    2    0    0  0.00000000000E+00  0.00000000000E+00 -0.11754712119E+03  0.80987172606E+03  0.80129575500E+03 0.  0.
        4    1    3    3  502    0 -0.33661693904E+03 -0.19585813851E+03  0.36284807033E+02  0.39113881703E+03  0.12699999809E+01 0. -1.
       -4    1    3    3    0  502  0.33661693904E+03  0.19585813851E+03 -0.15383192822E+03  0.41873290903E+03  0.12699999809E+01 0.  1.
</event>
<event>
 5   0  0.1523811E-02  0.7967638E+03  0.7818609E-02  0.9564713E-01
        1   -1    0    0  501    0  0.00000000000E+00  0.00000000000E+00  0.10488978854E+04  0.10488978854E+04  0.50400001928E-02 0.  1.
       -1   -1    0    0    0  501  0.00000000000E+00  0.00000000000E+00 -0.15130942556E+03  0.15130942564E+03  0.50400001928E-02 0. -1.
    10030    2    1    2    0    0  0.00000000000E+00  0.00000000000E+00  0.89758845987E+03  0.12002073111E+04  0.79676379580E+03 0.  0.
        1    1    3    3  502    0  0.18159035755E+03 -0.13813772597E+03 -0.43142486734E+02  0.23220328051E+03  0.50400001928E-02 0. -1.
       -1    1    3    3    0  502 -0.18159035755E+03  0.13813772597E+03  0.94073094660E+03  0.96800403058E+03  0.50400001928E-02 0.  1.
</event>
<event>
 5   0  0.1509629E-02  0.7837924E+03  0.7818609E-02  0.9583778E-01
       -1   -1    0    0    0  501  0.00000000000E+00  0.00000000000E+00  0.29431894965E+03  0.29431894969E+03  0.50400001928E-02 0. -1.
        1   -1    0    0  501    0  0.00000000000E+00  0.00000000000E+00 -0.52182383340E+03  0.52182383342E+03  0.50400001928E-02 0.  1.
    10030    2    1    2    0    0  0.00000000000E+00  0.00000000000E+00 -0.22750488375E+03  0.81614278312E+03  0.78379242807E+03 0.  0.
        5    1    3    3  502    0 -0.30531735777E+03  0.22658348684E+03 -0.21254618718E+03  0.43561076335E+03  0.46999998093E+01 0.  1.
       -5    1    3    3    0  502  0.30531735777E+03 -0.22658348684E+03 -0.14958696574E+02  0.38053201977E+03  0.46999998093E+01 0. -1.
</event>
<event>
 5   0  0.2422031E-02  0.8120229E+03  0.7818609E-02  0.9542776E-01
       -2   -1    0    0    0  501  0.00000000000E+00  0.00000000000E+00  0.52515466217E+03  0.52515466218E+03  0.25500000920E-02 0. -1.
        2   -1    0    0  501    0  0.00000000000E+00  0.00000000000E+00 -0.31389858141E+03  0.31389858142E+03  0.25500000920E-02 0.  1.
    10030    2    1    2    0    0  0.00000000000E+00  0.00000000000E+00  0.21125608076E+03  0.83905324360E+03  0.81202291466E+03 0.  0.
        4    1    3    3  502    0  0.24550601379E+02 -0.40485419905E+03  0.86743000036E+02  0.41477176311E+03  0.12699999809E+01 0.  1.
       -4    1    3    3    0  502 -0.24550601379E+02  0.40485419905E+03  0.12451308072E+03  0.42428148049E+03  0.12699999809E+01 0. -1.
</event>
<event>
 5   0  0.1509629E-02  0.8040857E+03  0.7818609E-02  0.9554122E-01
        1   -1    0    0  501    0  0.00000000000E+00  0.00000000000E+00  0.71405801957E+03  0.71405801959E+03  0.50400001928E-02 0. -1.
       -1   -1    0    0    0  501  0.00000000000E+00  0.00000000000E+00 -0.22636598686E+03  0.22636598692E+03  0.50400001928E-02 0.  1.
    10030    2    1    2    0    0  0.00000000000E+00  0.00000000000E+00  0.48769203271E+03  0.94042400651E+03  0.80408568775E+03 0.  0.
        5    1    3    3  502    0 -0.33502548271E+03  0.65060690018E+01 -0.15921917273E+02  0.33549962808E+03  0.46999998093E+01 0.  1.
       -5    1    3    3    0  502  0.33502548271E+03 -0.65060690018E+01  0.50361394998E+03  0.60492437842E+03  0.46999998093E+01 0. -1.
</event>
<event>
 5   0  0.2422031E-02  0.8006640E+03  0.7818609E-02  0.9559056E-01
        2   -1    0    0  501    0  0.00000000000E+00  0.00000000000E+00  0.71579243409E+03  0.71579243409E+03  0.25500000920E-02 0.  1.
       -2   -1    0    0    0  501  0.00000000000E+00  0.00000000000E+00 -0.22389970061E+03  0.22389970062E+03  0.25500000920E-02 0. -1.
    10030    2    1    2    0    0  0.00000000000E+00  0.00000000000E+00  0.49189273348E+03  0.93969213471E+03  0.80066400368E+03 0.  0.
        4    1    3    3  502    0 -0.49022275219E+01 -0.30912918223E+03  0.54442803286E+03  0.62608975315E+03  0.12699999809E+01 0.  1.
       -4    1    3    3    0  502  0.49022275219E+01  0.30912918223E+03 -0.52535299384E+02  0.31360238156E+03  0.12699999809E+01 0. -1.
</event>
<event>
 5   0  0.1523811E-02  0.7812809E+03  0.7818609E-02  0.9587515E-01
       -1   -1    0    0    0  501  0.00000000000E+00  0.00000000000E+00  0.91210959166E+02  0.91210959305E+02  0.50400001928E-02 0. -1.
        1   -1    0    0  501    0  0.00000000000E+00  0.00000000000E+00 -0.16730441905E+04  0.16730441905E+04  0.50400001928E-02 0.  1.
    10030    2    1    2    0    0  0.00000000000E+00  0.00000000000E+00 -0.15818332313E+04  0.17642551498E+04  0.78128091099E+03 0.  0.
        1    1    3    3  502    0  0.37724581289E+03  0.14459482434E+02 -0.56423895500E+03  0.67888811916E+03  0.50400001928E-02 0. -1.
       -1    1    3    3    0  502 -0.37724581289E+03 -0.14459482434E+02 -0.10175942763E+04  0.10853670306E+04  0.50400001928E-02 0.  1.
</event>
<event>
 5   0  0.9919125E-03  0.7960064E+03  0.7818609E-02  0.9565816E-01
       -3   -1    0    0    0  501  0.00000000000E+00  0.00000000000E+00  0.10187363678E+03  0.10187368685E+03  0.10100000352E+00 0.  1.
        3   -1    0    0  501    0  0.00000000000E+00  0.00000000000E+00 -0.15549311538E+04  0.15549311570E+04  0.10100000352E+00 0. -1.
    10030    2    1    2    0    0  0.00000000000E+00  0.00000000000E+00 -0.14530575170E+04  0.16568048439E+04  0.79600637126E+03 0.  0.
        1    1    3    3  502    0  0.33820662131E+03  0.17284375888E+03 -0.97409992714E+03  0.10455282644E+04  0.50400001928E-02 0. -1.
       -1    1    3    3    0  502 -0.33820662131E+03 -0.17284375888E+03 -0.47895758985E+03  0.61127657945E+03  0.50400001928E-02 0.  1.
</event>
<event>
 5   0  0.2571778E-02  0.7979084E+03  0.7818609E-02  0.9563050E-01
       -2   -1    0    0    0  501  0.00000000000E+00  0.00000000000E+00  0.62976499201E+03  0.62976499201E+03  0.25500000920E-02 0. -1.
        2   -1    0    0  501    0  0.00000000000E+00  0.00000000000E+00 -0.25273626232E+03  0.25273626233E+03  0.25500000920E-02 0.  1.
    10030    2    1    2    0    0  0.00000000000E+00  0.00000000000E+00  0.37702872968E+03  0.88250125435E+03  0.79790839130E+03 0.  0.
        1    1    3    3  502    0 -0.39791879452E+03  0.33660932148E+01  0.22006502788E+03  0.45472993539E+03  0.50400001928E-02 0. -1.
       -1    1    3    3    0  502  0.39791879452E+03 -0.33660932148E+01  0.15696370180E+03  0.42777131896E+03  0.50400001928E-02 0.  1.
</event>
<event>
 5   0  0.1523811E-02  0.8080386E+03  0.7818609E-02  0.9548454E-01
       -1   -1    0    0    0  501  0.00000000000E+00  0.00000000000E+00  0.20334842252E+03  0.20334842259E+03  0.50400001928E-02 0. -1.
        1   -1    0    0  501    0  0.00000000000E+00  0.00000000000E+00 -0.80271869419E+03  0.80271869421E+03  0.50400001928E-02 0.  1.
    10030    2    1    2    0    0  0.00000000000E+00  0.00000000000E+00 -0.59937027167E+03  0.10060671168E+04  0.80803856402E+03 0.  0.
        1    1    3    3  502    0  0.19870774341E+03  0.29754297220E+03 -0.66038965478E+02  0.36383750849E+03  0.50400001928E-02 0. -1.
       -1    1    3    3    0  502 -0.19870774341E+03 -0.29754297220E+03 -0.53333130619E+03  0.64222960831E+03  0.50400001928E-02 0.  1.
</event>
<event>
 5   0  0.2460312E-02  0.8000071E+03  0.7818609E-02  0.9560007E-01
       -2   -1    0    0    0  501  0.00000000000E+00  0.00000000000E+00  0.19096816271E+03  0.19096816273E+03  0.25500000920E-02 0. -1.
        2   -1    0    0  501    0  0.00000000000E+00  0.00000000000E+00 -0.83785085603E+03  0.83785085604E+03  0.25500000920E-02 0.  1.
    10030    2    1    2    0    0  0.00000000000E+00  0.00000000000E+00 -0.64688269332E+03  0.10288190188E+04  0.80000709651E+03 0.  0.
        2    1    3    3  502    0  0.10966113039E+03 -0.27512742426E+03  0.22307509659E+02  0.29701563611E+03  0.25500000920E-02 0. -1.
       -2    1    3    3    0  502 -0.10966113039E+03  0.27512742426E+03 -0.66919020298E+03  0.73180338266E+03  0.25500000920E-02 0.  1.
</event>
<event>
 5   0  0.1523811E-02  0.8401742E+03  0.7818609E-02  0.9503621E-01
       -1   -1    0    0    0  501  0.00000000000E+00  0.00000000000E+00  0.25698342545E+03  0.25698342550E+03  0.50400001928E-02 0.  1.
        1   -1    0    0  501    0  0.00000000000E+00  0.00000000000E+00 -0.68671030579E+03  0.68671030581E+03  0.50400001928E-02 0. -1.
    10030    2    1    2    0    0  0.00000000000E+00  0.00000000000E+00 -0.42972688034E+03  0.94369373132E+03  0.84017418839E+03 0.  0.
        1    1    3    3  502    0  0.38690613893E+02 -0.35978274023E+03 -0.45453851884E+03  0.58098696104E+03  0.50400001928E-02 0. -1.
       -1    1    3    3    0  502 -0.38690613893E+02  0.35978274023E+03  0.24811638496E+02  0.36270677027E+03  0.50400001928E-02 0.  1.
</event>
<event>
 5   0  0.1624094E-02  0.7741022E+03  0.7818609E-02  0.9598279E-01
       -1   -1    0    0    0  501  0.00000000000E+00  0.00000000000E+00  0.22670724092E+03  0.22670724097E+03  0.50400001928E-02 0.  1.
        1   -1    0    0  501    0  0.00000000000E+00  0.00000000000E+00 -0.66080173588E+03  0.66080173590E+03  0.50400001928E-02 0. -1.
    10030    2    1    2    0    0  0.00000000000E+00  0.00000000000E+00 -0.43409449496E+03  0.88750897687E+03  0.77410215959E+03 0.  0.
        3    1    3    3  502    0  0.16215589374E+03 -0.16218139889E+03 -0.57451148642E+03  0.61859582786E+03  0.10100000352E+00 0. -1.
       -3    1    3    3    0  502 -0.16215589374E+03  0.16218139889E+03  0.14041699146E+03  0.26891314901E+03  0.10100000352E+00 0.  1.
</event>
<event>
 5   0  0.1523811E-02  0.8537576E+03  0.7818609E-02  0.9485308E-01
        1   -1    0    0  501    0  0.00000000000E+00  0.00000000000E+00  0.37602837687E+03  0.37602837691E+03  0.50400001928E-02 0.  1.
       -1   -1    0    0    0  501  0.00000000000E+00  0.00000000000E+00 -0.48460569638E+03  0.48460569640E+03  0.50400001928E-02 0. -1.
    10030    2    1    2    0    0  0.00000000000E+00  0.00000000000E+00 -0.10857731950E+03  0.86063407331E+03  0.85375756151E+03 0.  0.
        1    1    3    3  502    0  0.36193814245E+03  0.14325870565E+03 -0.23092331672E+03  0.45260120850E+03  0.50400001928E-02 0. -1.
       -1    1    3    3    0  502 -0.36193814245E+03 -0.14325870565E+03  0.12234599722E+03  0.40803286481E+03  0.50400001928E-02 0.  1.
</event>
<event>
 5   0  0.2454354E-02  0.7915273E+03  0.7818609E-02  0.9572363E-01
       -2   -1    0    0    0  501  0.00000000000E+00  0.00000000000E+00  0.18275694154E+03  0.18275694156E+03  0.25500000920E-02 0.  1.
        2   -1    0    0  501    0  0.00000000000E+00  0.00000000000E+00 -0.85703378707E+03  0.85703378707E+03  0.25500000920E-02 0. -1.
    10030    2    1    2    0    0  0.00000000000E+00  0.00000000000E+00 -0.67427684553E+03  0.10397907286E+04  0.79152731786E+03 0.  0.
        5    1    3    3  502    0  0.27841751404E+03 -0.26932651367E+03 -0.44348495491E+03  0.58885828373E+03  0.46999998093E+01 0.  1.
       -5    1    3    3    0  502 -0.27841751404E+03  0.26932651367E+03 -0.23079189062E+03  0.45093244490E+03  0.46999998093E+01 0. -1.
</event>
<event>
 5   0  0.2464780E-02  0.8527183E+03  0.7818609E-02  0.9486696E-01
        2   -1    0    0  501    0  0.00000000000E+00  0.00000000000E+00  0.36563885393E+03  0.36563885393E+03  0.25500000920E-02 0.  1.
       -2   -1    0    0    0  501  0.00000000000E+00  0.00000000000E+00 -0.49716307102E+03  0.49716307103E+03  0.25500000920E-02 0. -1.
    10030    2    1    2    0    0  0.00000000000E+00  0.00000000000E+00 -0.13152421710E+03  0.86280192496E+03  0.85271832515E+03 0.  0.
        3    1    3    3  502    0  0.13360190036E+03  0.26427936714E+03 -0.37612879921E+03  0.47871279017E+03  0.10100000352E+00 0. -1.
       -3    1    3    3    0  502 -0.13360190036E+03 -0.26427936714E+03  0.24460458211E+03  0.38408913479E+03  0.10100000352E+00 0.  1.
</event>
<event>
 5   0  0.2571778E-02  0.8010545E+03  0.7818609E-02  0.9558492E-01
       -2   -1    0    0    0  501  0.00000000000E+00  0.00000000000E+00  0.95193388112E+02  0.95193388146E+02  0.25500000920E-02 0. -1.
        2   -1    0    0  501    0  0.00000000000E+00  0.00000000000E+00 -0.16852228706E+04  0.16852228706E+04  0.25500000920E-02 0.  1.
    10030    2    1    2    0    0  0.00000000000E+00  0.00000000000E+00 -0.15900294825E+04  0.17804162588E+04  0.80105449205E+03 0.  0.
        1    1    3    3  502    0 -0.10549024015E+03 -0.28208342990E+03 -0.20813790070E+03  0.36608829253E+03  0.50400001928E-02 0. -1.
       -1    1    3    3    0  502  0.10549024015E+03  0.28208342990E+03 -0.13818915818E+04  0.14143279662E+04  0.50400001928E-02 0.  1.
</event>
<event>
 5   0  0.1471290E-02  0.8310984E+03  0.7818609E-02  0.9516063E-01
        1   -1    0    0  501    0  0.00000000000E+00  0.00000000000E+00  0.42202302924E+03  0.42202302927E+03  0.50400001928E-02 0. -1.
       -1   -1    0    0    0  501  0.00000000000E+00  0.00000000000E+00 -0.40917470227E+03  0.40917470230E+03  0.50400001928E-02 0.  1.
    10030    2    1    2    0    0  0.00000000000E+00  0.00000000000E+00  0.12848326969E+02  0.83119773157E+03  0.83109842345E+03 0.  0.
        2    1    3    3  502    0 -0.29843756756E+03 -0.24363901445E+03  0.16218678213E+03  0.41800658296E+03  0.25500000920E-02 0. -1.
       -2    1    3    3    0  502  0.29843756756E+03  0.24363901445E+03 -0.14933845516E+03  0.41319114861E+03  0.25500000920E-02 0.  1.
</event>
<event>
 5   0  0.1523811E-02  0.8045856E+03  0.7818609E-02  0.9553403E-01
        1   -1    0    0  501    0  0.00000000000E+00  0.00000000000E+00  0.92997017287E+03  0.92997017288E+03  0.50400001928E-02 0.  1.
       -1   -1    0    0    0  501  0.00000000000E+00  0.00000000000E+00 -0.17402655045E+03  0.17402655052E+03  0.50400001928E-02 0. -1.
    10030    2    1    2    0    0  0.00000000000E+00  0.00000000000E+00  0.75594362242E+03  0.11039967234E+04  0.80458561075E+03 0.  0.
        1    1    3    3  502    0 -0.13568027064E+03 -0.25635345977E+03  0.76048209193E+03  0.81391599342E+03  0.50400001928E-02 0.  1.
       -1    1    3    3    0  502  0.13568027064E+03  0.25635345977E+03 -0.45384695067E+01  0.29008072999E+03  0.50400001928E-02 0. -1.
</event>
<event>
 5   0  0.2454354E-02  0.8137934E+03  0.7818609E-02  0.9540264E-01
       -2   -1    0    0    0  501  0.00000000000E+00  0.00000000000E+00  0.17330485891E+03  0.17330485893E+03  0.25500000920E-02 0.  1.
        2   -1    0    0  501    0  0.00000000000E+00  0.00000000000E+00 -0.95533921752E+03  0.95533921752E+03  0.25500000920E-02 0. -1.
    10030    2    1    2    0    0  0.00000000000E+00  0.00000000000E+00 -0.78203435861E+03  0.11286440765E+04  0.81379340945E+03 0.  0.
        5    1    3    3  502    0  0.36636393314E+03  0.17661168405E+03 -0.40674602584E+03  0.57522051248E+03  0.46999998093E+01 0.  1.
       -5    1    3    3    0  502 -0.36636393314E+03 -0.17661168405E+03 -0.37528833277E+03  0.55342356397E+03  0.46999998093E+01 0. -1.
</event>
<event>
 5   0  0.1624094E-02  0.8311149E+03  0.7818609E-02  0.9516040E-01
        1   -1    0    0  501    0  0.00000000000E+00  0.00000000000E+00  0.31612604389E+03  0.31612604394E+03  0.50400001928E-02 0.  1.
       -1   -1    0    0    0  501  0.00000000000E+00  0.00000000000E+00 -0.54626313285E+03  0.54626313288E+03  0.50400001928E-02 0. -1.
    10030    2    1    2    0    0  0.00000000000E+00  0.00000000000E+00 -0.23013708896E+03  0.86238917681E+03  0.83111492140E+03 0.  0.
        3    1    3    3  502    0  0.22447492288E+03 -0.97601707789E+02 -0.46352186607E+03  0.52418280675E+03  0.10100000352E+00 0. -1.
       -3    1    3    3    0  502 -0.22447492288E+03  0.97601707789E+02  0.23338477711E+03  0.33820637007E+03  0.10100000352E+00 0.  1.
</event>
<event>
 5   0  0.1498375E-02  0.8156330E+03  0.7818609E-02  0.9537661E-01
       -1   -1    0    0    0  501  0.00000000000E+00  0.00000000000E+00  0.38576368302E+03  0.38576368305E+03  0.50400001928E-02 0. -1.
        1   -1    0    0  501    0  0.00000000000E+00  0.00000000000E+00 -0.43113004346E+03  0.43113004349E+03  0.50400001928E-02 0.  1.
    10030    2    1    2    0    0  0.00000000000E+00  0.00000000000E+00 -0.45366360447E+02  0.81689372654E+03  0.81563303869E+03 0.  0.
        4    1    3    3  502    0 -0.32818097314E+03 -0.11838531164E+03  0.18881819227E+03  0.39670109122E+03  0.12699999809E+01 0. -1.
       -4    1    3    3    0  502  0.32818097314E+03  0.11838531164E+03 -0.23418455272E+03  0.42019263532E+03  0.12699999809E+01 0.  1.
</event>
<event>
 5   0  0.2464780E-02  0.8320777E+03  0.7818609E-02  0.9514712E-01
       -2   -1    0    0    0  501  0.00000000000E+00  0.00000000000E+00  0.13810130116E+03  0.13810130118E+03  0.25500000920E-02 0.  1.
        2   -1    0    0  501    0  0.00000000000E+00  0.00000000000E+00 -0.12533431269E+04  0.12533431269E+04  0.25500000920E-02 0. -1.
    10030    2    1    2    0    0  0.00000000000E+00  0.00000000000E+00 -0.11152418258E+04  0.13914444281E+04  0.83207768061E+03 0.  0.
        3    1    3    3  502    0  0.85031186633E+01 -0.28904677567E+03 -0.57430028708E+02  0.29481953793E+03  0.10100000352E+00 0.  1.
       -3    1    3    3    0  502 -0.85031186633E+01  0.28904677567E+03 -0.10578117971E+04  0.10966248902E+04  0.10100000352E+00 0. -1.
</event>
<event>
 5   0  0.1509629E-02  0.7254507E+03  0.7818609E-02  0.9674671E-01
       -1   -1    0    0    0  501  0.00000000000E+00  0.00000000000E+00  0.29642556927E+03  0.29642556931E+03  0.50400001928E-02 0.  1.
        1   -1    0    0  501    0  0.00000000000E+00  0.00000000000E+00 -0.44385404471E+03  0.44385404474E+03  0.50400001928E-02 0. -1.
    10030    2    1    2    0    0  0.00000000000E+00  0.00000000000E+00 -0.14742847544E+03  0.74027961405E+03  0.72545072307E+03 0.  0.
        5    1    3    3  502    0 -0.11866397448E+03 -0.21296056754E+03  0.20031596677E+03  0.31556602908E+03  0.46999998093E+01 0.  1.
       -5    1    3    3    0  502  0.11866397448E+03  0.21296056754E+03 -0.34774444222E+03  0.42471358497E+03  0.46999998093E+01 0. -1.
</event>
<event>
 5   0  0.2454354E-02  0.7928717E+03  0.7818609E-02  0.9570393E-01
       -2   -1    0    0    0  501  0.00000000000E+00  0.00000000000E+00  0.35143920475E+03  0.35143920476E+03  0.25500000920E-02 0. -1.
        2   -1    0    0  501    0  0.00000000000E+00  0.00000000000E+00 -0.44719367548E+03  0.44719367548E+03  0.25500000920E-02 0.  1.
    10030    2    1    2    0    0  0.00000000000E+00  0.00000000000E+00 -0.95754470727E+02  0.79863288024E+03  0.79287171644E+03 0.  0.
        5    1    3    3  502    0  0.19959499149E+03 -0.21630974514E+03 -0.31534621183E+03  0.43138543065E+03  0.46999998093E+01 0.  1.
       -5    1    3    3    0  502 -0.19959499149E+03  0.21630974514E+03  0.21959174110E+03  0.36724744959E+03  0.46999998093E+01 0. -1.
</event>
<event>
 5   0  0.2422031E-02  0.8010900E+03  0.7818609E-02  0.9558441E-01
        2   -1    0    0  501    0  0.00000000000E+00  0.00000000000E+00  0.45776286791E+03  0.45776286792E+03  0.25500000920E-02 0.  1.
       -2   -1    0    0    0  501  0.00000000000E+00  0.00000000000E+00 -0.35047907085E+03  0.35047907086E+03  0.25500000920E-02 0. -1.
    10030    2    1    2    0    0  0.00000000000E+00  0.00000000000E+00  0.10728379707E+03  0.80824193878E+03  0.80109001897E+03 0.  0.
        4    1    3    3  502    0  0.25242003789E+01 -0.38255644523E+03 -0.66071900341E+02  0.38823049119E+03  0.12699999809E+01 0. -1.
       -4    1    3    3    0  502 -0.25242003789E+01  0.38255644523E+03  0.17335569741E+03  0.42001144758E+03  0.12699999809E+01 0.  1.
</event>
<event>
 5   0  0.2571778E-02  0.8030115E+03  0.7818609E-02  0.9555668E-01
       -2   -1    0    0    0  501  0.00000000000E+00  0.00000000000E+00  0.56797227768E+03  0.56797227769E+03  0.25500000920E-02 0.  1.
        2   -1    0    0  501    0  0.00000000000E+00  0.00000000000E+00 -0.28382876311E+03  0.28382876312E+03  0.25500000920E-02 0. -1.
    10030    2    1    2    0    0  0.00000000000E+00  0.00000000000E+00  0.28414351457E+03  0.85180104081E+03  0.80301150444E+03 0.  0.
        1    1    3    3  502    0 -0.24861323349E+03 -0.27909113464E+02 -0.19104585915E+03  0.31477925409E+03  0.50400001928E-02 0. -1.
       -1    1    3    3    0  502  0.24861323349E+03  0.27909113464E+02  0.47518937372E+03  0.53702178672E+03  0.50400001928E-02 0.  1.
</event>
<event>
 5   0  0.2571778E-02  0.7857166E+03  0.7818609E-02  0.9580925E-01
        2   -1    0    0  501    0  0.00000000000E+00  0.00000000000E+00  0.18733109489E+03  0.18733109491E+03  0.25500000920E-02 0. -1.
       -2   -1    0    0    0  501  0.00000000000E+00  0.00000000000E+00 -0.82387620436E+03  0.82387620436E+03  0.25500000920E-02 0.  1.
    10030    2    1    2    0    0  0.00000000000E+00  0.00000000000E+00 -0.63654510947E+03  0.10112072993E+04  0.78571656831E+03 0.  0.
        1    1    3    3  502    0 -0.13276812145E+03 -0.33073461538E+03 -0.53101460921E+03  0.63952269319E+03  0.50400001928E-02 0.  1.
       -1    1    3    3    0  502  0.13276812145E+03  0.33073461538E+03 -0.10553050025E+03  0.37168460608E+03  0.50400001928E-02 0. -1.
</event>
<event>
 5   0  0.1471290E-02  0.8056603E+03  0.7818609E-02  0.9551860E-01
       -1   -1    0    0    0  501  0.00000000000E+00  0.00000000000E+00  0.15218174361E+03  0.15218174370E+03  0.50400001928E-02 0. -1.
        1   -1    0    0  501    0  0.00000000000E+00  0.00000000000E+00 -0.10663048306E+04  0.10663048306E+04  0.50400001928E-02 0.  1.
    10030    2    1    2    0    0  0.00000000000E+00  0.00000000000E+00 -0.91412308696E+03  0.12184865743E+04  0.80566029665E+03 0.  0.
        2    1    3    3  502    0  0.23030705441E+03  0.25519232383E+03 -0.13942838753E+03  0.37095112442E+03  0.25500000920E-02 0.  1.
       -2    1    3    3    0  502 -0.23030705441E+03 -0.25519232383E+03 -0.77469469943E+03  0.84753544986E+03  0.25500000920E-02 0. -1.
</event>
<event>
 5   0  0.2571778E-02  0.8002873E+03  0.7818609E-02  0.9559601E-01
       -2   -1    0    0    0  501  0.00000000000E+00  0.00000000000E+00  0.26489228224E+03  0.26489228226E+03  0.25500000920E-02 0. -1.
        2   -1    0    0  501    0  0.00000000000E+00  0.00000000000E+00 -0.60445306686E+03  0.60445306687E+03  0.25500000920E-02 0.  1.
    10030    2    1    2    0    0  0.00000000000E+00  0.00000000000E+00 -0.33956078462E+03  0.86934534912E+03  0.80028732939E+03 0.  0.
        1    1    3    3  502    0 -0.17609266826E+03 -0.34525201246E+03 -0.27790527242E+03  0.47690556758E+03  0.50400001928E-02 0.  1.
       -1    1    3    3    0  502  0.17609266826E+03  0.34525201246E+03 -0.61655512195E+02  0.39243978154E+03  0.50400001928E-02 0. -1.
</event>
<event>
 5   0  0.1509629E-02  0.8010953E+03  0.7818609E-02  0.9558433E-01
       -1   -1    0    0    0  501  0.00000000000E+00  0.00000000000E+00  0.89744217776E+03  0.89744217778E+03  0.50400001928E-02 0. -1.
        1   -1    0    0  501    0  0.00000000000E+00  0.00000000000E+00 -0.17877297769E+03  0.17877297776E+03  0.50400001928E-02 0.  1.
    10030    2    1    2    0    0  0.00000000000E+00  0.00000000000E+00  0.71866920007E+03  0.10762151555E+04  0.80109527641E+03 0.  0.
        5    1    3    3  502    0  0.13910956107E+03 -0.89052029579E+02  0.84952000878E+03  0.86544096810E+03  0.46999998093E+01 0. -1.
       -5    1    3    3    0  502 -0.13910956107E+03  0.89052029579E+02 -0.13085080871E+03  0.21077418744E+03  0.46999998093E+01 0.  1.
</event>
<event>
 5   0  0.1624094E-02  0.7892301E+03  0.7818609E-02  0.9575738E-01
       -1   -1    0    0    0  501  0.00000000000E+00  0.00000000000E+00  0.16437604731E+03  0.16437604738E+03  0.50400001928E-02 0.  1.
        1   -1    0    0  501    0  0.00000000000E+00  0.00000000000E+00 -0.94734621830E+03  0.94734621832E+03  0.50400001928E-02 0. -1.
    10030    2    1    2    0    0  0.00000000000E+00  0.00000000000E+00 -0.78297017099E+03  0.11117222657E+04  0.78923007253E+03 0.  0.
        3    1    3    3  502    0 -0.15810413159E+03  0.36138586302E+03 -0.40719341283E+03  0.56692428425E+03  0.10100000352E+00 0.  1.
       -3    1    3    3    0  502  0.15810413159E+03 -0.36138586302E+03 -0.37577675817E+03  0.54479798145E+03  0.10100000352E+00 0. -1.
</event>
<event>
 5   0  0.2422031E-02  0.8081710E+03  0.7818609E-02  0.9548265E-01
        2   -1    0    0  501    0  0.00000000000E+00  0.00000000000E+00  0.11389502132E+04  0.11389502132E+04  0.25500000920E-02 0. -1.
       -2   -1    0    0    0  501  0.00000000000E+00  0.00000000000E+00 -0.14336454068E+03  0.14336454070E+03  0.25500000920E-02 0.  1.
    10030    2    1    2    0    0  0.00000000000E+00  0.00000000000E+00  0.99558567248E+03  0.12823147539E+04  0.80817095761E+03 0.  0.
        4    1    3    3  502    0  0.27961624518E+03  0.27080909535E+03  0.66986359476E+03  0.77475264387E+03  0.12699999809E+01 0. -1.
       -4    1    3    3    0  502 -0.27961624518E+03 -0.27080909535E+03  0.32572207772E+03  0.50756211000E+03  0.12699999809E+01 0.  1.
</event>
<event>
 5   0  0.1498375E-02  0.8023323E+03  0.7818609E-02  0.9556647E-01
        1   -1    0    0  501    0  0.00000000000E+00  0.00000000000E+00  0.10176284587E+04  0.10176284587E+04  0.50400001928E-02 0.  1.
       -1   -1    0    0    0  501  0.00000000000E+00  0.00000000000E+00 -0.15814640089E+03  0.15814640097E+03  0.50400001928E-02 0. -1.
    10030    2    1    2    0    0  0.00000000000E+00  0.00000000000E+00  0.85948205779E+03  0.11757748597E+04  0.80233229584E+03 0.  0.
        4    1    3    3  502    0 -0.20124987535E+03 -0.14906402882E+03  0.88899203197E+03  0.92359625531E+03  0.12699999809E+01 0.  1.
       -4    1    3    3    0  502  0.20124987535E+03  0.14906402882E+03 -0.29509974177E+02  0.25217860436E+03  0.12699999809E+01 0. -1.
</event>
<event>
 5   0  0.2464780E-02  0.7654418E+03  0.7818609E-02  0.9611431E-01
        2   -1    0    0  501    0  0.00000000000E+00  0.00000000000E+00  0.34922905105E+03  0.34922905106E+03  0.25500000920E-02 0.  1.
       -2   -1    0    0    0  501  0.00000000000E+00  0.00000000000E+00 -0.41942463968E+03  0.41942463969E+03  0.25500000920E-02 0. -1.
    10030    2    1    2    0    0  0.00000000000E+00  0.00000000000E+00 -0.70195588634E+02  0.76865369075E+03  0.76544175195E+03 0.  0.
        3    1    3    3  502    0 -0.26283251413E+03 -0.15937410631E+03 -0.26407703621E+03  0.40523786533E+03  0.10100000352E+00 0. -1.
       -3    1    3    3    0  502  0.26283251413E+03  0.15937410631E+03  0.19388144758E+03  0.36341582541E+03  0.10100000352E+00 0.  1.
</event>
<event>
 5   0  0.2464780E-02  0.7847849E+03  0.7818609E-02  0.9582305E-01
       -2   -1    0    0    0  501  0.00000000000E+00  0.00000000000E+00  0.14741967599E+03  0.14741967601E+03  0.25500000920E-02 0. -1.
        2   -1    0    0  501    0  0.00000000000E+00  0.00000000000E+00 -0.10444457156E+04  0.10444457156E+04  0.25500000920E-02 0.  1.
    10030    2    1    2    0    0  0.00000000000E+00  0.00000000000E+00 -0.89702603965E+03  0.11918653917E+04  0.78478493615E+03 0.  0.
        3    1    3    3  502    0 -0.21374261379E+03 -0.28557377027E+03 -0.20019690013E+03  0.40904412016E+03  0.10100000352E+00 0.  1.
       -3    1    3    3    0  502  0.21374261379E+03  0.28557377027E+03 -0.69682913952E+03  0.78282127149E+03  0.10100000352E+00 0. -1.
</event>
<event>
 5   0  0.2464780E-02  0.7892040E+03  0.7818609E-02  0.9575777E-01
       -2   -1    0    0    0  501  0.00000000000E+00  0.00000000000E+00  0.19914115768E+03  0.19914115770E+03  0.25500000920E-02 0.  1.
        2   -1    0    0  501    0  0.00000000000E+00  0.00000000000E+00 -0.78191146490E+03  0.78191146490E+03  0.25500000920E-02 0. -1.
    10030    2    1    2    0    0  0.00000000000E+00  0.00000000000E+00 -0.58277030722E+03  0.98105262260E+03  0.78920404037E+03 0.  0.
        3    1    3    3  502    0  0.19221017196E+03  0.23636728701E+03 -0.60314217329E+03  0.67571794114E+03  0.10100000352E+00 0. -1.
       -3    1    3    3    0  502 -0.19221017196E+03 -0.23636728701E+03  0.20371866065E+02  0.30533468146E+03  0.10100000352E+00 0.  1.
</event>
<event>
 5   0  0.1471290E-02  0.7841027E+03  0.7818609E-02  0.9583317E-01
       -1   -1    0    0    0  501  0.00000000000E+00  0.00000000000E+00  0.27237391774E+03  0.27237391779E+03  0.50400001928E-02 0. -1.
        1   -1    0    0  501    0  0.00000000000E+00  0.00000000000E+00 -0.56431350518E+03  0.56431350521E+03  0.50400001928E-02 0.  1.
    10030    2    1    2    0    0  0.00000000000E+00  0.00000000000E+00 -0.29193958745E+03  0.83668742299E+03  0.78410274905E+03 0.  0.
        2    1    3    3  502    0  0.31279240294E+03 -0.60834292871E+02  0.97742421073E+02  0.33330688473E+03  0.25500000920E-02 0. -1.
       -2    1    3    3    0  502 -0.31279240294E+03  0.60834292871E+02 -0.38968200852E+03  0.50338053826E+03  0.25500000920E-02 0.  1.
</event>
<event>
 5   0  0.2454354E-02  0.8245936E+03  0.7818609E-02  0.9525086E-01
        2   -1    0    0  501    0  0.00000000000E+00  0.00000000000E+00  0.16569303468E+04  0.16569303468E+04  0.25500000920E-02 0. -1.
       -2   -1    0    0    0  501  0.00000000000E+00  0.00000000000E+00 -0.10259250944E+03  0.10259250947E+03  0.25500000920E-02 0.  1.
    10030    2    1    2    0    0  0.00000000000E+00  0.00000000000E+00  0.15543378374E+04  0.17595228563E+04  0.82459357815E+03 0.  0.
        5    1    3    3  502    0  0.28317234052E+03 -0.26631971746E+03  0.48417793865E+03  0.62093730168E+03  0.46999998093E+01 0. -1.
       -5    1    3    3    0  502 -0.28317234052E+03  0.26631971746E+03  0.10701598987E+04  0.11385855546E+04  0.46999998093E+01 0.  1.
</event>
<event>
 5   0  0.2454354E-02  0.8127048E+03  0.7818609E-02  0.9541807E-01
        2   -1    0    0  501    0  0.00000000000E+00  0.00000000000E+00  0.13584320284E+04  0.13584320284E+04  0.25500000920E-02 0.  1.
       -2   -1    0    0    0  501  0.00000000000E+00  0.00000000000E+00 -0.12155358200E+03  0.12155358203E+03  0.25500000920E-02 0. -1.
    10030    2    1    2    0    0  0.00000000000E+00  0.00000000000E+00  0.12368784464E+04  0.14799856105E+04  0.81270481476E+03 0.  0.
        5    1    3    3  502    0 -0.39964893853E+03 -0.18486126073E+02  0.74771123645E+03  0.84803018463E+03  0.46999998093E+01 0.  1.
       -5    1    3    3    0  502  0.39964893853E+03  0.18486126073E+02  0.48916720998E+03  0.63195542584E+03  0.46999998093E+01 0. -1.
</event>
<event>
 5   0  0.2422031E-02  0.7793972E+03  0.7818609E-02  0.9590327E-01
       -2   -1    0    0    0  501  0.00000000000E+00  0.00000000000E+00  0.86235743090E+03  0.86235743091E+03  0.25500000920E-02 0.  1.
        2   -1    0    0  501    0  0.00000000000E+00  0.00000000000E+00 -0.17610446923E+03  0.17610446925E+03  0.25500000920E-02 0. -1.
    10030    2    1    2    0    0  0.00000000000E+00  0.00000000000E+00  0.68625296167E+03  0.10384619002E+04  0.77939719699E+03 0.  0.
        4    1    3    3  502    0  0.32755586576E+03  0.19938154904E+03  0.25064723513E+03  0.45811733941E+03  0.12699999809E+01 0.  1.
       -4    1    3    3    0  502 -0.32755586576E+03 -0.19938154904E+03  0.43560572654E+03  0.58034456075E+03  0.12699999809E+01 0. -1.
</event>
<event>
 5   0  0.2422031E-02  0.8055024E+03  0.7818609E-02  0.9552087E-01
        2   -1    0    0  501    0  0.00000000000E+00  0.00000000000E+00  0.45744500109E+03  0.45744500110E+03  0.25500000920E-02 0. -1.
       -2   -1    0    0    0  501  0.00000000000E+00  0.00000000000E+00 -0.35459683414E+03  0.35459683415E+03  0.25500000920E-02 0.  1.
    10030    2    1    2    0    0  0.00000000000E+00  0.00000000000E+00  0.10284816695E+03  0.81204183525E+03  0.80550244987E+03 0.  0.
        4    1    3    3  502    0 -0.10626948246E+03 -0.32562835395E+03  0.26499274202E+03  0.43307019525E+03  0.12699999809E+01 0. -1.
       -4    1    3    3    0  502  0.10626948246E+03  0.32562835395E+03 -0.16214457507E+03  0.37897164000E+03  0.12699999809E+01 0.  1.
</event>
<event>
 5   0  0.1471290E-02  0.8094786E+03  0.7818609E-02  0.9546398E-01
        1   -1    0    0  501    0  0.00000000000E+00  0.00000000000E+00  0.85514233960E+03  0.85514233961E+03  0.50400001928E-02 0.  1.
       -1   -1    0    0    0  501  0.00000000000E+00  0.00000000000E+00 -0.19156331238E+03  0.19156331244E+03  0.50400001928E-02 0. -1.
    10030    2    1    2    0    0  0.00000000000E+00  0.00000000000E+00  0.66357902722E+03  0.10467056521E+04  0.80947859557E+03 0.  0.
        2    1    3    3  502    0 -0.25651309701E+02  0.23929529685E+03  0.75256865259E+03  0.79011379285E+03  0.25500000920E-02 0.  1.
       -2    1    3    3    0  502  0.25651309701E+02 -0.23929529685E+03 -0.88989625368E+02  0.25659185921E+03  0.25500000920E-02 0. -1.
</event>
<event>
 5   0  0.2464780E-02  0.8003879E+03  0.7818609E-02  0.9559456E-01
        2   -1    0    0  501    0  0.00000000000E+00  0.00000000000E+00  0.93565204181E+03  0.93565204181E+03  0.25500000920E-02 0.  1.
       -2   -1    0    0    0  501  0.00000000000E+00  0.00000000000E+00 -0.17116960998E+03  0.17116961000E+03  0.25500000920E-02 0. -1.
    10030    2    1    2    0    0  0.00000000000E+00  0.00000000000E+00  0.76448243183E+03  0.11068216518E+04  0.80038789368E+03 0.  0.
        3    1    3    3  502    0 -0.97831107769E+02 -0.29273368926E+03  0.29975649661E+02  0.31010077112E+03  0.10100000352E+00 0. -1.
       -3    1    3    3    0  502  0.97831107769E+02  0.29273368926E+03  0.73450678217E+03  0.79672088069E+03  0.10100000352E+00 0.  1.
</event>
<event>
 5   0  0.1498375E-02  0.7787501E+03  0.7818609E-02  0.9591295E-01
        1   -1    0    0  501    0  0.00000000000E+00  0.00000000000E+00  0.67540151696E+03  0.67540151698E+03  0.50400001928E-02 0.  1.
       -1   -1    0    0    0  501  0.00000000000E+00  0.00000000000E+00 -0.22447824557E+03  0.22447824562E+03  0.50400001928E-02 0. -1.
    10030    2    1    2    0    0  0.00000000000E+00  0.00000000000E+00  0.45092327139E+03  0.89987976260E+03  0.77875014636E+03 0.  0.
        4    1    3    3  502    0  0.32519447391E+03 -0.13099685755E+03  0.29701113719E+02  0.35184569289E+03  0.12699999809E+01 0. -1.
       -4    1    3    3    0  502 -0.32519447391E+03  0.13099685755E+03  0.42122215767E+03  0.54803406971E+03  0.12699999809E+01 0.  1.
</event>
<event>
 5   0  0.2571778E-02  0.7942987E+03  0.7818609E-02  0.9568306E-01
        2   -1    0    0  501    0  0.00000000000E+00  0.00000000000E+00  0.34308521983E+03  0.34308521983E+03  0.25500000920E-02 0.  1.
       -2   -1    0    0    0  501  0.00000000000E+00  0.00000000000E+00 -0.45973305212E+03  0.45973305213E+03  0.25500000920E-02 0. -1.
    10030    2    1    2    0    0  0.00000000000E+00  0.00000000000E+00 -0.11664783230E+03  0.80281827196E+03  0.79429872279E+03 0.  0.
        1    1    3    3  502    0 -0.21238456401E+03 -0.17537486509E+03 -0.34751176948E+03  0.44342753217E+03  0.50400001928E-02 0. -1.
       -1    1    3    3    0  502  0.21238456401E+03  0.17537486509E+03  0.23086393718E+03  0.35939073980E+03  0.50400001928E-02 0.  1.
</event>
<event>
 5   0  0.2460312E-02  0.7950611E+03  0.7818609E-02  0.9567194E-01
        2   -1    0    0  501    0  0.00000000000E+00  0.00000000000E+00  0.12705482322E+04  0.12705482322E+04  0.25500000920E-02 0. -1.
       -2   -1    0    0    0  501  0.00000000000E+00  0.00000000000E+00 -0.12437979313E+03  0.12437979316E+03  0.25500000920E-02 0.  1.
    10030    2    1    2    0    0  0.00000000000E+00  0.00000000000E+00  0.11461684391E+04  0.13949280254E+04  0.79506107013E+03 0.  0.
        2    1    3    3  502    0 -0.84952337578E+02  0.12791440517E+03  0.12164147879E+04  0.12260684854E+04  0.25500000920E-02 0. -1.
       -2    1    3    3    0  502  0.84952337578E+02 -0.12791440517E+03 -0.70246348808E+02  0.16885953996E+03  0.25500000920E-02 0.  1.
</event>
<event>
 5   0  0.1498375E-02  0.8129395E+03  0.7818609E-02  0.9541474E-01
        1   -1    0    0  501    0  0.00000000000E+00  0.00000000000E+00  0.85427975713E+03  0.85427975715E+03  0.50400001928E-02 0.  1.
       -1   -1    0    0    0  501  0.00000000000E+00  0.00000000000E+00 -0.19339994630E+03  0.19339994637E+03  0.50400001928E-02 0. -1.
    10030    2    1    2    0    0  0.00000000000E+00  0.00000000000E+00  0.66087981083E+03  0.10476797035E+04  0.81293950377E+03 0.  0.
        4    1    3    3  502    0  0.38400147222E+03 -0.11623093137E+03  0.24643042571E+03  0.47084639501E+03  0.12699999809E+01 0.  1.
       -4    1    3    3    0  502 -0.38400147222E+03  0.11623093137E+03  0.41444938512E+03  0.57683330851E+03  0.12699999809E+01 0. -1.
</event>
<event>
 5   0  0.1471290E-02  0.8041143E+03  0.7818609E-02  0.9554081E-01
       -1   -1    0    0    0  501  0.00000000000E+00  0.00000000000E+00  0.53978842146E+03  0.53978842149E+03  0.50400001928E-02 0. -1.
        1   -1    0    0  501    0  0.00000000000E+00  0.00000000000E+00 -0.29946907904E+03  0.29946907908E+03  0.50400001928E-02 0.  1.
    10030    2    1    2    0    0  0.00000000000E+00  0.00000000000E+00  0.24031934242E+03  0.83925750057E+03  0.80411427417E+03 0.  0.
        2    1    3    3  502    0  0.29527505594E+03  0.23145591705E+03  0.27101282185E+03  0.46282518277E+03  0.25500000920E-02 0. -1.
       -2    1    3    3    0  502 -0.29527505594E+03 -0.23145591705E+03 -0.30693479430E+02  0.37643231780E+03  0.25500000920E-02 0.  1.
</event>
<event>
 5   0  0.2422031E-02  0.7832407E+03  0.7818609E-02  0.9584597E-01
       -2   -1    0    0    0  501  0.00000000000E+00  0.00000000000E+00  0.33368620311E+03  0.33368620312E+03  0.25500000920E-02 0.  1.
        2   -1    0    0  501    0  0.00000000000E+00  0.00000000000E+00 -0.45961290467E+03  0.45961290467E+03  0.25500000920E-02 0. -1.
    10030    2    1    2    0    0  0.00000000000E+00  0.00000000000E+00 -0.12592670156E+03  0.79329910779E+03  0.78324066561E+03 0.  0.
        4    1    3    3  502    0  0.63716235533E+02  0.32284100644E+03 -0.27800763414E+03  0.43078525004E+03  0.12699999809E+01 0. -1.
       -4    1    3    3    0  502 -0.63716235533E+02 -0.32284100644E+03  0.15208093258E+03  0.36251385775E+03  0.12699999809E+01 0.  1.
</event>
<event>
 5   0  0.2422031E-02  0.7863896E+03  0.7818609E-02  0.9579929E-01
        2   -1    0    0  501    0  0.00000000000E+00  0.00000000000E+00  0.36991987883E+03  0.36991987884E+03  0.25500000920E-02 0.  1.
       -2   -1    0    0    0  501  0.00000000000E+00  0.00000000000E+00 -0.41793416510E+03  0.41793416510E+03  0.25500000920E-02 0. -1.
    10030    2    1    2    0    0  0.00000000000E+00  0.00000000000E+00 -0.48014286267E+02  0.78785404394E+03  0.78638961264E+03 0.  0.
        4    1    3    3  502    0  0.38597303801E+02 -0.26509069688E+03 -0.31235853453E+03  0.41150005642E+03  0.12699999809E+01 0. -1.
       -4    1    3    3    0  502 -0.38597303801E+02  0.26509069688E+03  0.26434424827E+03  0.37635398753E+03  0.12699999809E+01 0.  1.
</event>
<event>
 5   0  0.1498375E-02  0.8381529E+03  0.7818609E-02  0.9506377E-01
       -1   -1    0    0    0  501  0.00000000000E+00  0.00000000000E+00  0.17975370399E+03  0.17975370406E+03  0.50400001928E-02 0.  1.
        1   -1    0    0  501    0  0.00000000000E+00  0.00000000000E+00 -0.97703179810E+03  0.97703179812E+03  0.50400001928E-02 0. -1.
    10030    2    1    2    0    0  0.00000000000E+00  0.00000000000E+00 -0.79727809411E+03  0.11567855022E+04  0.83815293277E+03 0.  0.
        4    1    3    3  502    0  0.16737077929E+03 -0.22347176139E+03 -0.82997145213E+03  0.87567507111E+03  0.12699999809E+01 0. -1.
       -4    1    3    3    0  502 -0.16737077929E+03  0.22347176139E+03  0.32693358023E+02  0.28111043108E+03  0.12699999809E+01 0.  1.
</event>
<event>
 5   0  0.1471290E-02  0.7130123E+03  0.7818609E-02  0.9695235E-01
        1   -1    0    0  501    0  0.00000000000E+00  0.00000000000E+00  0.71605139393E+03  0.71605139395E+03  0.50400001928E-02 0. -1.
       -1   -1    0    0    0  501  0.00000000000E+00  0.00000000000E+00 -0.17749653543E+03  0.17749653550E+03  0.50400001928E-02 0.  1.
    10030    2    1    2    0    0  0.00000000000E+00  0.00000000000E+00  0.53855485851E+03  0.89354792945E+03  0.71301231869E+03 0.  0.
        2    1    3    3  502    0  0.29572747403E+03  0.15765468994E+03  0.11688639750E+03  0.35492558386E+03  0.25500000920E-02 0.  1.
       -2    1    3    3    0  502 -0.29572747403E+03 -0.15765468994E+03  0.42166846101E+03  0.53862234559E+03  0.25500000920E-02 0. -1.
</event>
<event>
 5   0  0.2454354E-02  0.8019946E+03  0.7818609E-02  0.9557135E-01
       -2   -1    0    0    0  501  0.00000000000E+00  0.00000000000E+00  0.57241229226E+03  0.57241229226E+03  0.25500000920E-02 0.  1.
        2   -1    0    0  501    0  0.00000000000E+00  0.00000000000E+00 -0.28091434888E+03  0.28091434889E+03  0.25500000920E-02 0. -1.
    10030    2    1    2    0    0  0.00000000000E+00  0.00000000000E+00  0.29149794338E+03  0.85332664115E+03  0.80199457948E+03 0.  0.
        5    1    3    3  502    0  0.22115642172E+03 -0.97644254652E+02 -0.19462000579E+03  0.31039265453E+03  0.46999998093E+01 0. -1.
       -5    1    3    3    0  502 -0.22115642172E+03  0.97644254652E+02  0.48611794916E+03  0.54293398662E+03  0.46999998093E+01 0.  1.
</event>
<event>
 5   0  0.2454354E-02  0.7954817E+03  0.7818609E-02  0.9566580E-01
        2   -1    0    0  501    0  0.00000000000E+00  0.00000000000E+00  0.74920046891E+03  0.74920046891E+03  0.25500000920E-02 0.  1.
       -2   -1    0    0    0  501  0.00000000000E+00  0.00000000000E+00 -0.21115547012E+03  0.21115547013E+03  0.25500000920E-02 0. -1.
    10030    2    1    2    0    0  0.00000000000E+00  0.00000000000E+00  0.53804499879E+03  0.96035593904E+03  0.79548168359E+03 0.  0.
        5    1    3    3  502    0  0.28020560951E+03 -0.21183331604E+03  0.49419298595E+03  0.60633104386E+03  0.46999998093E+01 0.  1.
       -5    1    3    3    0  502 -0.28020560951E+03  0.21183331604E+03  0.43852012840E+02  0.35402489519E+03  0.46999998093E+01 0. -1.
</event>
<event>
 5   0  0.1624094E-02  0.7775184E+03  0.7818609E-02  0.9593141E-01
       -1   -1    0    0    0  501  0.00000000000E+00  0.00000000000E+00  0.21766884037E+03  0.21766884043E+03  0.50400001928E-02 0.  1.
        1   -1    0    0  501    0  0.00000000000E+00  0.00000000000E+00 -0.69432867577E+03  0.69432867578E+03  0.50400001928E-02 0. -1.
    10030    2    1    2    0    0  0.00000000000E+00  0.00000000000E+00 -0.47665983540E+03  0.91199751621E+03  0.77751840550E+03 0.  0.
        3    1    3    3  502    0  0.11165551934E+03 -0.26817731363E+03  0.64710857188E+02  0.29761305715E+03  0.10100000352E+00 0.  1.
       -3    1    3    3    0  502 -0.11165551934E+03  0.26817731363E+03 -0.54137069258E+03  0.61438445906E+03  0.10100000352E+00 0. -1.
</event>
<event>
 5   0  0.2460312E-02  0.8244298E+03  0.7818609E-02  0.9525314E-01
       -2   -1    0    0    0  501  0.00000000000E+00  0.00000000000E+00  0.18278834090E+03  0.18278834092E+03  0.25500000920E-02 0. -1.
        2   -1    0    0  501    0  0.00000000000E+00  0.00000000000E+00 -0.92960581987E+03  0.92960581987E+03  0.25500000920E-02 0.  1.
    10030    2    1    2    0    0  0.00000000000E+00  0.00000000000E+00 -0.74681747897E+03  0.11123941608E+04  0.82442975570E+03 0.  0.
        2    1    3    3  502    0 -0.10503427688E+03  0.38664320027E+03 -0.24261853968E+03  0.46838970894E+03  0.25500000920E-02 0. -1.
       -2    1    3    3    0  502  0.10503427688E+03 -0.38664320027E+03 -0.50419893928E+03  0.64400445186E+03  0.25500000920E-02 0.  1.
</event>
<event>
 5   0  0.1498375E-02  0.7789686E+03  0.7818609E-02  0.9590968E-01
       -1   -1    0    0    0  501  0.00000000000E+00  0.00000000000E+00  0.87591989583E+03  0.87591989585E+03  0.50400001928E-02 0. -1.
        1   -1    0    0  501    0  0.00000000000E+00  0.00000000000E+00 -0.17318709534E+03  0.17318709542E+03  0.50400001928E-02 0.  1.
    10030    2    1    2    0    0  0.00000000000E+00  0.00000000000E+00  0.70273280049E+03  0.10491069913E+04  0.77896860670E+03 0.  0.
        4    1    3    3  502    0  0.35195993699E+03  0.45709689760E+02  0.13532839661E+03  0.37984281067E+03  0.12699999809E+01 0.  1.
       -4    1    3    3    0  502 -0.35195993699E+03 -0.45709689760E+02  0.56740440388E+03  0.66926418059E+03  0.12699999809E+01 0. -1.
</event>
<event>
 5   0  0.2464780E-02  0.7629044E+03  0.7818609E-02  0.9615320E-01
        2   -1    0    0  501    0  0.00000000000E+00  0.00000000000E+00  0.10123867779E+04  0.10123867779E+04  0.25500000920E-02 0.  1.
       -2   -1    0    0    0  501  0.00000000000E+00  0.00000000000E+00 -0.14372549730E+03  0.14372549733E+03  0.25500000920E-02 0. -1.
    10030    2    1    2    0    0  0.00000000000E+00  0.00000000000E+00  0.86866128056E+03  0.11561122752E+04  0.76290443209E+03 0.  0.
        3    1    3    3  502    0  0.75732941538E+02 -0.34311323558E+03  0.20933647583E+03  0.40900359555E+03  0.10100000352E+00 0. -1.
       -3    1    3    3    0  502 -0.75732941538E+02  0.34311323558E+03  0.65932480472E+03  0.74710867963E+03  0.10100000352E+00 0.  1.
</event>
<event>
 5   0  0.2454354E-02  0.7889104E+03  0.7818609E-02  0.9576209E-01
       -2   -1    0    0    0  501  0.00000000000E+00  0.00000000000E+00  0.15167577462E+03  0.15167577464E+03  0.25500000920E-02 0.  1.
        2   -1    0    0  501    0  0.00000000000E+00  0.00000000000E+00 -0.10258388733E+04  0.10258388733E+04  0.25500000920E-02 0. -1.
    10030    2    1    2    0    0  0.00000000000E+00  0.00000000000E+00 -0.87416309868E+03  0.11775146479E+04  0.78891040240E+03 0.  0.
        5    1    3    3  502    0  0.76054078495E+02 -0.34355045218E+03 -0.17107620225E+03  0.39128032537E+03  0.46999998093E+01 0.  1.
       -5    1    3    3    0  502 -0.76054078495E+02  0.34355045218E+03 -0.70308689643E+03  0.78623432257E+03  0.46999998093E+01 0. -1.
</event>
<event>
 5   0  0.2460312E-02  0.8029928E+03  0.7818609E-02  0.9555695E-01
        2   -1    0    0  501    0  0.00000000000E+00  0.00000000000E+00  0.61993924874E+03  0.61993924874E+03  0.25500000920E-02 0. -1.
       -2   -1    0    0    0  501  0.00000000000E+00  0.00000000000E+00 -0.26002447016E+03  0.26002447017E+03  0.25500000920E-02 0.  1.
    10030    2    1    2    0    0  0.00000000000E+00  0.00000000000E+00  0.35991477858E+03  0.87996371891E+03  0.80299283855E+03 0.  0.
        2    1    3    3  502    0  0.24510662437E+03 -0.10167387112E+03  0.51014368666E+03  0.57503166384E+03  0.25500000920E-02 0. -1.
       -2    1    3    3    0  502 -0.24510662437E+03  0.10167387112E+03 -0.15022890808E+03  0.30493205507E+03  0.25500000920E-02 0.  1.
</event>
<event>
 5   0  0.1523811E-02  0.7978388E+03  0.7818609E-02  0.9563151E-01
       -1   -1    0    0    0  501  0.00000000000E+00  0.00000000000E+00  0.38557285893E+03  0.38557285896E+03  0.50400001928E-02 0.  1.
        1   -1    0    0  501    0  0.00000000000E+00  0.00000000000E+00 -0.41272790718E+03  0.41272790721E+03  0.50400001928E-02 0. -1.
    10030    2    1    2    0    0  0.00000000000E+00  0.00000000000E+00 -0.27155048249E+02  0.79830076617E+03  0.79783877859E+03 0.  0.
        1    1    3    3  502    0  0.22932042966E+03  0.25789914693E+03  0.18663044196E+03  0.39234009652E+03  0.50400001928E-02 0.  1.
       -1    1    3    3    0  502 -0.22932042966E+03 -0.25789914693E+03 -0.21378549021E+03  0.40596066964E+03  0.50400001928E-02 0. -1.
</event>
<event>
 5   0  0.2460312E-02  0.8178523E+03  0.7818609E-02  0.9534530E-01
        2   -1    0    0  501    0  0.00000000000E+00  0.00000000000E+00  0.14346619947E+03  0.14346619949E+03  0.25500000920E-02 0. -1.
       -2   -1    0    0    0  501  0.00000000000E+00  0.00000000000E+00 -0.11655747353E+04  0.11655747353E+04  0.25500000920E-02 0.  1.
    10030    2    1    2    0    0  0.00000000000E+00  0.00000000000E+00 -0.10221085358E+04  0.13090409348E+04  0.81785225434E+03 0.  0.
        2    1    3    3  502    0 -0.12851203126E+03  0.27570459353E+03 -0.73616744428E+02  0.31296611660E+03  0.25500000920E-02 0.  1.
       -2    1    3    3    0  502  0.12851203126E+03 -0.27570459353E+03 -0.94849179140E+03  0.99607481819E+03  0.25500000920E-02 0. -1.
</event>
<event>
 5   0  0.1624094E-02  0.7845965E+03  0.7818609E-02  0.9582585E-01
       -1   -1    0    0    0  501  0.00000000000E+00  0.00000000000E+00  0.33654547972E+03  0.33654547976E+03  0.50400001928E-02 0.  1.
        1   -1    0    0  501    0  0.00000000000E+00  0.00000000000E+00 -0.45728709710E+03  0.45728709713E+03  0.50400001928E-02 0. -1.
    10030    2    1    2    0    0  0.00000000000E+00  0.00000000000E+00 -0.12074161738E+03  0.79383257689E+03  0.78459647078E+03 0.  0.
        3    1    3    3  502    0  0.21349003008E+03  0.17914849440E+03  0.21896932241E+03  0.35442876625E+03  0.10100000352E+00 0.  1.
       -3    1    3    3    0  502 -0.21349003008E+03 -0.17914849440E+03 -0.33971093979E+03  0.43940381064E+03  0.10100000352E+00 0. -1.
</event>
<event>
 5   0  0.1498375E-02  0.8080007E+03  0.7818609E-02  0.9548508E-01
       -1   -1    0    0    0  501  0.00000000000E+00  0.00000000000E+00  0.18455205911E+03  0.18455205917E+03  0.50400001928E-02 0.  1.
        1   -1    0    0  501    0  0.00000000000E+00  0.00000000000E+00 -0.88439150236E+03  0.88439150237E+03  0.50400001928E-02 0. -1.
    10030    2    1    2    0    0  0.00000000000E+00  0.00000000000E+00 -0.69983944326E+03  0.10689435615E+04  0.80800067540E+03 0.  0.
        4    1    3    3  502    0  0.91644753233E+02 -0.20265088782E+03  0.96266261939E+02  0.24235294348E+03  0.12699999809E+01 0.  1.
       -4    1    3    3    0  502 -0.91644753233E+02  0.20265088782E+03 -0.79610570519E+03  0.82659061806E+03  0.12699999809E+01 0. -1.
</event>
<event>
 5   0  0.2464780E-02  0.7960886E+03  0.7818609E-02  0.9565696E-01
        2   -1    0    0  501    0  0.00000000000E+00  0.00000000000E+00  0.77731784159E+03  0.77731784159E+03  0.25500000920E-02 0. -1.
       -2   -1    0    0    0  501  0.00000000000E+00  0.00000000000E+00 -0.20382816539E+03  0.20382816541E+03  0.25500000920E-02 0.  1.
    10030    2    1    2    0    0  0.00000000000E+00  0.00000000000E+00  0.57348967620E+03  0.98114600700E+03  0.79608861213E+03 0.  0.
        3    1    3    3  502    0  0.95471337294E+02 -0.96012465839E+02 -0.17457351736E+03  0.22092780044E+03  0.10100000352E+00 0.  1.
       -3    1    3    3    0  502 -0.95471337294E+02  0.96012465839E+02  0.74806319356E+03  0.76021820657E+03  0.10100000352E+00 0. -1.
</event>
<event>
 5   0  0.1523811E-02  0.8113194E+03  0.7818609E-02  0.9543776E-01
       -1   -1    0    0    0  501  0.00000000000E+00  0.00000000000E+00  0.11271695051E+03  0.11271695062E+03  0.50400001928E-02 0.  1.
        1   -1    0    0  501    0  0.00000000000E+00  0.00000000000E+00 -0.14599384421E+04  0.14599384421E+04  0.50400001928E-02 0. -1.
    10030    2    1    2    0    0  0.00000000000E+00  0.00000000000E+00 -0.13472214916E+04  0.15726553927E+04  0.81131944194E+03 0.  0.
        1    1    3    3  502    0  0.24856832949E+02 -0.17413208618E+03  0.34950442193E+02  0.17933593900E+03  0.50400001928E-02 0.  1.
       -1    1    3    3    0  502 -0.24856832949E+02  0.17413208618E+03 -0.13821719338E+04  0.13933194537E+04  0.50400001928E-02 0. -1.
</event>
<event>
 5   0  0.1471290E-02  0.8000714E+03  0.7818609E-02  0.9559914E-01
        1   -1    0    0  501    0  0.00000000000E+00  0.00000000000E+00  0.55254222633E+03  0.55254222635E+03  0.50400001928E-02 0.  1.
       -1   -1    0    0    0  501  0.00000000000E+00  0.00000000000E+00 -0.28962234853E+03  0.28962234858E+03  0.50400001928E-02 0. -1.
    10030    2    1    2    0    0  0.00000000000E+00  0.00000000000E+00  0.26291987779E+03  0.84216457493E+03  0.80007144002E+03 0.  0.
        2    1    3    3  502    0  0.18831414705E+03 -0.10067293792E+02  0.50281713040E+03  0.53701828182E+03  0.25500000920E-02 0.  1.
       -2    1    3    3    0  502 -0.18831414705E+03  0.10067293792E+02 -0.23989725260E+03  0.30514629311E+03  0.25500000920E-02 0. -1.
</event>
<event>
 5   0  0.1471290E-02  0.7995563E+03  0.7818609E-02  0.9560660E-01
       -1   -1    0    0    0  501  0.00000000000E+00  0.00000000000E+00  0.40866743945E+03  0.40866743948E+03  0.50400001928E-02 0.  1.
        1   -1    0    0  501    0  0.00000000000E+00  0.00000000000E+00 -0.39108223470E+03  0.39108223473E+03  0.50400001928E-02 0. -1.
    10030    2    1    2    0    0  0.00000000000E+00  0.00000000000E+00  0.17585204746E+02  0.79974967421E+03  0.79955631570E+03 0.  0.
        2    1    3    3  502    0 -0.85085474402E+02  0.13622285796E+03 -0.35739205342E+03  0.39182302745E+03  0.25500000920E-02 0. -1.
       -2    1    3    3    0  502  0.85085474402E+02 -0.13622285796E+03  0.37497725817E+03  0.40792664676E+03  0.25500000920E-02 0.  1.
</event>
<event>
 5   0  0.2422031E-02  0.8153314E+03  0.7818609E-02  0.9538087E-01
       -2   -1    0    0    0  501  0.00000000000E+00  0.00000000000E+00  0.86528289090E+02  0.86528289128E+02  0.25500000920E-02 0.  1.
        2   -1    0    0  501    0  0.00000000000E+00  0.00000000000E+00 -0.19206586911E+04  0.19206586911E+04  0.25500000920E-02 0. -1.
    10030    2    1    2    0    0  0.00000000000E+00  0.00000000000E+00 -0.18341304020E+04  0.20071869802E+04  0.81533136946E+03 0.  0.
        4    1    3    3  502    0 -0.37627558956E+03  0.15073347507E+03 -0.10239709946E+04  0.11012820304E+04  0.12699999809E+01 0. -1.
       -4    1    3    3    0  502  0.37627558956E+03 -0.15073347507E+03 -0.81015940737E+03  0.90590494979E+03  0.12699999809E+01 0.  1.
</event>
<event>
 5   0  0.1498375E-02  0.7975052E+03  0.7818609E-02  0.9563635E-01
        1   -1    0    0  501    0  0.00000000000E+00  0.00000000000E+00  0.47251255301E+03  0.47251255304E+03  0.50400001928E-02 0. -1.
       -1   -1    0    0    0  501  0.00000000000E+00  0.00000000000E+00 -0.33650669603E+03  0.33650669606E+03  0.50400001928E-02 0.  1.
    10030    2    1    2    0    0  0.00000000000E+00  0.00000000000E+00  0.13600585699E+03  0.80901924910E+03  0.79750520518E+03 0.  0.
        4    1    3    3  502    0 -0.19438627689E+03 -0.87362042220E+01 -0.28507334839E+03  0.34515325983E+03  0.12699999809E+01 0.  1.
       -4    1    3    3    0  502  0.19438627689E+03  0.87362042220E+01  0.42107920538E+03  0.46386598928E+03  0.12699999809E+01 0. -1.
</event>
<event>
 5   0  0.1498375E-02  0.7971306E+03  0.7818609E-02  0.9564180E-01
        1   -1    0    0  501    0  0.00000000000E+00  0.00000000000E+00  0.11863154300E+04  0.11863154301E+04  0.50400001928E-02 0. -1.
       -1   -1    0    0    0  501  0.00000000000E+00  0.00000000000E+00 -0.13390560232E+03  0.13390560241E+03  0.50400001928E-02 0.  1.
    10030    2    1    2    0    0  0.00000000000E+00  0.00000000000E+00  0.10524098277E+04  0.13202210325E+04  0.79713055961E+03 0.  0.
        4    1    3    3  502    0 -0.25426397267E+03 -0.19199846958E+03  0.12961416124E+03  0.34396951000E+03  0.12699999809E+01 0.  1.
       -4    1    3    3    0  502  0.25426397267E+03  0.19199846958E+03  0.92279566649E+03  0.97625152247E+03  0.12699999809E+01 0. -1.
</event>
<event>
 5   0  0.2454354E-02  0.8101833E+03  0.7818609E-02  0.9545393E-01
        2   -1    0    0  501    0  0.00000000000E+00  0.00000000000E+00  0.66569940514E+03  0.66569940515E+03  0.25500000920E-02 0. -1.
       -2   -1    0    0    0  501  0.00000000000E+00  0.00000000000E+00 -0.24650651905E+03  0.24650651906E+03  0.25500000920E-02 0.  1.
    10030    2    1    2    0    0  0.00000000000E+00  0.00000000000E+00  0.41919288609E+03  0.91220592421E+03  0.81018329557E+03 0.  0.
        5    1    3    3  502    0  0.18599702245E+03  0.34446717032E+03  0.32673938324E+03  0.50993454320E+03  0.46999998093E+01 0. -1.
       -5    1    3    3    0  502 -0.18599702245E+03 -0.34446717032E+03  0.92453502856E+02  0.40227138101E+03  0.46999998093E+01 0.  1.
</event>
<event>
 5   0  0.2571778E-02  0.7917925E+03  0.7818609E-02  0.9571974E-01
       -2   -1    0    0    0  501  0.00000000000E+00  0.00000000000E+00  0.66761766259E+02  0.66761766307E+02  0.25500000920E-02 0.  1.
        2   -1    0    0  501    0  0.00000000000E+00  0.00000000000E+00 -0.23476588649E+04  0.23476588649E+04  0.25500000920E-02 0. -1.
    10030    2    1    2    0    0  0.00000000000E+00  0.00000000000E+00 -0.22808970986E+04  0.24144206312E+04  0.79179252952E+03 0.  0.
        1    1    3    3  502    0 -0.18863014254E+03  0.10752140409E+03 -0.13098578276E+03  0.25357337858E+03  0.50400001928E-02 0.  1.
       -1    1    3    3    0  502  0.18863014254E+03 -0.10752140409E+03 -0.21499113158E+04  0.21608472526E+04  0.50400001928E-02 0. -1.
</event>
<event>
 5   0  0.2571778E-02  0.7890114E+03  0.7818609E-02  0.9576060E-01
        2   -1    0    0  501    0  0.00000000000E+00  0.00000000000E+00  0.11817373724E+04  0.11817373724E+04  0.25500000920E-02 0. -1.
       -2   -1    0    0    0  501  0.00000000000E+00  0.00000000000E+00 -0.13169993489E+03  0.13169993492E+03  0.25500000920E-02 0.  1.
    10030    2    1    2    0    0  0.00000000000E+00  0.00000000000E+00  0.10500374375E+04  0.13134373074E+04  0.78901136881E+03 0.  0.
        1    1    3    3  502    0 -0.10433669107E+03 -0.22482998230E+03  0.10359372998E+04  0.10651763963E+04  0.50400001928E-02 0. -1.
       -1    1    3    3    0  502  0.10433669107E+03  0.22482998230E+03  0.14100137706E+02  0.24826091104E+03  0.50400001928E-02 0.  1.
</event>
<event>
 5   0  0.9919125E-03  0.8132056E+03  0.7818609E-02  0.9541097E-01
        3   -1    0    0  501    0  0.00000000000E+00  0.00000000000E+00  0.85097179237E+03  0.85097179837E+03  0.10100000352E+00 0. -1.
       -3   -1    0    0    0  501  0.00000000000E+00  0.00000000000E+00 -0.19427883376E+03  0.19427886001E+03  0.10100000352E+00 0.  1.
    10030    2    1    2    0    0  0.00000000000E+00  0.00000000000E+00  0.65669295862E+03  0.10452506584E+04  0.81320556869E+03 0.  0.
        5    1    3    3  502    0 -0.25913187587E+03 -0.14907150913E+03  0.68253361529E+03  0.74514822010E+03  0.46999998093E+01 0. -1.
       -5    1    3    3    0  502  0.25913187587E+03  0.14907150913E+03 -0.25840656669E+02  0.30010243828E+03  0.46999998093E+01 0.  1.
</event>
<event>
 5   0  0.1624094E-02  0.7962762E+03  0.7818609E-02  0.9565423E-01
       -1   -1    0    0    0  501  0.00000000000E+00  0.00000000000E+00  0.94737744202E+03  0.94737744204E+03  0.50400001928E-02 0. -1.
        1   -1    0    0  501    0  0.00000000000E+00  0.00000000000E+00 -0.16731867594E+03  0.16731867602E+03  0.50400001928E-02 0.  1.
    10030    2    1    2    0    0  0.00000000000E+00  0.00000000000E+00  0.78005876608E+03  0.11146961181E+04  0.79627618140E+03 0.  0.
        3    1    3    3  502    0 -0.52328005111E+02 -0.20013937459E+03 -0.86178809828E+02  0.22409994834E+03  0.10100000352E+00 0.  1.
       -3    1    3    3    0  502  0.52328005111E+02  0.20013937459E+03  0.86623757591E+03  0.89059616971E+03  0.10100000352E+00 0. -1.
</event>
<event>
 5   0  0.2454354E-02  0.7986283E+03  0.7818609E-02  0.9562005E-01
        2   -1    0    0  501    0  0.00000000000E+00  0.00000000000E+00  0.12568568092E+04  0.12568568092E+04  0.25500000920E-02 0.  1.
       -2   -1    0    0    0  501  0.00000000000E+00  0.00000000000E+00 -0.12686552032E+03  0.12686552035E+03  0.25500000920E-02 0. -1.
    10030    2    1    2    0    0  0.00000000000E+00  0.00000000000E+00  0.11299912888E+04  0.13837223295E+04  0.79862830675E+03 0.  0.
        5    1    3    3  502    0  0.34648467040E+03 -0.10382153114E+03  0.85800462655E+03  0.93114153937E+03  0.46999998093E+01 0.  1.
       -5    1    3    3    0  502 -0.34648467040E+03  0.10382153114E+03  0.27198666228E+03  0.45258079014E+03  0.46999998093E+01 0. -1.
</event>
<event>
 5   0  0.2460312E-02  0.7969322E+03  0.7818609E-02  0.9564468E-01
        2   -1    0    0  501    0  0.00000000000E+00  0.00000000000E+00  0.37469619903E+03  0.37469619903E+03  0.25500000920E-02 0.  1.
       -2   -1    0    0    0  501  0.00000000000E+00  0.00000000000E+00 -0.42374390116E+03  0.42374390117E+03  0.25500000920E-02 0. -1.
    10030    2    1    2    0    0  0.00000000000E+00  0.00000000000E+00 -0.49047702137E+02  0.79844010020E+03  0.79693219067E+03 0.  0.
        2    1    3    3  502    0  0.33004615979E+03  0.22070732664E+03 -0.58248164138E+02  0.40129171467E+03  0.25500000920E-02 0. -1.
       -2    1    3    3    0  502 -0.33004615979E+03 -0.22070732664E+03  0.92004620015E+01  0.39714838554E+03  0.25500000920E-02 0.  1.
</event>
<event>
 5   0  0.1509629E-02  0.8130129E+03  0.7818609E-02  0.9541370E-01
       -1   -1    0    0    0  501  0.00000000000E+00  0.00000000000E+00  0.61023497101E+03  0.61023497103E+03  0.50400001928E-02 0.  1.
        1   -1    0    0  501    0  0.00000000000E+00  0.00000000000E+00 -0.27079320171E+03  0.27079320175E+03  0.50400001928E-02 0. -1.
    10030    2    1    2    0    0  0.00000000000E+00  0.00000000000E+00  0.33944176930E+03  0.88102817278E+03  0.81301286982E+03 0.  0.
        5    1    3    3  502    0 -0.94585394274E+01  0.67718742899E+02 -0.26448695985E+03  0.27322286514E+03  0.46999998093E+01 0. -1.
       -5    1    3    3    0  502  0.94585394274E+01 -0.67718742899E+02  0.60392872915E+03  0.60780530764E+03  0.46999998093E+01 0.  1.
</event>
<event>
 5   0  0.2571778E-02  0.8370347E+03  0.7818609E-02  0.9507906E-01
       -2   -1    0    0    0  501  0.00000000000E+00  0.00000000000E+00  0.41919889575E+03  0.41919889576E+03  0.25500000920E-02 0.  1.
        2   -1    0    0  501    0  0.00000000000E+00  0.00000000000E+00 -0.41783693933E+03  0.41783693934E+03  0.25500000920E-02 0. -1.
    10030    2    1    2    0    0  0.00000000000E+00  0.00000000000E+00  0.13619564196E+01  0.83703583510E+03  0.83703472706E+03 0.  0.
        1    1    3    3  502    0  0.12137121747E+03  0.23110065398E+03 -0.32645596893E+03  0.41798562700E+03  0.50400001928E-02 0. -1.
       -1    1    3    3    0  502 -0.12137121747E+03 -0.23110065398E+03  0.32781792535E+03  0.41905020810E+03  0.50400001928E-02 0.  1.
</event>
<event>
 5   0  0.2422031E-02  0.8012765E+03  0.7818609E-02  0.9558171E-01
       -2   -1    0    0    0  501  0.00000000000E+00  0.00000000000E+00  0.23158720915E+03  0.23158720916E+03  0.25500000920E-02 0. -1.
        2   -1    0    0  501    0  0.00000000000E+00  0.00000000000E+00 -0.69309104948E+03  0.69309104949E+03  0.25500000920E-02 0.  1.
    10030    2    1    2    0    0  0.00000000000E+00  0.00000000000E+00 -0.46150384033E+03  0.92467825865E+03  0.80127653615E+03 0.  0.
        4    1    3    3  502    0  0.26152205973E+03  0.29579437755E+03 -0.30920150533E+03  0.50149305610E+03  0.12699999809E+01 0.  1.
       -4    1    3    3    0  502 -0.26152205973E+03 -0.29579437755E+03 -0.15230233501E+03  0.42318520256E+03  0.12699999809E+01 0. -1.
</event>
<event>
 5   0  0.2571778E-02  0.7705293E+03  0.7818609E-02  0.9603682E-01
        2   -1    0    0  501    0  0.00000000000E+00  0.00000000000E+00  0.12314962005E+04  0.12314962005E+04  0.25500000920E-02 0. -1.
       -2   -1    0    0    0  501  0.00000000000E+00  0.00000000000E+00 -0.12052724932E+03  0.12052724934E+03  0.25500000920E-02 0.  1.
    10030    2    1    2    0    0  0.00000000000E+00  0.00000000000E+00  0.11109689512E+04  0.13520234499E+04  0.77052929760E+03 0.  0.
        1    1    3    3  502    0 -0.12248348753E+03 -0.24271490575E+03  0.76501384089E+02  0.28242732159E+03  0.50400001928E-02 0.  1.
       -1    1    3    3    0  502  0.12248348753E+03  0.24271490575E+03  0.10344675671E+04  0.10695961283E+04  0.50400001928E-02 0. -1.
</event>
<event>
 5   0  0.2460312E-02  0.7980354E+03  0.7818609E-02  0.9562865E-01
        2   -1    0    0  501    0  0.00000000000E+00  0.00000000000E+00  0.28475023141E+03  0.28475023142E+03  0.25500000920E-02 0.  1.
       -2   -1    0    0    0  501  0.00000000000E+00  0.00000000000E+00 -0.55913964749E+03  0.55913964749E+03  0.25500000920E-02 0. -1.
    10030    2    1    2    0    0  0.00000000000E+00  0.00000000000E+00 -0.27438941607E+03  0.84388987892E+03  0.79803544789E+03 0.  0.
        2    1    3    3  502    0 -0.10687931929E+03 -0.38220797917E+03 -0.18091032704E+03  0.43615900159E+03  0.25500000920E-02 0. -1.
       -2    1    3    3    0  502  0.10687931929E+03  0.38220797917E+03 -0.93479089034E+02  0.40773087733E+03  0.25500000920E-02 0.  1.
</event>
<event>
 5   0  0.1471290E-02  0.7961720E+03  0.7818609E-02  0.9565575E-01
        1   -1    0    0  501    0  0.00000000000E+00  0.00000000000E+00  0.28121688816E+04  0.28121688816E+04  0.50400001928E-02 0. -1.
       -1   -1    0    0    0  501  0.00000000000E+00  0.00000000000E+00 -0.56352399225E+02  0.56352399450E+02  0.50400001928E-02 0.  1.
    10030    2    1    2    0    0  0.00000000000E+00  0.00000000000E+00  0.27558164824E+04  0.28685212810E+04  0.79617200110E+03 0.  0.
        2    1    3    3  502    0 -0.57692684891E+02 -0.15612767438E+03  0.26807815707E+04  0.26859438055E+04  0.25500000920E-02 0. -1.
       -2    1    3    3    0  502  0.57692684891E+02  0.15612767438E+03  0.75034911677E+02  0.18257747554E+03  0.25500000920E-02 0.  1.
</event>
<event>
 5   0  0.1471290E-02  0.7911803E+03  0.7818609E-02  0.9572872E-01
        1   -1    0    0  501    0  0.00000000000E+00  0.00000000000E+00  0.13792394285E+04  0.13792394285E+04  0.50400001928E-02 0. -1.
       -1   -1    0    0    0  501  0.00000000000E+00  0.00000000000E+00 -0.11346221897E+03  0.11346221908E+03  0.50400001928E-02 0.  1.
    10030    2    1    2    0    0  0.00000000000E+00  0.00000000000E+00  0.12657772095E+04  0.14927016476E+04  0.79118029837E+03 0.  0.
        2    1    3    3  502    0 -0.54804385404E+02  0.19238247772E+03  0.12767875118E+04  0.12923625222E+04  0.25500000920E-02 0. -1.
       -2    1    3    3    0  502  0.54804385404E+02 -0.19238247772E+03 -0.11010302317E+02  0.20033912538E+03  0.25500000920E-02 0.  1.
</event>
<event>
 5   0  0.2571778E-02  0.7956337E+03  0.7818609E-02  0.9566359E-01
        2   -1    0    0  501    0  0.00000000000E+00  0.00000000000E+00  0.22014261785E+04  0.22014261785E+04  0.25500000920E-02 0. -1.
       -2   -1    0    0    0  501  0.00000000000E+00  0.00000000000E+00 -0.71888971327E+02  0.71888971372E+02  0.25500000920E-02 0.  1.
    10030    2    1    2    0    0  0.00000000000E+00  0.00000000000E+00  0.21295372072E+04  0.22733151499E+04  0.79563374358E+03 0.  0.
        1    1    3    3  502    0 -0.15767377170E+03 -0.36048410382E+03  0.89698141336E+03  0.97948224248E+03  0.50400001928E-02 0.  1.
       -1    1    3    3    0  502  0.15767377170E+03  0.36048410382E+03  0.12325557939E+04  0.12938329074E+04  0.50400001928E-02 0. -1.
</event>
<event>
 5   0  0.1523811E-02  0.7868849E+03  0.7818609E-02  0.9579197E-01
       -1   -1    0    0    0  501  0.00000000000E+00  0.00000000000E+00  0.94317047358E+03  0.94317047359E+03  0.50400001928E-02 0.  1.
        1   -1    0    0  501    0  0.00000000000E+00  0.00000000000E+00 -0.16412405611E+03  0.16412405619E+03  0.50400001928E-02 0. -1.
    10030    2    1    2    0    0  0.00000000000E+00  0.00000000000E+00  0.77904641747E+03  0.11072945298E+04  0.78688490588E+03 0.  0.
        1    1    3    3  502    0 -0.12768689760E+03 -0.21986278233E+03  0.81203899419E+03  0.85091181387E+03  0.50400001928E-02 0.  1.
       -1    1    3    3    0  502  0.12768689760E+03  0.21986278233E+03 -0.32992576719E+02  0.25638271591E+03  0.50400001928E-02 0. -1.
</event>
<event>
 5   0  0.1509629E-02  0.7813248E+03  0.7818609E-02  0.9587449E-01
        1   -1    0    0  501    0  0.00000000000E+00  0.00000000000E+00  0.10141630216E+04  0.10141630216E+04  0.50400001928E-02 0. -1.
       -1   -1    0    0    0  501  0.00000000000E+00  0.00000000000E+00 -0.15048578711E+03  0.15048578719E+03  0.50400001928E-02 0.  1.
    10030    2    1    2    0    0  0.00000000000E+00  0.00000000000E+00  0.86367723446E+03  0.11646488088E+04  0.78132482519E+03 0.  0.
        5    1    3    3  502    0 -0.31523019480E+03  0.22776820532E+03  0.48653802139E+03  0.62288824626E+03  0.46999998093E+01 0. -1.
       -5    1    3    3    0  502  0.31523019480E+03 -0.22776820532E+03  0.37713921307E+03  0.54176056252E+03  0.46999998093E+01 0.  1.
</event>
<event>
 5   0  0.2571778E-02  0.5923794E+03  0.7818609E-02  0.9921344E-01
        2   -1    0    0  501    0  0.00000000000E+00  0.00000000000E+00  0.42817372730E+03  0.42817372731E+03  0.25500000920E-02 0. -1.
       -2   -1    0    0    0  501  0.00000000000E+00  0.00000000000E+00 -0.20488955341E+03  0.20488955343E+03  0.25500000920E-02 0.  1.
    10030    2    1    2    0    0  0.00000000000E+00  0.00000000000E+00  0.22328417388E+03  0.63306328074E+03  0.59237935068E+03 0.  0.
        1    1    3    3  502    0 -0.18737219477E+03 -0.15944827090E+03  0.28788091314E+03  0.37869184127E+03  0.50400001928E-02 0. -1.
       -1    1    3    3    0  502  0.18737219477E+03  0.15944827090E+03 -0.64596739255E+02  0.25437143947E+03  0.50400001928E-02 0.  1.
</event>
<event>
 5   0  0.1498375E-02  0.8184295E+03  0.7818609E-02  0.9533718E-01
       -1   -1    0    0    0  501  0.00000000000E+00  0.00000000000E+00  0.30846061119E+03  0.30846061123E+03  0.50400001928E-02 0. -1.
        1   -1    0    0  501    0  0.00000000000E+00  0.00000000000E+00 -0.54287880606E+03  0.54287880608E+03  0.50400001928E-02 0.  1.
    10030    2    1    2    0    0  0.00000000000E+00  0.00000000000E+00 -0.23441819487E+03  0.85133941731E+03  0.81842954088E+03 0.  0.
        4    1    3    3  502    0  0.23236665572E+03  0.30742070578E+03 -0.26041620682E+03  0.46510210353E+03  0.12699999809E+01 0.  1.
       -4    1    3    3    0  502 -0.23236665572E+03 -0.30742070578E+03  0.25998011949E+02  0.38623731378E+03  0.12699999809E+01 0. -1.
</event>
<event>
 5   0  0.2460312E-02  0.7889872E+03  0.7818609E-02  0.9576096E-01
        2   -1    0    0  501    0  0.00000000000E+00  0.00000000000E+00  0.31639862191E+03  0.31639862192E+03  0.25500000920E-02 0. -1.
       -2   -1    0    0    0  501  0.00000000000E+00  0.00000000000E+00 -0.49186439364E+03  0.49186439365E+03  0.25500000920E-02 0.  1.
    10030    2    1    2    0    0  0.00000000000E+00  0.00000000000E+00 -0.17546577173E+03  0.80826301557E+03  0.78898724026E+03 0.  0.
        2    1    3    3  502    0 -0.10817312128E+02 -0.12124052019E+03  0.29667991322E+03  0.32067935526E+03  0.25500000920E-02 0. -1.
       -2    1    3    3    0  502  0.10817312128E+02  0.12124052019E+03 -0.47214568495E+03  0.48758366031E+03  0.25500000920E-02 0.  1.
</event>
<event>
 5   0  0.1498375E-02  0.8007670E+03  0.7818609E-02  0.9558908E-01
       -1   -1    0    0    0  501  0.00000000000E+00  0.00000000000E+00  0.29815400786E+03  0.29815400790E+03  0.50400001928E-02 0. -1.
        1   -1    0    0  501    0  0.00000000000E+00  0.00000000000E+00 -0.53766493145E+03  0.53766493148E+03  0.50400001928E-02 0.  1.
    10030    2    1    2    0    0  0.00000000000E+00  0.00000000000E+00 -0.23951092360E+03  0.83581893938E+03  0.80076701786E+03 0.  0.
        4    1    3    3  502    0  0.89314156936E+02 -0.30979220162E+03  0.12803261527E+03  0.34690371904E+03  0.12699999809E+01 0. -1.
       -4    1    3    3    0  502 -0.89314156936E+02  0.30979220162E+03 -0.36754353886E+03  0.48891522033E+03  0.12699999809E+01 0.  1.
</event>
<event>
 5   0  0.1523811E-02  0.7756406E+03  0.7818609E-02  0.9595961E-01
        1   -1    0    0  501    0  0.00000000000E+00  0.00000000000E+00  0.12449330183E+04  0.12449330183E+04  0.50400001928E-02 0.  1.
       -1   -1    0    0    0  501  0.00000000000E+00  0.00000000000E+00 -0.12081340826E+03  0.12081340836E+03  0.50400001928E-02 0. -1.
    10030    2    1    2    0    0  0.00000000000E+00  0.00000000000E+00  0.11241196100E+04  0.13657464267E+04  0.77564064120E+03 0.  0.
        1    1    3    3  502    0  0.35415025654E+03  0.97348815689E+02  0.34280401427E+03  0.50240798994E+03  0.50400001928E-02 0.  1.
       -1    1    3    3    0  502 -0.35415025654E+03 -0.97348815689E+02  0.78131559576E+03  0.86333843672E+03  0.50400001928E-02 0. -1.
</event>
<event>
 5   0  0.2454354E-02  0.7723931E+03  0.7818609E-02  0.9600860E-01
       -2   -1    0    0    0  501  0.00000000000E+00  0.00000000000E+00  0.58483269406E+03  0.58483269407E+03  0.25500000920E-02 0.  1.
        2   -1    0    0  501    0  0.00000000000E+00  0.00000000000E+00 -0.25502639209E+03  0.25502639211E+03  0.25500000920E-02 0. -1.
    10030    2    1    2    0    0  0.00000000000E+00  0.00000000000E+00  0.32980630197E+03  0.83985908617E+03  0.77239309151E+03 0.  0.
        5    1    3    3  502    0 -0.79257619724E+02  0.16667319511E+03 -0.20393658144E+03  0.27508897379E+03  0.46999998093E+01 0. -1.
       -5    1    3    3    0  502  0.79257619724E+02 -0.16667319511E+03  0.53374288341E+03  0.56477011238E+03  0.46999998093E+01 0.  1.
</event>
<event>
 5   0  0.1624094E-02  0.7923581E+03  0.7818609E-02  0.9571145E-01
       -1   -1    0    0    0  501  0.00000000000E+00  0.00000000000E+00  0.12982737572E+03  0.12982737582E+03  0.50400001928E-02 0.  1.
        1   -1    0    0  501    0  0.00000000000E+00  0.00000000000E+00 -0.12089733720E+04  0.12089733721E+04  0.50400001928E-02 0. -1.
    10030    2    1    2    0    0  0.00000000000E+00  0.00000000000E+00 -0.10791459963E+04  0.13388007479E+04  0.79235810156E+03 0.  0.
        3    1    3    3  502    0  0.10361197801E+03  0.26061085294E+03 -0.66762133773E+02  0.28828918010E+03  0.10100000352E+00 0.  1.
       -3    1    3    3    0  502 -0.10361197801E+03 -0.26061085294E+03 -0.10123838626E+04  0.10505115678E+04  0.10100000352E+00 0. -1.
</event>
<event>
 5   0  0.1624094E-02  0.7979466E+03  0.7818609E-02  0.9562994E-01
        1   -1    0    0  501    0  0.00000000000E+00  0.00000000000E+00  0.65839543808E+03  0.65839543810E+03  0.50400001928E-02 0. -1.
       -1   -1    0    0    0  501  0.00000000000E+00  0.00000000000E+00 -0.24176912034E+03  0.24176912039E+03  0.50400001928E-02 0.  1.
    10030    2    1    2    0    0  0.00000000000E+00  0.00000000000E+00  0.41662631774E+03  0.90016455850E+03  0.79794657950E+03 0.  0.
        3    1    3    3  502    0 -0.32805895334E+02  0.16050567295E+03 -0.20207603668E+03  0.26014040943E+03  0.10100000352E+00 0.  1.
       -3    1    3    3    0  502  0.32805895334E+02 -0.16050567295E+03  0.61870235442E+03  0.64002414907E+03  0.10100000352E+00 0. -1.
</event>
<event>
 5   0  0.2460312E-02  0.8140949E+03  0.7818609E-02  0.9539836E-01
       -2   -1    0    0    0  501  0.00000000000E+00  0.00000000000E+00  0.19087179327E+03  0.19087179329E+03  0.25500000920E-02 0.  1.
        2   -1    0    0  501    0  0.00000000000E+00  0.00000000000E+00 -0.86805716592E+03  0.86805716593E+03  0.25500000920E-02 0. -1.
    10030    2    1    2    0    0  0.00000000000E+00  0.00000000000E+00 -0.67718537265E+03  0.10589289592E+04  0.81409490339E+03 0.  0.
        2    1    3    3  502    0  0.19742542635E+03 -0.36818020851E+01  0.12440137841E+03  0.23337964262E+03  0.25500000920E-02 0.  1.
       -2    1    3    3    0  502 -0.19742542635E+03  0.36818020851E+01 -0.80158675106E+03  0.82554931659E+03  0.25500000920E-02 0. -1.
</event>
<event>
 5   0  0.2422031E-02  0.8159080E+03  0.7818609E-02  0.9537272E-01
       -2   -1    0    0    0  501  0.00000000000E+00  0.00000000000E+00  0.91556012742E+02  0.91556012777E+02  0.25500000920E-02 0. -1.
        2   -1    0    0  501    0  0.00000000000E+00  0.00000000000E+00 -0.18177556061E+04  0.18177556061E+04  0.25500000920E-02 0.  1.
    10030    2    1    2    0    0  0.00000000000E+00  0.00000000000E+00 -0.17261995933E+04  0.19093116188E+04  0.81590797389E+03 0.  0.
        4    1    3    3  502    0 -0.28264078295E+03  0.52367183556E+02 -0.18569367374E+03  0.34221614145E+03  0.12699999809E+01 0. -1.
       -4    1    3    3    0  502  0.28264078295E+03 -0.52367183556E+02 -0.15405059196E+04  0.15670954774E+04  0.12699999809E+01 0.  1.
</event>
<event>
 5   0  0.1624094E-02  0.8099718E+03  0.7818609E-02  0.9545694E-01
        1   -1    0    0  501    0  0.00000000000E+00  0.00000000000E+00  0.93985281693E+03  0.93985281695E+03  0.50400001928E-02 0.  1.
       -1   -1    0    0    0  501  0.00000000000E+00  0.00000000000E+00 -0.17450986495E+03  0.17450986503E+03  0.50400001928E-02 0. -1.
    10030    2    1    2    0    0  0.00000000000E+00  0.00000000000E+00  0.76534295198E+03  0.11143626820E+04  0.80997182225E+03 0.  0.
        3    1    3    3  502    0  0.33004495518E+03 -0.22492925767E+03  0.47486816912E+03  0.62050191913E+03  0.10100000352E+00 0.  1.
       -3    1    3    3    0  502 -0.33004495518E+03  0.22492925767E+03  0.29047478286E+03  0.49386076285E+03  0.10100000352E+00 0. -1.
</event>
<event>
 5   0  0.2460312E-02  0.7733196E+03  0.7818609E-02  0.9599460E-01
       -2   -1    0    0    0  501  0.00000000000E+00  0.00000000000E+00  0.76288618003E+02  0.76288618046E+02  0.25500000920E-02 0.  1.
        2   -1    0    0  501    0  0.00000000000E+00  0.00000000000E+00 -0.19597394203E+04  0.19597394203E+04  0.25500000920E-02 0. -1.
    10030    2    1    2    0    0  0.00000000000E+00  0.00000000000E+00 -0.18834508023E+04  0.20360280383E+04  0.77331962878E+03 0.  0.
        2    1    3    3  502    0  0.16405085671E+03  0.27314331917E+03 -0.15184670867E+04  0.15515354491E+04  0.25500000920E-02 0. -1.
       -2    1    3    3    0  502 -0.16405085671E+03 -0.27314331917E+03 -0.36498371563E+03  0.48449258929E+03  0.25500000920E-02 0.  1.
</event>
<event>
 5   0  0.2422031E-02  0.7956630E+03  0.7818609E-02  0.9566316E-01
       -2   -1    0    0    0  501  0.00000000000E+00  0.00000000000E+00  0.29215507500E+03  0.29215507501E+03  0.25500000920E-02 0. -1.
        2   -1    0    0  501    0  0.00000000000E+00  0.00000000000E+00 -0.54173250869E+03  0.54173250870E+03  0.25500000920E-02 0.  1.
    10030    2    1    2    0    0  0.00000000000E+00  0.00000000000E+00 -0.24957743370E+03  0.83388758371E+03  0.79566299829E+03 0.  0.
        4    1    3    3  502    0  0.29473028555E+03 -0.72730529845E+02  0.14468754966E+03  0.33629119988E+03  0.12699999809E+01 0. -1.
       -4    1    3    3    0  502 -0.29473028555E+03  0.72730529845E+02 -0.39426498336E+03  0.49759638382E+03  0.12699999809E+01 0.  1.
</event>
<event>
 5   0  0.2464780E-02  0.8058871E+03  0.7818609E-02  0.9551535E-01
        2   -1    0    0  501    0  0.00000000000E+00  0.00000000000E+00  0.44751725918E+03  0.44751725919E+03  0.25500000920E-02 0.  1.
       -2   -1    0    0    0  501  0.00000000000E+00  0.00000000000E+00 -0.36280950382E+03  0.36280950382E+03  0.25500000920E-02 0. -1.
    10030    2    1    2    0    0  0.00000000000E+00  0.00000000000E+00  0.84707755368E+02  0.81032676302E+03  0.80588712550E+03 0.  0.
        3    1    3    3  502    0 -0.11261517967E+03 -0.11087825226E+03  0.41505381618E+03  0.44412368327E+03  0.10100000352E+00 0.  1.
       -3    1    3    3    0  502  0.11261517967E+03  0.11087825226E+03 -0.33034606082E+03  0.36620307974E+03  0.10100000352E+00 0. -1.
</event>
<event>
 5   0  0.1624094E-02  0.7829328E+03  0.7818609E-02  0.9585055E-01
        1   -1    0    0  501    0  0.00000000000E+00  0.00000000000E+00  0.86498055273E+03  0.86498055274E+03  0.50400001928E-02 0.  1.
       -1   -1    0    0    0  501  0.00000000000E+00  0.00000000000E+00 -0.17716692955E+03  0.17716692962E+03  0.50400001928E-02 0. -1.
    10030    2    1    2    0    0  0.00000000000E+00  0.00000000000E+00  0.68781362317E+03  0.10421474824E+04  0.78293281626E+03 0.  0.
        3    1    3    3  502    0  0.12114538992E+03 -0.33560590576E+03  0.12953071739E+03  0.37958628325E+03  0.10100000352E+00 0. -1.
       -3    1    3    3    0  502 -0.12114538992E+03  0.33560590576E+03  0.55828290579E+03  0.66256119912E+03  0.10100000352E+00 0.  1.
</event>
<event>
 5   0  0.2460312E-02  0.8096379E+03  0.7818609E-02  0.9546170E-01
        2   -1    0    0  501    0  0.00000000000E+00  0.00000000000E+00  0.98316409905E+03  0.98316409906E+03  0.25500000920E-02 0. -1.
       -2   -1    0    0    0  501  0.00000000000E+00  0.00000000000E+00 -0.16668466587E+03  0.16668466589E+03  0.25500000920E-02 0.  1.
    10030    2    1    2    0    0  0.00000000000E+00  0.00000000000E+00  0.81647943318E+03  0.11498487649E+04  0.80963789279E+03 0.  0.
        2    1    3    3  502    0 -0.20609883008E+03  0.22422724147E+03  0.29485601271E+02  0.30598036582E+03  0.25500000920E-02 0.  1.
       -2    1    3    3    0  502  0.20609883008E+03 -0.22422724147E+03  0.78699383191E+03  0.84386839913E+03  0.25500000920E-02 0. -1.
</event>
<event>
 5   0  0.1509629E-02  0.8143372E+03  0.7818609E-02  0.9539493E-01
       -1   -1    0    0    0  501  0.00000000000E+00  0.00000000000E+00  0.77737980693E+03  0.77737980695E+03  0.50400001928E-02 0.  1.
        1   -1    0    0  501    0  0.00000000000E+00  0.00000000000E+00 -0.21326291602E+03  0.21326291608E+03  0.50400001928E-02 0. -1.
    10030    2    1    2    0    0  0.00000000000E+00  0.00000000000E+00  0.56411689091E+03  0.99064272303E+03  0.81433723855E+03 0.  0.
        5    1    3    3  502    0  0.44199776963E+02 -0.22521027018E+03  0.69115573781E+03  0.72827991184E+03  0.46999998093E+01 0.  1.
       -5    1    3    3    0  502 -0.44199776963E+02  0.22521027018E+03 -0.12703884690E+03  0.26236281120E+03  0.46999998093E+01 0. -1.
</event>
<event>
 5   0  0.1471290E-02  0.7892403E+03  0.7818609E-02  0.9575723E-01
       -1   -1    0    0    0  501  0.00000000000E+00  0.00000000000E+00  0.37885867128E+03  0.37885867132E+03  0.50400001928E-02 0.  1.
        1   -1    0    0  501    0  0.00000000000E+00  0.00000000000E+00 -0.41103737379E+03  0.41103737382E+03  0.50400001928E-02 0. -1.
    10030    2    1    2    0    0  0.00000000000E+00  0.00000000000E+00 -0.32178702501E+02  0.78989604513E+03  0.78924032666E+03 0.  0.
        2    1    3    3  502    0 -0.14932458459E+03 -0.36383430001E+03 -0.48548439190E+02  0.39627033750E+03  0.25500000920E-02 0. -1.
       -2    1    3    3    0  502  0.14932458459E+03  0.36383430001E+03  0.16369736688E+02  0.39362570764E+03  0.25500000920E-02 0.  1.
</event>
<event>
 5   0  0.2460312E-02  0.7966572E+03  0.7818609E-02  0.9564868E-01
       -2   -1    0    0    0  501  0.00000000000E+00  0.00000000000E+00  0.23695767437E+03  0.23695767439E+03  0.25500000920E-02 0.  1.
        2   -1    0    0  501    0  0.00000000000E+00  0.00000000000E+00 -0.66959508027E+03  0.66959508028E+03  0.25500000920E-02 0. -1.
    10030    2    1    2    0    0  0.00000000000E+00  0.00000000000E+00 -0.43263740590E+03  0.90655275466E+03  0.79665724876E+03 0.  0.
        2    1    3    3  502    0  0.10221946820E+03  0.25474972132E+03 -0.54478799489E+03  0.61003294958E+03  0.25500000920E-02 0. -1.
       -2    1    3    3    0  502 -0.10221946820E+03 -0.25474972132E+03  0.11215058899E+03  0.29651980508E+03  0.25500000920E-02 0.  1.
</event>
<event>
 5   0  0.1624094E-02  0.8423822E+03  0.7818609E-02  0.9500619E-01
       -1   -1    0    0    0  501  0.00000000000E+00  0.00000000000E+00  0.10728719738E+03  0.10728719750E+03  0.50400001928E-02 0.  1.
        1   -1    0    0  501    0  0.00000000000E+00  0.00000000000E+00 -0.16535239103E+04  0.16535239103E+04  0.50400001928E-02 0. -1.
    10030    2    1    2    0    0  0.00000000000E+00  0.00000000000E+00 -0.15462367129E+04  0.17608111078E+04  0.84238220837E+03 0.  0.
        3    1    3    3  502    0  0.37323594089E+03 -0.82301438768E+02 -0.11430637528E+04  0.12052689938E+04  0.10100000352E+00 0. -1.
       -3    1    3    3    0  502 -0.37323594089E+03  0.82301438768E+02 -0.40317296015E+03  0.55554211397E+03  0.10100000352E+00 0.  1.
</event>
<event>
 5   0  0.1624094E-02  0.8016461E+03  0.7818609E-02  0.9557638E-01
        1   -1    0    0  501    0  0.00000000000E+00  0.00000000000E+00  0.96409202855E+03  0.96409202856E+03  0.50400001928E-02 0.  1.
       -1   -1    0    0    0  501  0.00000000000E+00  0.00000000000E+00 -0.16664290839E+03  0.16664290847E+03  0.50400001928E-02 0. -1.
    10030    2    1    2    0    0  0.00000000000E+00  0.00000000000E+00  0.79744912016E+03  0.11307349370E+04  0.80164605568E+03 0.  0.
        3    1    3    3  502    0  0.31882769991E+03 -0.22322340927E+03  0.53386423081E+03  0.66067451882E+03  0.10100000352E+00 0. -1.
       -3    1    3    3    0  502 -0.31882769991E+03  0.22322340927E+03  0.26358488935E+03  0.47006041821E+03  0.10100000352E+00 0.  1.
</event>
<event>
 5   0  0.1624094E-02  0.7844553E+03  0.7818609E-02  0.9582794E-01
        1   -1    0    0  501    0  0.00000000000E+00  0.00000000000E+00  0.50540593258E+03  0.50540593260E+03  0.50400001928E-02 0.  1.
       -1   -1    0    0    0  501  0.00000000000E+00  0.00000000000E+00 -0.30439400906E+03  0.30439400910E+03  0.50400001928E-02 0. -1.
    10030    2    1    2    0    0  0.00000000000E+00  0.00000000000E+00  0.20101192352E+03  0.80979994170E+03  0.78445532198E+03 0.  0.
        3    1    3    3  502    0  0.23523210956E+03 -0.15900916519E+03  0.37984886310E+03  0.47423963245E+03  0.10100000352E+00 0.  1.
       -3    1    3    3    0  502 -0.23523210956E+03  0.15900916519E+03 -0.17883693959E+03  0.33556030925E+03  0.10100000352E+00 0. -1.
</event>
<event>
 5   0  0.1471290E-02  0.8251968E+03  0.7818609E-02  0.9524245E-01
       -1   -1    0    0    0  501  0.00000000000E+00  0.00000000000E+00  0.12414420785E+03  0.12414420795E+03  0.50400001928E-02 0. -1.
        1   -1    0    0  501    0  0.00000000000E+00  0.00000000000E+00 -0.13712879404E+04  0.13712879404E+04  0.50400001928E-02 0.  1.
    10030    2    1    2    0    0  0.00000000000E+00  0.00000000000E+00 -0.12471437325E+04  0.14954321483E+04  0.82519683755E+03 0.  0.
        2    1    3    3  502    0 -0.13415632692E+03  0.38983713483E+03 -0.59398539666E+03  0.72304188204E+03  0.25500000920E-02 0. -1.
       -2    1    3    3    0  502  0.13415632692E+03 -0.38983713483E+03 -0.65315833588E+03  0.77239026630E+03  0.25500000920E-02 0.  1.
</event>
<event>
 5   0  0.2454354E-02  0.8070087E+03  0.7818609E-02  0.9549927E-01
        2   -1    0    0  501    0  0.00000000000E+00  0.00000000000E+00  0.40674370365E+03  0.40674370366E+03  0.25500000920E-02 0.  1.
       -2   -1    0    0    0  501  0.00000000000E+00  0.00000000000E+00 -0.40029075668E+03  0.40029075669E+03  0.25500000920E-02 0. -1.
    10030    2    1    2    0    0  0.00000000000E+00  0.00000000000E+00  0.64529469699E+01  0.80703446035E+03  0.80700866146E+03 0.  0.
        5    1    3    3  502    0 -0.82003371834E+02  0.13752076310E+03 -0.36713269167E+03  0.40055588445E+03  0.46999998093E+01 0. -1.
       -5    1    3    3    0  502  0.82003371834E+02 -0.13752076310E+03  0.37358563864E+03  0.40647857590E+03  0.46999998093E+01 0.  1.
</event>
<event>
 5   0  0.1498375E-02  0.7869607E+03  0.7818609E-02  0.9579085E-01
       -1   -1    0    0    0  501  0.00000000000E+00  0.00000000000E+00  0.32248256649E+03  0.32248256653E+03  0.50400001928E-02 0. -1.
        1   -1    0    0  501    0  0.00000000000E+00  0.00000000000E+00 -0.48010903736E+03  0.48010903739E+03  0.50400001928E-02 0.  1.
    10030    2    1    2    0    0  0.00000000000E+00  0.00000000000E+00 -0.15762647088E+03  0.80259160392E+03  0.78696072225E+03 0.  0.
        4    1    3    3  502    0  0.10787366884E+03  0.24705800315E+03  0.21349930279E+03  0.34388653731E+03  0.12699999809E+01 0. -1.
       -4    1    3    3    0  502 -0.10787366884E+03 -0.24705800315E+03 -0.37112577367E+03  0.45870506661E+03  0.12699999809E+01 0.  1.
</event>
<event>
 5   0  0.1624094E-02  0.8053549E+03  0.7818609E-02  0.9552298E-01
       -1   -1    0    0    0  501  0.00000000000E+00  0.00000000000E+00  0.35692127428E+03  0.35692127432E+03  0.50400001928E-02 0. -1.
        1   -1    0    0  501    0  0.00000000000E+00  0.00000000000E+00 -0.45429947310E+03  0.45429947312E+03  0.50400001928E-02 0.  1.
    10030    2    1    2    0    0  0.00000000000E+00  0.00000000000E+00 -0.97378198811E+02  0.81122074744E+03  0.80535494503E+03 0.  0.
        3    1    3    3  502    0 -0.19296829746E+03 -0.24749021193E+03 -0.30283806022E+03  0.43611818323E+03  0.10100000352E+00 0.  1.
       -3    1    3    3    0  502  0.19296829746E+03  0.24749021193E+03  0.20545986141E+03  0.37510256421E+03  0.10100000352E+00 0. -1.
</event>
<event>
 5   0  0.2460312E-02  0.7929962E+03  0.7818609E-02  0.9570210E-01
        2   -1    0    0  501    0  0.00000000000E+00  0.00000000000E+00  0.56604689895E+03  0.56604689895E+03  0.25500000920E-02 0. -1.
       -2   -1    0    0    0  501  0.00000000000E+00  0.00000000000E+00 -0.27773450033E+03  0.27773450034E+03  0.25500000920E-02 0.  1.
    10030    2    1    2    0    0  0.00000000000E+00  0.00000000000E+00  0.28831239862E+03  0.84378139930E+03  0.79299622357E+03 0.  0.
        2    1    3    3  502    0 -0.30985805117E+02  0.28397157728E+03 -0.14842786968E+03  0.32191739519E+03  0.25500000920E-02 0.  1.
       -2    1    3    3    0  502  0.30985805117E+02 -0.28397157728E+03  0.43674026830E+03  0.52186400411E+03  0.25500000920E-02 0. -1.
</event>
<event>
 5   0  0.9919125E-03  0.7647376E+03  0.7818609E-02  0.9612509E-01
       -4   -1    0    0    0  501  0.00000000000E+00  0.00000000000E+00  0.32044549598E+03  0.32044801262E+03  0.12699999809E+01 0. -1.
        4   -1    0    0  501    0  0.00000000000E+00  0.00000000000E+00 -0.45625300656E+03  0.45625477410E+03  0.12699999809E+01 0.  1.
    10030    2    1    2    0    0  0.00000000000E+00  0.00000000000E+00 -0.13580751058E+03  0.77670278672E+03  0.76473756215E+03 0.  0.
        4    1    3    3  502    0  0.30809305140E+03  0.14875610280E+03  0.10551486514E+03  0.35802891798E+03  0.12699999809E+01 0. -1.
       -4    1    3    3    0  502 -0.30809305140E+03 -0.14875610280E+03 -0.24132237572E+03  0.41867386874E+03  0.12699999809E+01 0.  1.
</event>
<event>
 5   0  0.2454354E-02  0.8004485E+03  0.7818609E-02  0.9559368E-01
       -2   -1    0    0    0  501  0.00000000000E+00  0.00000000000E+00  0.10639195342E+04  0.10639195342E+04  0.25500000920E-02 0.  1.
        2   -1    0    0  501    0  0.00000000000E+00  0.00000000000E+00 -0.15055598310E+03  0.15055598312E+03  0.25500000920E-02 0. -1.
    10030    2    1    2    0    0  0.00000000000E+00  0.00000000000E+00  0.91336355106E+03  0.12144755173E+04  0.80044850284E+03 0.  0.
        5    1    3    3  502    0  0.58886795409E+02  0.29962440565E+03  0.64202384896E+02  0.31206806206E+03  0.46999998093E+01 0. -1.
       -5    1    3    3    0  502 -0.58886795409E+02 -0.29962440565E+03  0.84916116617E+03  0.90240745523E+03  0.46999998093E+01 0.  1.
</event>
<event>
 5   0  0.1523811E-02  0.7577353E+03  0.7818609E-02  0.9623292E-01
        1   -1    0    0  501    0  0.00000000000E+00  0.00000000000E+00  0.41451534391E+03  0.41451534395E+03  0.50400001928E-02 0.  1.
       -1   -1    0    0    0  501  0.00000000000E+00  0.00000000000E+00 -0.34628562739E+03  0.34628562743E+03  0.50400001928E-02 0. -1.
    10030    2    1    2    0    0  0.00000000000E+00  0.00000000000E+00  0.68229716526E+02  0.76080097137E+03  0.75773532571E+03 0.  0.
        1    1    3    3  502    0  0.20635770556E+03 -0.21134767697E+03  0.27232853359E+03  0.40176382794E+03  0.50400001928E-02 0.  1.
       -1    1    3    3    0  502 -0.20635770556E+03  0.21134767697E+03 -0.20409881707E+03  0.35903714343E+03  0.50400001928E-02 0. -1.
</event>
<event>
 5   0  0.2464780E-02  0.7978419E+03  0.7818609E-02  0.9563146E-01
        2   -1    0    0  501    0  0.00000000000E+00  0.00000000000E+00  0.43821113142E+03  0.43821113143E+03  0.25500000920E-02 0. -1.
       -2   -1    0    0    0  501  0.00000000000E+00  0.00000000000E+00 -0.36315351558E+03  0.36315351559E+03  0.25500000920E-02 0.  1.
    10030    2    1    2    0    0  0.00000000000E+00  0.00000000000E+00  0.75057615842E+02  0.80136464702E+03  0.79784187142E+03 0.  0.
        3    1    3    3  502    0  0.11371278247E+03  0.23552920025E+03  0.34007849759E+03  0.42901980815E+03  0.10100000352E+00 0. -1.
       -3    1    3    3    0  502 -0.11371278247E+03 -0.23552920025E+03 -0.26502088174E+03  0.37234483886E+03  0.10100000352E+00 0.  1.
</event>
<event>
 5   0  0.2454354E-02  0.7885150E+03  0.7818609E-02  0.9576791E-01
        2   -1    0    0  501    0  0.00000000000E+00  0.00000000000E+00  0.12205264797E+04  0.12205264797E+04  0.25500000920E-02 0.  1.
       -2   -1    0    0    0  501  0.00000000000E+00  0.00000000000E+00 -0.12735405438E+03  0.12735405440E+03  0.25500000920E-02 0. -1.
    10030    2    1    2    0    0  0.00000000000E+00  0.00000000000E+00  0.10931724253E+04  0.13478805341E+04  0.78851504914E+03 0.  0.
        5    1    3    3  502    0 -0.20111091442E+03 -0.99992555800E+02 -0.72480178674E+01  0.22476373123E+03  0.46999998093E+01 0. -1.
       -5    1    3    3    0  502  0.20111091442E+03  0.99992555800E+02  0.11004204432E+04  0.11231168029E+04  0.46999998093E+01 0.  1.
</event>
<event>
 5   0  0.1523811E-02  0.7981908E+03  0.7818609E-02  0.9562640E-01
       -1   -1    0    0    0  501  0.00000000000E+00  0.00000000000E+00  0.99612197847E+02  0.99612197974E+02  0.50400001928E-02 0.  1.
        1   -1    0    0  501    0  0.00000000000E+00  0.00000000000E+00 -0.15989721964E+04  0.15989721964E+04  0.50400001928E-02 0. -1.
    10030    2    1    2    0    0  0.00000000000E+00  0.00000000000E+00 -0.14993599986E+04  0.16985843944E+04  0.79819079146E+03 0.  0.
        1    1    3    3  502    0 -0.69760793854E+02  0.16951058853E+03 -0.15040907129E+04  0.15152192187E+04  0.50400001928E-02 0. -1.
       -1    1    3    3    0  502  0.69760793854E+02 -0.16951058853E+03  0.47307143343E+01  0.18336517572E+03  0.50400001928E-02 0.  1.
</event>
<event>
 5   0  0.2460312E-02  0.7908206E+03  0.7818609E-02  0.9573400E-01
        2   -1    0    0  501    0  0.00000000000E+00  0.00000000000E+00  0.70617904942E+03  0.70617904942E+03  0.25500000920E-02 0. -1.
       -2   -1    0    0    0  501  0.00000000000E+00  0.00000000000E+00 -0.22140179958E+03  0.22140179960E+03  0.25500000920E-02 0.  1.
    10030    2    1    2    0    0  0.00000000000E+00  0.00000000000E+00  0.48477724984E+03  0.92758084902E+03  0.79082061778E+03 0.  0.
        2    1    3    3  502    0 -0.30917559990E+03 -0.20765407453E+03  0.39817070314E+03  0.54520608497E+03  0.25500000920E-02 0. -1.
       -2    1    3    3    0  502  0.30917559990E+03  0.20765407453E+03  0.86606546693E+02  0.38237476405E+03  0.25500000920E-02 0.  1.
</event>
<event>
 5   0  0.2454354E-02  0.8120160E+03  0.7818609E-02  0.9542785E-01
        2   -1    0    0  501    0  0.00000000000E+00  0.00000000000E+00  0.29818373244E+03  0.29818373245E+03  0.25500000920E-02 0. -1.
       -2   -1    0    0    0  501  0.00000000000E+00  0.00000000000E+00 -0.55282196127E+03  0.55282196128E+03  0.25500000920E-02 0.  1.
    10030    2    1    2    0    0  0.00000000000E+00  0.00000000000E+00 -0.25463822883E+03  0.85100569373E+03  0.81201604859E+03 0.  0.
        5    1    3    3  502    0 -0.39354094535E+02 -0.37913615980E+03  0.19131317812E+02  0.38168189602E+03  0.46999998093E+01 0. -1.
       -5    1    3    3    0  502  0.39354094535E+02  0.37913615980E+03 -0.27376954664E+03  0.46932379771E+03  0.46999998093E+01 0.  1.
</event>
<event>
 5   0  0.1471290E-02  0.8154672E+03  0.7818609E-02  0.9537895E-01
       -1   -1    0    0    0  501  0.00000000000E+00  0.00000000000E+00  0.36824482613E+03  0.36824482617E+03  0.50400001928E-02 0. -1.
        1   -1    0    0  501    0  0.00000000000E+00  0.00000000000E+00 -0.45145699552E+03  0.45145699555E+03  0.50400001928E-02 0.  1.
    10030    2    1    2    0    0  0.00000000000E+00  0.00000000000E+00 -0.83212169389E+02  0.81970182172E+03  0.81546723502E+03 0.  0.
        2    1    3    3  502    0 -0.40304113838E+03  0.23623396839E+02  0.15667671368E+02  0.40403675580E+03  0.25500000920E-02 0. -1.
       -2    1    3    3    0  502  0.40304113838E+03 -0.23623396839E+02 -0.98879840757E+02  0.41566506591E+03  0.25500000920E-02 0.  1.
</event>
<event>
 5   0  0.2454354E-02  0.8134451E+03  0.7818609E-02  0.9540757E-01
        2   -1    0    0  501    0  0.00000000000E+00  0.00000000000E+00  0.12358498428E+04  0.12358498428E+04  0.25500000920E-02 0.  1.
       -2   -1    0    0    0  501  0.00000000000E+00  0.00000000000E+00 -0.13385383906E+03  0.13385383908E+03  0.25500000920E-02 0. -1.
    10030    2    1    2    0    0  0.00000000000E+00  0.00000000000E+00  0.11019960038E+04  0.13697036819E+04  0.81344513271E+03 0.  0.
        5    1    3    3  502    0 -0.43904237850E+02  0.20068135246E+03  0.11420214544E+04  0.11603601508E+04  0.46999998093E+01 0.  1.
       -5    1    3    3    0  502  0.43904237850E+02 -0.20068135246E+03 -0.40025450597E+02  0.20934353112E+03  0.46999998093E+01 0. -1.
</event>
<event>
 5   0  0.1498375E-02  0.8089590E+03  0.7818609E-02  0.9547139E-01
       -1   -1    0    0    0  501  0.00000000000E+00  0.00000000000E+00  0.31468614950E+03  0.31468614954E+03  0.50400001928E-02 0. -1.
        1   -1    0    0  501    0  0.00000000000E+00  0.00000000000E+00 -0.51989466329E+03  0.51989466331E+03  0.50400001928E-02 0.  1.
    10030    2    1    2    0    0  0.00000000000E+00  0.00000000000E+00 -0.20520851379E+03  0.83458081286E+03  0.80895896006E+03 0.  0.
        4    1    3    3  502    0 -0.36419275504E+02 -0.36274998763E+03 -0.28333292421E+03  0.46172835737E+03  0.12699999809E+01 0.  1.
       -4    1    3    3    0  502  0.36419275504E+02  0.36274998763E+03  0.78124410425E+02  0.37285245549E+03  0.12699999809E+01 0. -1.
</event>
<event>
 5   0  0.1509629E-02  0.8043338E+03  0.7818609E-02  0.9553765E-01
        1   -1    0    0  501    0  0.00000000000E+00  0.00000000000E+00  0.33245289834E+03  0.33245289838E+03  0.50400001928E-02 0.  1.
       -1   -1    0    0    0  501  0.00000000000E+00  0.00000000000E+00 -0.48649961589E+03  0.48649961592E+03  0.50400001928E-02 0. -1.
    10030    2    1    2    0    0  0.00000000000E+00  0.00000000000E+00 -0.15404671755E+03  0.81895251430E+03  0.80433377990E+03 0.  0.
        5    1    3    3  502    0  0.18548577595E+03 -0.18210367735E+03  0.23539113879E+03  0.35071042271E+03  0.46999998093E+01 0.  1.
       -5    1    3    3    0  502 -0.18548577595E+03  0.18210367735E+03 -0.38943785634E+03  0.46824209158E+03  0.46999998093E+01 0. -1.
</event>
<event>
 5   0  0.1509629E-02  0.8008581E+03  0.7818609E-02  0.9558776E-01
       -1   -1    0    0    0  501  0.00000000000E+00  0.00000000000E+00  0.15202184045E+03  0.15202184053E+03  0.50400001928E-02 0.  1.
        1   -1    0    0  501    0  0.00000000000E+00  0.00000000000E+00 -0.10547392919E+04  0.10547392919E+04  0.50400001928E-02 0. -1.
    10030    2    1    2    0    0  0.00000000000E+00  0.00000000000E+00 -0.90271745145E+03  0.12067611325E+04  0.80085806085E+03 0.  0.
        5    1    3    3  502    0  0.13947856585E+03  0.70578541346E+02  0.10410111941E+03  0.18786892742E+03  0.46999998093E+01 0.  1.
       -5    1    3    3    0  502 -0.13947856585E+03 -0.70578541346E+02 -0.10068185709E+04  0.10188922050E+04  0.46999998093E+01 0. -1.
</event>
<event>
 5   0  0.1509629E-02  0.8073267E+03  0.7818609E-02  0.9549472E-01
        1   -1    0    0  501    0  0.00000000000E+00  0.00000000000E+00  0.76857501711E+03  0.76857501712E+03  0.50400001928E-02 0. -1.
       -1   -1    0    0    0  501  0.00000000000E+00  0.00000000000E+00 -0.21200803925E+03  0.21200803931E+03  0.50400001928E-02 0.  1.
    10030    2    1    2    0    0  0.00000000000E+00  0.00000000000E+00  0.55656697786E+03  0.98058305643E+03  0.80732665614E+03 0.  0.
        5    1    3    3  502    0 -0.21553675771E+03  0.47386932257E+02  0.68877755880E+03  0.72328295347E+03  0.46999998093E+01 0. -1.
       -5    1    3    3    0  502  0.21553675771E+03 -0.47386932257E+02 -0.13221058094E+03  0.25730010296E+03  0.46999998093E+01 0.  1.
</event>
<event>
 5   0  0.2464780E-02  0.7907279E+03  0.7818609E-02  0.9573536E-01
        2   -1    0    0  501    0  0.00000000000E+00  0.00000000000E+00  0.19602507147E+04  0.19602507148E+04  0.25500000920E-02 0.  1.
       -2   -1    0    0    0  501  0.00000000000E+00  0.00000000000E+00 -0.79741147112E+02  0.79741147153E+02  0.25500000920E-02 0. -1.
    10030    2    1    2    0    0  0.00000000000E+00  0.00000000000E+00  0.18805095676E+04  0.20399918619E+04  0.79072786890E+03 0.  0.
        3    1    3    3  502    0  0.28248782307E+03  0.26608750118E+03  0.74529450454E+03  0.84027723828E+03  0.10100000352E+00 0.  1.
       -3    1    3    3    0  502 -0.28248782307E+03 -0.26608750118E+03  0.11352150631E+04  0.11997146236E+04  0.10100000352E+00 0. -1.
</event>
<event>
 5   0  0.1509629E-02  0.7933889E+03  0.7818609E-02  0.9569636E-01
        1   -1    0    0  501    0  0.00000000000E+00  0.00000000000E+00  0.65709894153E+03  0.65709894155E+03  0.50400001928E-02 0.  1.
       -1   -1    0    0    0  501  0.00000000000E+00  0.00000000000E+00 -0.23948675225E+03  0.23948675230E+03  0.50400001928E-02 0. -1.
    10030    2    1    2    0    0  0.00000000000E+00  0.00000000000E+00  0.41761218928E+03  0.89658569385E+03  0.79338891206E+03 0.  0.
        5    1    3    3  502    0  0.32948442587E+03 -0.21969885579E+03  0.23449694085E+03  0.46025914374E+03  0.46999998093E+01 0. -1.
       -5    1    3    3    0  502 -0.32948442587E+03  0.21969885579E+03  0.18311524843E+03  0.43632655011E+03  0.46999998093E+01 0.  1.
</event>
<event>
 5   0  0.1509629E-02  0.8048132E+03  0.7818609E-02  0.9553076E-01
        1   -1    0    0  501    0  0.00000000000E+00  0.00000000000E+00  0.45310321807E+03  0.45310321809E+03  0.50400001928E-02 0.  1.
       -1   -1    0    0    0  501  0.00000000000E+00  0.00000000000E+00 -0.35738233526E+03  0.35738233529E+03  0.50400001928E-02 0. -1.
    10030    2    1    2    0    0  0.00000000000E+00  0.00000000000E+00  0.95720882810E+02  0.81048555339E+03  0.80481323600E+03 0.  0.
        5    1    3    3  502    0 -0.15291337283E+03 -0.31605055699E+03  0.24581273279E+03  0.42862156242E+03  0.46999998093E+01 0.  1.
       -5    1    3    3    0  502  0.15291337283E+03  0.31605055699E+03 -0.15009184998E+03  0.38186399097E+03  0.46999998093E+01 0. -1.
</event>
<event>
 5   0  0.2464780E-02  0.7760318E+03  0.7818609E-02  0.9595373E-01
       -2   -1    0    0    0  501  0.00000000000E+00  0.00000000000E+00  0.11304266034E+04  0.11304266034E+04  0.25500000920E-02 0.  1.
        2   -1    0    0  501    0  0.00000000000E+00  0.00000000000E+00 -0.13318541777E+03  0.13318541779E+03  0.25500000920E-02 0. -1.
    10030    2    1    2    0    0  0.00000000000E+00  0.00000000000E+00  0.99724118560E+03  0.12636120212E+04  0.77603180204E+03 0.  0.
        3    1    3    3  502    0 -0.31005022186E+03  0.22859568951E+03  0.57445809456E+03  0.69165688166E+03  0.10100000352E+00 0.  1.
       -3    1    3    3    0  502  0.31005022186E+03 -0.22859568951E+03  0.42278309104E+03  0.57195513950E+03  0.10100000352E+00 0. -1.
</event>
<event>
 5   0  0.2571778E-02  0.7976904E+03  0.7818609E-02  0.9563366E-01
       -2   -1    0    0    0  501  0.00000000000E+00  0.00000000000E+00  0.20306842248E+03  0.20306842249E+03  0.25500000920E-02 0.  1.
        2   -1    0    0  501    0  0.00000000000E+00  0.00000000000E+00 -0.78336889682E+03  0.78336889683E+03  0.25500000920E-02 0. -1.
    10030    2    1    2    0    0  0.00000000000E+00  0.00000000000E+00 -0.58030047434E+03  0.98643731932E+03  0.79769038130E+03 0.  0.
        1    1    3    3  502    0  0.21935089433E+02  0.14080949855E+03 -0.75081119306E+03  0.76421587963E+03  0.50400001928E-02 0. -1.
       -1    1    3    3    0  502 -0.21935089433E+02 -0.14080949855E+03  0.17051071872E+03  0.22222143968E+03  0.50400001928E-02 0.  1.
</event>
<event>
 5   0  0.2422031E-02  0.8142769E+03  0.7818609E-02  0.9539579E-01
        2   -1    0    0  501    0  0.00000000000E+00  0.00000000000E+00  0.90822643287E+03  0.90822643287E+03  0.25500000920E-02 0.  1.
       -2   -1    0    0    0  501  0.00000000000E+00  0.00000000000E+00 -0.18251145427E+03  0.18251145429E+03  0.25500000920E-02 0. -1.
    10030    2    1    2    0    0  0.00000000000E+00  0.00000000000E+00  0.72571497860E+03  0.10907378872E+04  0.81427692361E+03 0.  0.
        4    1    3    3  502    0 -0.49793303967E+02  0.10644880650E+03 -0.15929548461E+03  0.19795804061E+03  0.12699999809E+01 0. -1.
       -4    1    3    3    0  502  0.49793303967E+02 -0.10644880650E+03  0.88501046321E+03  0.89277984655E+03  0.12699999809E+01 0.  1.
</event>
<event>
 5   0  0.1471290E-02  0.8245523E+03  0.7818609E-02  0.9525143E-01
       -1   -1    0    0    0  501  0.00000000000E+00  0.00000000000E+00  0.11319962262E+04  0.11319962262E+04  0.50400001928E-02 0.  1.
        1   -1    0    0  501    0  0.00000000000E+00  0.00000000000E+00 -0.15015212659E+03  0.15015212667E+03  0.50400001928E-02 0. -1.
    10030    2    1    2    0    0  0.00000000000E+00  0.00000000000E+00  0.98184409964E+03  0.12821483529E+04  0.82455234090E+03 0.  0.
        2    1    3    3  502    0 -0.31642270010E+03 -0.18859938535E+03  0.77881531692E+03  0.86153720243E+03  0.25500000920E-02 0. -1.
       -2    1    3    3    0  502  0.31642270010E+03  0.18859938535E+03  0.20302878272E+03  0.42061115048E+03  0.25500000920E-02 0.  1.
</event>
<event>
 5   0  0.2454354E-02  0.7959428E+03  0.7818609E-02  0.9565908E-01
       -2   -1    0    0    0  501  0.00000000000E+00  0.00000000000E+00  0.37367308436E+03  0.37367308437E+03  0.25500000920E-02 0.  1.
        2   -1    0    0  501    0  0.00000000000E+00  0.00000000000E+00 -0.42384973499E+03  0.42384973500E+03  0.25500000920E-02 0. -1.
    10030    2    1    2    0    0  0.00000000000E+00  0.00000000000E+00 -0.50176650629E+02  0.79752281937E+03  0.79594280645E+03 0.  0.
        5    1    3    3  502    0 -0.33691179507E+03 -0.19334786172E+03  0.61490343872E+02  0.39331425817E+03  0.46999998093E+01 0. -1.
       -5    1    3    3    0  502  0.33691179507E+03  0.19334786172E+03 -0.11166699450E+03  0.40420856120E+03  0.46999998093E+01 0.  1.
</event>
<event>
 5   0  0.1498375E-02  0.8374397E+03  0.7818609E-02  0.9507352E-01
       -1   -1    0    0    0  501  0.00000000000E+00  0.00000000000E+00  0.24079260223E+03  0.24079260228E+03  0.50400001928E-02 0.  1.
        1   -1    0    0  501    0  0.00000000000E+00  0.00000000000E+00 -0.72812175018E+03  0.72812175020E+03  0.50400001928E-02 0. -1.
    10030    2    1    2    0    0  0.00000000000E+00  0.00000000000E+00 -0.48732914795E+03  0.96891435248E+03  0.83743974351E+03 0.  0.
        4    1    3    3  502    0  0.10333920300E+03  0.30806881950E+03 -0.54920642515E+03  0.63813376242E+03  0.12699999809E+01 0.  1.
       -4    1    3    3    0  502 -0.10333920300E+03 -0.30806881950E+03  0.61877277199E+02  0.33078059006E+03  0.12699999809E+01 0. -1.
</event>
<event>
 5   0  0.2571778E-02  0.7950432E+03  0.7818609E-02  0.9567220E-01
        2   -1    0    0  501    0  0.00000000000E+00  0.00000000000E+00  0.30966929370E+03  0.30966929371E+03  0.25500000920E-02 0.  1.
       -2   -1    0    0    0  501  0.00000000000E+00  0.00000000000E+00 -0.51029732115E+03  0.51029732116E+03  0.25500000920E-02 0. -1.
    10030    2    1    2    0    0  0.00000000000E+00  0.00000000000E+00 -0.20062802745E+03  0.81996661487E+03  0.79504317122E+03 0.  0.
        1    1    3    3  502    0  0.46148698779E+02 -0.52940566405E+02  0.30322013810E+03  0.31124726207E+03  0.50400001928E-02 0.  1.
       -1    1    3    3    0  502 -0.46148698779E+02  0.52940566405E+02 -0.50384816555E+03  0.50871935281E+03  0.50400001928E-02 0. -1.
</event>
<event>
 5   0  0.2454354E-02  0.7848037E+03  0.7818609E-02  0.9582277E-01
        2   -1    0    0  501    0  0.00000000000E+00  0.00000000000E+00  0.67205058859E+03  0.67205058859E+03  0.25500000920E-02 0.  1.
       -2   -1    0    0    0  501  0.00000000000E+00  0.00000000000E+00 -0.22911848359E+03  0.22911848360E+03  0.25500000920E-02 0. -1.
    10030    2    1    2    0    0  0.00000000000E+00  0.00000000000E+00  0.44293210500E+03  0.90116907220E+03  0.78480369969E+03 0.  0.
        5    1    3    3  502    0  0.42717293253E+02 -0.15413259736E+03  0.63288691076E+03  0.65280131474E+03  0.46999998093E+01 0.  1.
       -5    1    3    3    0  502 -0.42717293253E+02  0.15413259736E+03 -0.18995480577E+03  0.24836775746E+03  0.46999998093E+01 0. -1.
</event>
<event>
 5   0  0.2460312E-02  0.8087001E+03  0.7818609E-02  0.9547509E-01
       -2   -1    0    0    0  501  0.00000000000E+00  0.00000000000E+00  0.13794832872E+03  0.13794832874E+03  0.25500000920E-02 0. -1.
        2   -1    0    0  501    0  0.00000000000E+00  0.00000000000E+00 -0.11852187937E+04  0.11852187937E+04  0.25500000920E-02 0.  1.
    10030    2    1    2    0    0  0.00000000000E+00  0.00000000000E+00 -0.10472704650E+04  0.13231671225E+04  0.80870007242E+03 0.  0.
        2    1    3    3  502    0 -0.30256256685E+03 -0.26512171392E+03 -0.59040445101E+03  0.71443057453E+03  0.25500000920E-02 0.  1.
       -2    1    3    3    0  502  0.30256256685E+03  0.26512171392E+03 -0.45686601402E+03  0.60873654796E+03  0.25500000920E-02 0. -1.
</event>
<event>
 5   0  0.1523811E-02  0.7970996E+03  0.7818609E-02  0.9564225E-01
       -1   -1    0    0    0  501  0.00000000000E+00  0.00000000000E+00  0.25867485628E+03  0.25867485633E+03  0.50400001928E-02 0.  1.
        1   -1    0    0  501    0  0.00000000000E+00  0.00000000000E+00 -0.61406016796E+03  0.61406016798E+03  0.50400001928E-02 0. -1.
    10030    2    1    2    0    0  0.00000000000E+00  0.00000000000E+00 -0.35538531167E+03  0.87273502431E+03  0.79709955646E+03 0.  0.
        1    1    3    3  502    0 -0.29341625731E+03  0.69856376961E+02  0.10754396459E+03  0.32021667321E+03  0.50400001928E-02 0.  1.
       -1    1    3    3    0  502  0.29341625731E+03 -0.69856376961E+02 -0.46292927626E+03  0.55251835110E+03  0.50400001928E-02 0. -1.
</event>
<event>
 5   0  0.1498375E-02  0.8057449E+03  0.7818609E-02  0.9551739E-01
        1   -1    0    0  501    0  0.00000000000E+00  0.00000000000E+00  0.95729309032E+03  0.95729309033E+03  0.50400001928E-02 0.  1.
       -1   -1    0    0    0  501  0.00000000000E+00  0.00000000000E+00 -0.16954703570E+03  0.16954703578E+03  0.50400001928E-02 0. -1.
    10030    2    1    2    0    0  0.00000000000E+00  0.00000000000E+00  0.78774605462E+03  0.11268401261E+04  0.80574488720E+03 0.  0.
        4    1    3    3  502    0 -0.15634164034E+02 -0.24656123392E+02 -0.16806288047E+03  0.17058457198E+03  0.12699999809E+01 0. -1.
       -4    1    3    3    0  502  0.15634164034E+02  0.24656123392E+02  0.95580893509E+03  0.95625555413E+03  0.12699999809E+01 0.  1.
</event>
<event>
 5   0  0.2460312E-02  0.7754466E+03  0.7818609E-02  0.9596253E-01
       -2   -1    0    0    0  501  0.00000000000E+00  0.00000000000E+00  0.26990448218E+03  0.26990448219E+03  0.25500000920E-02 0.  1.
        2   -1    0    0  501    0  0.00000000000E+00  0.00000000000E+00 -0.55697238619E+03  0.55697238620E+03  0.25500000920E-02 0. -1.
    10030    2    1    2    0    0  0.00000000000E+00  0.00000000000E+00 -0.28706790402E+03  0.82687686839E+03  0.77544656422E+03 0.  0.
        2    1    3    3  502    0  0.87719101202E+01  0.36991780086E+02  0.26791218447E+03  0.27059615074E+03  0.25500000920E-02 0.  1.
       -2    1    3    3    0  502 -0.87719101202E+01 -0.36991780086E+02 -0.55498008849E+03  0.55628071765E+03  0.25500000920E-02 0. -1.
</event>
<event>
 5   0  0.2454354E-02  0.8004428E+03  0.7818609E-02  0.9559376E-01
       -2   -1    0    0    0  501  0.00000000000E+00  0.00000000000E+00  0.58834796851E+03  0.58834796852E+03  0.25500000920E-02 0.  1.
        2   -1    0    0  501    0  0.00000000000E+00  0.00000000000E+00 -0.27224906937E+03  0.27224906938E+03  0.25500000920E-02 0. -1.
    10030    2    1    2    0    0  0.00000000000E+00  0.00000000000E+00  0.31609889914E+03  0.86059703790E+03  0.80044284469E+03 0.  0.
        5    1    3    3  502    0  0.16929953472E+03  0.22775887602E+03  0.46142246552E+03  0.54172799424E+03  0.46999998093E+01 0.  1.
       -5    1    3    3    0  502 -0.16929953472E+03 -0.22775887602E+03 -0.14532356638E+03  0.31886904366E+03  0.46999998093E+01 0. -1.
</event>
<event>
 5   0  0.1498375E-02  0.8080783E+03  0.7818609E-02  0.9548397E-01
        1   -1    0    0  501    0  0.00000000000E+00  0.00000000000E+00  0.12362480662E+04  0.12362480662E+04  0.50400001928E-02 0.  1.
       -1   -1    0    0    0  501  0.00000000000E+00  0.00000000000E+00 -0.13205087227E+03  0.13205087237E+03  0.50400001928E-02 0. -1.
    10030    2    1    2    0    0  0.00000000000E+00  0.00000000000E+00  0.11041971939E+04  0.13682989386E+04  0.80807830204E+03 0.  0.
        4    1    3    3  502    0  0.38357215237E+03  0.12415274464E+03  0.50715425726E+03  0.64788004571E+03  0.12699999809E+01 0. -1.
       -4    1    3    3    0  502 -0.38357215237E+03 -0.12415274464E+03  0.59704293664E+03  0.72041889284E+03  0.12699999809E+01 0.  1.
</event>
<event>
 5   0  0.1471290E-02  0.7989186E+03  0.7818609E-02  0.9561584E-01
        1   -1    0    0  501    0  0.00000000000E+00  0.00000000000E+00  0.22659995889E+03  0.22659995895E+03  0.50400001928E-02 0. -1.
       -1   -1    0    0    0  501  0.00000000000E+00  0.00000000000E+00 -0.70418254068E+03  0.70418254070E+03  0.50400001928E-02 0.  1.
    10030    2    1    2    0    0  0.00000000000E+00  0.00000000000E+00 -0.47758258179E+03  0.93078249965E+03  0.79891860613E+03 0.  0.
        2    1    3    3  502    0  0.16707515678E+03  0.14352527537E+03 -0.62704267732E+03  0.66460223583E+03  0.25500000920E-02 0.  1.
       -2    1    3    3    0  502 -0.16707515678E+03 -0.14352527537E+03  0.14946009553E+03  0.26618026382E+03  0.25500000920E-02 0. -1.
</event>
<event>
 5   0  0.9919125E-03  0.7976534E+03  0.7818609E-02  0.9563420E-01
        3   -1    0    0  501    0  0.00000000000E+00  0.00000000000E+00  0.28609234910E+03  0.28609236693E+03  0.10100000352E+00 0. -1.
       -3   -1    0    0    0  501  0.00000000000E+00  0.00000000000E+00 -0.55598380412E+03  0.55598381329E+03  0.10100000352E+00 0.  1.
    10030    2    1    2    0    0  0.00000000000E+00  0.00000000000E+00 -0.26989145502E+03  0.84207618022E+03  0.79765336820E+03 0.  0.
        3    1    3    3  502    0  0.38218540163E+02  0.29479421989E+03 -0.41564549197E+03  0.51100437776E+03  0.10100000352E+00 0.  1.
       -3    1    3    3    0  502 -0.38218540163E+02 -0.29479421989E+03  0.14575403696E+03  0.33107180246E+03  0.10100000352E+00 0. -1.
</event>
<event>
 5   0  0.2422031E-02  0.7768372E+03  0.7818609E-02  0.9594163E-01
       -2   -1    0    0    0  501  0.00000000000E+00  0.00000000000E+00  0.29724101323E+03  0.29724101324E+03  0.25500000920E-02 0. -1.
        2   -1    0    0  501    0  0.00000000000E+00  0.00000000000E+00 -0.50756455362E+03  0.50756455363E+03  0.25500000920E-02 0.  1.
    10030    2    1    2    0    0  0.00000000000E+00  0.00000000000E+00 -0.21032354039E+03  0.80480556687E+03  0.77683718296E+03 0.  0.
        4    1    3    3  502    0  0.28683607017E+03  0.62719764713E+02 -0.36859734066E+03  0.47124761270E+03  0.12699999809E+01 0.  1.
       -4    1    3    3    0  502 -0.28683607017E+03 -0.62719764713E+02  0.15827380027E+03  0.33355795417E+03  0.12699999809E+01 0. -1.
</event>
<event>
 5   0  0.1509629E-02  0.8031116E+03  0.7818609E-02  0.9555524E-01
       -1   -1    0    0    0  501  0.00000000000E+00  0.00000000000E+00  0.17450763206E+03  0.17450763214E+03  0.50400001928E-02 0.  1.
        1   -1    0    0  501    0  0.00000000000E+00  0.00000000000E+00 -0.92401152107E+03  0.92401152109E+03  0.50400001928E-02 0. -1.
    10030    2    1    2    0    0  0.00000000000E+00  0.00000000000E+00 -0.74950388901E+03  0.10985191532E+04  0.80311160517E+03 0.  0.
        5    1    3    3  502    0  0.28155442419E+02  0.89362738002E+02  0.15930863723E+03  0.18487768869E+03  0.46999998093E+01 0.  1.
       -5    1    3    3    0  502 -0.28155442419E+02 -0.89362738002E+02 -0.90881252623E+03  0.91364146454E+03  0.46999998093E+01 0. -1.
</event>
<event>
 5   0  0.2422031E-02  0.7830399E+03  0.7818609E-02  0.9584896E-01
        2   -1    0    0  501    0  0.00000000000E+00  0.00000000000E+00  0.13158311218E+04  0.13158311218E+04  0.25500000920E-02 0. -1.
       -2   -1    0    0    0  501  0.00000000000E+00  0.00000000000E+00 -0.11649510742E+03  0.11649510745E+03  0.25500000920E-02 0.  1.
    10030    2    1    2    0    0  0.00000000000E+00  0.00000000000E+00  0.11993360144E+04  0.14323262293E+04  0.78303994254E+03 0.  0.
        4    1    3    3  502    0 -0.12167487969E+03 -0.33719098655E+03  0.31170186573E+03  0.47503916023E+03  0.12699999809E+01 0.  1.
       -4    1    3    3    0  502  0.12167487969E+03  0.33719098655E+03  0.88763414866E+03  0.95728706902E+03  0.12699999809E+01 0. -1.
</event>
<event>
 5   0  0.2422031E-02  0.8470711E+03  0.7818609E-02  0.9494276E-01
        2   -1    0    0  501    0  0.00000000000E+00  0.00000000000E+00  0.14212679638E+04  0.14212679638E+04  0.25500000920E-02 0.  1.
       -2   -1    0    0    0  501  0.00000000000E+00  0.00000000000E+00 -0.12621291105E+03  0.12621291107E+03  0.25500000920E-02 0. -1.
    10030    2    1    2    0    0  0.00000000000E+00  0.00000000000E+00  0.12950550527E+04  0.15474808749E+04  0.84707111179E+03 0.  0.
        4    1    3    3  502    0 -0.14354094743E+03 -0.24717778767E+03  0.76564475284E+02  0.29591315294E+03  0.12699999809E+01 0. -1.
       -4    1    3    3    0  502  0.14354094743E+03  0.24717778767E+03  0.12184905775E+04  0.12515677219E+04  0.12699999809E+01 0.  1.
</event>
<event>
 5   0  0.2464780E-02  0.8082198E+03  0.7818609E-02  0.9548195E-01
       -2   -1    0    0    0  501  0.00000000000E+00  0.00000000000E+00  0.93558357702E+02  0.93558357737E+02  0.25500000920E-02 0.  1.
        2   -1    0    0  501    0  0.00000000000E+00  0.00000000000E+00 -0.17454861441E+04  0.17454861441E+04  0.25500000920E-02 0. -1.
    10030    2    1    2    0    0  0.00000000000E+00  0.00000000000E+00 -0.16519277864E+04  0.18390445018E+04  0.80821981433E+03 0.  0.
        3    1    3    3  502    0  0.80939457001E+02 -0.27189779770E+03 -0.14808171452E+04  0.15077463434E+04  0.10100000352E+00 0. -1.
       -3    1    3    3    0  502 -0.80939457001E+02  0.27189779770E+03 -0.17111064116E+03  0.33129815848E+03  0.10100000352E+00 0.  1.
</event>
<event>
 5   0  0.1471290E-02  0.8075559E+03  0.7818609E-02  0.9549144E-01
        1   -1    0    0  501    0  0.00000000000E+00  0.00000000000E+00  0.85984566276E+03  0.85984566278E+03  0.50400001928E-02 0. -1.
       -1   -1    0    0    0  501  0.00000000000E+00  0.00000000000E+00 -0.18961149929E+03  0.18961149936E+03  0.50400001928E-02 0.  1.
    10030    2    1    2    0    0  0.00000000000E+00  0.00000000000E+00  0.67023416347E+03  0.10494571621E+04  0.80755588121E+03 0.  0.
        2    1    3    3  502    0 -0.58756206736E+02 -0.63801748012E+02 -0.17736232352E+03  0.19743441617E+03  0.25500000920E-02 0.  1.
       -2    1    3    3    0  502  0.58756206736E+02  0.63801748012E+02  0.84759648699E+03  0.85202274597E+03  0.25500000920E-02 0. -1.
</event>
<event>
 5   0  0.1498375E-02  0.8075564E+03  0.7818609E-02  0.9549143E-01
       -1   -1    0    0    0  501  0.00000000000E+00  0.00000000000E+00  0.59858558439E+03  0.59858558441E+03  0.50400001928E-02 0.  1.
        1   -1    0    0  501    0  0.00000000000E+00  0.00000000000E+00 -0.27237016436E+03  0.27237016441E+03  0.50400001928E-02 0. -1.
    10030    2    1    2    0    0  0.00000000000E+00  0.00000000000E+00  0.32621542003E+03  0.87095574883E+03  0.80755644765E+03 0.  0.
        4    1    3    3  502    0 -0.35753682928E+03  0.18461141041E+03  0.19922216055E+03  0.44900449809E+03  0.12699999809E+01 0. -1.
       -4    1    3    3    0  502  0.35753682928E+03 -0.18461141041E+03  0.12699325948E+03  0.42195125074E+03  0.12699999809E+01 0.  1.
</event>
<event>
 5   0  0.1509629E-02  0.8128473E+03  0.7818609E-02  0.9541605E-01
       -1   -1    0    0    0  501  0.00000000000E+00  0.00000000000E+00  0.17742862408E+03  0.17742862415E+03  0.50400001928E-02 0. -1.
        1   -1    0    0  501    0  0.00000000000E+00  0.00000000000E+00 -0.93096685720E+03  0.93096685721E+03  0.50400001928E-02 0.  1.
    10030    2    1    2    0    0  0.00000000000E+00  0.00000000000E+00 -0.75353823312E+03  0.11083954814E+04  0.81284726384E+03 0.  0.
        5    1    3    3  502    0 -0.18664663676E+03  0.19414825119E+03 -0.79177660142E+03  0.83633891874E+03  0.46999998093E+01 0.  1.
       -5    1    3    3    0  502  0.18664663676E+03 -0.19414825119E+03  0.38238368297E+02  0.27205656262E+03  0.46999998093E+01 0. -1.
</event>
<event>
 5   0  0.2571778E-02  0.7988995E+03  0.7818609E-02  0.9561611E-01
        2   -1    0    0  501    0  0.00000000000E+00  0.00000000000E+00  0.23604613803E+04  0.23604613803E+04  0.25500000920E-02 0. -1.
       -2   -1    0    0    0  501  0.00000000000E+00  0.00000000000E+00 -0.67596999537E+02  0.67596999585E+02  0.25500000920E-02 0.  1.
    10030    2    1    2    0    0  0.00000000000E+00  0.00000000000E+00  0.22928643808E+04  0.24280583799E+04  0.79889951031E+03 0.  0.
        1    1    3    3  502    0 -0.16254609424E+03  0.35405046966E+03  0.14146304371E+04  0.14672941905E+04  0.50400001928E-02 0. -1.
       -1    1    3    3    0  502  0.16254609424E+03 -0.35405046966E+03  0.87823394368E+03  0.96076418942E+03  0.50400001928E-02 0.  1.
</event>
<event>
 5   0  0.2454354E-02  0.7925065E+03  0.7818609E-02  0.9570927E-01
        2   -1    0    0  501    0  0.00000000000E+00  0.00000000000E+00  0.17539645950E+04  0.17539645950E+04  0.25500000920E-02 0. -1.
       -2   -1    0    0    0  501  0.00000000000E+00  0.00000000000E+00 -0.89520976808E+02  0.89520976845E+02  0.25500000920E-02 0.  1.
    10030    2    1    2    0    0  0.00000000000E+00  0.00000000000E+00  0.16644436182E+04  0.18434855719E+04  0.79250646400E+03 0.  0.
        5    1    3    3  502    0 -0.31643907965E+03  0.17378110499E+03  0.12120392517E+04  0.12646718156E+04  0.46999998093E+01 0. -1.
       -5    1    3    3    0  502  0.31643907965E+03 -0.17378110499E+03  0.45240436655E+03  0.57881375628E+03  0.46999998093E+01 0.  1.
</event>
<event>
 5   0  0.2422031E-02  0.7908208E+03  0.7818609E-02  0.9573400E-01
       -2   -1    0    0    0  501  0.00000000000E+00  0.00000000000E+00  0.80728768745E+02  0.80728768785E+02  0.25500000920E-02 0. -1.
        2   -1    0    0  501    0  0.00000000000E+00  0.00000000000E+00 -0.19367243344E+04  0.19367243344E+04  0.25500000920E-02 0.  1.
    10030    2    1    2    0    0  0.00000000000E+00  0.00000000000E+00 -0.18559955657E+04  0.20174531032E+04  0.79082076593E+03 0.  0.
        4    1    3    3  502    0 -0.37190079370E+03  0.13191813137E+03 -0.99229148431E+03  0.10678748037E+04  0.12699999809E+01 0. -1.
       -4    1    3    3    0  502  0.37190079370E+03 -0.13191813137E+03 -0.86370408135E+03  0.94957829945E+03  0.12699999809E+01 0.  1.
</event>
<event>
 5   0  0.1509629E-02  0.6995484E+03  0.7818609E-02  0.9718005E-01
       -1   -1    0    0    0  501  0.00000000000E+00  0.00000000000E+00  0.94953046212E+02  0.94953046346E+02  0.50400001928E-02 0.  1.
        1   -1    0    0  501    0  0.00000000000E+00  0.00000000000E+00 -0.12884471438E+04  0.12884471438E+04  0.50400001928E-02 0. -1.
    10030    2    1    2    0    0  0.00000000000E+00  0.00000000000E+00 -0.11934940976E+04  0.13834001902E+04  0.69954837227E+03 0.  0.
        5    1    3    3  502    0 -0.48707391408E+02 -0.26969173066E+03 -0.16704760004E+03  0.32098758580E+03  0.46999998093E+01 0.  1.
       -5    1    3    3    0  502  0.48707391408E+02  0.26969173066E+03 -0.10264464976E+04  0.10624126044E+04  0.46999998093E+01 0. -1.
</event>
<event>
 5   0  0.1523811E-02  0.7988733E+03  0.7818609E-02  0.9561649E-01
       -1   -1    0    0    0  501  0.00000000000E+00  0.00000000000E+00  0.23280111497E+03  0.23280111502E+03  0.50400001928E-02 0.  1.
        1   -1    0    0  501    0  0.00000000000E+00  0.00000000000E+00 -0.68534741280E+03  0.68534741282E+03  0.50400001928E-02 0. -1.
    10030    2    1    2    0    0  0.00000000000E+00  0.00000000000E+00 -0.45254629783E+03  0.91814852784E+03  0.79887331130E+03 0.  0.
        1    1    3    3  502    0 -0.34206702369E+03 -0.14737245126E+03 -0.60433860595E+02  0.37733372447E+03  0.50400001928E-02 0.  1.
       -1    1    3    3    0  502  0.34206702369E+03  0.14737245126E+03 -0.39211243723E+03  0.54081480337E+03  0.50400001928E-02 0. -1.
</event>
<event>
 5   0  0.9919125E-03  0.7746625E+03  0.7818609E-02  0.9597434E-01
       -4   -1    0    0    0  501  0.00000000000E+00  0.00000000000E+00  0.67012884639E+03  0.67013004981E+03  0.12699999809E+01 0.  1.
        4   -1    0    0  501    0  0.00000000000E+00  0.00000000000E+00 -0.22387236537E+03  0.22387596762E+03  0.12699999809E+01 0. -1.
    10030    2    1    2    0    0  0.00000000000E+00  0.00000000000E+00  0.44625648101E+03  0.89400601743E+03  0.77466245059E+03 0.  0.
        1    1    3    3  502    0  0.16421596787E+03 -0.32130458869E+03  0.38560871635E+03  0.52810756950E+03  0.50400001928E-02 0.  1.
       -1    1    3    3    0  502 -0.16421596787E+03  0.32130458869E+03  0.60647764668E+02  0.36589844793E+03  0.50400001928E-02 0. -1.
</event>
<event>
 5   0  0.1471290E-02  0.8044383E+03  0.7818609E-02  0.9553615E-01
        1   -1    0    0  501    0  0.00000000000E+00  0.00000000000E+00  0.28650954972E+03  0.28650954976E+03  0.50400001928E-02 0.  1.
       -1   -1    0    0    0  501  0.00000000000E+00  0.00000000000E+00 -0.56465918365E+03  0.56465918367E+03  0.50400001928E-02 0. -1.
    10030    2    1    2    0    0  0.00000000000E+00  0.00000000000E+00 -0.27814963393E+03  0.85116873343E+03  0.80443830957E+03 0.  0.
        2    1    3    3  502    0 -0.14030348846E+03 -0.28599424167E+03  0.12075589295E+03  0.34067544794E+03  0.25500000920E-02 0.  1.
       -2    1    3    3    0  502  0.14030348846E+03  0.28599424167E+03 -0.39890552688E+03  0.51049328548E+03  0.25500000920E-02 0. -1.
</event>
<event>
 5   0  0.1624094E-02  0.7932882E+03  0.7818609E-02  0.9569783E-01
       -1   -1    0    0    0  501  0.00000000000E+00  0.00000000000E+00  0.96167928716E+02  0.96167928848E+02  0.50400001928E-02 0.  1.
        1   -1    0    0  501    0  0.00000000000E+00  0.00000000000E+00 -0.16359565405E+04  0.16359565406E+04  0.50400001928E-02 0. -1.
    10030    2    1    2    0    0  0.00000000000E+00  0.00000000000E+00 -0.15397886118E+04  0.17321244694E+04  0.79328822529E+03 0.  0.
        3    1    3    3  502    0  0.14617885386E+02 -0.21461979724E+03 -0.42265773720E+02  0.21922989251E+03  0.10100000352E+00 0.  1.
       -3    1    3    3    0  502 -0.14617885386E+02  0.21461979724E+03 -0.14975228381E+04  0.15128945769E+04  0.10100000352E+00 0. -1.
</event>
<event>
 5   0  0.2571778E-02  0.8293501E+03  0.7818609E-02  0.9518480E-01
       -2   -1    0    0    0  501  0.00000000000E+00  0.00000000000E+00  0.82990062101E+02  0.82990062140E+02  0.25500000920E-02 0. -1.
        2   -1    0    0  501    0  0.00000000000E+00  0.00000000000E+00 -0.20719996717E+04  0.20719996717E+04  0.25500000920E-02 0.  1.
    10030    2    1    2    0    0  0.00000000000E+00  0.00000000000E+00 -0.19890096096E+04  0.21549897338E+04  0.82935006232E+03 0.  0.
        1    1    3    3  502    0 -0.49968255934E+02 -0.63200298760E+02 -0.20514669830E+04  0.20530484375E+04  0.50400001928E-02 0.  1.
       -1    1    3    3    0  502  0.49968255934E+02  0.63200298760E+02  0.62457373455E+02  0.10194129629E+03  0.50400001928E-02 0. -1.
</event>
<event>
 5   0  0.1471290E-02  0.8050703E+03  0.7818609E-02  0.9552707E-01
       -1   -1    0    0    0  501  0.00000000000E+00  0.00000000000E+00  0.45033155816E+03  0.45033155819E+03  0.50400001928E-02 0.  1.
        1   -1    0    0  501    0  0.00000000000E+00  0.00000000000E+00 -0.35981169626E+03  0.35981169630E+03  0.50400001928E-02 0. -1.
    10030    2    1    2    0    0  0.00000000000E+00  0.00000000000E+00  0.90519861900E+02  0.81014325449E+03  0.80507033693E+03 0.  0.
        2    1    3    3  502    0 -0.17146841228E+03  0.22549595130E+03  0.33304223433E+03  0.43722645198E+03  0.25500000920E-02 0.  1.
       -2    1    3    3    0  502  0.17146841228E+03 -0.22549595130E+03 -0.24252237243E+03  0.37291680251E+03  0.25500000920E-02 0. -1.
</event>
<event>
 5   0  0.1498375E-02  0.8106773E+03  0.7818609E-02  0.9544690E-01
       -1   -1    0    0    0  501  0.00000000000E+00  0.00000000000E+00  0.23383497432E+03  0.23383497438E+03  0.50400001928E-02 0.  1.
        1   -1    0    0  501    0  0.00000000000E+00  0.00000000000E+00 -0.70262972565E+03  0.70262972567E+03  0.50400001928E-02 0. -1.
    10030    2    1    2    0    0  0.00000000000E+00  0.00000000000E+00 -0.46879475133E+03  0.93646470005E+03  0.81067725733E+03 0.  0.
        4    1    3    3  502    0  0.30008035758E+02  0.61785872699E+02  0.22706085870E+03  0.23722610044E+03  0.12699999809E+01 0.  1.
       -4    1    3    3    0  502 -0.30008035758E+02 -0.61785872699E+02 -0.69585561003E+03  0.69923859961E+03  0.12699999809E+01 0. -1.
</event>
<event>
 5   0  0.2422031E-02  0.7953320E+03  0.7818609E-02  0.9566798E-01
       -2   -1    0    0    0  501  0.00000000000E+00  0.00000000000E+00  0.15747307202E+03  0.15747307204E+03  0.25500000920E-02 0.  1.
        2   -1    0    0  501    0  0.00000000000E+00  0.00000000000E+00 -0.10042241740E+04  0.10042241740E+04  0.25500000920E-02 0. -1.
    10030    2    1    2    0    0  0.00000000000E+00  0.00000000000E+00 -0.84675110200E+03  0.11616972461E+04  0.79533204561E+03 0.  0.
        4    1    3    3  502    0 -0.35682942761E+03  0.40703178535E+02 -0.17398293011E+03  0.39906849290E+03  0.12699999809E+01 0. -1.
       -4    1    3    3    0  502  0.35682942761E+03 -0.40703178535E+02 -0.67276817189E+03  0.76262875317E+03  0.12699999809E+01 0.  1.
</event>
<event>
 5   0  0.1509629E-02  0.8116666E+03  0.7818609E-02  0.9543282E-01
        1   -1    0    0  501    0  0.00000000000E+00  0.00000000000E+00  0.18113911336E+04  0.18113911336E+04  0.50400001928E-02 0. -1.
       -1   -1    0    0    0  501  0.00000000000E+00  0.00000000000E+00 -0.90924953375E+02  0.90924953514E+02  0.50400001928E-02 0.  1.
    10030    2    1    2    0    0  0.00000000000E+00  0.00000000000E+00  0.17204661802E+04  0.19023160871E+04  0.81166656825E+03 0.  0.
        5    1    3    3  502    0  0.62790220107E+01 -0.61583506301E+02 -0.79730385991E+02  0.10104938800E+03  0.46999998093E+01 0.  1.
       -5    1    3    3    0  502 -0.62790220107E+01  0.61583506301E+02  0.18001965662E+04  0.18012666991E+04  0.46999998093E+01 0. -1.
</event>
<event>
 5   0  0.1509629E-02  0.8042390E+03  0.7818609E-02  0.9553902E-01
        1   -1    0    0  501    0  0.00000000000E+00  0.00000000000E+00  0.73652216803E+03  0.73652216804E+03  0.50400001928E-02 0.  1.
       -1   -1    0    0    0  501  0.00000000000E+00  0.00000000000E+00 -0.21954542534E+03  0.21954542540E+03  0.50400001928E-02 0. -1.
    10030    2    1    2    0    0  0.00000000000E+00  0.00000000000E+00  0.51697674268E+03  0.95606759345E+03  0.80423895128E+03 0.  0.
        5    1    3    3  502    0  0.29984816547E+03  0.15081829932E+03  0.52169874282E+03  0.62036017764E+03  0.46999998093E+01 0.  1.
       -5    1    3    3    0  502 -0.29984816547E+03 -0.15081829932E+03 -0.47220001327E+01  0.33570741581E+03  0.46999998093E+01 0. -1.
</event>
<event>
 5   0  0.9919125E-03  0.8305961E+03  0.7818609E-02  0.9516757E-01
        3   -1    0    0  501    0  0.00000000000E+00  0.00000000000E+00  0.54545866092E+03  0.54545867027E+03  0.10100000352E+00 0. -1.
       -3   -1    0    0    0  501  0.00000000000E+00  0.00000000000E+00 -0.31619709751E+03  0.31619711365E+03  0.10100000352E+00 0.  1.
    10030    2    1    2    0    0  0.00000000000E+00  0.00000000000E+00  0.22926156340E+03  0.86165578391E+03  0.83059606639E+03 0.  0.
        5    1    3    3  502    0  0.27051157748E+03  0.11293479929E+03 -0.19051062832E+03  0.34963863051E+03  0.46999998093E+01 0.  1.
       -5    1    3    3    0  502 -0.27051157748E+03 -0.11293479929E+03  0.41977219172E+03  0.51201715341E+03  0.46999998093E+01 0. -1.
</event>
<event>
 5   0  0.1471290E-02  0.7847258E+03  0.7818609E-02  0.9582393E-01
       -1   -1    0    0    0  501  0.00000000000E+00  0.00000000000E+00  0.60895830424E+03  0.60895830426E+03  0.50400001928E-02 0.  1.
        1   -1    0    0  501    0  0.00000000000E+00  0.00000000000E+00 -0.25280651607E+03  0.25280651612E+03  0.50400001928E-02 0. -1.
    10030    2    1    2    0    0  0.00000000000E+00  0.00000000000E+00  0.35615178817E+03  0.86176482038E+03  0.78472575428E+03 0.  0.
        2    1    3    3  502    0 -0.19427199761E+03 -0.23179869454E+03 -0.96415539832E+02  0.31744007335E+03  0.25500000920E-02 0. -1.
       -2    1    3    3    0  502  0.19427199761E+03  0.23179869454E+03  0.45256732800E+03  0.54432474703E+03  0.25500000920E-02 0.  1.
</event>
<event>
 5   0  0.2571778E-02  0.7976521E+03  0.7818609E-02  0.9563422E-01
        2   -1    0    0  501    0  0.00000000000E+00  0.00000000000E+00  0.18190525295E+03  0.18190525297E+03  0.25500000920E-02 0. -1.
       -2   -1    0    0    0  501  0.00000000000E+00  0.00000000000E+00 -0.87442336776E+03  0.87442336776E+03  0.25500000920E-02 0.  1.
    10030    2    1    2    0    0  0.00000000000E+00  0.00000000000E+00 -0.69251811481E+03  0.10563286207E+04  0.79765206427E+03 0.  0.
        1    1    3    3  502    0 -0.39098841560E+03 -0.12185074685E+02 -0.24332282983E+03  0.46068038456E+03  0.50400001928E-02 0. -1.
       -1    1    3    3    0  502  0.39098841560E+03  0.12185074685E+02 -0.44919528498E+03  0.59564823617E+03  0.50400001928E-02 0.  1.
</event>
<event>
 5   0  0.1471290E-02  0.7981117E+03  0.7818609E-02  0.9562754E-01
        1   -1    0    0  501    0  0.00000000000E+00  0.00000000000E+00  0.12843103272E+04  0.12843103272E+04  0.50400001928E-02 0.  1.
       -1   -1    0    0    0  501  0.00000000000E+00  0.00000000000E+00 -0.12399305386E+03  0.12399305396E+03  0.50400001928E-02 0. -1.
    10030    2    1    2    0    0  0.00000000000E+00  0.00000000000E+00  0.11603172734E+04  0.14083033812E+04  0.79811167052E+03 0.  0.
        2    1    3    3  502    0 -0.59862704613E+02 -0.29399448019E+03  0.11588137837E+03  0.32162834397E+03  0.25500000920E-02 0.  1.
       -2    1    3    3    0  502  0.59862704613E+02  0.29399448019E+03  0.10444358950E+04  0.10866750372E+04  0.25500000920E-02 0. -1.
</event>
<event>
 5   0  0.2571778E-02  0.8152057E+03  0.7818609E-02  0.9538265E-01
       -2   -1    0    0    0  501  0.00000000000E+00  0.00000000000E+00  0.16612770702E+03  0.16612770704E+03  0.25500000920E-02 0. -1.
        2   -1    0    0  501    0  0.00000000000E+00  0.00000000000E+00 -0.10000743911E+04  0.10000743911E+04  0.25500000920E-02 0.  1.
    10030    2    1    2    0    0  0.00000000000E+00  0.00000000000E+00 -0.83394668412E+03  0.11662020982E+04  0.81520565618E+03 0.  0.
        1    1    3    3  502    0  0.14180286515E+03  0.15688882614E+03 -0.91545365289E+03  0.93956242312E+03  0.50400001928E-02 0.  1.
       -1    1    3    3    0  502 -0.14180286515E+03 -0.15688882614E+03  0.81506968765E+02  0.22663967507E+03  0.50400001928E-02 0. -1.
</event>
<event>
 5   0  0.2464780E-02  0.7843119E+03  0.7818609E-02  0.9583007E-01
       -2   -1    0    0    0  501  0.00000000000E+00  0.00000000000E+00  0.11355403124E+03  0.11355403127E+03  0.25500000920E-02 0.  1.
        2   -1    0    0  501    0  0.00000000000E+00  0.00000000000E+00 -0.13543004380E+04  0.13543004380E+04  0.25500000920E-02 0. -1.
    10030    2    1    2    0    0  0.00000000000E+00  0.00000000000E+00 -0.12407464068E+04  0.14678544693E+04  0.78431186214E+03 0.  0.
        3    1    3    3  502    0 -0.11052445698E+03  0.31936568771E+03 -0.24805773884E+03  0.41921682943E+03  0.10100000352E+00 0. -1.
       -3    1    3    3    0  502  0.11052445698E+03 -0.31936568771E+03 -0.99268866794E+03  0.10486376399E+04  0.10100000352E+00 0.  1.
</event>
<event>
 5   0  0.2464780E-02  0.8004086E+03  0.7818609E-02  0.9559426E-01
       -2   -1    0    0    0  501  0.00000000000E+00  0.00000000000E+00  0.40407647384E+03  0.40407647385E+03  0.25500000920E-02 0. -1.
        2   -1    0    0  501    0  0.00000000000E+00  0.00000000000E+00 -0.39636927502E+03  0.39636927503E+03  0.25500000920E-02 0.  1.
    10030    2    1    2    0    0  0.00000000000E+00  0.00000000000E+00  0.77071988203E+01  0.80044574888E+03  0.80040864312E+03 0.  0.
        3    1    3    3  502    0  0.15562355212E+03 -0.43219502918E+02  0.37003566463E+03  0.40374870737E+03  0.10100000352E+00 0. -1.
       -3    1    3    3    0  502 -0.15562355212E+03  0.43219502918E+02 -0.36232846581E+03  0.39669704151E+03  0.10100000352E+00 0.  1.
</event>
<event>
 5   0  0.1523811E-02  0.8041631E+03  0.7818609E-02  0.9554011E-01
       -1   -1    0    0    0  501  0.00000000000E+00  0.00000000000E+00  0.57583298702E+03  0.57583298704E+03  0.50400001928E-02 0. -1.
        1   -1    0    0  501    0  0.00000000000E+00  0.00000000000E+00 -0.28075775412E+03  0.28075775416E+03  0.50400001928E-02 0.  1.
    10030    2    1    2    0    0  0.00000000000E+00  0.00000000000E+00  0.29507523290E+03  0.85659074121E+03  0.80416310836E+03 0.  0.
        1    1    3    3  502    0  0.68562258712E+01 -0.19883831174E+03  0.51972528031E+03  0.55650521028E+03  0.50400001928E-02 0. -1.
       -1    1    3    3    0  502 -0.68562258712E+01  0.19883831174E+03 -0.22465004741E+03  0.30008553093E+03  0.50400001928E-02 0.  1.
</event>
<event>
 5   0  0.1624094E-02  0.8021248E+03  0.7818609E-02  0.9556947E-01
       -1   -1    0    0    0  501  0.00000000000E+00  0.00000000000E+00  0.10214993658E+03  0.10214993671E+03  0.50400001928E-02 0.  1.
        1   -1    0    0  501    0  0.00000000000E+00  0.00000000000E+00 -0.15746565341E+04  0.15746565341E+04  0.50400001928E-02 0. -1.
    10030    2    1    2    0    0  0.00000000000E+00  0.00000000000E+00 -0.14725065975E+04  0.16768064708E+04  0.80212484118E+03 0.  0.
        3    1    3    3  502    0  0.70269029185E+02 -0.14605642981E+03  0.30635843186E+02  0.16495084795E+03  0.10100000352E+00 0.  1.
       -3    1    3    3    0  502 -0.70269029185E+02  0.14605642981E+03 -0.15031424407E+04  0.15118556228E+04  0.10100000352E+00 0. -1.
</event>
<event>
 5   0  0.2464780E-02  0.7917910E+03  0.7818609E-02  0.9571976E-01
       -2   -1    0    0    0  501  0.00000000000E+00  0.00000000000E+00  0.15879613397E+03  0.15879613399E+03  0.25500000920E-02 0. -1.
        2   -1    0    0  501    0  0.00000000000E+00  0.00000000000E+00 -0.98700926236E+03  0.98700926236E+03  0.25500000920E-02 0.  1.
    10030    2    1    2    0    0  0.00000000000E+00  0.00000000000E+00 -0.82821312839E+03  0.11458053964E+04  0.79179102059E+03 0.  0.
        3    1    3    3  502    0  0.18308309219E+03 -0.20026762185E+02 -0.92123974662E+03  0.93946962207E+03  0.10100000352E+00 0.  1.
       -3    1    3    3    0  502 -0.18308309219E+03  0.20026762185E+02  0.93026618228E+02  0.20633577429E+03  0.10100000352E+00 0. -1.
</event>
<event>
 5   0  0.1509629E-02  0.9468262E+03  0.7818609E-02  0.9368868E-01
       -1   -1    0    0    0  501  0.00000000000E+00  0.00000000000E+00  0.83403459018E+03  0.83403459020E+03  0.50400001928E-02 0.  1.
        1   -1    0    0  501    0  0.00000000000E+00  0.00000000000E+00 -0.26871780176E+03  0.26871780181E+03  0.50400001928E-02 0. -1.
    10030    2    1    2    0    0  0.00000000000E+00  0.00000000000E+00  0.56531678842E+03  0.11027523920E+04  0.94682615448E+03 0.  0.
        5    1    3    3  502    0  0.30968300126E+03 -0.12359003032E+02  0.69941569461E+03  0.76502333957E+03  0.46999998093E+01 0.  1.
       -5    1    3    3    0  502 -0.30968300126E+03  0.12359003032E+02 -0.13409890619E+03  0.33772905244E+03  0.46999998093E+01 0. -1.
</event>
<event>
 5   0  0.2460312E-02  0.8255251E+03  0.7818609E-02  0.9523788E-01
       -2   -1    0    0    0  501  0.00000000000E+00  0.00000000000E+00  0.73532806942E+03  0.73532806943E+03  0.25500000920E-02 0.  1.
        2   -1    0    0  501    0  0.00000000000E+00  0.00000000000E+00 -0.23169649823E+03  0.23169649825E+03  0.25500000920E-02 0. -1.
    10030    2    1    2    0    0  0.00000000000E+00  0.00000000000E+00  0.50363157119E+03  0.96702456767E+03  0.82552513892E+03 0.  0.
        2    1    3    3  502    0  0.23715895684E+03  0.89134886420E+02 -0.12989620684E+03  0.28471463493E+03  0.25500000920E-02 0. -1.
       -2    1    3    3    0  502 -0.23715895684E+03 -0.89134886420E+02  0.63352777803E+03  0.68230993274E+03  0.25500000920E-02 0.  1.
</event>
<event>
 5   0  0.1523811E-02  0.7792332E+03  0.7818609E-02  0.9590572E-01
        1   -1    0    0  501    0  0.00000000000E+00  0.00000000000E+00  0.18515561486E+03  0.18515561493E+03  0.50400001928E-02 0.  1.
       -1   -1    0    0    0  501  0.00000000000E+00  0.00000000000E+00 -0.81985692453E+03  0.81985692454E+03  0.50400001928E-02 0. -1.
    10030    2    1    2    0    0  0.00000000000E+00  0.00000000000E+00 -0.63470130967E+03  0.10050125395E+04  0.77923324621E+03 0.  0.
        1    1    3    3  502    0 -0.62077808408E+02  0.69822659751E+02 -0.80519549713E+03  0.81059770955E+03  0.50400001928E-02 0. -1.
       -1    1    3    3    0  502  0.62077808408E+02 -0.69822659751E+02  0.17049418746E+03  0.19441482992E+03  0.50400001928E-02 0.  1.
</event>
<event>
 5   0  0.1523811E-02  0.7812167E+03  0.7818609E-02  0.9587610E-01
       -1   -1    0    0    0  501  0.00000000000E+00  0.00000000000E+00  0.25456770638E+03  0.25456770643E+03  0.50400001928E-02 0. -1.
        1   -1    0    0  501    0  0.00000000000E+00  0.00000000000E+00 -0.59934890436E+03  0.59934890438E+03  0.50400001928E-02 0.  1.
    10030    2    1    2    0    0  0.00000000000E+00  0.00000000000E+00 -0.34478119798E+03  0.85391661081E+03  0.78121668168E+03 0.  0.
        1    1    3    3  502    0 -0.43838137465E+02  0.82388275982E+01  0.25177468491E+03  0.25569542930E+03  0.50400001928E-02 0. -1.
       -1    1    3    3    0  502  0.43838137465E+02 -0.82388275982E+01 -0.59655588289E+03  0.59822118151E+03  0.50400001928E-02 0.  1.
</event>
<event>
 5   0  0.1471290E-02  0.7816978E+03  0.7818609E-02  0.9586893E-01
       -1   -1    0    0    0  501  0.00000000000E+00  0.00000000000E+00  0.54808813747E+03  0.54808813750E+03  0.50400001928E-02 0. -1.
        1   -1    0    0  501    0  0.00000000000E+00  0.00000000000E+00 -0.27871949254E+03  0.27871949259E+03  0.50400001928E-02 0.  1.
    10030    2    1    2    0    0  0.00000000000E+00  0.00000000000E+00  0.26936864493E+03  0.82680763008E+03  0.78169776147E+03 0.  0.
        2    1    3    3  502    0 -0.26530519155E+03  0.28499766814E+03  0.17058928107E+03  0.42510142122E+03  0.25500000920E-02 0.  1.
       -2    1    3    3    0  502  0.26530519155E+03 -0.28499766814E+03  0.98779363865E+02  0.40170620886E+03  0.25500000920E-02 0. -1.
</event>
<event>
 5   0  0.2422031E-02  0.8209557E+03  0.7818609E-02  0.9530170E-01
        2   -1    0    0  501    0  0.00000000000E+00  0.00000000000E+00  0.97181001299E+03  0.97181001299E+03  0.25500000920E-02 0.  1.
       -2   -1    0    0    0  501  0.00000000000E+00  0.00000000000E+00 -0.17337964048E+03  0.17337964050E+03  0.25500000920E-02 0. -1.
    10030    2    1    2    0    0  0.00000000000E+00  0.00000000000E+00  0.79843037251E+03  0.11451896535E+04  0.82095571301E+03 0.  0.
        4    1    3    3  502    0  0.14498525247E+03 -0.35250779943E+03  0.18670663522E+03  0.42443309559E+03  0.12699999809E+01 0. -1.
       -4    1    3    3    0  502 -0.14498525247E+03  0.35250779943E+03  0.61172373730E+03  0.72075655791E+03  0.12699999809E+01 0.  1.
</event>
<event>
 5   0  0.1624094E-02  0.8148612E+03  0.7818609E-02  0.9538752E-01
        1   -1    0    0  501    0  0.00000000000E+00  0.00000000000E+00  0.10071704050E+04  0.10071704050E+04  0.50400001928E-02 0.  1.
       -1   -1    0    0    0  501  0.00000000000E+00  0.00000000000E+00 -0.16481789033E+03  0.16481789041E+03  0.50400001928E-02 0. -1.
    10030    2    1    2    0    0  0.00000000000E+00  0.00000000000E+00  0.84235251462E+03  0.11719882954E+04  0.81486121861E+03 0.  0.
        3    1    3    3  502    0  0.12414827387E+03 -0.19294609350E+03  0.90542339028E+03  0.93404095989E+03  0.10100000352E+00 0.  1.
       -3    1    3    3    0  502 -0.12414827387E+03  0.19294609350E+03 -0.63070875654E+02  0.23794733548E+03  0.10100000352E+00 0. -1.
</event>
<event>
 5   0  0.1509629E-02  0.7882506E+03  0.7818609E-02  0.9577181E-01
       -1   -1    0    0    0  501  0.00000000000E+00  0.00000000000E+00  0.77879658181E+03  0.77879658183E+03  0.50400001928E-02 0.  1.
        1   -1    0    0  501    0  0.00000000000E+00  0.00000000000E+00 -0.19945485867E+03  0.19945485873E+03  0.50400001928E-02 0. -1.
    10030    2    1    2    0    0  0.00000000000E+00  0.00000000000E+00  0.57934172314E+03  0.97825144056E+03  0.78825062562E+03 0.  0.
        5    1    3    3  502    0  0.17784847452E+03 -0.96693551784E+02  0.70930602745E+03  0.73764276816E+03  0.46999998093E+01 0.  1.
       -5    1    3    3    0  502 -0.17784847452E+03  0.96693551784E+02 -0.12996430431E+03  0.24060867240E+03  0.46999998093E+01 0. -1.
</event>
<event>
 5   0  0.1471290E-02  0.8165942E+03  0.7818609E-02  0.9536303E-01
        1   -1    0    0  501    0  0.00000000000E+00  0.00000000000E+00  0.26052016972E+04  0.26052016972E+04  0.50400001928E-02 0.  1.
       -1   -1    0    0    0  501  0.00000000000E+00  0.00000000000E+00 -0.63989873755E+02  0.63989873953E+02  0.50400001928E-02 0. -1.
    10030    2    1    2    0    0  0.00000000000E+00  0.00000000000E+00  0.25412118234E+04  0.26691915711E+04  0.81659421496E+03 0.  0.
        2    1    3    3  502    0 -0.19400186508E+03 -0.31189695288E+03  0.18534056652E+04  0.18894520350E+04  0.25500000920E-02 0.  1.
       -2    1    3    3    0  502  0.19400186508E+03  0.31189695288E+03  0.68780615820E+03  0.77973953609E+03  0.25500000920E-02 0. -1.
</event>
<event>
 5   0  0.2460312E-02  0.7872628E+03  0.7818609E-02  0.9578639E-01
       -2   -1    0    0    0  501  0.00000000000E+00  0.00000000000E+00  0.43820176860E+03  0.43820176861E+03  0.25500000920E-02 0. -1.
        2   -1    0    0  501    0  0.00000000000E+00  0.00000000000E+00 -0.35359441600E+03  0.35359441601E+03  0.25500000920E-02 0.  1.
    10030    2    1    2    0    0  0.00000000000E+00  0.00000000000E+00  0.84607352601E+02  0.79179618462E+03  0.78726284928E+03 0.  0.
        2    1    3    3  502    0 -0.27824019766E+03  0.50209740055E+02  0.31775493154E+03  0.42533142620E+03  0.25500000920E-02 0. -1.
       -2    1    3    3    0  502  0.27824019766E+03 -0.50209740055E+02 -0.23314757894E+03  0.36646475842E+03  0.25500000920E-02 0.  1.
</event>
<event>
 5   0  0.9919125E-03  0.7983083E+03  0.7818609E-02  0.9562469E-01
        3   -1    0    0  501    0  0.00000000000E+00  0.00000000000E+00  0.58210585360E+03  0.58210586236E+03  0.10100000352E+00 0. -1.
       -3   -1    0    0    0  501  0.00000000000E+00  0.00000000000E+00 -0.27370285438E+03  0.27370287301E+03  0.10100000352E+00 0.  1.
    10030    2    1    2    0    0  0.00000000000E+00  0.00000000000E+00  0.30840299922E+03  0.85580873537E+03  0.79830832490E+03 0.  0.
        1    1    3    3  502    0  0.35054811271E+03  0.12191848832E+03  0.31166902511E+03  0.48465005762E+03  0.50400001928E-02 0. -1.
       -1    1    3    3    0  502 -0.35054811271E+03 -0.12191848832E+03 -0.32660258859E+01  0.37115867775E+03  0.50400001928E-02 0.  1.
</event>
<event>
 5   0  0.2422031E-02  0.8101189E+03  0.7818609E-02  0.9545485E-01
        2   -1    0    0  501    0  0.00000000000E+00  0.00000000000E+00  0.20582925584E+04  0.20582925584E+04  0.25500000920E-02 0.  1.
       -2   -1    0    0    0  501  0.00000000000E+00  0.00000000000E+00 -0.79713241492E+02  0.79713241533E+02  0.25500000920E-02 0. -1.
    10030    2    1    2    0    0  0.00000000000E+00  0.00000000000E+00  0.19785793169E+04  0.21380057999E+04  0.81011893401E+03 0.  0.
        4    1    3    3  502    0 -0.22240530732E+03  0.17339549179E+03  0.17566421738E+04  0.17791355926E+04  0.12699999809E+01 0.  1.
       -4    1    3    3    0  502  0.22240530732E+03 -0.17339549179E+03  0.22193714311E+03  0.35887020730E+03  0.12699999809E+01 0. -1.
</event>
<event>
 5   0  0.2422031E-02  0.7942544E+03  0.7818609E-02  0.9568371E-01
        2   -1    0    0  501    0  0.00000000000E+00  0.00000000000E+00  0.12858217432E+04  0.12858217432E+04  0.25500000920E-02 0.  1.
       -2   -1    0    0    0  501  0.00000000000E+00  0.00000000000E+00 -0.12265309308E+03  0.12265309311E+03  0.25500000920E-02 0. -1.
    10030    2    1    2    0    0  0.00000000000E+00  0.00000000000E+00  0.11631686501E+04  0.14084748363E+04  0.79425440252E+03 0.  0.
        4    1    3    3  502    0  0.24669485608E+03 -0.28842561478E+03  0.78884941442E+03  0.87540430591E+03  0.12699999809E+01 0.  1.
       -4    1    3    3    0  502 -0.24669485608E+03  0.28842561478E+03  0.37431923571E+03  0.53307053042E+03  0.12699999809E+01 0. -1.
</event>
<event>
 5   0  0.1498375E-02  0.7965418E+03  0.7818609E-02  0.9565036E-01
        1   -1    0    0  501    0  0.00000000000E+00  0.00000000000E+00  0.98702791046E+03  0.98702791047E+03  0.50400001928E-02 0.  1.
       -1   -1    0    0    0  501  0.00000000000E+00  0.00000000000E+00 -0.16070439048E+03  0.16070439056E+03  0.50400001928E-02 0. -1.
    10030    2    1    2    0    0  0.00000000000E+00  0.00000000000E+00  0.82632351997E+03  0.11477323010E+04  0.79654182262E+03 0.  0.
        4    1    3    3  502    0 -0.38049953807E+03 -0.45288976712E+02  0.56959743476E+03  0.68649387504E+03  0.12699999809E+01 0.  1.
       -4    1    3    3    0  502  0.38049953807E+03  0.45288976712E+02  0.25672608522E+03  0.46123842600E+03  0.12699999809E+01 0. -1.
</event>
<event>
 5   0  0.2460312E-02  0.8179323E+03  0.7818609E-02  0.9534418E-01
        2   -1    0    0  501    0  0.00000000000E+00  0.00000000000E+00  0.26093117844E+04  0.26093117844E+04  0.25500000920E-02 0. -1.
       -2   -1    0    0    0  501  0.00000000000E+00  0.00000000000E+00 -0.64098630466E+02  0.64098630517E+02  0.25500000920E-02 0.  1.
    10030    2    1    2    0    0  0.00000000000E+00  0.00000000000E+00  0.25452131540E+04  0.26734104149E+04  0.81793230016E+03 0.  0.
        2    1    3    3  502    0 -0.36971489146E+03 -0.62528203847E+02  0.73898545138E+03  0.82867265829E+03  0.25500000920E-02 0.  1.
       -2    1    3    3    0  502  0.36971489146E+03  0.62528203847E+02  0.18062277026E+04  0.18447377567E+04  0.25500000920E-02 0. -1.
</event>
<event>
 5   0  0.9919125E-03  0.8017676E+03  0.7818609E-02  0.9557462E-01
        3   -1    0    0  501    0  0.00000000000E+00  0.00000000000E+00  0.29801032128E+03  0.29801033839E+03  0.10100000352E+00 0. -1.
       -3   -1    0    0    0  501  0.00000000000E+00  0.00000000000E+00 -0.53926932624E+03  0.53926933570E+03  0.10100000352E+00 0.  1.
    10030    2    1    2    0    0  0.00000000000E+00  0.00000000000E+00 -0.24125900496E+03  0.83727967409E+03  0.80176763789E+03 0.  0.
        3    1    3    3  502    0 -0.36574018345E+02 -0.27468778159E+03 -0.42314418427E+03  0.50580831058E+03  0.10100000352E+00 0.  1.
       -3    1    3    3    0  502  0.36574018345E+02  0.27468778159E+03  0.18188517930E+03  0.33147136351E+03  0.10100000352E+00 0. -1.
</event>
<event>
 5   0  0.2422031E-02  0.7884096E+03  0.7818609E-02  0.9576947E-01
       -2   -1    0    0    0  501  0.00000000000E+00  0.00000000000E+00  0.18141598115E+03  0.18141598116E+03  0.25500000920E-02 0. -1.
        2   -1    0    0  501    0  0.00000000000E+00  0.00000000000E+00 -0.85658062173E+03  0.85658062174E+03  0.25500000920E-02 0.  1.
    10030    2    1    2    0    0  0.00000000000E+00  0.00000000000E+00 -0.67516464059E+03  0.10379966029E+04  0.78840957359E+03 0.  0.
        4    1    3    3  502    0  0.11050949333E+02 -0.72060071702E+02  0.17246084760E+03  0.18724084562E+03  0.12699999809E+01 0. -1.
       -4    1    3    3    0  502 -0.11050949333E+02  0.72060071702E+02 -0.84762548819E+03  0.85075575728E+03  0.12699999809E+01 0.  1.
</event>
<event>
 5   0  0.2454354E-02  0.8033676E+03  0.7818609E-02  0.9555155E-01
        2   -1    0    0  501    0  0.00000000000E+00  0.00000000000E+00  0.14170021731E+04  0.14170021731E+04  0.25500000920E-02 0. -1.
       -2   -1    0    0    0  501  0.00000000000E+00  0.00000000000E+00 -0.11386706533E+03  0.11386706536E+03  0.25500000920E-02 0.  1.
    10030    2    1    2    0    0  0.00000000000E+00  0.00000000000E+00  0.13031351078E+04  0.15308692385E+04  0.80336760961E+03 0.  0.
        5    1    3    3  502    0 -0.27900083147E+03 -0.24928276661E+03  0.92996550357E+03  0.10024177221E+04  0.46999998093E+01 0. -1.
       -5    1    3    3    0  502  0.27900083147E+03  0.24928276661E+03  0.37316960421E+03  0.52845151641E+03  0.46999998093E+01 0.  1.
</event>
<event>
 5   0  0.9919125E-03  0.8185127E+03  0.7818609E-02  0.9533601E-01
       -4   -1    0    0    0  501  0.00000000000E+00  0.00000000000E+00  0.49919966389E+03  0.49920127937E+03  0.12699999809E+01 0. -1.
        4   -1    0    0  501    0  0.00000000000E+00  0.00000000000E+00 -0.33551521723E+03  0.33551762083E+03  0.12699999809E+01 0.  1.
    10030    2    1    2    0    0  0.00000000000E+00  0.00000000000E+00  0.16368444666E+03  0.83471890020E+03  0.81851270258E+03 0.  0.
        2    1    3    3  502    0  0.27439021720E+03  0.21105692318E+03  0.30446646590E+03  0.46101501601E+03  0.25500000920E-02 0. -1.
       -2    1    3    3    0  502 -0.27439021720E+03 -0.21105692318E+03 -0.14078201923E+03  0.37370388420E+03  0.25500000920E-02 0.  1.
</event>
<event>
 5   0  0.2464780E-02  0.8469867E+03  0.7818609E-02  0.9494390E-01
        2   -1    0    0  501    0  0.00000000000E+00  0.00000000000E+00  0.73751538849E+03  0.73751538849E+03  0.25500000920E-02 0.  1.
       -2   -1    0    0    0  501  0.00000000000E+00  0.00000000000E+00 -0.24317675217E+03  0.24317675219E+03  0.25500000920E-02 0. -1.
    10030    2    1    2    0    0  0.00000000000E+00  0.00000000000E+00  0.49433863631E+03  0.98069214068E+03  0.84698665127E+03 0.  0.
        3    1    3    3  502    0 -0.54539272885E+02  0.39228624881E+03  0.42078486148E+03  0.57786066067E+03  0.10100000352E+00 0.  1.
       -3    1    3    3    0  502  0.54539272885E+02 -0.39228624881E+03  0.73553774830E+02  0.40283148001E+03  0.10100000352E+00 0. -1.
</event>
<event>
 5   0  0.1509629E-02  0.8263122E+03  0.7818609E-02  0.9522693E-01
        1   -1    0    0  501    0  0.00000000000E+00  0.00000000000E+00  0.11954080790E+04  0.11954080790E+04  0.50400001928E-02 0. -1.
       -1   -1    0    0    0  501  0.00000000000E+00  0.00000000000E+00 -0.14279471779E+03  0.14279471788E+03  0.50400001928E-02 0.  1.
    10030    2    1    2    0    0  0.00000000000E+00  0.00000000000E+00  0.10526133612E+04  0.13382027969E+04  0.82631219124E+03 0.  0.
        5    1    3    3  502    0 -0.41211066485E+03  0.28989522809E+02  0.52715877080E+03  0.66977164179E+03  0.46999998093E+01 0.  1.
       -5    1    3    3    0  502  0.41211066485E+03 -0.28989522809E+02  0.52545459039E+03  0.66843115508E+03  0.46999998093E+01 0. -1.
</event>
<event>
 5   0  0.1471290E-02  0.7961695E+03  0.7818609E-02  0.9565578E-01
       -1   -1    0    0    0  501  0.00000000000E+00  0.00000000000E+00  0.27241572678E+03  0.27241572683E+03  0.50400001928E-02 0.  1.
        1   -1    0    0  501    0  0.00000000000E+00  0.00000000000E+00 -0.58172653905E+03  0.58172653907E+03  0.50400001928E-02 0. -1.
    10030    2    1    2    0    0  0.00000000000E+00  0.00000000000E+00 -0.30931081227E+03  0.85414226590E+03  0.79616947431E+03 0.  0.
        2    1    3    3  502    0  0.24607240912E+03 -0.27599261317E+03  0.35544016755E+01  0.36977856459E+03  0.25500000920E-02 0. -1.
       -2    1    3    3    0  502 -0.24607240912E+03  0.27599261317E+03 -0.31286521394E+03  0.48436370132E+03  0.25500000920E-02 0.  1.
</event>
<event>
 5   0  0.2571778E-02  0.8130527E+03  0.7818609E-02  0.9541314E-01
       -2   -1    0    0    0  501  0.00000000000E+00  0.00000000000E+00  0.17638068281E+03  0.17638068283E+03  0.25500000920E-02 0. -1.
        2   -1    0    0  501    0  0.00000000000E+00  0.00000000000E+00 -0.93697160607E+03  0.93697160607E+03  0.25500000920E-02 0.  1.
    10030    2    1    2    0    0  0.00000000000E+00  0.00000000000E+00 -0.76059092326E+03  0.11133522889E+04  0.81305274531E+03 0.  0.
        1    1    3    3  502    0  0.14844569788E+02  0.38509155453E+03 -0.20308347549E+03  0.43561309056E+03  0.50400001928E-02 0. -1.
       -1    1    3    3    0  502 -0.14844569788E+02 -0.38509155453E+03 -0.55750744777E+03  0.67773919834E+03  0.50400001928E-02 0.  1.
</event>
<event>
 5   0  0.1498375E-02  0.8015748E+03  0.7818609E-02  0.9557740E-01
        1   -1    0    0  501    0  0.00000000000E+00  0.00000000000E+00  0.34912319402E+03  0.34912319406E+03  0.50400001928E-02 0.  1.
       -1   -1    0    0    0  501  0.00000000000E+00  0.00000000000E+00 -0.46009703190E+03  0.46009703193E+03  0.50400001928E-02 0. -1.
    10030    2    1    2    0    0  0.00000000000E+00  0.00000000000E+00 -0.11097383788E+03  0.80922022598E+03  0.80157481338E+03 0.  0.
        4    1    3    3  502    0 -0.18468242745E+03 -0.31579383018E+03 -0.22074181328E+03  0.42727263336E+03  0.12699999809E+01 0. -1.
       -4    1    3    3    0  502  0.18468242745E+03  0.31579383018E+03  0.10976797540E+03  0.38194759262E+03  0.12699999809E+01 0.  1.
</event>
<event>
 5   0  0.2464780E-02  0.7637099E+03  0.7818609E-02  0.9614084E-01
        2   -1    0    0  501    0  0.00000000000E+00  0.00000000000E+00  0.24679722275E+03  0.24679722276E+03  0.25500000920E-02 0.  1.
       -2   -1    0    0    0  501  0.00000000000E+00  0.00000000000E+00 -0.59082187719E+03  0.59082187719E+03  0.25500000920E-02 0. -1.
    10030    2    1    2    0    0  0.00000000000E+00  0.00000000000E+00 -0.34402465444E+03  0.83761909995E+03  0.76370988847E+03 0.  0.
        3    1    3    3  502    0  0.37507552362E+03 -0.65935686901E+02 -0.14130209388E+03  0.40619632588E+03  0.10100000352E+00 0.  1.
       -3    1    3    3    0  502 -0.37507552362E+03  0.65935686901E+02 -0.20272256056E+03  0.43142277407E+03  0.10100000352E+00 0. -1.
</event>
<event>
 5   0  0.1624094E-02  0.7863168E+03  0.7818609E-02  0.9580037E-01
        1   -1    0    0  501    0  0.00000000000E+00  0.00000000000E+00  0.45817797157E+03  0.45817797159E+03  0.50400001928E-02 0.  1.
       -1   -1    0    0    0  501  0.00000000000E+00  0.00000000000E+00 -0.33736565908E+03  0.33736565912E+03  0.50400001928E-02 0. -1.
    10030    2    1    2    0    0  0.00000000000E+00  0.00000000000E+00  0.12081231249E+03  0.79554363071E+03  0.78631676411E+03 0.  0.
        3    1    3    3  502    0 -0.44846813742E+01 -0.39289555150E+03  0.74222032574E+02  0.39986991269E+03  0.10100000352E+00 0.  1.
       -3    1    3    3    0  502  0.44846813742E+01  0.39289555150E+03  0.46590279913E+02  0.39567371802E+03  0.10100000352E+00 0. -1.
</event>
<event>
 5   0  0.1624094E-02  0.8025569E+03  0.7818609E-02  0.9556323E-01
       -1   -1    0    0    0  501  0.00000000000E+00  0.00000000000E+00  0.66462548167E+03  0.66462548169E+03  0.50400001928E-02 0.  1.
        1   -1    0    0  501    0  0.00000000000E+00  0.00000000000E+00 -0.24227840343E+03  0.24227840349E+03  0.50400001928E-02 0. -1.
    10030    2    1    2    0    0  0.00000000000E+00  0.00000000000E+00  0.42234707824E+03  0.90690388518E+03  0.80255691540E+03 0.  0.
        3    1    3    3  502    0 -0.29051821547E+03  0.17382065485E+03 -0.32265883800E+02  0.34008168288E+03  0.10100000352E+00 0. -1.
       -3    1    3    3    0  502  0.29051821547E+03 -0.17382065485E+03  0.45461296204E+03  0.56682220230E+03  0.10100000352E+00 0.  1.
</event>
<event>
 5   0  0.1509629E-02  0.8004483E+03  0.7818609E-02  0.9559368E-01
        1   -1    0    0  501    0  0.00000000000E+00  0.00000000000E+00  0.11035436665E+04  0.11035436665E+04  0.50400001928E-02 0. -1.
       -1   -1    0    0    0  501  0.00000000000E+00  0.00000000000E+00 -0.14515000388E+03  0.14515000397E+03  0.50400001928E-02 0.  1.
    10030    2    1    2    0    0  0.00000000000E+00  0.00000000000E+00  0.95839366264E+03  0.12486936705E+04  0.80044829326E+03 0.  0.
        5    1    3    3  502    0 -0.19265809274E+03 -0.16403612707E+03  0.96287586480E+03  0.99557873255E+03  0.46999998093E+01 0. -1.
       -5    1    3    3    0  502  0.19265809274E+03  0.16403612707E+03 -0.44822021624E+01  0.25311493796E+03  0.46999998093E+01 0.  1.
</event>
<event>
 5   0  0.2460312E-02  0.7925694E+03  0.7818609E-02  0.9570835E-01
       -2   -1    0    0    0  501  0.00000000000E+00  0.00000000000E+00  0.16747050842E+03  0.16747050843E+03  0.25500000920E-02 0. -1.
        2   -1    0    0  501    0  0.00000000000E+00  0.00000000000E+00 -0.93772656753E+03  0.93772656753E+03  0.25500000920E-02 0.  1.
    10030    2    1    2    0    0  0.00000000000E+00  0.00000000000E+00 -0.77025605911E+03  0.11051970760E+04  0.79256935351E+03 0.  0.
        2    1    3    3  502    0  0.13720202356E+02 -0.38609928687E+03 -0.50812945986E+03  0.63832315582E+03  0.25500000920E-02 0. -1.
       -2    1    3    3    0  502 -0.13720202356E+02  0.38609928687E+03 -0.26212659925E+03  0.46687392015E+03  0.25500000920E-02 0.  1.
</event>
<event>
 5   0  0.2454354E-02  0.7862413E+03  0.7818609E-02  0.9580149E-01
       -2   -1    0    0    0  501  0.00000000000E+00  0.00000000000E+00  0.10037214851E+03  0.10037214854E+03  0.25500000920E-02 0.  1.
        2   -1    0    0  501    0  0.00000000000E+00  0.00000000000E+00 -0.15397083713E+04  0.15397083713E+04  0.25500000920E-02 0. -1.
    10030    2    1    2    0    0  0.00000000000E+00  0.00000000000E+00 -0.14393362228E+04  0.16400805198E+04  0.78624127934E+03 0.  0.
        5    1    3    3  502    0  0.21918200977E+03  0.20833966918E+03 -0.12435579103E+04  0.12798064453E+04  0.46999998093E+01 0. -1.
       -5    1    3    3    0  502 -0.21918200977E+03 -0.20833966918E+03 -0.19577831252E+03  0.36027407458E+03  0.46999998093E+01 0.  1.
</event>
<event>
 5   0  0.1498375E-02  0.7915724E+03  0.7818609E-02  0.9572296E-01
       -1   -1    0    0    0  501  0.00000000000E+00  0.00000000000E+00  0.27956287558E+03  0.27956287563E+03  0.50400001928E-02 0.  1.
        1   -1    0    0  501    0  0.00000000000E+00  0.00000000000E+00 -0.56032733097E+03  0.56032733099E+03  0.50400001928E-02 0. -1.
    10030    2    1    2    0    0  0.00000000000E+00  0.00000000000E+00 -0.28076445538E+03  0.83989020662E+03  0.79157240968E+03 0.  0.
        4    1    3    3  502    0  0.26595858689E+03 -0.11617425786E+03  0.14514345165E+03  0.32449755406E+03  0.12699999809E+01 0.  1.
       -4    1    3    3    0  502 -0.26595858689E+03  0.11617425786E+03 -0.42590790704E+03  0.51539265256E+03  0.12699999809E+01 0. -1.
</event>
<event>
 5   0  0.2422031E-02  0.7997058E+03  0.7818609E-02  0.9560443E-01
        2   -1    0    0  501    0  0.00000000000E+00  0.00000000000E+00  0.60392078101E+03  0.60392078102E+03  0.25500000920E-02 0. -1.
       -2   -1    0    0    0  501  0.00000000000E+00  0.00000000000E+00 -0.26474058585E+03  0.26474058587E+03  0.25500000920E-02 0.  1.
    10030    2    1    2    0    0  0.00000000000E+00  0.00000000000E+00  0.33918019516E+03  0.86866136688E+03  0.79970579936E+03 0.  0.
        4    1    3    3  502    0  0.96655676024E+02  0.32408367826E+03 -0.62130685135E+02  0.34385227229E+03  0.12699999809E+01 0.  1.
       -4    1    3    3    0  502 -0.96655676024E+02 -0.32408367826E+03  0.40131088029E+03  0.52480909459E+03  0.12699999809E+01 0. -1.
</event>
<event>
 5   0  0.1509629E-02  0.7961260E+03  0.7818609E-02  0.9565642E-01
       -1   -1    0    0    0  501  0.00000000000E+00  0.00000000000E+00  0.27669292876E+03  0.27669292880E+03  0.50400001928E-02 0. -1.
        1   -1    0    0  501    0  0.00000000000E+00  0.00000000000E+00 -0.57267152407E+03  0.57267152410E+03  0.50400001928E-02 0.  1.
    10030    2    1    2    0    0  0.00000000000E+00  0.00000000000E+00 -0.29597859532E+03  0.84936445290E+03  0.79612602329E+03 0.  0.
        5    1    3    3  502    0 -0.17608929606E+03  0.32341983888E+03 -0.30916902361E+03  0.48084863266E+03  0.46999998093E+01 0.  1.
       -5    1    3    3    0  502  0.17608929606E+03 -0.32341983888E+03  0.13190428290E+02  0.36851582024E+03  0.46999998093E+01 0. -1.
</event>
<event>
 5   0  0.2460312E-02  0.7892618E+03  0.7818609E-02  0.9575692E-01
        2   -1    0    0  501    0  0.00000000000E+00  0.00000000000E+00  0.65579021553E+03  0.65579021553E+03  0.25500000920E-02 0.  1.
       -2   -1    0    0    0  501  0.00000000000E+00  0.00000000000E+00 -0.23747464638E+03  0.23747464639E+03  0.25500000920E-02 0. -1.
    10030    2    1    2    0    0  0.00000000000E+00  0.00000000000E+00  0.41831556915E+03  0.89326486192E+03  0.78926180583E+03 0.  0.
        2    1    3    3  502    0  0.31336157674E+03 -0.15699167072E+03  0.38987704093E+01  0.35050971866E+03  0.25500000920E-02 0. -1.
       -2    1    3    3    0  502 -0.31336157674E+03  0.15699167072E+03  0.41441679874E+03  0.54275514327E+03  0.25500000920E-02 0.  1.
</event>
<event>
 5   0  0.2464780E-02  0.8411016E+03  0.7818609E-02  0.9502358E-01
       -2   -1    0    0    0  501  0.00000000000E+00  0.00000000000E+00  0.11943065820E+04  0.11943065820E+04  0.25500000920E-02 0.  1.
        2   -1    0    0  501    0  0.00000000000E+00  0.00000000000E+00 -0.14808843603E+03  0.14808843605E+03  0.25500000920E-02 0. -1.
    10030    2    1    2    0    0  0.00000000000E+00  0.00000000000E+00  0.10462181460E+04  0.13423950181E+04  0.84110164402E+03 0.  0.
        3    1    3    3  502    0 -0.41539329211E+03  0.44375956523E+02  0.60034887529E+03  0.73139564868E+03  0.10100000352E+00 0. -1.
       -3    1    3    3    0  502  0.41539329211E+03 -0.44375956523E+02  0.44586927071E+03  0.61099936941E+03  0.10100000352E+00 0.  1.
</event>
<event>
 5   0  0.1471290E-02  0.7928565E+03  0.7818609E-02  0.9570415E-01
       -1   -1    0    0    0  501  0.00000000000E+00  0.00000000000E+00  0.21891396660E+03  0.21891396665E+03  0.50400001928E-02 0.  1.
        1   -1    0    0  501    0  0.00000000000E+00  0.00000000000E+00 -0.71788642216E+03  0.71788642218E+03  0.50400001928E-02 0. -1.
    10030    2    1    2    0    0  0.00000000000E+00  0.00000000000E+00 -0.49897245556E+03  0.93680038883E+03  0.79285651735E+03 0.  0.
        2    1    3    3  502    0 -0.30275128774E+03  0.12993749548E+03  0.11027057866E+02  0.32964176157E+03  0.25500000920E-02 0.  1.
       -2    1    3    3    0  502  0.30275128774E+03 -0.12993749548E+03 -0.50999951343E+03  0.60715862726E+03  0.25500000920E-02 0. -1.
</event>
<event>
 5   0  0.1509629E-02  0.7891425E+03  0.7818609E-02  0.9575867E-01
       -1   -1    0    0    0  501  0.00000000000E+00  0.00000000000E+00  0.13596767032E+03  0.13596767042E+03  0.50400001928E-02 0. -1.
        1   -1    0    0  501    0  0.00000000000E+00  0.00000000000E+00 -0.11450257311E+04  0.11450257311E+04  0.50400001928E-02 0.  1.
    10030    2    1    2    0    0  0.00000000000E+00  0.00000000000E+00 -0.10090580608E+04  0.12809934015E+04  0.78914252498E+03 0.  0.
        5    1    3    3  502    0  0.12826353425E+03 -0.22054793916E+03 -0.16003642479E+02  0.25567779383E+03  0.46999998093E+01 0. -1.
       -5    1    3    3    0  502 -0.12826353425E+03  0.22054793916E+03 -0.99305441830E+03  0.10253156077E+04  0.46999998093E+01 0.  1.
</event>
<event>
 5   0  0.2464780E-02  0.8023505E+03  0.7818609E-02  0.9556621E-01
       -2   -1    0    0    0  501  0.00000000000E+00  0.00000000000E+00  0.13874495970E+03  0.13874495972E+03  0.25500000920E-02 0.  1.
        2   -1    0    0  501    0  0.00000000000E+00  0.00000000000E+00 -0.11599815551E+04  0.11599815551E+04  0.25500000920E-02 0. -1.
    10030    2    1    2    0    0  0.00000000000E+00  0.00000000000E+00 -0.10212365954E+04  0.12987265149E+04  0.80235053221E+03 0.  0.
        3    1    3    3  502    0 -0.20590348883E+03 -0.11332360349E+03 -0.10368747340E+04  0.10631781177E+04  0.10100000352E+00 0. -1.
       -3    1    3    3    0  502  0.20590348883E+03  0.11332360349E+03  0.15638138541E+02  0.23554839715E+03  0.10100000352E+00 0.  1.
</event>
<event>
 5   0  0.2464780E-02  0.7976351E+03  0.7818609E-02  0.9563447E-01
        2   -1    0    0  501    0  0.00000000000E+00  0.00000000000E+00  0.14890717425E+04  0.14890717425E+04  0.25500000920E-02 0.  1.
       -2   -1    0    0    0  501  0.00000000000E+00  0.00000000000E+00 -0.10681515469E+03  0.10681515472E+03  0.25500000920E-02 0. -1.
    10030    2    1    2    0    0  0.00000000000E+00  0.00000000000E+00  0.13822565878E+04  0.15958868972E+04  0.79763507580E+03 0.  0.
        3    1    3    3  502    0 -0.35227520732E+03  0.54990592592E+02  0.33359044809E+03  0.48826671423E+03  0.10100000352E+00 0.  1.
       -3    1    3    3    0  502  0.35227520732E+03 -0.54990592592E+02  0.10486661397E+04  0.11076201829E+04  0.10100000352E+00 0. -1.
</event>
<event>
 5   0  0.2460312E-02  0.8042768E+03  0.7818609E-02  0.9553847E-01
        2   -1    0    0  501    0  0.00000000000E+00  0.00000000000E+00  0.11470372796E+04  0.11470372796E+04  0.25500000920E-02 0.  1.
       -2   -1    0    0    0  501  0.00000000000E+00  0.00000000000E+00 -0.14098519484E+03  0.14098519487E+03  0.25500000920E-02 0. -1.
    10030    2    1    2    0    0  0.00000000000E+00  0.00000000000E+00  0.10060520848E+04  0.12880224745E+04  0.80427675429E+03 0.  0.
        2    1    3    3  502    0  0.85108007329E+01 -0.13379533094E+03  0.11101945496E+04  0.11182600602E+04  0.25500000920E-02 0.  1.
       -2    1    3    3    0  502 -0.85108007329E+01  0.13379533094E+03 -0.10414246483E+03  0.16976241427E+03  0.25500000920E-02 0. -1.
</event>
<event>
 5   0  0.1523811E-02  0.8017794E+03  0.7818609E-02  0.9557445E-01
        1   -1    0    0  501    0  0.00000000000E+00  0.00000000000E+00  0.63705964521E+03  0.63705964523E+03  0.50400001928E-02 0. -1.
       -1   -1    0    0    0  501  0.00000000000E+00  0.00000000000E+00 -0.25227237423E+03  0.25227237429E+03  0.50400001928E-02 0.  1.
    10030    2    1    2    0    0  0.00000000000E+00  0.00000000000E+00  0.38478727098E+03  0.88933201952E+03  0.80177939424E+03 0.  0.
        1    1    3    3  502    0 -0.11025931985E+03  0.30040475198E+03 -0.75455074001E+02  0.32877591281E+03  0.50400001928E-02 0.  1.
       -1    1    3    3    0  502  0.11025931985E+03 -0.30040475198E+03  0.46024234498E+03  0.56055610671E+03  0.50400001928E-02 0. -1.
</event>
<event>
 5   0  0.2422031E-02  0.8059562E+03  0.7818609E-02  0.9551436E-01
       -2   -1    0    0    0  501  0.00000000000E+00  0.00000000000E+00  0.17893816307E+03  0.17893816309E+03  0.25500000920E-02 0. -1.
        2   -1    0    0  501    0  0.00000000000E+00  0.00000000000E+00 -0.90752764605E+03  0.90752764606E+03  0.25500000920E-02 0.  1.
    10030    2    1    2    0    0  0.00000000000E+00  0.00000000000E+00 -0.72858948298E+03  0.10864658091E+04  0.80595615248E+03 0.  0.
        4    1    3    3  502    0  0.13016283996E+03 -0.35114588534E+03 -0.56489518743E+03  0.67775658121E+03  0.12699999809E+01 0.  1.
       -4    1    3    3    0  502 -0.13016283996E+03  0.35114588534E+03 -0.16369429555E+03  0.40870922793E+03  0.12699999809E+01 0. -1.
</event>
<event>
 5   0  0.2464780E-02  0.7895969E+03  0.7818609E-02  0.9575198E-01
       -2   -1    0    0    0  501  0.00000000000E+00  0.00000000000E+00  0.21852639651E+03  0.21852639652E+03  0.25500000920E-02 0.  1.
        2   -1    0    0  501    0  0.00000000000E+00  0.00000000000E+00 -0.71325849828E+03  0.71325849828E+03  0.25500000920E-02 0. -1.
    10030    2    1    2    0    0  0.00000000000E+00  0.00000000000E+00 -0.49473210177E+03  0.93178489481E+03  0.78959688302E+03 0.  0.
        3    1    3    3  502    0  0.49395120317E+02  0.26961728887E+03  0.87934507513E+02  0.28786428779E+03  0.10100000352E+00 0.  1.
       -3    1    3    3    0  502 -0.49395120317E+02 -0.26961728887E+03 -0.58266660928E+03  0.64392060702E+03  0.10100000352E+00 0. -1.
</event>
<event>
 5   0  0.9919125E-03  0.8468115E+03  0.7818609E-02  0.9494626E-01
        4   -1    0    0  501    0  0.00000000000E+00  0.00000000000E+00  0.12787988701E+04  0.12787995007E+04  0.12699999809E+01 0.  1.
       -4   -1    0    0    0  501  0.00000000000E+00  0.00000000000E+00 -0.14018459981E+03  0.14019035246E+03  0.12699999809E+01 0. -1.
    10030    2    1    2    0    0  0.00000000000E+00  0.00000000000E+00  0.11386142703E+04  0.14189898532E+04  0.84681151796E+03 0.  0.
        1    1    3    3  502    0  0.26530962909E+03  0.25105090186E+03  0.21047291904E+03  0.42156210015E+03  0.50400001928E-02 0. -1.
       -1    1    3    3    0  502 -0.26530962909E+03 -0.25105090186E+03  0.92814135125E+03  0.99742775304E+03  0.50400001928E-02 0.  1.
</event>
<event>
 5   0  0.1498375E-02  0.7881126E+03  0.7818609E-02  0.9577385E-01
       -1   -1    0    0    0  501  0.00000000000E+00  0.00000000000E+00  0.81648931977E+02  0.81648932133E+02  0.50400001928E-02 0.  1.
        1   -1    0    0  501    0  0.00000000000E+00  0.00000000000E+00 -0.19018050698E+04  0.19018050698E+04  0.50400001928E-02 0. -1.
    10030    2    1    2    0    0  0.00000000000E+00  0.00000000000E+00 -0.18201561378E+04  0.19834540019E+04  0.78811256287E+03 0.  0.
        4    1    3    3  502    0 -0.17808237972E+03  0.35002294647E+03 -0.82855272837E+03  0.91691364567E+03  0.12699999809E+01 0.  1.
       -4    1    3    3    0  502  0.17808237972E+03 -0.35002294647E+03 -0.99160340945E+03  0.10665403563E+04  0.12699999809E+01 0. -1.
</event>
<event>
 5   0  0.2571778E-02  0.7999426E+03  0.7818609E-02  0.9560100E-01
        2   -1    0    0  501    0  0.00000000000E+00  0.00000000000E+00  0.46407989757E+03  0.46407989757E+03  0.25500000920E-02 0.  1.
       -2   -1    0    0    0  501  0.00000000000E+00  0.00000000000E+00 -0.34471875034E+03  0.34471875035E+03  0.25500000920E-02 0. -1.
    10030    2    1    2    0    0  0.00000000000E+00  0.00000000000E+00  0.11936114723E+03  0.80879864792E+03  0.79994260382E+03 0.  0.
        1    1    3    3  502    0 -0.34132541722E+03  0.21002431195E+02  0.26942087864E+03  0.43535244621E+03  0.50400001928E-02 0.  1.
       -1    1    3    3    0  502  0.34132541722E+03 -0.21002431195E+02 -0.15005973141E+03  0.37344620171E+03  0.50400001928E-02 0. -1.
</event>
<event>
 5   0  0.1509629E-02  0.7920174E+03  0.7818609E-02  0.9571644E-01
        1   -1    0    0  501    0  0.00000000000E+00  0.00000000000E+00  0.49131321330E+03  0.49131321333E+03  0.50400001928E-02 0. -1.
       -1   -1    0    0    0  501  0.00000000000E+00  0.00000000000E+00 -0.31919125398E+03  0.31919125402E+03  0.50400001928E-02 0.  1.
    10030    2    1    2    0    0  0.00000000000E+00  0.00000000000E+00  0.17212195933E+03  0.81050446734E+03  0.79201737525E+03 0.  0.
        5    1    3    3  502    0 -0.22306380678E+03  0.32253881607E+03  0.14222408817E+03  0.41717925526E+03  0.46999998093E+01 0. -1.
       -5    1    3    3    0  502  0.22306380678E+03 -0.32253881607E+03  0.29897871156E+02  0.39332521208E+03  0.46999998093E+01 0.  1.
</event>
<event>
 5   0  0.1498375E-02  0.7941336E+03  0.7818609E-02  0.9568548E-01
       -1   -1    0    0    0  501  0.00000000000E+00  0.00000000000E+00  0.12776423515E+03  0.12776423525E+03  0.50400001928E-02 0.  1.
        1   -1    0    0  501    0  0.00000000000E+00  0.00000000000E+00 -0.12340075631E+04  0.12340075631E+04  0.50400001928E-02 0. -1.
    10030    2    1    2    0    0  0.00000000000E+00  0.00000000000E+00 -0.11062433280E+04  0.13617717984E+04  0.79413357202E+03 0.  0.
        4    1    3    3  502    0 -0.79689563944E+01  0.28920533787E+03 -0.86783482815E+02  0.30205333554E+03  0.12699999809E+01 0.  1.
       -4    1    3    3    0  502  0.79689563944E+01 -0.28920533787E+03 -0.10194598452E+04  0.10597184628E+04  0.12699999809E+01 0. -1.
</event>
<event>
 5   0  0.2464780E-02  0.8063743E+03  0.7818609E-02  0.9550836E-01
       -2   -1    0    0    0  501  0.00000000000E+00  0.00000000000E+00  0.67987763463E+03  0.67987763464E+03  0.25500000920E-02 0.  1.
        2   -1    0    0  501    0  0.00000000000E+00  0.00000000000E+00 -0.23910165925E+03  0.23910165926E+03  0.25500000920E-02 0. -1.
    10030    2    1    2    0    0  0.00000000000E+00  0.00000000000E+00  0.44077597539E+03  0.91897929390E+03  0.80637428167E+03 0.  0.
        3    1    3    3  502    0  0.21914160833E+03  0.33531139369E+03  0.16812460920E+03  0.43442222510E+03  0.10100000352E+00 0. -1.
       -3    1    3    3    0  502 -0.21914160833E+03 -0.33531139369E+03  0.27265136619E+03  0.48455706880E+03  0.10100000352E+00 0.  1.
</event>
<event>
 5   0  0.1498375E-02  0.8402538E+03  0.7818609E-02  0.9503512E-01
        1   -1    0    0  501    0  0.00000000000E+00  0.00000000000E+00  0.83695596639E+03  0.83695596641E+03  0.50400001928E-02 0. -1.
       -1   -1    0    0    0  501  0.00000000000E+00  0.00000000000E+00 -0.21089115580E+03  0.21089115586E+03  0.50400001928E-02 0.  1.
    10030    2    1    2    0    0  0.00000000000E+00  0.00000000000E+00  0.62606481059E+03  0.10478471223E+04  0.84025379773E+03 0.  0.
        4    1    3    3  502    0 -0.26295813877E+03  0.32021697621E+03  0.22646177598E+03  0.47219958013E+03  0.12699999809E+01 0.  1.
       -4    1    3    3    0  502  0.26295813877E+03 -0.32021697621E+03  0.39960303461E+03  0.57564754214E+03  0.12699999809E+01 0. -1.
</event>
<event>
 5   0  0.1523811E-02  0.7999958E+03  0.7818609E-02  0.9560023E-01
        1   -1    0    0  501    0  0.00000000000E+00  0.00000000000E+00  0.47649502309E+03  0.47649502311E+03  0.50400001928E-02 0. -1.
       -1   -1    0    0    0  501  0.00000000000E+00  0.00000000000E+00 -0.33578171592E+03  0.33578171596E+03  0.50400001928E-02 0.  1.
    10030    2    1    2    0    0  0.00000000000E+00  0.00000000000E+00  0.14071330716E+03  0.81227673907E+03  0.79999579126E+03 0.  0.
        1    1    3    3  502    0 -0.39696805091E+03  0.17827684723E+02  0.11685105813E+03  0.41419274450E+03  0.50400001928E-02 0.  1.
       -1    1    3    3    0  502  0.39696805091E+03 -0.17827684723E+02  0.23862249028E+02  0.39808399458E+03  0.50400001928E-02 0. -1.
</event>
<event>
 5   0  0.1471290E-02  0.8378228E+03  0.7818609E-02  0.9506828E-01
       -1   -1    0    0    0  501  0.00000000000E+00  0.00000000000E+00  0.35583149233E+03  0.35583149237E+03  0.50400001928E-02 0. -1.
        1   -1    0    0  501    0  0.00000000000E+00  0.00000000000E+00 -0.49317372146E+03  0.49317372149E+03  0.50400001928E-02 0.  1.
    10030    2    1    2    0    0  0.00000000000E+00  0.00000000000E+00 -0.13734222913E+03  0.84900521385E+03  0.83782275288E+03 0.  0.
        2    1    3    3  502    0 -0.11081300262E+03 -0.12129137716E+03  0.32182348423E+03  0.36133291399E+03  0.25500000920E-02 0. -1.
       -2    1    3    3    0  502  0.11081300262E+03  0.12129137716E+03 -0.45916571336E+03  0.48767229987E+03  0.25500000920E-02 0.  1.
</event>
<event>
 5   0  0.2571778E-02  0.8042500E+03  0.7818609E-02  0.9553886E-01
        2   -1    0    0  501    0  0.00000000000E+00  0.00000000000E+00  0.44244785610E+03  0.44244785611E+03  0.25500000920E-02 0. -1.
       -2   -1    0    0    0  501  0.00000000000E+00  0.00000000000E+00 -0.36547701816E+03  0.36547701817E+03  0.25500000920E-02 0.  1.
    10030    2    1    2    0    0  0.00000000000E+00  0.00000000000E+00  0.76970837936E+02  0.80792487428E+03  0.80425001871E+03 0.  0.
        1    1    3    3  502    0 -0.29489276744E+03 -0.25742622968E+03 -0.53992346781E+02  0.39515209926E+03  0.50400001928E-02 0.  1.
       -1    1    3    3    0  502  0.29489276744E+03  0.25742622968E+03  0.13096318472E+03  0.41277277502E+03  0.50400001928E-02 0. -1.
</event>
<event>
 5   0  0.1509629E-02  0.8207338E+03  0.7818609E-02  0.9530481E-01
        1   -1    0    0  501    0  0.00000000000E+00  0.00000000000E+00  0.56676478549E+03  0.56676478551E+03  0.50400001928E-02 0.  1.
       -1   -1    0    0    0  501  0.00000000000E+00  0.00000000000E+00 -0.29712675600E+03  0.29712675605E+03  0.50400001928E-02 0. -1.
    10030    2    1    2    0    0  0.00000000000E+00  0.00000000000E+00  0.26963802949E+03  0.86389154156E+03  0.82073377452E+03 0.  0.
        5    1    3    3  502    0 -0.18243329658E+03  0.36675048218E+03  0.10922869329E+03  0.42395851368E+03  0.46999998093E+01 0. -1.
       -5    1    3    3    0  502  0.18243329658E+03 -0.36675048218E+03  0.16040933620E+03  0.43993302788E+03  0.46999998093E+01 0.  1.
</event>
<event>
 5   0  0.2464780E-02  0.8103172E+03  0.7818609E-02  0.9545202E-01
       -2   -1    0    0    0  501  0.00000000000E+00  0.00000000000E+00  0.25709374912E+03  0.25709374914E+03  0.25500000920E-02 0.  1.
        2   -1    0    0  501    0  0.00000000000E+00  0.00000000000E+00 -0.63849659890E+03  0.63849659890E+03  0.25500000920E-02 0. -1.
    10030    2    1    2    0    0  0.00000000000E+00  0.00000000000E+00 -0.38140284977E+03  0.89559034804E+03  0.81031718338E+03 0.  0.
        3    1    3    3  502    0  0.27519784092E+03 -0.28228152004E+03 -0.87394434795E+02  0.40380008128E+03  0.10100000352E+00 0. -1.
       -3    1    3    3    0  502 -0.27519784092E+03  0.28228152004E+03 -0.29400841498E+03  0.49179026676E+03  0.10100000352E+00 0.  1.
</event>
<event>
 5   0  0.2460312E-02  0.8050535E+03  0.7818609E-02  0.9552731E-01
        2   -1    0    0  501    0  0.00000000000E+00  0.00000000000E+00  0.56597453457E+03  0.56597453457E+03  0.25500000920E-02 0.  1.
       -2   -1    0    0    0  501  0.00000000000E+00  0.00000000000E+00 -0.28628106052E+03  0.28628106054E+03  0.25500000920E-02 0. -1.
    10030    2    1    2    0    0  0.00000000000E+00  0.00000000000E+00  0.27969347404E+03  0.85225559511E+03  0.80505351373E+03 0.  0.
        2    1    3    3  502    0  0.19050311681E+03  0.16950622903E+03  0.46956265319E+03  0.53433405700E+03  0.25500000920E-02 0.  1.
       -2    1    3    3    0  502 -0.19050311681E+03 -0.16950622903E+03 -0.18986917915E+03  0.31792153810E+03  0.25500000920E-02 0. -1.
</event>
<event>
 5   0  0.2422031E-02  0.7998137E+03  0.7818609E-02  0.9560287E-01
        2   -1    0    0  501    0  0.00000000000E+00  0.00000000000E+00  0.34194473495E+03  0.34194473496E+03  0.25500000920E-02 0. -1.
       -2   -1    0    0    0  501  0.00000000000E+00  0.00000000000E+00 -0.46769394016E+03  0.46769394017E+03  0.25500000920E-02 0.  1.
    10030    2    1    2    0    0  0.00000000000E+00  0.00000000000E+00 -0.12574920521E+03  0.80963867513E+03  0.79981367933E+03 0.  0.
        4    1    3    3  502    0 -0.62646427954E+02 -0.10980777114E+03  0.32118223301E+03  0.34516946742E+03  0.12699999809E+01 0. -1.
       -4    1    3    3    0  502  0.62646427954E+02  0.10980777114E+03 -0.44693143822E+03  0.46446920771E+03  0.12699999809E+01 0.  1.
</event>
<event>
 5   0  0.2464780E-02  0.8183172E+03  0.7818609E-02  0.9533876E-01
       -2   -1    0    0    0  501  0.00000000000E+00  0.00000000000E+00  0.33177459940E+03  0.33177459941E+03  0.25500000920E-02 0.  1.
        2   -1    0    0  501    0  0.00000000000E+00  0.00000000000E+00 -0.50459182527E+03  0.50459182527E+03  0.25500000920E-02 0. -1.
    10030    2    1    2    0    0  0.00000000000E+00  0.00000000000E+00 -0.17281722587E+03  0.83636642468E+03  0.81831717737E+03 0.  0.
        3    1    3    3  502    0  0.31873664508E+03  0.24160329234E+03 -0.17459936449E+03  0.43640594413E+03  0.10100000352E+00 0.  1.
       -3    1    3    3    0  502 -0.31873664508E+03 -0.24160329234E+03  0.17821386169E+01  0.39996048056E+03  0.10100000352E+00 0. -1.
</event>
<event>
 5   0  0.1523811E-02  0.9103065E+03  0.7818609E-02  0.9412789E-01
       -1   -1    0    0    0  501  0.00000000000E+00  0.00000000000E+00  0.14959554323E+03  0.14959554331E+03  0.50400001928E-02 0.  1.
        1   -1    0    0  501    0  0.00000000000E+00  0.00000000000E+00 -0.13848305082E+04  0.13848305082E+04  0.50400001928E-02 0. -1.
    10030    2    1    2    0    0  0.00000000000E+00  0.00000000000E+00 -0.12352349650E+04  0.15344260515E+04  0.91030648075E+03 0.  0.
        1    1    3    3  502    0 -0.18032865747E+03  0.12388388327E+03  0.55149428289E+02  0.22562601957E+03  0.50400001928E-02 0.  1.
       -1    1    3    3    0  502  0.18032865747E+03 -0.12388388327E+03 -0.12903843933E+04  0.13088000320E+04  0.50400001928E-02 0. -1.
</event>
<event>
 5   0  0.1509629E-02  0.8051300E+03  0.7818609E-02  0.9552621E-01
       -1   -1    0    0    0  501  0.00000000000E+00  0.00000000000E+00  0.14834120863E+04  0.14834120863E+04  0.50400001928E-02 0. -1.
        1   -1    0    0  501    0  0.00000000000E+00  0.00000000000E+00 -0.10924718142E+03  0.10924718154E+03  0.50400001928E-02 0.  1.
    10030    2    1    2    0    0  0.00000000000E+00  0.00000000000E+00  0.13741649049E+04  0.15926592678E+04  0.80513002531E+03 0.  0.
        5    1    3    3  502    0  0.36142448462E+03  0.13321395731E+03  0.45586105394E+03  0.59682912714E+03  0.46999998093E+01 0.  1.
       -5    1    3    3    0  502 -0.36142448462E+03 -0.13321395731E+03  0.91830385093E+03  0.99583014071E+03  0.46999998093E+01 0. -1.
</event>
<event>
 5   0  0.9919125E-03  0.7939531E+03  0.7818609E-02  0.9568811E-01
       -3   -1    0    0    0  501  0.00000000000E+00  0.00000000000E+00  0.49221324256E+03  0.49221325292E+03  0.10100000352E+00 0. -1.
        3   -1    0    0  501    0  0.00000000000E+00  0.00000000000E+00 -0.32016684404E+03  0.32016685998E+03  0.10100000352E+00 0.  1.
    10030    2    1    2    0    0  0.00000000000E+00  0.00000000000E+00  0.17204639851E+03  0.81238011290E+03  0.79395307455E+03 0.  0.
        2    1    3    3  502    0  0.11656007414E+03 -0.24192265890E+03 -0.21312781156E+03  0.34283565719E+03  0.25500000920E-02 0.  1.
       -2    1    3    3    0  502 -0.11656007414E+03  0.24192265890E+03  0.38517421007E+03  0.46954445571E+03  0.25500000920E-02 0. -1.
</event>
<event>
 5   0  0.2422031E-02  0.7991525E+03  0.7818609E-02  0.9561245E-01
       -2   -1    0    0    0  501  0.00000000000E+00  0.00000000000E+00  0.13445622695E+03  0.13445622697E+03  0.25500000920E-02 0.  1.
        2   -1    0    0  501    0  0.00000000000E+00  0.00000000000E+00 -0.11874583535E+04  0.11874583535E+04  0.25500000920E-02 0. -1.
    10030    2    1    2    0    0  0.00000000000E+00  0.00000000000E+00 -0.10530021266E+04  0.13219145805E+04  0.79915247579E+03 0.  0.
        4    1    3    3  502    0 -0.16280949838E+03 -0.17758432163E+03 -0.10537985683E+04  0.10809885104E+04  0.12699999809E+01 0. -1.
       -4    1    3    3    0  502  0.16280949838E+03  0.17758432163E+03  0.79644173246E+00  0.24092607014E+03  0.12699999809E+01 0.  1.
</event>
<event>
 5   0  0.2460312E-02  0.7923876E+03  0.7818609E-02  0.9571102E-01
        2   -1    0    0  501    0  0.00000000000E+00  0.00000000000E+00  0.17359923629E+04  0.17359923630E+04  0.25500000920E-02 0. -1.
       -2   -1    0    0    0  501  0.00000000000E+00  0.00000000000E+00 -0.90420638855E+02  0.90420638891E+02  0.25500000920E-02 0.  1.
    10030    2    1    2    0    0  0.00000000000E+00  0.00000000000E+00  0.16455717241E+04  0.18264130018E+04  0.79238762873E+03 0.  0.
        2    1    3    3  502    0 -0.16933800079E+03  0.14966876411E+03  0.15728455663E+04  0.15889994565E+04  0.25500000920E-02 0. -1.
       -2    1    3    3    0  502  0.16933800079E+03 -0.14966876411E+03  0.72726157810E+02  0.23741354531E+03  0.25500000920E-02 0.  1.
</event>
<event>
 5   0  0.1471290E-02  0.7723526E+03  0.7818609E-02  0.9600921E-01
       -1   -1    0    0    0  501  0.00000000000E+00  0.00000000000E+00  0.13596584428E+03  0.13596584437E+03  0.50400001928E-02 0.  1.
        1   -1    0    0  501    0  0.00000000000E+00  0.00000000000E+00 -0.10968351602E+04  0.10968351603E+04  0.50400001928E-02 0. -1.
    10030    2    1    2    0    0  0.00000000000E+00  0.00000000000E+00 -0.96086931596E+03  0.12328010046E+04  0.77235255852E+03 0.  0.
        2    1    3    3  502    0  0.14949422502E+03 -0.71307127028E+02  0.76392869208E+02  0.18239819119E+03  0.25500000920E-02 0.  1.
       -2    1    3    3    0  502 -0.14949422502E+03  0.71307127028E+02 -0.10372621852E+04  0.10504028134E+04  0.25500000920E-02 0. -1.
</event>
<event>
 5   0  0.9919125E-03  0.7999762E+03  0.7818609E-02  0.9560052E-01
        4   -1    0    0  501    0  0.00000000000E+00  0.00000000000E+00  0.57332580606E+03  0.57332721268E+03  0.12699999809E+01 0.  1.
       -4   -1    0    0    0  501  0.00000000000E+00  0.00000000000E+00 -0.27905361655E+03  0.27905650648E+03  0.12699999809E+01 0. -1.
    10030    2    1    2    0    0  0.00000000000E+00  0.00000000000E+00  0.29427218952E+03  0.85238371916E+03  0.79997617662E+03 0.  0.
        2    1    3    3  502    0 -0.36741495536E+03  0.28960728348E+02 -0.18474668527E+02  0.36901732560E+03  0.25500000920E-02 0. -1.
       -2    1    3    3    0  502  0.36741495536E+03 -0.28960728348E+02  0.31274685804E+03  0.48336639356E+03  0.25500000920E-02 0.  1.
</event>
<event>
 5   0  0.2571778E-02  0.8019257E+03  0.7818609E-02  0.9557234E-01
        2   -1    0    0  501    0  0.00000000000E+00  0.00000000000E+00  0.37299263001E+03  0.37299263001E+03  0.25500000920E-02 0.  1.
       -2   -1    0    0    0  501  0.00000000000E+00  0.00000000000E+00 -0.43103052179E+03  0.43103052180E+03  0.25500000920E-02 0. -1.
    10030    2    1    2    0    0  0.00000000000E+00  0.00000000000E+00 -0.58037891784E+02  0.80402315181E+03  0.80192570215E+03 0.  0.
        1    1    3    3  502    0  0.16944282631E+03 -0.88317183845E+02 -0.38244683367E+03  0.42752353966E+03  0.50400001928E-02 0. -1.
       -1    1    3    3    0  502 -0.16944282631E+03  0.88317183845E+02  0.32440894189E+03  0.37649961215E+03  0.50400001928E-02 0.  1.
</event>
<event>
 5   0  0.1498375E-02  0.8059250E+03  0.7818609E-02  0.9551480E-01
        1   -1    0    0  501    0  0.00000000000E+00  0.00000000000E+00  0.79419740533E+03  0.79419740534E+03  0.50400001928E-02 0.  1.
       -1   -1    0    0    0  501  0.00000000000E+00  0.00000000000E+00 -0.20445642227E+03  0.20445642233E+03  0.50400001928E-02 0. -1.
    10030    2    1    2    0    0  0.00000000000E+00  0.00000000000E+00  0.58974098305E+03  0.99865382767E+03  0.80592495956E+03 0.  0.
        4    1    3    3  502    0  0.95571583950E+02  0.13223285743E+03 -0.16169447743E+03  0.22970888789E+03  0.12699999809E+01 0. -1.
       -4    1    3    3    0  502 -0.95571583950E+02 -0.13223285743E+03  0.75143546049E+03  0.76894493978E+03  0.12699999809E+01 0.  1.
</event>
<event>
 5   0  0.1509629E-02  0.8070621E+03  0.7818609E-02  0.9549851E-01
       -1   -1    0    0    0  501  0.00000000000E+00  0.00000000000E+00  0.12545417799E+03  0.12545417809E+03  0.50400001928E-02 0. -1.
        1   -1    0    0  501    0  0.00000000000E+00  0.00000000000E+00 -0.12979823759E+04  0.12979823759E+04  0.50400001928E-02 0.  1.
    10030    2    1    2    0    0  0.00000000000E+00  0.00000000000E+00 -0.11725281979E+04  0.14234365540E+04  0.80706210935E+03 0.  0.
        5    1    3    3  502    0 -0.12649033206E+03 -0.82488721284E+02  0.73687795197E+02  0.16809572987E+03  0.46999998093E+01 0. -1.
       -5    1    3    3    0  502  0.12649033206E+03  0.82488721284E+02 -0.12462159931E+04  0.12553408241E+04  0.46999998093E+01 0.  1.
</event>
<event>
 5   0  0.1523811E-02  0.8090727E+03  0.7818609E-02  0.9546977E-01
       -1   -1    0    0    0  501  0.00000000000E+00  0.00000000000E+00  0.25365039339E+03  0.25365039344E+03  0.50400001928E-02 0. -1.
        1   -1    0    0  501    0  0.00000000000E+00  0.00000000000E+00 -0.64517799673E+03  0.64517799675E+03  0.50400001928E-02 0.  1.
    10030    2    1    2    0    0  0.00000000000E+00  0.00000000000E+00 -0.39152760335E+03  0.89882839019E+03  0.80907268576E+03 0.  0.
        1    1    3    3  502    0  0.31340371451E+03  0.22513310881E+03 -0.33065385672E+03  0.50817199641E+03  0.50400001928E-02 0.  1.
       -1    1    3    3    0  502 -0.31340371451E+03 -0.22513310881E+03 -0.60873746623E+02  0.39065639378E+03  0.50400001928E-02 0. -1.
</event>
<event>
 5   0  0.1624094E-02  0.7988791E+03  0.7818609E-02  0.9561641E-01
       -1   -1    0    0    0  501  0.00000000000E+00  0.00000000000E+00  0.12000872224E+03  0.12000872235E+03  0.50400001928E-02 0. -1.
        1   -1    0    0  501    0  0.00000000000E+00  0.00000000000E+00 -0.13295028290E+04  0.13295028290E+04  0.50400001928E-02 0.  1.
    10030    2    1    2    0    0  0.00000000000E+00  0.00000000000E+00 -0.12094941068E+04  0.14495115514E+04  0.79887905419E+03 0.  0.
        3    1    3    3  502    0  0.32970145406E+03 -0.22359911932E+03 -0.65771822759E+03  0.76895571529E+03  0.10100000352E+00 0.  1.
       -3    1    3    3    0  502 -0.32970145406E+03  0.22359911932E+03 -0.55177587917E+03  0.68055583607E+03  0.10100000352E+00 0. -1.
</event>
<event>
 5   0  0.2464780E-02  0.8436376E+03  0.7818609E-02  0.9498916E-01
       -2   -1    0    0    0  501  0.00000000000E+00  0.00000000000E+00  0.28162487777E+03  0.28162487778E+03  0.25500000920E-02 0. -1.
        2   -1    0    0  501    0  0.00000000000E+00  0.00000000000E+00 -0.63180175296E+03  0.63180175297E+03  0.25500000920E-02 0.  1.
    10030    2    1    2    0    0  0.00000000000E+00  0.00000000000E+00 -0.35017687519E+03  0.91342663075E+03  0.84363757967E+03 0.  0.
        3    1    3    3  502    0  0.13619848429E+02 -0.34569682444E+03 -0.43638023432E+03  0.55688375251E+03  0.10100000352E+00 0.  1.
       -3    1    3    3    0  502 -0.13619848429E+02  0.34569682444E+03  0.86203359125E+02  0.35654287824E+03  0.10100000352E+00 0. -1.
</event>
<event>
 5   0  0.2571778E-02  0.7974132E+03  0.7818609E-02  0.9563769E-01
       -2   -1    0    0    0  501  0.00000000000E+00  0.00000000000E+00  0.16648976408E+03  0.16648976410E+03  0.25500000920E-02 0.  1.
        2   -1    0    0  501    0  0.00000000000E+00  0.00000000000E+00 -0.95481523950E+03  0.95481523950E+03  0.25500000920E-02 0. -1.
    10030    2    1    2    0    0  0.00000000000E+00  0.00000000000E+00 -0.78832547541E+03  0.11213050036E+04  0.79741322783E+03 0.  0.
        1    1    3    3  502    0  0.32141345393E+03  0.21968528032E+03 -0.51511639586E+03  0.64568810742E+03  0.50400001928E-02 0. -1.
       -1    1    3    3    0  502 -0.32141345393E+03 -0.21968528032E+03 -0.27320907956E+03  0.47561689618E+03  0.50400001928E-02 0.  1.
</event>
<event>
 5   0  0.1509629E-02  0.7482571E+03  0.7818609E-02  0.9638089E-01
        1   -1    0    0  501    0  0.00000000000E+00  0.00000000000E+00  0.22149438376E+03  0.22149438382E+03  0.50400001928E-02 0. -1.
       -1   -1    0    0    0  501  0.00000000000E+00  0.00000000000E+00 -0.63194455642E+03  0.63194455644E+03  0.50400001928E-02 0.  1.
    10030    2    1    2    0    0  0.00000000000E+00  0.00000000000E+00 -0.41045017265E+03  0.85343894026E+03  0.74825709520E+03 0.  0.
        5    1    3    3  502    0  0.38119319989E+02  0.21556973972E+03  0.14077682661E+03  0.26031442554E+03  0.46999998093E+01 0. -1.
       -5    1    3    3    0  502 -0.38119319989E+02 -0.21556973972E+03 -0.55122699926E+03  0.59312451471E+03  0.46999998093E+01 0.  1.
</event>
<event>
 5   0  0.2422031E-02  0.8051511E+03  0.7818609E-02  0.9552591E-01
        2   -1    0    0  501    0  0.00000000000E+00  0.00000000000E+00  0.58314091623E+03  0.58314091624E+03  0.25500000920E-02 0. -1.
       -2   -1    0    0    0  501  0.00000000000E+00  0.00000000000E+00 -0.27792094923E+03  0.27792094924E+03  0.25500000920E-02 0.  1.
    10030    2    1    2    0    0  0.00000000000E+00  0.00000000000E+00  0.30521996700E+03  0.86106186548E+03  0.80515110875E+03 0.  0.
        4    1    3    3  502    0 -0.66060581643E+02  0.23695335392E+03 -0.18819559885E+03  0.30972582829E+03  0.12699999809E+01 0.  1.
       -4    1    3    3    0  502  0.66060581643E+02 -0.23695335392E+03  0.49341556586E+03  0.55133603719E+03  0.12699999809E+01 0. -1.
</event>
<event>
 5   0  0.1471290E-02  0.8078593E+03  0.7818609E-02  0.9548710E-01
       -1   -1    0    0    0  501  0.00000000000E+00  0.00000000000E+00  0.20755193385E+03  0.20755193391E+03  0.50400001928E-02 0. -1.
        1   -1    0    0  501    0  0.00000000000E+00  0.00000000000E+00 -0.78611243226E+03  0.78611243227E+03  0.50400001928E-02 0.  1.
    10030    2    1    2    0    0  0.00000000000E+00  0.00000000000E+00 -0.57856049841E+03  0.99366436618E+03  0.80785928373E+03 0.  0.
        2    1    3    3  502    0  0.95109475142E+02  0.16027077398E+03  0.15150954035E+03  0.24018258488E+03  0.25500000920E-02 0. -1.
       -2    1    3    3    0  502 -0.95109475142E+02 -0.16027077398E+03 -0.73007003876E+03  0.75348178131E+03  0.25500000920E-02 0.  1.
</event>
<event>
 5   0  0.2454354E-02  0.8400576E+03  0.7818609E-02  0.9503779E-01
       -2   -1    0    0    0  501  0.00000000000E+00  0.00000000000E+00  0.64491911309E+03  0.64491911309E+03  0.25500000920E-02 0.  1.
        2   -1    0    0  501    0  0.00000000000E+00  0.00000000000E+00 -0.27356015863E+03  0.27356015864E+03  0.25500000920E-02 0. -1.
    10030    2    1    2    0    0  0.00000000000E+00  0.00000000000E+00  0.37135895446E+03  0.91847927174E+03  0.84005755729E+03 0.  0.
        5    1    3    3  502    0  0.46297470832E+02 -0.40331648844E+03  0.30340894775E+03  0.50683994045E+03  0.46999998093E+01 0.  1.
       -5    1    3    3    0  502 -0.46297470832E+02  0.40331648844E+03  0.67950006703E+02  0.41163933129E+03  0.46999998093E+01 0. -1.
</event>
<event>
 5   0  0.2454354E-02  0.7487345E+03  0.7818609E-02  0.9637338E-01
        2   -1    0    0  501    0  0.00000000000E+00  0.00000000000E+00  0.10459745936E+04  0.10459745936E+04  0.25500000920E-02 0. -1.
       -2   -1    0    0    0  501  0.00000000000E+00  0.00000000000E+00 -0.13399067482E+03  0.13399067485E+03  0.25500000920E-02 0.  1.
    10030    2    1    2    0    0  0.00000000000E+00  0.00000000000E+00  0.91198391881E+03  0.11799652685E+04  0.74873451012E+03 0.  0.
        5    1    3    3  502    0  0.11867251887E+02  0.33110933839E+03  0.73056197066E+03  0.80219518112E+03  0.46999998093E+01 0. -1.
       -5    1    3    3    0  502 -0.11867251887E+02 -0.33110933839E+03  0.18142194815E+03  0.37777008736E+03  0.46999998093E+01 0.  1.
</event>
<event>
 5   0  0.2464780E-02  0.6567612E+03  0.7818609E-02  0.9794174E-01
        2   -1    0    0  501    0  0.00000000000E+00  0.00000000000E+00  0.10232057037E+04  0.10232057037E+04  0.25500000920E-02 0.  1.
       -2   -1    0    0    0  501  0.00000000000E+00  0.00000000000E+00 -0.10538820076E+03  0.10538820080E+03  0.25500000920E-02 0. -1.
    10030    2    1    2    0    0  0.00000000000E+00  0.00000000000E+00  0.91781750295E+03  0.11285939045E+04  0.65676116860E+03 0.  0.
        3    1    3    3  502    0 -0.22067016017E+03 -0.40395505321E+02  0.46821303008E+02  0.22917103014E+03  0.10100000352E+00 0. -1.
       -3    1    3    3    0  502  0.22067016017E+03  0.40395505321E+02  0.87099619994E+03  0.89942287437E+03  0.10100000352E+00 0.  1.
</event>
<event>
 5   0  0.2454354E-02  0.8019548E+03  0.7818609E-02  0.9557192E-01
        2   -1    0    0  501    0  0.00000000000E+00  0.00000000000E+00  0.30018039529E+03  0.30018039530E+03  0.25500000920E-02 0.  1.
       -2   -1    0    0    0  501  0.00000000000E+00  0.00000000000E+00 -0.53562086397E+03  0.53562086398E+03  0.25500000920E-02 0. -1.
    10030    2    1    2    0    0  0.00000000000E+00  0.00000000000E+00 -0.23544046868E+03  0.83580125928E+03  0.80195481838E+03 0.  0.
        5    1    3    3  502    0 -0.23816324232E+03  0.70550749236E+02 -0.44574445215E+03  0.51030318913E+03  0.46999998093E+01 0. -1.
       -5    1    3    3    0  502  0.23816324232E+03 -0.70550749236E+02  0.21030398347E+03  0.32549807015E+03  0.46999998093E+01 0.  1.
</event>
<event>
 5   0  0.2460312E-02  0.7962283E+03  0.7818609E-02  0.9565493E-01
       -2   -1    0    0    0  501  0.00000000000E+00  0.00000000000E+00  0.11547902383E+03  0.11547902386E+03  0.25500000920E-02 0.  1.
        2   -1    0    0  501    0  0.00000000000E+00  0.00000000000E+00 -0.13724993623E+04  0.13724993623E+04  0.25500000920E-02 0. -1.
    10030    2    1    2    0    0  0.00000000000E+00  0.00000000000E+00 -0.12570203385E+04  0.14879783862E+04  0.79622832554E+03 0.  0.
        2    1    3    3  502    0  0.29253519627E+03  0.73655828596E+02 -0.11140087108E+04  0.11541305948E+04  0.25500000920E-02 0. -1.
       -2    1    3    3    0  502 -0.29253519627E+03 -0.73655828596E+02 -0.14301162768E+03  0.33384779136E+03  0.25500000920E-02 0.  1.
</event>
<event>
 5   0  0.2454354E-02  0.8023386E+03  0.7818609E-02  0.9556638E-01
        2   -1    0    0  501    0  0.00000000000E+00  0.00000000000E+00  0.12180623379E+04  0.12180623379E+04  0.25500000920E-02 0.  1.
       -2   -1    0    0    0  501  0.00000000000E+00  0.00000000000E+00 -0.13212526910E+03  0.13212526913E+03  0.25500000920E-02 0. -1.
    10030    2    1    2    0    0  0.00000000000E+00  0.00000000000E+00  0.10859370688E+04  0.13501876071E+04  0.80233861730E+03 0.  0.
        5    1    3    3  502    0  0.21041092913E+03  0.21363138013E+03  0.94557179401E+02  0.31444280219E+03  0.46999998093E+01 0. -1.
       -5    1    3    3    0  502 -0.21041092913E+03 -0.21363138013E+03  0.99137988943E+03  0.10357448049E+04  0.46999998093E+01 0.  1.
</event>
<event>
 5   0  0.2460312E-02  0.7961333E+03  0.7818609E-02  0.9565631E-01
        2   -1    0    0  501    0  0.00000000000E+00  0.00000000000E+00  0.28019511996E+03  0.28019511997E+03  0.25500000920E-02 0. -1.
       -2   -1    0    0    0  501  0.00000000000E+00  0.00000000000E+00 -0.56552396315E+03  0.56552396316E+03  0.25500000920E-02 0.  1.
    10030    2    1    2    0    0  0.00000000000E+00  0.00000000000E+00 -0.28532884319E+03  0.84571908313E+03  0.79613329212E+03 0.  0.
        2    1    3    3  502    0  0.30722868823E+03 -0.65935976028E+02  0.11693299808E+03  0.33527652148E+03  0.25500000920E-02 0. -1.
       -2    1    3    3    0  502 -0.30722868823E+03  0.65935976028E+02 -0.40226184127E+03  0.51044256166E+03  0.25500000920E-02 0.  1.
</event>
<event>
 5   0  0.2422031E-02  0.7573997E+03  0.7818609E-02  0.9623812E-01
        2   -1    0    0  501    0  0.00000000000E+00  0.00000000000E+00  0.22308186845E+04  0.22308186845E+04  0.25500000920E-02 0. -1.
       -2   -1    0    0    0  501  0.00000000000E+00  0.00000000000E+00 -0.64287410933E+02  0.64287410983E+02  0.25500000920E-02 0.  1.
    10030    2    1    2    0    0  0.00000000000E+00  0.00000000000E+00  0.21665312736E+04  0.22951060955E+04  0.75739965024E+03 0.  0.
        4    1    3    3  502    0 -0.33948996827E+03  0.10795741812E+03  0.69398002494E+03  0.78007572107E+03  0.12699999809E+01 0.  1.
       -4    1    3    3    0  502  0.33948996827E+03 -0.10795741812E+03  0.14725512486E+04  0.15150303744E+04  0.12699999809E+01 0. -1.
</event>
<event>
 5   0  0.2571778E-02  0.7823084E+03  0.7818609E-02  0.9585984E-01
        2   -1    0    0  501    0  0.00000000000E+00  0.00000000000E+00  0.56786226823E+03  0.56786226824E+03  0.25500000920E-02 0.  1.
       -2   -1    0    0    0  501  0.00000000000E+00  0.00000000000E+00 -0.26943433940E+03  0.26943433941E+03  0.25500000920E-02 0. -1.
    10030    2    1    2    0    0  0.00000000000E+00  0.00000000000E+00  0.29842792884E+03  0.83729660765E+03  0.78230836661E+03 0.  0.
        1    1    3    3  502    0 -0.83960688829E+02  0.78091595945E+02 -0.25104277047E+03  0.27598943323E+03  0.50400001928E-02 0. -1.
       -1    1    3    3    0  502  0.83960688829E+02 -0.78091595945E+02  0.54947069931E+03  0.56130717441E+03  0.50400001928E-02 0.  1.
</event>
<event>
 5   0  0.1523811E-02  0.8023826E+03  0.7818609E-02  0.9556575E-01
        1   -1    0    0  501    0  0.00000000000E+00  0.00000000000E+00  0.48124027332E+03  0.48124027335E+03  0.50400001928E-02 0. -1.
       -1   -1    0    0    0  501  0.00000000000E+00  0.00000000000E+00 -0.33445759610E+03  0.33445759614E+03  0.50400001928E-02 0.  1.
    10030    2    1    2    0    0  0.00000000000E+00  0.00000000000E+00  0.14678267722E+03  0.81569786949E+03  0.80238261444E+03 0.  0.
        1    1    3    3  502    0 -0.96068765019E+02  0.29997595481E+03 -0.17920672599E+03  0.36239458018E+03  0.50400001928E-02 0. -1.
       -1    1    3    3    0  502  0.96068765019E+02 -0.29997595481E+03  0.32598940320E+03  0.45330328931E+03  0.50400001928E-02 0.  1.
</event>
<event>
 5   0  0.1509629E-02  0.7930074E+03  0.7818609E-02  0.9570194E-01
       -1   -1    0    0    0  501  0.00000000000E+00  0.00000000000E+00  0.32147421775E+03  0.32147421779E+03  0.50400001928E-02 0.  1.
        1   -1    0    0  501    0  0.00000000000E+00  0.00000000000E+00 -0.48904445623E+03  0.48904445626E+03  0.50400001928E-02 0. -1.
    10030    2    1    2    0    0  0.00000000000E+00  0.00000000000E+00 -0.16757023849E+03  0.81051867405E+03  0.79300739981E+03 0.  0.
        5    1    3    3  502    0 -0.66533971645E+02  0.22323651310E+03 -0.41169955434E+03  0.47305382696E+03  0.46999998093E+01 0. -1.
       -5    1    3    3    0  502  0.66533971645E+02 -0.22323651310E+03  0.24412931585E+03  0.33746484709E+03  0.46999998093E+01 0.  1.
</event>
<event>
 5   0  0.1471290E-02  0.7982789E+03  0.7818609E-02  0.9562512E-01
        1   -1    0    0  501    0  0.00000000000E+00  0.00000000000E+00  0.22154002774E+03  0.22154002779E+03  0.50400001928E-02 0.  1.
       -1   -1    0    0    0  501  0.00000000000E+00  0.00000000000E+00 -0.71911302538E+03  0.71911302540E+03  0.50400001928E-02 0. -1.
    10030    2    1    2    0    0  0.00000000000E+00  0.00000000000E+00 -0.49757299765E+03  0.94065305320E+03  0.79827894780E+03 0.  0.
        2    1    3    3  502    0 -0.28255697888E+03  0.24346110516E+03 -0.41626402463E+03  0.55891635711E+03  0.25500000920E-02 0. -1.
       -2    1    3    3    0  502  0.28255697888E+03 -0.24346110516E+03 -0.81308973016E+02  0.38173669609E+03  0.25500000920E-02 0.  1.
</event>
<event>
 5   0  0.1509629E-02  0.8040282E+03  0.7818609E-02  0.9554205E-01
        1   -1    0    0  501    0  0.00000000000E+00  0.00000000000E+00  0.60211066509E+03  0.60211066511E+03  0.50400001928E-02 0.  1.
       -1   -1    0    0    0  501  0.00000000000E+00  0.00000000000E+00 -0.26841468291E+03  0.26841468296E+03  0.50400001928E-02 0. -1.
    10030    2    1    2    0    0  0.00000000000E+00  0.00000000000E+00  0.33369598218E+03  0.87052534807E+03  0.80402821661E+03 0.  0.
        5    1    3    3  502    0 -0.39177958078E+03  0.46404374111E+02  0.83341690205E+02  0.40325244348E+03  0.46999998093E+01 0. -1.
       -5    1    3    3    0  502  0.39177958078E+03 -0.46404374111E+02  0.25035429197E+03  0.46727290458E+03  0.46999998093E+01 0.  1.
</event>
<event>
 5   0  0.2571778E-02  0.7434717E+03  0.7818609E-02  0.9645648E-01
       -2   -1    0    0    0  501  0.00000000000E+00  0.00000000000E+00  0.91920447289E+03  0.91920447289E+03  0.25500000920E-02 0.  1.
        2   -1    0    0  501    0  0.00000000000E+00  0.00000000000E+00 -0.15033384260E+03  0.15033384262E+03  0.25500000920E-02 0. -1.
    10030    2    1    2    0    0  0.00000000000E+00  0.00000000000E+00  0.76887063029E+03  0.10695383155E+04  0.74347169564E+03 0.  0.
        1    1    3    3  502    0  0.15576326708E+03  0.33749681886E+03  0.37780500436E+03  0.53000275419E+03  0.50400001928E-02 0.  1.
       -1    1    3    3    0  502 -0.15576326708E+03 -0.33749681886E+03  0.39106562594E+03  0.53953556132E+03  0.50400001928E-02 0. -1.
</event>
<event>
 5   0  0.2422031E-02  0.7935167E+03  0.7818609E-02  0.9569449E-01
       -2   -1    0    0    0  501  0.00000000000E+00  0.00000000000E+00  0.42066608555E+03  0.42066608556E+03  0.25500000920E-02 0.  1.
        2   -1    0    0  501    0  0.00000000000E+00  0.00000000000E+00 -0.37420937402E+03  0.37420937402E+03  0.25500000920E-02 0. -1.
    10030    2    1    2    0    0  0.00000000000E+00  0.00000000000E+00  0.46456711532E+02  0.79487545958E+03  0.79351671072E+03 0.  0.
        4    1    3    3  502    0  0.83701074999E+02 -0.36152184389E+03  0.16386700251E+03  0.40565739359E+03  0.12699999809E+01 0.  1.
       -4    1    3    3    0  502 -0.83701074999E+02  0.36152184389E+03 -0.11741029098E+03  0.38921806599E+03  0.12699999809E+01 0. -1.
</event>
<event>
 5   0  0.1498375E-02  0.8238556E+03  0.7818609E-02  0.9526115E-01
        1   -1    0    0  501    0  0.00000000000E+00  0.00000000000E+00  0.49581998192E+03  0.49581998194E+03  0.50400001928E-02 0.  1.
       -1   -1    0    0    0  501  0.00000000000E+00  0.00000000000E+00 -0.34223011756E+03  0.34223011760E+03  0.50400001928E-02 0. -1.
    10030    2    1    2    0    0  0.00000000000E+00  0.00000000000E+00  0.15358986436E+03  0.83805009954E+03  0.82385564446E+03 0.  0.
        4    1    3    3  502    0  0.16925956008E+03 -0.24450039983E+03  0.36675644916E+03  0.47216644321E+03  0.12699999809E+01 0.  1.
       -4    1    3    3    0  502 -0.16925956008E+03  0.24450039983E+03 -0.21316658480E+03  0.36588365633E+03  0.12699999809E+01 0. -1.
</event>
<event>
 5   0  0.1471290E-02  0.7913994E+03  0.7818609E-02  0.9572550E-01
        1   -1    0    0  501    0  0.00000000000E+00  0.00000000000E+00  0.13934910282E+04  0.13934910282E+04  0.50400001928E-02 0. -1.
       -1   -1    0    0    0  501  0.00000000000E+00  0.00000000000E+00 -0.11236402095E+03  0.11236402107E+03  0.50400001928E-02 0.  1.
    10030    2    1    2    0    0  0.00000000000E+00  0.00000000000E+00  0.12811270073E+04  0.15058550493E+04  0.79139940658E+03 0.  0.
        2    1    3    3  502    0  0.69559998459E+02 -0.27035291902E+03  0.10694123604E+03  0.29894100117E+03  0.25500000920E-02 0.  1.
       -2    1    3    3    0  502 -0.69559998459E+02  0.27035291902E+03  0.11741857712E+04  0.12069140481E+04  0.25500000920E-02 0. -1.
</event>
<event>
 5   0  0.1471290E-02  0.8029508E+03  0.7818609E-02  0.9555756E-01
       -1   -1    0    0    0  501  0.00000000000E+00  0.00000000000E+00  0.26392996056E+03  0.26392996061E+03  0.50400001928E-02 0.  1.
        1   -1    0    0  501    0  0.00000000000E+00  0.00000000000E+00 -0.61070181863E+03  0.61070181865E+03  0.50400001928E-02 0. -1.
    10030    2    1    2    0    0  0.00000000000E+00  0.00000000000E+00 -0.34677185807E+03  0.87463177926E+03  0.80295082523E+03 0.  0.
        2    1    3    3  502    0  0.30292744217E+03 -0.42610461207E+02  0.10982858070E+03  0.32502769693E+03  0.25500000920E-02 0.  1.
       -2    1    3    3    0  502 -0.30292744217E+03  0.42610461207E+02 -0.45660043877E+03  0.54960408233E+03  0.25500000920E-02 0. -1.
</event>
<event>
 5   0  0.2460312E-02  0.8060166E+03  0.7818609E-02  0.9551349E-01
       -2   -1    0    0    0  501  0.00000000000E+00  0.00000000000E+00  0.53940198245E+03  0.53940198246E+03  0.25500000920E-02 0.  1.
        2   -1    0    0  501    0  0.00000000000E+00  0.00000000000E+00 -0.30110323135E+03  0.30110323136E+03  0.25500000920E-02 0. -1.
    10030    2    1    2    0    0  0.00000000000E+00  0.00000000000E+00  0.23829875111E+03  0.84050521381E+03  0.80601657531E+03 0.  0.
        2    1    3    3  502    0 -0.87320870929E+02 -0.35147888474E+03 -0.65201264664E+02  0.36798579570E+03  0.25500000920E-02 0. -1.
       -2    1    3    3    0  502  0.87320870929E+02  0.35147888474E+03  0.30350001577E+03  0.47251941812E+03  0.25500000920E-02 0.  1.
</event>
<event>
 5   0  0.1498375E-02  0.7908646E+03  0.7818609E-02  0.9573335E-01
        1   -1    0    0  501    0  0.00000000000E+00  0.00000000000E+00  0.43269389126E+03  0.43269389129E+03  0.50400001928E-02 0. -1.
       -1   -1    0    0    0  501  0.00000000000E+00  0.00000000000E+00 -0.36137952586E+03  0.36137952590E+03  0.50400001928E-02 0.  1.
    10030    2    1    2    0    0  0.00000000000E+00  0.00000000000E+00  0.71314365399E+02  0.79407341719E+03  0.79086462380E+03 0.  0.
        4    1    3    3  502    0  0.26522000930E+02 -0.17127459650E+03 -0.32120956064E+03  0.36498712126E+03  0.12699999809E+01 0.  1.
       -4    1    3    3    0  502 -0.26522000930E+02  0.17127459650E+03  0.39252392604E+03  0.42908629593E+03  0.12699999809E+01 0. -1.
</event>
<event>
 5   0  0.1471290E-02  0.8257065E+03  0.7818609E-02  0.9523536E-01
       -1   -1    0    0    0  501  0.00000000000E+00  0.00000000000E+00  0.22533396264E+03  0.22533396270E+03  0.50400001928E-02 0. -1.
        1   -1    0    0  501    0  0.00000000000E+00  0.00000000000E+00 -0.75642305267E+03  0.75642305269E+03  0.50400001928E-02 0.  1.
    10030    2    1    2    0    0  0.00000000000E+00  0.00000000000E+00 -0.53108909003E+03  0.98175701539E+03  0.82570649489E+03 0.  0.
        2    1    3    3  502    0 -0.30028324379E+02 -0.15501838579E+03 -0.71910250879E+03  0.73623421433E+03  0.25500000920E-02 0.  1.
       -2    1    3    3    0  502  0.30028324379E+02  0.15501838579E+03  0.18801341876E+03  0.24552280105E+03  0.25500000920E-02 0. -1.
</event>
<event>
 5   0  0.1624094E-02  0.7905175E+03  0.7818609E-02  0.9573845E-01
        1   -1    0    0  501    0  0.00000000000E+00  0.00000000000E+00  0.12862036957E+04  0.12862036957E+04  0.50400001928E-02 0. -1.
       -1   -1    0    0    0  501  0.00000000000E+00  0.00000000000E+00 -0.12146558686E+03  0.12146558696E+03  0.50400001928E-02 0.  1.
    10030    2    1    2    0    0  0.00000000000E+00  0.00000000000E+00  0.11647381088E+04  0.14076692826E+04  0.79051751858E+03 0.  0.
        3    1    3    3  502    0 -0.15245660599E+03  0.31739884356E+03  0.90212344310E+03  0.96840681503E+03  0.10100000352E+00 0. -1.
       -3    1    3    3    0  502  0.15245660599E+03 -0.31739884356E+03  0.26261466571E+03  0.43926246761E+03  0.10100000352E+00 0.  1.
</event>
<event>
 5   0  0.1498375E-02  0.7918183E+03  0.7818609E-02  0.9571936E-01
        1   -1    0    0  501    0  0.00000000000E+00  0.00000000000E+00  0.21303557339E+03  0.21303557345E+03  0.50400001928E-02 0. -1.
       -1   -1    0    0    0  501  0.00000000000E+00  0.00000000000E+00 -0.73576460985E+03  0.73576460986E+03  0.50400001928E-02 0.  1.
    10030    2    1    2    0    0  0.00000000000E+00  0.00000000000E+00 -0.52272903646E+03  0.94880018331E+03  0.79181825080E+03 0.  0.
        4    1    3    3  502    0  0.11355715550E+02 -0.20309748362E+03 -0.66835669978E+03  0.69862710452E+03  0.12699999809E+01 0.  1.
       -4    1    3    3    0  502 -0.11355715550E+02  0.20309748362E+03  0.14562766332E+03  0.25017307879E+03  0.12699999809E+01 0. -1.
</event>
<event>
 5   0  0.2422031E-02  0.7433409E+03  0.7818609E-02  0.9645856E-01
        2   -1    0    0  501    0  0.00000000000E+00  0.00000000000E+00  0.19013483626E+03  0.19013483628E+03  0.25500000920E-02 0.  1.
       -2   -1    0    0    0  501  0.00000000000E+00  0.00000000000E+00 -0.72653130839E+03  0.72653130839E+03  0.25500000920E-02 0. -1.
    10030    2    1    2    0    0  0.00000000000E+00  0.00000000000E+00 -0.53639647212E+03  0.91666614467E+03  0.74334086762E+03 0.  0.
        4    1    3    3  502    0 -0.19247794713E+03 -0.17880966220E+03 -0.59239934784E+03  0.64804263413E+03  0.12699999809E+01 0. -1.
       -4    1    3    3    0  502  0.19247794713E+03  0.17880966220E+03  0.56002875717E+02  0.26862351054E+03  0.12699999809E+01 0.  1.
</event>
<event>
 5   0  0.2460312E-02  0.8089498E+03  0.7818609E-02  0.9547152E-01
       -2   -1    0    0    0  501  0.00000000000E+00  0.00000000000E+00  0.95246002114E+02  0.95246002148E+02  0.25500000920E-02 0. -1.
        2   -1    0    0  501    0  0.00000000000E+00  0.00000000000E+00 -0.17176566814E+04  0.17176566814E+04  0.25500000920E-02 0.  1.
    10030    2    1    2    0    0  0.00000000000E+00  0.00000000000E+00 -0.16224106793E+04  0.18129026836E+04  0.80894976838E+03 0.  0.
        2    1    3    3  502    0 -0.23574188452E+02  0.36105106596E+02 -0.17124910310E+04  0.17130338153E+04  0.25500000920E-02 0.  1.
       -2    1    3    3    0  502  0.23574188452E+02 -0.36105106596E+02  0.90080351692E+02  0.99868868277E+02  0.25500000920E-02 0. -1.
</event>
<event>
 5   0  0.2454354E-02  0.7955153E+03  0.7818609E-02  0.9566531E-01
       -2   -1    0    0    0  501  0.00000000000E+00  0.00000000000E+00  0.48394842447E+03  0.48394842447E+03  0.25500000920E-02 0. -1.
        2   -1    0    0  501    0  0.00000000000E+00  0.00000000000E+00 -0.32691740719E+03  0.32691740720E+03  0.25500000920E-02 0.  1.
    10030    2    1    2    0    0  0.00000000000E+00  0.00000000000E+00  0.15703101728E+03  0.81086583167E+03  0.79551534026E+03 0.  0.
        5    1    3    3  502    0 -0.10027050230E+02  0.39017665012E+03  0.15648144164E+03  0.42053167730E+03  0.46999998093E+01 0.  1.
       -5    1    3    3    0  502  0.10027050230E+02 -0.39017665012E+03  0.54957564355E+00  0.39033415437E+03  0.46999998093E+01 0. -1.
</event>
<event>
 5   0  0.2464780E-02  0.8006050E+03  0.7818609E-02  0.9559142E-01
        2   -1    0    0  501    0  0.00000000000E+00  0.00000000000E+00  0.10929095528E+04  0.10929095528E+04  0.25500000920E-02 0.  1.
       -2   -1    0    0    0  501  0.00000000000E+00  0.00000000000E+00 -0.14661972844E+03  0.14661972846E+03  0.25500000920E-02 0. -1.
    10030    2    1    2    0    0  0.00000000000E+00  0.00000000000E+00  0.94628982436E+03  0.12395292813E+04  0.80060502585E+03 0.  0.
        3    1    3    3  502    0  0.17904366437E+02 -0.13818765981E+03  0.10541493259E+04  0.10633189583E+04  0.10100000352E+00 0.  1.
       -3    1    3    3    0  502 -0.17904366437E+02  0.13818765981E+03 -0.10785950149E+03  0.17621032298E+03  0.10100000352E+00 0. -1.
</event>
<event>
 5   0  0.2571778E-02  0.8114643E+03  0.7818609E-02  0.9543570E-01
       -2   -1    0    0    0  501  0.00000000000E+00  0.00000000000E+00  0.30399044509E+03  0.30399044510E+03  0.25500000920E-02 0.  1.
        2   -1    0    0  501    0  0.00000000000E+00  0.00000000000E+00 -0.54152547269E+03  0.54152547270E+03  0.25500000920E-02 0. -1.
    10030    2    1    2    0    0  0.00000000000E+00  0.00000000000E+00 -0.23753502760E+03  0.84551591780E+03  0.81146428012E+03 0.  0.
        1    1    3    3  502    0 -0.32840170009E+03 -0.66480835299E+02 -0.35717268176E+03  0.48973431849E+03  0.50400001928E-02 0. -1.
       -1    1    3    3    0  502  0.32840170009E+03  0.66480835299E+02  0.11963765416E+03  0.35578159931E+03  0.50400001928E-02 0.  1.
</event>
<event>
 5   0  0.1624094E-02  0.7809349E+03  0.7818609E-02  0.9588031E-01
       -1   -1    0    0    0  501  0.00000000000E+00  0.00000000000E+00  0.23529530860E+03  0.23529530865E+03  0.50400001928E-02 0.  1.
        1   -1    0    0  501    0  0.00000000000E+00  0.00000000000E+00 -0.64797219773E+03  0.64797219775E+03  0.50400001928E-02 0. -1.
    10030    2    1    2    0    0  0.00000000000E+00  0.00000000000E+00 -0.41267688913E+03  0.88326750640E+03  0.78093487119E+03 0.  0.
        3    1    3    3  502    0  0.63764743414E+02  0.26959791830E+03  0.10488390427E+03  0.29622562960E+03  0.10100000352E+00 0.  1.
       -3    1    3    3    0  502 -0.63764743414E+02 -0.26959791830E+03 -0.51756079341E+03  0.58704187681E+03  0.10100000352E+00 0. -1.
</event>
<event>
 5   0  0.1523811E-02  0.7513252E+03  0.7818609E-02  0.9633274E-01
       -1   -1    0    0    0  501  0.00000000000E+00  0.00000000000E+00  0.24380997054E+03  0.24380997059E+03  0.50400001928E-02 0.  1.
        1   -1    0    0  501    0  0.00000000000E+00  0.00000000000E+00 -0.57882120238E+03  0.57882120240E+03  0.50400001928E-02 0. -1.
    10030    2    1    2    0    0  0.00000000000E+00  0.00000000000E+00 -0.33501123184E+03  0.82263117299E+03  0.75132517682E+03 0.  0.
        1    1    3    3  502    0 -0.36930485043E+03 -0.49279414675E+02 -0.22010500875E+03  0.43273634949E+03  0.50400001928E-02 0. -1.
       -1    1    3    3    0  502  0.36930485043E+03  0.49279414675E+02 -0.11490622309E+03  0.38989482350E+03  0.50400001928E-02 0.  1.
</event>
<event>
 5   0  0.2464780E-02  0.8961164E+03  0.7818609E-02  0.9430449E-01
       -2   -1    0    0    0  501  0.00000000000E+00  0.00000000000E+00  0.15872449020E+03  0.15872449022E+03  0.25500000920E-02 0. -1.
        2   -1    0    0  501    0  0.00000000000E+00  0.00000000000E+00 -0.12648088795E+04  0.12648088795E+04  0.25500000920E-02 0.  1.
    10030    2    1    2    0    0  0.00000000000E+00  0.00000000000E+00 -0.11060843893E+04  0.14235333698E+04  0.89611638668E+03 0.  0.
        3    1    3    3  502    0  0.95351261808E+02 -0.29643890911E+02  0.14082431765E+03  0.17263291123E+03  0.10100000352E+00 0. -1.
       -3    1    3    3    0  502 -0.95351261808E+02  0.29643890911E+02 -0.12469087070E+04  0.12509004585E+04  0.10100000352E+00 0.  1.
</event>
<event>
 5   0  0.1471290E-02  0.7996301E+03  0.7818609E-02  0.9560553E-01
       -1   -1    0    0    0  501  0.00000000000E+00  0.00000000000E+00  0.30992029902E+03  0.30992029907E+03  0.50400001928E-02 0.  1.
        1   -1    0    0  501    0  0.00000000000E+00  0.00000000000E+00 -0.51578444318E+03  0.51578444321E+03  0.50400001928E-02 0. -1.
    10030    2    1    2    0    0  0.00000000000E+00  0.00000000000E+00 -0.20586414416E+03  0.82570474227E+03  0.79963008670E+03 0.  0.
        2    1    3    3  502    0  0.28590546172E+03  0.19212145419E+03  0.10666322512E+03  0.36059621434E+03  0.25500000920E-02 0.  1.
       -2    1    3    3    0  502 -0.28590546172E+03 -0.19212145419E+03 -0.31252736928E+03  0.46510852793E+03  0.25500000920E-02 0. -1.
</event>
<event>
 5   0  0.2571778E-02  0.7974351E+03  0.7818609E-02  0.9563737E-01
        2   -1    0    0  501    0  0.00000000000E+00  0.00000000000E+00  0.15357012270E+04  0.15357012270E+04  0.25500000920E-02 0.  1.
       -2   -1    0    0    0  501  0.00000000000E+00  0.00000000000E+00 -0.10351991821E+03  0.10351991824E+03  0.25500000920E-02 0. -1.
    10030    2    1    2    0    0  0.00000000000E+00  0.00000000000E+00  0.14321813088E+04  0.16392211452E+04  0.79743505176E+03 0.  0.
        1    1    3    3  502    0 -0.14349858001E+03 -0.18175919010E+03  0.48893511708E+02  0.23668295495E+03  0.50400001928E-02 0. -1.
       -1    1    3    3    0  502  0.14349858001E+03  0.18175919010E+03  0.13832877971E+04  0.14025381903E+04  0.50400001928E-02 0.  1.
</event>
<event>
 5   0  0.2464780E-02  0.7960905E+03  0.7818609E-02  0.9565693E-01
        2   -1    0    0  501    0  0.00000000000E+00  0.00000000000E+00  0.73471664114E+03  0.73471664115E+03  0.25500000920E-02 0. -1.
       -2   -1    0    0    0  501  0.00000000000E+00  0.00000000000E+00 -0.21564780655E+03  0.21564780656E+03  0.25500000920E-02 0.  1.
    10030    2    1    2    0    0  0.00000000000E+00  0.00000000000E+00  0.51906883460E+03  0.95036444771E+03  0.79609052778E+03 0.  0.
        3    1    3    3  502    0  0.10941287149E+03 -0.15478622197E+02  0.71603870665E+03  0.72451515085E+03  0.10100000352E+00 0. -1.
       -3    1    3    3    0  502 -0.10941287149E+03  0.15478622197E+02 -0.19696987206E+03  0.22584929686E+03  0.10100000352E+00 0.  1.
</event>
<event>
 5   0  0.9919125E-03  0.7956328E+03  0.7818609E-02  0.9566360E-01
        3   -1    0    0  501    0  0.00000000000E+00  0.00000000000E+00  0.71823952476E+03  0.71823953186E+03  0.10100000352E+00 0.  1.
       -3   -1    0    0    0  501  0.00000000000E+00  0.00000000000E+00 -0.22034136676E+03  0.22034138991E+03  0.10100000352E+00 0. -1.
    10030    2    1    2    0    0  0.00000000000E+00  0.00000000000E+00  0.49789815800E+03  0.93858092177E+03  0.79563281164E+03 0.  0.
        3    1    3    3  502    0  0.15482373708E+03  0.16097073660E+03  0.63730097132E+03  0.67530326954E+03  0.10100000352E+00 0.  1.
       -3    1    3    3    0  502 -0.15482373708E+03 -0.16097073660E+03 -0.13940281331E+03  0.26327765223E+03  0.10100000352E+00 0. -1.
</event>
<event>
 5   0  0.1523811E-02  0.7924442E+03  0.7818609E-02  0.9571019E-01
        1   -1    0    0  501    0  0.00000000000E+00  0.00000000000E+00  0.19501270703E+04  0.19501270703E+04  0.50400001928E-02 0. -1.
       -1   -1    0    0    0  501  0.00000000000E+00  0.00000000000E+00 -0.80503440294E+02  0.80503440452E+02  0.50400001928E-02 0.  1.
    10030    2    1    2    0    0  0.00000000000E+00  0.00000000000E+00  0.18696236300E+04  0.20306305108E+04  0.79244416419E+03 0.  0.
        1    1    3    3  502    0  0.40466965878E+02  0.23148182871E+03  0.17522844911E+04  0.17679712526E+04  0.50400001928E-02 0. -1.
       -1    1    3    3    0  502 -0.40466965878E+02 -0.23148182871E+03  0.11733913896E+03  0.26265925818E+03  0.50400001928E-02 0.  1.
</event>
<event>
 5   0  0.2464780E-02  0.8014113E+03  0.7818609E-02  0.9557977E-01
       -2   -1    0    0    0  501  0.00000000000E+00  0.00000000000E+00  0.15382989556E+03  0.15382989558E+03  0.25500000920E-02 0.  1.
        2   -1    0    0  501    0  0.00000000000E+00  0.00000000000E+00 -0.10437828724E+04  0.10437828724E+04  0.25500000920E-02 0. -1.
    10030    2    1    2    0    0  0.00000000000E+00  0.00000000000E+00 -0.88995297681E+03  0.11976127679E+04  0.80141128082E+03 0.  0.
        3    1    3    3  502    0 -0.38001635635E+02 -0.24749481034E+03  0.22521273125E+02  0.25140609261E+03  0.10100000352E+00 0.  1.
       -3    1    3    3    0  502  0.38001635635E+02  0.24749481034E+03 -0.91247424993E+03  0.94620667534E+03  0.10100000352E+00 0. -1.
</event>
<event>
 5   0  0.2571778E-02  0.8410883E+03  0.7818609E-02  0.9502377E-01
        2   -1    0    0  501    0  0.00000000000E+00  0.00000000000E+00  0.17388426627E+03  0.17388426629E+03  0.25500000920E-02 0. -1.
       -2   -1    0    0    0  501  0.00000000000E+00  0.00000000000E+00 -0.10170982100E+04  0.10170982100E+04  0.25500000920E-02 0.  1.
    10030    2    1    2    0    0  0.00000000000E+00  0.00000000000E+00 -0.84321394377E+03  0.11909824763E+04  0.84108828547E+03 0.  0.
        1    1    3    3  502    0 -0.71010378782E+01 -0.33544165693E+03 -0.78062930851E+03  0.84967855526E+03  0.50400001928E-02 0.  1.
       -1    1    3    3    0  502  0.71010378782E+01  0.33544165693E+03 -0.62584635265E+02  0.34130392107E+03  0.50400001928E-02 0. -1.
</event>
<event>
 5   0  0.1471290E-02  0.7606279E+03  0.7818609E-02  0.9618823E-01
        1   -1    0    0  501    0  0.00000000000E+00  0.00000000000E+00  0.80908480814E+03  0.80908480816E+03  0.50400001928E-02 0.  1.
       -1   -1    0    0    0  501  0.00000000000E+00  0.00000000000E+00 -0.17876829116E+03  0.17876829124E+03  0.50400001928E-02 0. -1.
    10030    2    1    2    0    0  0.00000000000E+00  0.00000000000E+00  0.63031651698E+03  0.98785309939E+03  0.76062792113E+03 0.  0.
        2    1    3    3  502    0 -0.44376091028E+02 -0.20259099048E+03 -0.98863620728E+02  0.22975282891E+03  0.25500000920E-02 0. -1.
       -2    1    3    3    0  502  0.44376091028E+02  0.20259099048E+03  0.72918013770E+03  0.75810027049E+03  0.25500000920E-02 0.  1.
</event>
<event>
 5   0  0.2422031E-02  0.7891528E+03  0.7818609E-02  0.9575852E-01
       -2   -1    0    0    0  501  0.00000000000E+00  0.00000000000E+00  0.26246421529E+03  0.26246421530E+03  0.25500000920E-02 0. -1.
        2   -1    0    0  501    0  0.00000000000E+00  0.00000000000E+00 -0.59318771110E+03  0.59318771110E+03  0.25500000920E-02 0.  1.
    10030    2    1    2    0    0  0.00000000000E+00  0.00000000000E+00 -0.33072349581E+03  0.85565192641E+03  0.78915282961E+03 0.  0.
        4    1    3    3  502    0 -0.28794516376E+02 -0.14203036883E+03  0.23256135224E+03  0.27402216205E+03  0.12699999809E+01 0. -1.
       -4    1    3    3    0  502  0.28794516376E+02  0.14203036883E+03 -0.56328484805E+03  0.58162976435E+03  0.12699999809E+01 0.  1.
</event>
<event>
 5   0  0.2460312E-02  0.7765898E+03  0.7818609E-02  0.9594535E-01
       -2   -1    0    0    0  501  0.00000000000E+00  0.00000000000E+00  0.11414040079E+03  0.11414040082E+03  0.25500000920E-02 0.  1.
        2   -1    0    0  501    0  0.00000000000E+00  0.00000000000E+00 -0.13209426375E+04  0.13209426375E+04  0.25500000920E-02 0. -1.
    10030    2    1    2    0    0  0.00000000000E+00  0.00000000000E+00 -0.12068022367E+04  0.14350830383E+04  0.77658978124E+03 0.  0.
        2    1    3    3  502    0 -0.60009026218E+02 -0.24851542276E+03 -0.63337886467E+02  0.26338695193E+03  0.25500000920E-02 0.  1.
       -2    1    3    3    0  502  0.60009026218E+02  0.24851542276E+03 -0.11434643502E+04  0.11716960864E+04  0.25500000920E-02 0. -1.
</event>
<event>
 5   0  0.1624094E-02  0.7791199E+03  0.7818609E-02  0.9590742E-01
       -1   -1    0    0    0  501  0.00000000000E+00  0.00000000000E+00  0.21132371237E+03  0.21132371243E+03  0.50400001928E-02 0. -1.
        1   -1    0    0  501    0  0.00000000000E+00  0.00000000000E+00 -0.71812544820E+03  0.71812544822E+03  0.50400001928E-02 0.  1.
    10030    2    1    2    0    0  0.00000000000E+00  0.00000000000E+00 -0.50680173583E+03  0.92944916065E+03  0.77911985137E+03 0.  0.
        3    1    3    3  502    0 -0.85323783521E+02 -0.64736169075E+02  0.19341495562E+03  0.22108883934E+03  0.10100000352E+00 0. -1.
       -3    1    3    3    0  502  0.85323783521E+02  0.64736169075E+02 -0.70021669145E+03  0.70836032131E+03  0.10100000352E+00 0.  1.
</event>
<event>
 5   0  0.1498375E-02  0.8219225E+03  0.7818609E-02  0.9528816E-01
        1   -1    0    0  501    0  0.00000000000E+00  0.00000000000E+00  0.74377744206E+03  0.74377744207E+03  0.50400001928E-02 0. -1.
       -1   -1    0    0    0  501  0.00000000000E+00  0.00000000000E+00 -0.22706944318E+03  0.22706944324E+03  0.50400001928E-02 0.  1.
    10030    2    1    2    0    0  0.00000000000E+00  0.00000000000E+00  0.51670799887E+03  0.97084688531E+03  0.82192245292E+03 0.  0.
        4    1    3    3  502    0  0.23496230053E+03  0.17486596530E+03 -0.82152942484E+02  0.30419748084E+03  0.12699999809E+01 0.  1.
       -4    1    3    3    0  502 -0.23496230053E+03 -0.17486596530E+03  0.59886094136E+03  0.66664940447E+03  0.12699999809E+01 0. -1.
</event>
<event>
 5   0  0.1509629E-02  0.8137883E+03  0.7818609E-02  0.9540271E-01
        1   -1    0    0  501    0  0.00000000000E+00  0.00000000000E+00  0.16082350972E+03  0.16082350980E+03  0.50400001928E-02 0. -1.
       -1   -1    0    0    0  501  0.00000000000E+00  0.00000000000E+00 -0.10294691269E+04  0.10294691269E+04  0.50400001928E-02 0.  1.
    10030    2    1    2    0    0  0.00000000000E+00  0.00000000000E+00 -0.86864561713E+03  0.11902926367E+04  0.81378827267E+03 0.  0.
        5    1    3    3  502    0 -0.10538509502E+03  0.60967808598E+02  0.13351510458E+03  0.18075249676E+03  0.46999998093E+01 0. -1.
       -5    1    3    3    0  502  0.10538509502E+03 -0.60967808598E+02 -0.10021607217E+04  0.10095401399E+04  0.46999998093E+01 0.  1.
</event>
<event>
 5   0  0.1498375E-02  0.7701304E+03  0.7818609E-02  0.9604288E-01
       -1   -1    0    0    0  501  0.00000000000E+00  0.00000000000E+00  0.70634340133E+03  0.70634340134E+03  0.50400001928E-02 0.  1.
        1   -1    0    0  501    0  0.00000000000E+00  0.00000000000E+00 -0.20991945709E+03  0.20991945715E+03  0.50400001928E-02 0. -1.
    10030    2    1    2    0    0  0.00000000000E+00  0.00000000000E+00  0.49642394424E+03  0.91626285849E+03  0.77013043923E+03 0.  0.
        4    1    3    3  502    0  0.25377056328E+03 -0.14320884239E+03 -0.51277579119E+02  0.29587036747E+03  0.12699999809E+01 0. -1.
       -4    1    3    3    0  502 -0.25377056328E+03  0.14320884239E+03  0.54770152336E+03  0.62039249102E+03  0.12699999809E+01 0.  1.
</event>
<event>
 5   0  0.1523811E-02  0.7851943E+03  0.7818609E-02  0.9581699E-01
       -1   -1    0    0    0  501  0.00000000000E+00  0.00000000000E+00  0.44283128308E+03  0.44283128311E+03  0.50400001928E-02 0.  1.
        1   -1    0    0  501    0  0.00000000000E+00  0.00000000000E+00 -0.34806146201E+03  0.34806146204E+03  0.50400001928E-02 0. -1.
    10030    2    1    2    0    0  0.00000000000E+00  0.00000000000E+00  0.94769821074E+02  0.79089274515E+03  0.78519425325E+03 0.  0.
        1    1    3    3  502    0  0.25636933139E+03  0.27374203437E+03 -0.69528862745E+02  0.38143701740E+03  0.50400001928E-02 0. -1.
       -1    1    3    3    0  502 -0.25636933139E+03 -0.27374203437E+03  0.16429868382E+03  0.40945572775E+03  0.50400001928E-02 0.  1.
</event>
<event>
 5   0  0.2454354E-02  0.8583747E+03  0.7818609E-02  0.9479165E-01
        2   -1    0    0  501    0  0.00000000000E+00  0.00000000000E+00  0.89466978280E+03  0.89466978280E+03  0.25500000920E-02 0.  1.
       -2   -1    0    0    0  501  0.00000000000E+00  0.00000000000E+00 -0.20588800807E+03  0.20588800809E+03  0.25500000920E-02 0. -1.
    10030    2    1    2    0    0  0.00000000000E+00  0.00000000000E+00  0.68878177473E+03  0.11005577909E+04  0.85837469551E+03 0.  0.
        5    1    3    3  502    0 -0.22620498188E+03 -0.29262376989E+03  0.62348079346E+03  0.72494672518E+03  0.46999998093E+01 0. -1.
       -5    1    3    3    0  502  0.22620498188E+03  0.29262376989E+03  0.65300981265E+02  0.37561106571E+03  0.46999998093E+01 0.  1.
</event>
<event>
 5   0  0.1498375E-02  0.7216512E+03  0.7818609E-02  0.9680906E-01
        1   -1    0    0  501    0  0.00000000000E+00  0.00000000000E+00  0.59822851665E+03  0.59822851667E+03  0.50400001928E-02 0. -1.
       -1   -1    0    0    0  501  0.00000000000E+00  0.00000000000E+00 -0.21763438569E+03  0.21763438575E+03  0.50400001928E-02 0.  1.
    10030    2    1    2    0    0  0.00000000000E+00  0.00000000000E+00  0.38059413095E+03  0.81586290242E+03  0.72165115050E+03 0.  0.
        4    1    3    3  502    0 -0.33334941153E+03 -0.27879709616E+02  0.34321156234E+03  0.47926495574E+03  0.12699999809E+01 0. -1.
       -4    1    3    3    0  502  0.33334941153E+03  0.27879709616E+02  0.37382568612E+02  0.33659794668E+03  0.12699999809E+01 0.  1.
</event>
<event>
 5   0  0.2454354E-02  0.7920266E+03  0.7818609E-02  0.9571631E-01
       -2   -1    0    0    0  501  0.00000000000E+00  0.00000000000E+00  0.53177580957E+03  0.53177580958E+03  0.25500000920E-02 0.  1.
        2   -1    0    0  501    0  0.00000000000E+00  0.00000000000E+00 -0.29491098666E+03  0.29491098667E+03  0.25500000920E-02 0. -1.
    10030    2    1    2    0    0  0.00000000000E+00  0.00000000000E+00  0.23686482292E+03  0.82668679625E+03  0.79202658715E+03 0.  0.
        5    1    3    3  502    0  0.26426228677E+03  0.24208336571E+03 -0.57358600188E+02  0.36297522116E+03  0.46999998093E+01 0. -1.
       -5    1    3    3    0  502 -0.26426228677E+03 -0.24208336571E+03  0.29422342310E+03  0.46371157508E+03  0.46999998093E+01 0.  1.
</event>
<event>
 5   0  0.2464780E-02  0.7866424E+03  0.7818609E-02  0.9579555E-01
       -2   -1    0    0    0  501  0.00000000000E+00  0.00000000000E+00  0.32128702038E+03  0.32128702039E+03  0.25500000920E-02 0. -1.
        2   -1    0    0  501    0  0.00000000000E+00  0.00000000000E+00 -0.48150586623E+03  0.48150586623E+03  0.25500000920E-02 0.  1.
    10030    2    1    2    0    0  0.00000000000E+00  0.00000000000E+00 -0.16021884585E+03  0.80279288662E+03  0.78664244753E+03 0.  0.
        3    1    3    3  502    0  0.22043319480E+03  0.28635762460E+02  0.25103793823E+03  0.33530710833E+03  0.10100000352E+00 0. -1.
       -3    1    3    3    0  502 -0.22043319480E+03 -0.28635762460E+02 -0.41125678408E+03  0.46748577830E+03  0.10100000352E+00 0.  1.
</event>
<event>
 5   0  0.2464780E-02  0.7778952E+03  0.7818609E-02  0.9592576E-01
       -2   -1    0    0    0  501  0.00000000000E+00  0.00000000000E+00  0.13302212231E+03  0.13302212233E+03  0.25500000920E-02 0.  1.
        2   -1    0    0  501    0  0.00000000000E+00  0.00000000000E+00 -0.11372562637E+04  0.11372562637E+04  0.25500000920E-02 0. -1.
    10030    2    1    2    0    0  0.00000000000E+00  0.00000000000E+00 -0.10042341414E+04  0.12702783861E+04  0.77789521615E+03 0.  0.
        3    1    3    3  502    0 -0.10130075521E+03 -0.37328096072E+03 -0.56904314442E+03  0.68804842058E+03  0.10100000352E+00 0. -1.
       -3    1    3    3    0  502  0.10130075521E+03  0.37328096072E+03 -0.43519099702E+03  0.58222996550E+03  0.10100000352E+00 0.  1.
</event>
<event>
 5   0  0.1509629E-02  0.8027287E+03  0.7818609E-02  0.9556076E-01
        1   -1    0    0  501    0  0.00000000000E+00  0.00000000000E+00  0.13833040064E+04  0.13833040064E+04  0.50400001928E-02 0. -1.
       -1   -1    0    0    0  501  0.00000000000E+00  0.00000000000E+00 -0.11645548260E+03  0.11645548270E+03  0.50400001928E-02 0.  1.
    10030    2    1    2    0    0  0.00000000000E+00  0.00000000000E+00  0.12668485238E+04  0.14997594891E+04  0.80272868575E+03 0.  0.
        5    1    3    3  502    0  0.20252277500E+03 -0.24936481640E+03  0.18396463998E+03  0.37022069744E+03  0.46999998093E+01 0.  1.
       -5    1    3    3    0  502 -0.20252277500E+03  0.24936481640E+03  0.10828838839E+04  0.11295387917E+04  0.46999998093E+01 0. -1.
</event>
<event>
 5   0  0.2454354E-02  0.8040501E+03  0.7818609E-02  0.9554173E-01
       -2   -1    0    0    0  501  0.00000000000E+00  0.00000000000E+00  0.26445754563E+03  0.26445754564E+03  0.25500000920E-02 0. -1.
        2   -1    0    0  501    0  0.00000000000E+00  0.00000000000E+00 -0.61115351314E+03  0.61115351314E+03  0.25500000920E-02 0.  1.
    10030    2    1    2    0    0  0.00000000000E+00  0.00000000000E+00 -0.34669596751E+03  0.87561105879E+03  0.80405014295E+03 0.  0.
        5    1    3    3  502    0  0.29286926637E+03  0.25130843994E+02  0.12528071569E+03  0.31956425681E+03  0.46999998093E+01 0. -1.
       -5    1    3    3    0  502 -0.29286926637E+03 -0.25130843994E+02 -0.47197668320E+03  0.55604680198E+03  0.46999998093E+01 0.  1.
</event>
<event>
 5   0  0.2464780E-02  0.7865113E+03  0.7818609E-02  0.9579749E-01
       -2   -1    0    0    0  501  0.00000000000E+00  0.00000000000E+00  0.12180633577E+03  0.12180633580E+03  0.25500000920E-02 0. -1.
        2   -1    0    0  501    0  0.00000000000E+00  0.00000000000E+00 -0.12696383783E+04  0.12696383784E+04  0.25500000920E-02 0.  1.
    10030    2    1    2    0    0  0.00000000000E+00  0.00000000000E+00 -0.11478320426E+04  0.13914447141E+04  0.78651128064E+03 0.  0.
        3    1    3    3  502    0 -0.63776960484E+02  0.24388294004E+02 -0.12590710041E+04  0.12609211288E+04  0.10100000352E+00 0.  1.
       -3    1    3    3    0  502  0.63776960484E+02 -0.24388294004E+02  0.11123896150E+03  0.13052358534E+03  0.10100000352E+00 0. -1.
</event>
<event>
 5   0  0.1523811E-02  0.7901559E+03  0.7818609E-02  0.9574376E-01
       -1   -1    0    0    0  501  0.00000000000E+00  0.00000000000E+00  0.15131602171E+03  0.15131602180E+03  0.50400001928E-02 0.  1.
        1   -1    0    0  501    0  0.00000000000E+00  0.00000000000E+00 -0.10315271257E+04  0.10315271257E+04  0.50400001928E-02 0. -1.
    10030    2    1    2    0    0  0.00000000000E+00  0.00000000000E+00 -0.88021110395E+03  0.11828431475E+04  0.79015588589E+03 0.  0.
        1    1    3    3  502    0  0.25033892226E+03  0.30550159323E+03 -0.42624082816E+03  0.58110415855E+03  0.50400001928E-02 0. -1.
       -1    1    3    3    0  502 -0.25033892226E+03 -0.30550159323E+03 -0.45397027579E+03  0.60173898892E+03  0.50400001928E-02 0.  1.
</event>
<event>
 5   0  0.1624094E-02  0.7870060E+03  0.7818609E-02  0.9579018E-01
       -1   -1    0    0    0  501  0.00000000000E+00  0.00000000000E+00  0.58516673355E+03  0.58516673357E+03  0.50400001928E-02 0. -1.
        1   -1    0    0  501    0  0.00000000000E+00  0.00000000000E+00 -0.26461621050E+03  0.26461621055E+03  0.50400001928E-02 0.  1.
    10030    2    1    2    0    0  0.00000000000E+00  0.00000000000E+00  0.32055052304E+03  0.84978294412E+03  0.78700598111E+03 0.  0.
        3    1    3    3  502    0 -0.35867964586E+02 -0.37285719829E+03  0.30094639623E+02  0.37578544242E+03  0.10100000352E+00 0. -1.
       -3    1    3    3    0  502  0.35867964586E+02  0.37285719829E+03  0.29045588342E+03  0.47399750170E+03  0.10100000352E+00 0.  1.
</event>
<event>
 5   0  0.1471290E-02  0.7985829E+03  0.7818609E-02  0.9562071E-01
       -1   -1    0    0    0  501  0.00000000000E+00  0.00000000000E+00  0.67787887808E+03  0.67787887810E+03  0.50400001928E-02 0. -1.
        1   -1    0    0  501    0  0.00000000000E+00  0.00000000000E+00 -0.23519489833E+03  0.23519489839E+03  0.50400001928E-02 0.  1.
    10030    2    1    2    0    0  0.00000000000E+00  0.00000000000E+00  0.44268397975E+03  0.91307377649E+03  0.79858287947E+03 0.  0.
        2    1    3    3  502    0 -0.12340166828E+03 -0.28589991275E+03 -0.64424255151E+02  0.31798933394E+03  0.25500000920E-02 0.  1.
       -2    1    3    3    0  502  0.12340166828E+03  0.28589991275E+03  0.50710823490E+03  0.59508444254E+03  0.25500000920E-02 0. -1.
</event>
<event>
 5   0  0.9919125E-03  0.8006519E+03  0.7818609E-02  0.9559074E-01
        3   -1    0    0  501    0  0.00000000000E+00  0.00000000000E+00  0.52825556420E+03  0.52825557386E+03  0.10100000352E+00 0. -1.
       -3   -1    0    0    0  501  0.00000000000E+00  0.00000000000E+00 -0.30337750682E+03  0.30337752364E+03  0.10100000352E+00 0.  1.
    10030    2    1    2    0    0  0.00000000000E+00  0.00000000000E+00  0.22487805738E+03  0.83163309749E+03  0.80065190199E+03 0.  0.
        3    1    3    3  502    0  0.35720060473E+03 -0.16850289895E+03  0.44522690582E+02  0.39745160605E+03  0.10100000352E+00 0. -1.
       -3    1    3    3    0  502 -0.35720060473E+03  0.16850289895E+03  0.18035536679E+03  0.43418149144E+03  0.10100000352E+00 0.  1.
</event>
<event>
 5   0  0.2571778E-02  0.8003285E+03  0.7818609E-02  0.9559542E-01
       -2   -1    0    0    0  501  0.00000000000E+00  0.00000000000E+00  0.21681663548E+03  0.21681663549E+03  0.25500000920E-02 0. -1.
        2   -1    0    0  501    0  0.00000000000E+00  0.00000000000E+00 -0.73855685165E+03  0.73855685166E+03  0.25500000920E-02 0.  1.
    10030    2    1    2    0    0  0.00000000000E+00  0.00000000000E+00 -0.52174021617E+03  0.95537348715E+03  0.80032846181E+03 0.  0.
        1    1    3    3  502    0  0.12303975788E+03 -0.12314959220E+02 -0.71517837279E+03  0.72578960117E+03  0.50400001928E-02 0.  1.
       -1    1    3    3    0  502 -0.12303975788E+03  0.12314959220E+02  0.19343815662E+03  0.22958388598E+03  0.50400001928E-02 0. -1.
</event>
<event>
 5   0  0.2454354E-02  0.6719849E+03  0.7818609E-02  0.9766379E-01
        2   -1    0    0  501    0  0.00000000000E+00  0.00000000000E+00  0.40256960100E+03  0.40256960101E+03  0.25500000920E-02 0.  1.
       -2   -1    0    0    0  501  0.00000000000E+00  0.00000000000E+00 -0.28042583487E+03  0.28042583488E+03  0.25500000920E-02 0. -1.
    10030    2    1    2    0    0  0.00000000000E+00  0.00000000000E+00  0.12214376613E+03  0.68299543588E+03  0.67198487024E+03 0.  0.
        5    1    3    3  502    0 -0.27182439282E+02  0.32928344507E+02 -0.27762337184E+03  0.28092701449E+03  0.46999998093E+01 0. -1.
       -5    1    3    3    0  502  0.27182439282E+02 -0.32928344507E+02  0.39976713798E+03  0.40206842139E+03  0.46999998093E+01 0.  1.
</event>
<event>
 5   0  0.2460312E-02  0.7990735E+03  0.7818609E-02  0.9561359E-01
        2   -1    0    0  501    0  0.00000000000E+00  0.00000000000E+00  0.49959073195E+03  0.49959073196E+03  0.25500000920E-02 0.  1.
       -2   -1    0    0    0  501  0.00000000000E+00  0.00000000000E+00 -0.31952073577E+03  0.31952073578E+03  0.25500000920E-02 0. -1.
    10030    2    1    2    0    0  0.00000000000E+00  0.00000000000E+00  0.18006999618E+03  0.81911146774E+03  0.79907345911E+03 0.  0.
        2    1    3    3  502    0  0.12542361962E+03  0.30795207319E+03  0.31709358401E+03  0.45947133182E+03  0.25500000920E-02 0.  1.
       -2    1    3    3    0  502 -0.12542361962E+03 -0.30795207319E+03 -0.13702358782E+03  0.35964013592E+03  0.25500000920E-02 0. -1.
</event>
<event>
 5   0  0.2464780E-02  0.7352987E+03  0.7818609E-02  0.9658701E-01
       -2   -1    0    0    0  501  0.00000000000E+00  0.00000000000E+00  0.96896367103E+02  0.96896367137E+02  0.25500000920E-02 0. -1.
        2   -1    0    0  501    0  0.00000000000E+00  0.00000000000E+00 -0.13949547508E+04  0.13949547508E+04  0.25500000920E-02 0.  1.
    10030    2    1    2    0    0  0.00000000000E+00  0.00000000000E+00 -0.12980583837E+04  0.14918511179E+04  0.73529870842E+03 0.  0.
        3    1    3    3  502    0  0.15765218348E+03 -0.20651240421E+03 -0.11767958741E+04  0.12051348985E+04  0.10100000352E+00 0.  1.
       -3    1    3    3    0  502 -0.15765218348E+03  0.20651240421E+03 -0.12126250956E+03  0.28671621942E+03  0.10100000352E+00 0. -1.
</event>
<event>
 5   0  0.1471290E-02  0.8065654E+03  0.7818609E-02  0.9550562E-01
        1   -1    0    0  501    0  0.00000000000E+00  0.00000000000E+00  0.72822219591E+03  0.72822219593E+03  0.50400001928E-02 0.  1.
       -1   -1    0    0    0  501  0.00000000000E+00  0.00000000000E+00 -0.22333420581E+03  0.22333420587E+03  0.50400001928E-02 0. -1.
    10030    2    1    2    0    0  0.00000000000E+00  0.00000000000E+00  0.50488799010E+03  0.95155640179E+03  0.80656537444E+03 0.  0.
        2    1    3    3  502    0 -0.31845238267E+03 -0.16084393913E+03  0.47427164150E+03  0.59347812321E+03  0.25500000920E-02 0. -1.
       -2    1    3    3    0  502  0.31845238267E+03  0.16084393913E+03  0.30616348596E+02  0.35807827858E+03  0.25500000920E-02 0.  1.
</event>
<event>
 5   0  0.1523811E-02  0.8142457E+03  0.7818609E-02  0.9539623E-01
        1   -1    0    0  501    0  0.00000000000E+00  0.00000000000E+00  0.94642596189E+03  0.94642596191E+03  0.50400001928E-02 0.  1.
       -1   -1    0    0    0  501  0.00000000000E+00  0.00000000000E+00 -0.17513152817E+03  0.17513152824E+03  0.50400001928E-02 0. -1.
    10030    2    1    2    0    0  0.00000000000E+00  0.00000000000E+00  0.77129443372E+03  0.11215574902E+04  0.81424572472E+03 0.  0.
        1    1    3    3  502    0  0.57575916156E+02 -0.40266865936E+03  0.36211028762E+03  0.54459241253E+03  0.50400001928E-02 0.  1.
       -1    1    3    3    0  502 -0.57575916156E+02  0.40266865936E+03  0.40918414610E+03  0.57696507763E+03  0.50400001928E-02 0. -1.
</event>
<event>
 5   0  0.2464780E-02  0.7945271E+03  0.7818609E-02  0.9567973E-01
        2   -1    0    0  501    0  0.00000000000E+00  0.00000000000E+00  0.65399611236E+03  0.65399611237E+03  0.25500000920E-02 0. -1.
       -2   -1    0    0    0  501  0.00000000000E+00  0.00000000000E+00 -0.24131389221E+03  0.24131389222E+03  0.25500000920E-02 0.  1.
    10030    2    1    2    0    0  0.00000000000E+00  0.00000000000E+00  0.41268222015E+03  0.89531000459E+03  0.79452714836E+03 0.  0.
        3    1    3    3  502    0 -0.36671488516E+03  0.64922739513E+02  0.50511795934E+02  0.37582738170E+03  0.10100000352E+00 0.  1.
       -3    1    3    3    0  502  0.36671488516E+03 -0.64922739513E+02  0.36217042422E+03  0.51948262289E+03  0.10100000352E+00 0. -1.
</event>
<event>
 5   0  0.2454354E-02  0.8130558E+03  0.7818609E-02  0.9541309E-01
       -2   -1    0    0    0  501  0.00000000000E+00  0.00000000000E+00  0.16969881427E+03  0.16969881429E+03  0.25500000920E-02 0. -1.
        2   -1    0    0  501    0  0.00000000000E+00  0.00000000000E+00 -0.97387216088E+03  0.97387216089E+03  0.25500000920E-02 0.  1.
    10030    2    1    2    0    0  0.00000000000E+00  0.00000000000E+00 -0.80417334662E+03  0.11435709752E+04  0.81305584301E+03 0.  0.
        5    1    3    3  502    0  0.28275888877E+03 -0.53349435962E+02 -0.80593897691E+03  0.85577945524E+03  0.46999998093E+01 0.  1.
       -5    1    3    3    0  502 -0.28275888877E+03  0.53349435962E+02  0.17656302971E+01  0.28779151993E+03  0.46999998093E+01 0. -1.
</event>
<event>
 5   0  0.1624094E-02  0.7949764E+03  0.7818609E-02  0.9567317E-01
        1   -1    0    0  501    0  0.00000000000E+00  0.00000000000E+00  0.13467349994E+03  0.13467350003E+03  0.50400001928E-02 0.  1.
       -1   -1    0    0    0  501  0.00000000000E+00  0.00000000000E+00 -0.11731845857E+04  0.11731845857E+04  0.50400001928E-02 0. -1.
    10030    2    1    2    0    0  0.00000000000E+00  0.00000000000E+00 -0.10385110857E+04  0.13078580857E+04  0.79497641296E+03 0.  0.
        3    1    3    3  502    0 -0.15921154325E+03  0.15725700417E+03  0.21193682201E+02  0.22478270225E+03  0.10100000352E+00 0.  1.
       -3    1    3    3    0  502  0.15921154325E+03 -0.15725700417E+03 -0.10597047679E+04  0.10830753835E+04  0.10100000352E+00 0. -1.
</event>
<event>
 5   0  0.1471290E-02  0.7945458E+03  0.7818609E-02  0.9567946E-01
        1   -1    0    0  501    0  0.00000000000E+00  0.00000000000E+00  0.10677363188E+03  0.10677363200E+03  0.50400001928E-02 0.  1.
       -1   -1    0    0    0  501  0.00000000000E+00  0.00000000000E+00 -0.14781341495E+04  0.14781341495E+04  0.50400001928E-02 0. -1.
    10030    2    1    2    0    0  0.00000000000E+00  0.00000000000E+00 -0.13713605176E+04  0.15849077815E+04  0.79454578633E+03 0.  0.
        2    1    3    3  502    0  0.21676000936E+01 -0.29057479847E+03 -0.14530477040E+03  0.32488750099E+03  0.25500000920E-02 0.  1.
       -2    1    3    3    0  502 -0.21676000936E+01  0.29057479847E+03 -0.12260557472E+04  0.12600202805E+04  0.25500000920E-02 0. -1.
</event>
<event>
 5   0  0.1471290E-02  0.7962549E+03  0.7818609E-02  0.9565454E-01
        1   -1    0    0  501    0  0.00000000000E+00  0.00000000000E+00  0.36581925826E+03  0.36581925830E+03  0.50400001928E-02 0. -1.
       -1   -1    0    0    0  501  0.00000000000E+00  0.00000000000E+00 -0.43328905781E+03  0.43328905784E+03  0.50400001928E-02 0.  1.
    10030    2    1    2    0    0  0.00000000000E+00  0.00000000000E+00 -0.67469799548E+02  0.79910831613E+03  0.79625493849E+03 0.  0.
        2    1    3    3  502    0  0.36113914389E+03 -0.13331132431E+03 -0.13564726628E+03  0.40815875747E+03  0.25500000920E-02 0.  1.
       -2    1    3    3    0  502 -0.36113914389E+03  0.13331132431E+03  0.68177466735E+02  0.39094955866E+03  0.25500000920E-02 0. -1.
</event>
<event>
 5   0  0.2422031E-02  0.8029528E+03  0.7818609E-02  0.9555753E-01
        2   -1    0    0  501    0  0.00000000000E+00  0.00000000000E+00  0.25280730395E+03  0.25280730396E+03  0.25500000920E-02 0.  1.
       -2   -1    0    0    0  501  0.00000000000E+00  0.00000000000E+00 -0.63757371066E+03  0.63757371066E+03  0.25500000920E-02 0. -1.
    10030    2    1    2    0    0  0.00000000000E+00  0.00000000000E+00 -0.38476640671E+03  0.89038101462E+03  0.80295277785E+03 0.  0.
        4    1    3    3  502    0 -0.29276757617E+03  0.18769482793E+03  0.30056365097E+02  0.34906618294E+03  0.12699999809E+01 0.  1.
       -4    1    3    3    0  502  0.29276757617E+03 -0.18769482793E+03 -0.41482277181E+03  0.54131483168E+03  0.12699999809E+01 0. -1.
</event>
<event>
 5   0  0.1509629E-02  0.7749587E+03  0.7818609E-02  0.9596988E-01
       -1   -1    0    0    0  501  0.00000000000E+00  0.00000000000E+00  0.12633823761E+03  0.12633823771E+03  0.50400001928E-02 0. -1.
        1   -1    0    0  501    0  0.00000000000E+00  0.00000000000E+00 -0.11883990401E+04  0.11883990401E+04  0.50400001928E-02 0.  1.
    10030    2    1    2    0    0  0.00000000000E+00  0.00000000000E+00 -0.10620608025E+04  0.13147372778E+04  0.77495868372E+03 0.  0.
        5    1    3    3  502    0 -0.13128175179E+03 -0.17180590203E+03 -0.10764732469E+04  0.10979840197E+04  0.46999998093E+01 0.  1.
       -5    1    3    3    0  502  0.13128175179E+03  0.17180590203E+03  0.14412444426E+02  0.21675325805E+03  0.46999998093E+01 0. -1.
</event>
<event>
 5   0  0.2454354E-02  0.7967264E+03  0.7818609E-02  0.9564768E-01
       -2   -1    0    0    0  501  0.00000000000E+00  0.00000000000E+00  0.96977522902E+02  0.96977522936E+02  0.25500000920E-02 0. -1.
        2   -1    0    0  501    0  0.00000000000E+00  0.00000000000E+00 -0.16363919651E+04  0.16363919651E+04  0.25500000920E-02 0.  1.
    10030    2    1    2    0    0  0.00000000000E+00  0.00000000000E+00 -0.15394144422E+04  0.17333694880E+04  0.79672640048E+03 0.  0.
        5    1    3    3  502    0 -0.19955721938E+03 -0.31621768286E+03 -0.47097037784E+03  0.60137500244E+03  0.46999998093E+01 0. -1.
       -5    1    3    3    0  502  0.19955721938E+03  0.31621768286E+03 -0.10684440644E+04  0.11319944856E+04  0.46999998093E+01 0.  1.
</event>
<event>
 5   0  0.1471290E-02  0.8365231E+03  0.7818609E-02  0.9508606E-01
        1   -1    0    0  501    0  0.00000000000E+00  0.00000000000E+00  0.91155836846E+03  0.91155836847E+03  0.50400001928E-02 0.  1.
       -1   -1    0    0    0  501  0.00000000000E+00  0.00000000000E+00 -0.19191607715E+03  0.19191607722E+03  0.50400001928E-02 0. -1.
    10030    2    1    2    0    0  0.00000000000E+00  0.00000000000E+00  0.71964229131E+03  0.11034744457E+04  0.83652305698E+03 0.  0.
        2    1    3    3  502    0 -0.19036416356E+03 -0.31909053178E+03  0.10647648593E+03  0.38651587846E+03  0.25500000920E-02 0. -1.
       -2    1    3    3    0  502  0.19036416356E+03  0.31909053178E+03  0.61316580538E+03  0.71695856724E+03  0.25500000920E-02 0.  1.
</event>
<event>
 5   0  0.9919125E-03  0.8010439E+03  0.7818609E-02  0.9558507E-01
        3   -1    0    0  501    0  0.00000000000E+00  0.00000000000E+00  0.71030248221E+03  0.71030248939E+03  0.10100000352E+00 0. -1.
       -3   -1    0    0    0  501  0.00000000000E+00  0.00000000000E+00 -0.22584435854E+03  0.22584438113E+03  0.10100000352E+00 0.  1.
    10030    2    1    2    0    0  0.00000000000E+00  0.00000000000E+00  0.48445812367E+03  0.93614687052E+03  0.80104387495E+03 0.  0.
        5    1    3    3  502    0  0.17715243742E+03  0.32580922602E+03  0.65529205764E+02  0.37663085993E+03  0.46999998093E+01 0.  1.
       -5    1    3    3    0  502 -0.17715243742E+03 -0.32580922602E+03  0.41892891791E+03  0.55951601059E+03  0.46999998093E+01 0. -1.
</event>
<event>
 5   0  0.2571778E-02  0.8023740E+03  0.7818609E-02  0.9556587E-01
       -2   -1    0    0    0  501  0.00000000000E+00  0.00000000000E+00  0.14783706944E+03  0.14783706946E+03  0.25500000920E-02 0. -1.
        2   -1    0    0  501    0  0.00000000000E+00  0.00000000000E+00 -0.10887053206E+04  0.10887053206E+04  0.25500000920E-02 0.  1.
    10030    2    1    2    0    0  0.00000000000E+00  0.00000000000E+00 -0.94086825115E+03  0.12365423901E+04  0.80237398786E+03 0.  0.
        1    1    3    3  502    0 -0.83630013653E+02 -0.15291547479E+03 -0.10273124666E+04  0.10419923347E+04  0.50400001928E-02 0.  1.
       -1    1    3    3    0  502  0.83630013653E+02  0.15291547479E+03  0.86444215446E+02  0.19455005532E+03  0.50400001928E-02 0. -1.
</event>
<event>
 5   0  0.1624094E-02  0.7992460E+03  0.7818609E-02  0.9561109E-01
        1   -1    0    0  501    0  0.00000000000E+00  0.00000000000E+00  0.32324719852E+03  0.32324719856E+03  0.50400001928E-02 0.  1.
       -1   -1    0    0    0  501  0.00000000000E+00  0.00000000000E+00 -0.49404457654E+03  0.49404457657E+03  0.50400001928E-02 0. -1.
    10030    2    1    2    0    0  0.00000000000E+00  0.00000000000E+00 -0.17079737802E+03  0.81729177513E+03  0.79924595798E+03 0.  0.
        3    1    3    3  502    0  0.20452668876E+03 -0.16089642036E+03 -0.39552788416E+03  0.47345658919E+03  0.10100000352E+00 0. -1.
       -3    1    3    3    0  502 -0.20452668876E+03  0.16089642036E+03  0.22473050614E+03  0.34383518594E+03  0.10100000352E+00 0.  1.
</event>
<event>
 5   0  0.9919125E-03  0.8020598E+03  0.7818609E-02  0.9557040E-01
       -4   -1    0    0    0  501  0.00000000000E+00  0.00000000000E+00  0.36412147099E+03  0.36412368577E+03  0.12699999809E+01 0. -1.
        4   -1    0    0  501    0  0.00000000000E+00  0.00000000000E+00 -0.44167502311E+03  0.44167684899E+03  0.12699999809E+01 0.  1.
    10030    2    1    2    0    0  0.00000000000E+00  0.00000000000E+00 -0.77553552115E+02  0.80580053476E+03  0.80205981596E+03 0.  0.
        4    1    3    3  502    0 -0.57161772833E+02 -0.17989816173E+03  0.31669903064E+03  0.36868781614E+03  0.12699999809E+01 0. -1.
       -4    1    3    3    0  502  0.57161772833E+02  0.17989816173E+03 -0.39425258275E+03  0.43711271861E+03  0.12699999809E+01 0.  1.
</event>
<event>
 5   0  0.2460312E-02  0.7979186E+03  0.7818609E-02  0.9563035E-01
        2   -1    0    0  501    0  0.00000000000E+00  0.00000000000E+00  0.67530668854E+03  0.67530668854E+03  0.25500000920E-02 0. -1.
       -2   -1    0    0    0  501  0.00000000000E+00  0.00000000000E+00 -0.23569809966E+03  0.23569809967E+03  0.25500000920E-02 0.  1.
    10030    2    1    2    0    0  0.00000000000E+00  0.00000000000E+00  0.43960858888E+03  0.91100478821E+03  0.79791855018E+03 0.  0.
        2    1    3    3  502    0  0.43238568586E+02  0.39420460334E+03  0.17001585184E+03  0.43147680469E+03  0.25500000920E-02 0.  1.
       -2    1    3    3    0  502 -0.43238568586E+02 -0.39420460334E+03  0.26959273704E+03  0.47952798352E+03  0.25500000920E-02 0. -1.
</event>
<event>
 5   0  0.2460312E-02  0.7964147E+03  0.7818609E-02  0.9565221E-01
        2   -1    0    0  501    0  0.00000000000E+00  0.00000000000E+00  0.21277712804E+03  0.21277712806E+03  0.25500000920E-02 0.  1.
       -2   -1    0    0    0  501  0.00000000000E+00  0.00000000000E+00 -0.74523567326E+03  0.74523567326E+03  0.25500000920E-02 0. -1.
    10030    2    1    2    0    0  0.00000000000E+00  0.00000000000E+00 -0.53245854522E+03  0.95801280132E+03  0.79641473186E+03 0.  0.
        2    1    3    3  502    0  0.31227639421E+03  0.11086657725E+03 -0.53185433562E+03  0.62663943273E+03  0.25500000920E-02 0. -1.
       -2    1    3    3    0  502 -0.31227639421E+03 -0.11086657725E+03 -0.60420959855E+00  0.33137336859E+03  0.25500000920E-02 0.  1.
</event>
<event>
 5   0  0.2422031E-02  0.8121592E+03  0.7818609E-02  0.9542582E-01
        2   -1    0    0  501    0  0.00000000000E+00  0.00000000000E+00  0.53204009323E+03  0.53204009323E+03  0.25500000920E-02 0.  1.
       -2   -1    0    0    0  501  0.00000000000E+00  0.00000000000E+00 -0.30994028517E+03  0.30994028518E+03  0.25500000920E-02 0. -1.
    10030    2    1    2    0    0  0.00000000000E+00  0.00000000000E+00  0.22209980806E+03  0.84198037841E+03  0.81215924109E+03 0.  0.
        4    1    3    3  502    0 -0.20140297513E+03 -0.70043824813E+02  0.46932534671E+03  0.51549703175E+03  0.12699999809E+01 0.  1.
       -4    1    3    3    0  502  0.20140297513E+03  0.70043824813E+02 -0.24722553865E+03  0.32648334666E+03  0.12699999809E+01 0. -1.
</event>
<event>
 5   0  0.2460312E-02  0.8191529E+03  0.7818609E-02  0.9532701E-01
        2   -1    0    0  501    0  0.00000000000E+00  0.00000000000E+00  0.40002949837E+03  0.40002949838E+03  0.25500000920E-02 0. -1.
       -2   -1    0    0    0  501  0.00000000000E+00  0.00000000000E+00 -0.41935122038E+03  0.41935122039E+03  0.25500000920E-02 0.  1.
    10030    2    1    2    0    0  0.00000000000E+00  0.00000000000E+00 -0.19321722008E+02  0.81938071877E+03  0.81915287545E+03 0.  0.
        2    1    3    3  502    0 -0.37264001456E+02 -0.13344951743E+02  0.39811190092E+03  0.40007471703E+03  0.25500000920E-02 0. -1.
       -2    1    3    3    0  502  0.37264001456E+02  0.13344951743E+02 -0.41743362293E+03  0.41930600175E+03  0.25500000920E-02 0.  1.
</event>
<event>
 5   0  0.2460312E-02  0.8049503E+03  0.7818609E-02  0.9552879E-01
        2   -1    0    0  501    0  0.00000000000E+00  0.00000000000E+00  0.23480491879E+03  0.23480491880E+03  0.25500000920E-02 0. -1.
       -2   -1    0    0    0  501  0.00000000000E+00  0.00000000000E+00 -0.68987581977E+03  0.68987581977E+03  0.25500000920E-02 0.  1.
    10030    2    1    2    0    0  0.00000000000E+00  0.00000000000E+00 -0.45507090098E+03  0.92468073857E+03  0.80495027385E+03 0.  0.
        2    1    3    3  502    0  0.34896350891E+03  0.89501235552E+02 -0.43367070481E+03  0.56378744393E+03  0.25500000920E-02 0.  1.
       -2    1    3    3    0  502 -0.34896350891E+03 -0.89501235552E+02 -0.21400196175E+02  0.36089329464E+03  0.25500000920E-02 0. -1.
</event>
<event>
 5   0  0.2464780E-02  0.7978903E+03  0.7818609E-02  0.9563076E-01
       -2   -1    0    0    0  501  0.00000000000E+00  0.00000000000E+00  0.22756057160E+03  0.22756057162E+03  0.25500000920E-02 0.  1.
        2   -1    0    0  501    0  0.00000000000E+00  0.00000000000E+00 -0.69940601579E+03  0.69940601579E+03  0.25500000920E-02 0. -1.
    10030    2    1    2    0    0  0.00000000000E+00  0.00000000000E+00 -0.47184544418E+03  0.92696658741E+03  0.79789030009E+03 0.  0.
        3    1    3    3  502    0 -0.33764922515E+03  0.18076464766E+03 -0.36567952204E+03  0.52953222766E+03  0.10100000352E+00 0.  1.
       -3    1    3    3    0  502  0.33764922515E+03 -0.18076464766E+03 -0.10616592214E+03  0.39743435975E+03  0.10100000352E+00 0. -1.
</event>
<event>
 5   0  0.1471290E-02  0.7829806E+03  0.7818609E-02  0.9584984E-01
       -1   -1    0    0    0  501  0.00000000000E+00  0.00000000000E+00  0.74345993350E+02  0.74345993521E+02  0.50400001928E-02 0. -1.
        1   -1    0    0  501    0  0.00000000000E+00  0.00000000000E+00 -0.20615050949E+04  0.20615050949E+04  0.50400001928E-02 0.  1.
    10030    2    1    2    0    0  0.00000000000E+00  0.00000000000E+00 -0.19871591016E+04  0.21358510885E+04  0.78298057260E+03 0.  0.
        2    1    3    3  502    0  0.10975558084E+03 -0.36333115820E+03 -0.12553509067E+04  0.13114731096E+04  0.25500000920E-02 0.  1.
       -2    1    3    3    0  502 -0.10975558084E+03  0.36333115820E+03 -0.73180819483E+03  0.82437797889E+03  0.25500000920E-02 0. -1.
</event>
<event>
 5   0  0.1523811E-02  0.7956786E+03  0.7818609E-02  0.9566293E-01
       -1   -1    0    0    0  501  0.00000000000E+00  0.00000000000E+00  0.17688027025E+03  0.17688027032E+03  0.50400001928E-02 0. -1.
        1   -1    0    0  501    0  0.00000000000E+00  0.00000000000E+00 -0.89482058810E+03  0.89482058811E+03  0.50400001928E-02 0.  1.
    10030    2    1    2    0    0  0.00000000000E+00  0.00000000000E+00 -0.71794031785E+03  0.10717008584E+04  0.79567859716E+03 0.  0.
        1    1    3    3  502    0 -0.17670468402E+03 -0.28678570653E+03 -0.64407307969E+03  0.72684298086E+03  0.50400001928E-02 0.  1.
       -1    1    3    3    0  502  0.17670468402E+03  0.28678570653E+03 -0.73867238158E+02  0.34485787757E+03  0.50400001928E-02 0. -1.
</event>
<event>
 5   0  0.1624094E-02  0.8074627E+03  0.7818609E-02  0.9549277E-01
       -1   -1    0    0    0  501  0.00000000000E+00  0.00000000000E+00  0.32025476069E+03  0.32025476073E+03  0.50400001928E-02 0. -1.
        1   -1    0    0  501    0  0.00000000000E+00  0.00000000000E+00 -0.50896672734E+03  0.50896672737E+03  0.50400001928E-02 0.  1.
    10030    2    1    2    0    0  0.00000000000E+00  0.00000000000E+00 -0.18871196665E+03  0.82922148810E+03  0.80746273596E+03 0.  0.
        3    1    3    3  502    0  0.10688186716E+02 -0.79156747642E+02 -0.50077147440E+03  0.50710167403E+03  0.10100000352E+00 0.  1.
       -3    1    3    3    0  502 -0.10688186716E+02  0.79156747642E+02  0.31205950775E+03  0.32211981406E+03  0.10100000352E+00 0. -1.
</event>
<event>
 5   0  0.9919125E-03  0.7949411E+03  0.7818609E-02  0.9567369E-01
       -3   -1    0    0    0  501  0.00000000000E+00  0.00000000000E+00  0.56520019630E+03  0.56520020532E+03  0.10100000352E+00 0. -1.
        3   -1    0    0  501    0  0.00000000000E+00  0.00000000000E+00 -0.27951659711E+03  0.27951661536E+03  0.10100000352E+00 0.  1.
    10030    2    1    2    0    0  0.00000000000E+00  0.00000000000E+00  0.28568359919E+03  0.84471682068E+03  0.79494112253E+03 0.  0.
        3    1    3    3  502    0  0.68270572528E+02  0.32573831282E+03  0.37374138545E+03  0.50044875153E+03  0.10100000352E+00 0. -1.
       -3    1    3    3    0  502 -0.68270572528E+02 -0.32573831282E+03 -0.88057786264E+02  0.34426806915E+03  0.10100000352E+00 0.  1.
</event>
<event>
 5   0  0.1471290E-02  0.8078627E+03  0.7818609E-02  0.9548705E-01
        1   -1    0    0  501    0  0.00000000000E+00  0.00000000000E+00  0.15378469912E+04  0.15378469913E+04  0.50400001928E-02 0.  1.
       -1   -1    0    0    0  501  0.00000000000E+00  0.00000000000E+00 -0.10609672753E+03  0.10609672765E+03  0.50400001928E-02 0. -1.
    10030    2    1    2    0    0  0.00000000000E+00  0.00000000000E+00  0.14317502637E+04  0.16439437189E+04  0.80786269457E+03 0.  0.
        2    1    3    3  502    0 -0.17504978851E+03 -0.60552940634E+02 -0.14580833523E+02  0.18580012861E+03  0.25500000920E-02 0. -1.
       -2    1    3    3    0  502  0.17504978851E+03  0.60552940634E+02  0.14463310972E+04  0.14581435903E+04  0.25500000920E-02 0.  1.
</event>
<event>
 5   0  0.1523811E-02  0.8000811E+03  0.7818609E-02  0.9559900E-01
       -1   -1    0    0    0  501  0.00000000000E+00  0.00000000000E+00  0.14643903233E+03  0.14643903241E+03  0.50400001928E-02 0. -1.
        1   -1    0    0  501    0  0.00000000000E+00  0.00000000000E+00 -0.10928263628E+04  0.10928263628E+04  0.50400001928E-02 0.  1.
    10030    2    1    2    0    0  0.00000000000E+00  0.00000000000E+00 -0.94638733044E+03  0.12392653952E+04  0.80008108371E+03 0.  0.
        1    1    3    3  502    0  0.17277896806E+03 -0.27842016556E+03 -0.82864430699E+03  0.89107897962E+03  0.50400001928E-02 0.  1.
       -1    1    3    3    0  502 -0.17277896806E+03  0.27842016556E+03 -0.11774302345E+03  0.34818641557E+03  0.50400001928E-02 0. -1.
</event>
<event>
 5   0  0.2422031E-02  0.7880996E+03  0.7818609E-02  0.9577404E-01
        2   -1    0    0  501    0  0.00000000000E+00  0.00000000000E+00  0.67285508639E+03  0.67285508640E+03  0.25500000920E-02 0. -1.
       -2   -1    0    0    0  501  0.00000000000E+00  0.00000000000E+00 -0.23077070642E+03  0.23077070643E+03  0.25500000920E-02 0.  1.
    10030    2    1    2    0    0  0.00000000000E+00  0.00000000000E+00  0.44208437998E+03  0.90362579283E+03  0.78809959678E+03 0.  0.
        4    1    3    3  502    0  0.14304360609E+03 -0.32897865510E+02  0.64033918871E+03  0.65694720663E+03  0.12699999809E+01 0. -1.
       -4    1    3    3    0  502 -0.14304360609E+03  0.32897865510E+02 -0.19825480874E+03  0.24667858620E+03  0.12699999809E+01 0.  1.
</event>
<event>
 5   0  0.2422031E-02  0.8022286E+03  0.7818609E-02  0.9556797E-01
       -2   -1    0    0    0  501  0.00000000000E+00  0.00000000000E+00  0.43607128305E+03  0.43607128306E+03  0.25500000920E-02 0. -1.
        2   -1    0    0  501    0  0.00000000000E+00  0.00000000000E+00 -0.36895957188E+03  0.36895957189E+03  0.25500000920E-02 0.  1.
    10030    2    1    2    0    0  0.00000000000E+00  0.00000000000E+00  0.67111711175E+02  0.80503085495E+03  0.80222858067E+03 0.  0.
        4    1    3    3  502    0  0.36173622810E+03  0.11786416036E+03  0.16106663393E+03  0.41314541324E+03  0.12699999809E+01 0. -1.
       -4    1    3    3    0  502 -0.36173622810E+03 -0.11786416036E+03 -0.93954922759E+02  0.39188544171E+03  0.12699999809E+01 0.  1.
</event>
<event>
 5   0  0.2460312E-02  0.7259169E+03  0.7818609E-02  0.9673909E-01
        2   -1    0    0  501    0  0.00000000000E+00  0.00000000000E+00  0.12198396844E+04  0.12198396844E+04  0.25500000920E-02 0.  1.
       -2   -1    0    0    0  501  0.00000000000E+00  0.00000000000E+00 -0.10799684752E+03  0.10799684755E+03  0.25500000920E-02 0. -1.
    10030    2    1    2    0    0  0.00000000000E+00  0.00000000000E+00  0.11118428369E+04  0.13278365320E+04  0.72591691099E+03 0.  0.
        2    1    3    3  502    0 -0.26452201225E+03  0.96793485538E+02  0.97463294439E+03  0.10145197140E+04  0.25500000920E-02 0.  1.
       -2    1    3    3    0  502  0.26452201225E+03 -0.96793485538E+02  0.13720989251E+03  0.31331681796E+03  0.25500000920E-02 0. -1.
</event>
<event>
 5   0  0.1509629E-02  0.7945241E+03  0.7818609E-02  0.9567977E-01
       -1   -1    0    0    0  501  0.00000000000E+00  0.00000000000E+00  0.13792238790E+03  0.13792238800E+03  0.50400001928E-02 0. -1.
        1   -1    0    0  501    0  0.00000000000E+00  0.00000000000E+00 -0.11442460458E+04  0.11442460458E+04  0.50400001928E-02 0.  1.
    10030    2    1    2    0    0  0.00000000000E+00  0.00000000000E+00 -0.10063236579E+04  0.12821684338E+04  0.79452412689E+03 0.  0.
        5    1    3    3  502    0 -0.14412343060E+03 -0.36743518547E+03 -0.43072450479E+03  0.58423100551E+03  0.46999998093E+01 0. -1.
       -5    1    3    3    0  502  0.14412343060E+03  0.36743518547E+03 -0.57559915309E+03  0.69793742829E+03  0.46999998093E+01 0.  1.
</event>
<event>
 5   0  0.1498375E-02  0.7960470E+03  0.7818609E-02  0.9565757E-01
       -1   -1    0    0    0  501  0.00000000000E+00  0.00000000000E+00  0.59440451569E+03  0.59440451572E+03  0.50400001928E-02 0.  1.
        1   -1    0    0  501    0  0.00000000000E+00  0.00000000000E+00 -0.26652341532E+03  0.26652341536E+03  0.50400001928E-02 0. -1.
    10030    2    1    2    0    0  0.00000000000E+00  0.00000000000E+00  0.32788110038E+03  0.86092793108E+03  0.79604703789E+03 0.  0.
        4    1    3    3  502    0 -0.91883114963E+02  0.31188119571E+03 -0.84355212993E+02  0.33590147649E+03  0.12699999809E+01 0. -1.
       -4    1    3    3    0  502  0.91883114963E+02 -0.31188119571E+03  0.41223631337E+03  0.52502645459E+03  0.12699999809E+01 0.  1.
</event>
<event>
 5   0  0.1624094E-02  0.8195179E+03  0.7818609E-02  0.9532188E-01
       -1   -1    0    0    0  501  0.00000000000E+00  0.00000000000E+00  0.49001397995E+03  0.49001397997E+03  0.50400001928E-02 0.  1.
        1   -1    0    0  501    0  0.00000000000E+00  0.00000000000E+00 -0.34264818833E+03  0.34264818837E+03  0.50400001928E-02 0. -1.
    10030    2    1    2    0    0  0.00000000000E+00  0.00000000000E+00  0.14736579162E+03  0.83266216835E+03  0.81951791320E+03 0.  0.
        3    1    3    3  502    0  0.85986574366E+02  0.35758855418E+03 -0.10987778131E+03  0.38384424194E+03  0.10100000352E+00 0. -1.
       -3    1    3    3    0  502 -0.85986574366E+02 -0.35758855418E+03  0.25724357292E+03  0.44881792640E+03  0.10100000352E+00 0.  1.
</event>
<event>
 5   0  0.9919125E-03  0.8115020E+03  0.7818609E-02  0.9543516E-01
       -3   -1    0    0    0  501  0.00000000000E+00  0.00000000000E+00  0.34867170627E+03  0.34867172090E+03  0.10100000352E+00 0.  1.
        3   -1    0    0  501    0  0.00000000000E+00  0.00000000000E+00 -0.47217440529E+03  0.47217441609E+03  0.10100000352E+00 0. -1.
    10030    2    1    2    0    0  0.00000000000E+00  0.00000000000E+00 -0.12350269902E+03  0.82084613700E+03  0.81150198025E+03 0.  0.
        1    1    3    3  502    0  0.21448459153E+02  0.12521210053E+03  0.32803731091E+03  0.35177632651E+03  0.50400001928E-02 0.  1.
       -1    1    3    3    0  502 -0.21448459153E+02 -0.12521210053E+03 -0.45154000993E+03  0.46906981048E+03  0.50400001928E-02 0. -1.
</event>
<event>
 5   0  0.1498375E-02  0.8019291E+03  0.7818609E-02  0.9557229E-01
       -1   -1    0    0    0  501  0.00000000000E+00  0.00000000000E+00  0.25022448870E+03  0.25022448875E+03  0.50400001928E-02 0. -1.
        1   -1    0    0  501    0  0.00000000000E+00  0.00000000000E+00 -0.64251329234E+03  0.64251329236E+03  0.50400001928E-02 0.  1.
    10030    2    1    2    0    0  0.00000000000E+00  0.00000000000E+00 -0.39228880365E+03  0.89273778111E+03  0.80192907439E+03 0.  0.
        4    1    3    3  502    0 -0.25965635599E+03  0.23977462843E+03 -0.40694841604E+03  0.53900085516E+03  0.12699999809E+01 0.  1.
       -4    1    3    3    0  502  0.25965635599E+03 -0.23977462843E+03  0.14659612394E+02  0.35373692595E+03  0.12699999809E+01 0. -1.
</event>
<event>
 5   0  0.1471290E-02  0.7957722E+03  0.7818609E-02  0.9566157E-01
       -1   -1    0    0    0  501  0.00000000000E+00  0.00000000000E+00  0.22696409639E+03  0.22696409645E+03  0.50400001928E-02 0. -1.
        1   -1    0    0  501    0  0.00000000000E+00  0.00000000000E+00 -0.69752602208E+03  0.69752602210E+03  0.50400001928E-02 0.  1.
    10030    2    1    2    0    0  0.00000000000E+00  0.00000000000E+00 -0.47056192569E+03  0.92449011855E+03  0.79577223713E+03 0.  0.
        2    1    3    3  502    0  0.12814172590E+03  0.27453201862E+03  0.64363798643E+02  0.30972702457E+03  0.25500000920E-02 0. -1.
       -2    1    3    3    0  502 -0.12814172590E+03 -0.27453201862E+03 -0.53492572433E+03  0.61476309398E+03  0.25500000920E-02 0.  1.
</event>
<event>
 5   0  0.2571778E-02  0.7987748E+03  0.7818609E-02  0.9561792E-01
        2   -1    0    0  501    0  0.00000000000E+00  0.00000000000E+00  0.98568661929E+03  0.98568661929E+03  0.25500000920E-02 0. -1.
       -2   -1    0    0    0  501  0.00000000000E+00  0.00000000000E+00 -0.16182658384E+03  0.16182658386E+03  0.25500000920E-02 0.  1.
    10030    2    1    2    0    0  0.00000000000E+00  0.00000000000E+00  0.82386003544E+03  0.11475132032E+04  0.79877480770E+03 0.  0.
        1    1    3    3  502    0 -0.66716197249E+02  0.33413621628E+03  0.71125255027E+03  0.78865597842E+03  0.50400001928E-02 0. -1.
       -1    1    3    3    0  502  0.66716197249E+02 -0.33413621628E+03  0.11260748517E+03  0.35885722474E+03  0.50400001928E-02 0.  1.
</event>
<event>
 5   0  0.2460312E-02  0.8023306E+03  0.7818609E-02  0.9556650E-01
       -2   -1    0    0    0  501  0.00000000000E+00  0.00000000000E+00  0.21209350400E+03  0.21209350401E+03  0.25500000920E-02 0. -1.
        2   -1    0    0  501    0  0.00000000000E+00  0.00000000000E+00 -0.75878599921E+03  0.75878599921E+03  0.25500000920E-02 0.  1.
    10030    2    1    2    0    0  0.00000000000E+00  0.00000000000E+00 -0.54669249521E+03  0.97087950322E+03  0.80233055872E+03 0.  0.
        2    1    3    3  502    0 -0.63214920236E+02  0.59601647151E+02  0.20057216719E+03  0.21858105303E+03  0.25500000920E-02 0. -1.
       -2    1    3    3    0  502  0.63214920236E+02 -0.59601647151E+02 -0.74726466240E+03  0.75229845019E+03  0.25500000920E-02 0.  1.
</event>
<event>
 5   0  0.2464780E-02  0.7935346E+03  0.7818609E-02  0.9569423E-01
       -2   -1    0    0    0  501  0.00000000000E+00  0.00000000000E+00  0.82395613466E+02  0.82395613505E+02  0.25500000920E-02 0. -1.
        2   -1    0    0  501    0  0.00000000000E+00  0.00000000000E+00 -0.19105905068E+04  0.19105905068E+04  0.25500000920E-02 0.  1.
    10030    2    1    2    0    0  0.00000000000E+00  0.00000000000E+00 -0.18281948933E+04  0.19929861203E+04  0.79353456617E+03 0.  0.
        3    1    3    3  502    0 -0.30693918987E+03 -0.18547634127E+03 -0.13404006052E+04  0.13875470918E+04  0.10100000352E+00 0. -1.
       -3    1    3    3    0  502  0.30693918987E+03  0.18547634127E+03 -0.48779428810E+03  0.60543902844E+03  0.10100000352E+00 0.  1.
</event>
<event>
 5   0  0.2454354E-02  0.8424267E+03  0.7818609E-02  0.9500558E-01
       -2   -1    0    0    0  501  0.00000000000E+00  0.00000000000E+00  0.10400441352E+03  0.10400441355E+03  0.25500000920E-02 0. -1.
        2   -1    0    0  501    0  0.00000000000E+00  0.00000000000E+00 -0.17058955630E+04  0.17058955630E+04  0.25500000920E-02 0.  1.
    10030    2    1    2    0    0  0.00000000000E+00  0.00000000000E+00 -0.16018911495E+04  0.18098999766E+04  0.84242665578E+03 0.  0.
        5    1    3    3  502    0  0.19714901318E+03  0.32087772070E+03 -0.39575976511E+03  0.54633151723E+03  0.46999998093E+01 0.  1.
       -5    1    3    3    0  502 -0.19714901318E+03 -0.32087772070E+03 -0.12061313844E+04  0.12635684594E+04  0.46999998093E+01 0. -1.
</event>
<event>
 5   0  0.9919125E-03  0.7854636E+03  0.7818609E-02  0.9581300E-01
       -3   -1    0    0    0  501  0.00000000000E+00  0.00000000000E+00  0.53580712588E+03  0.53580713540E+03  0.10100000352E+00 0.  1.
        3   -1    0    0  501    0  0.00000000000E+00  0.00000000000E+00 -0.28786149492E+03  0.28786151264E+03  0.10100000352E+00 0. -1.
    10030    2    1    2    0    0  0.00000000000E+00  0.00000000000E+00  0.24794563096E+03  0.82366864803E+03  0.78546356112E+03 0.  0.
        5    1    3    3  502    0  0.18738526319E+03  0.34407416660E+03  0.95915223633E+02  0.40338826099E+03  0.46999998093E+01 0.  1.
       -5    1    3    3    0  502 -0.18738526319E+03 -0.34407416660E+03  0.15203040732E+03  0.42028038704E+03  0.46999998093E+01 0. -1.
</event>
<event>
 5   0  0.1509629E-02  0.8032332E+03  0.7818609E-02  0.9555349E-01
       -1   -1    0    0    0  501  0.00000000000E+00  0.00000000000E+00  0.11950679670E+03  0.11950679681E+03  0.50400001928E-02 0.  1.
        1   -1    0    0  501    0  0.00000000000E+00  0.00000000000E+00 -0.13496796916E+04  0.13496796916E+04  0.50400001928E-02 0. -1.
    10030    2    1    2    0    0  0.00000000000E+00  0.00000000000E+00 -0.12301728949E+04  0.14691864884E+04  0.80323320800E+03 0.  0.
        5    1    3    3  502    0 -0.13806567713E+03  0.14443271310E+03  0.22085595149E+02  0.20107909719E+03  0.46999998093E+01 0.  1.
       -5    1    3    3    0  502  0.13806567713E+03 -0.14443271310E+03 -0.12522584901E+04  0.12681073912E+04  0.46999998093E+01 0. -1.
</event>
<event>
 5   0  0.1471290E-02  0.8521902E+03  0.7818609E-02  0.9487402E-01
        1   -1    0    0  501    0  0.00000000000E+00  0.00000000000E+00  0.10885602195E+04  0.10885602195E+04  0.50400001928E-02 0. -1.
       -1   -1    0    0    0  501  0.00000000000E+00  0.00000000000E+00 -0.16678639939E+03  0.16678639946E+03  0.50400001928E-02 0.  1.
    10030    2    1    2    0    0  0.00000000000E+00  0.00000000000E+00  0.92177382009E+03  0.12553466190E+04  0.85219021252E+03 0.  0.
        2    1    3    3  502    0  0.34241272370E+03  0.19743578829E+03  0.69533242567E+03  0.79982157138E+03  0.25500000920E-02 0. -1.
       -2    1    3    3    0  502 -0.34241272370E+03 -0.19743578829E+03  0.22644139442E+03  0.45552504757E+03  0.25500000920E-02 0.  1.
</event>
<event>
 5   0  0.1624094E-02  0.7993441E+03  0.7818609E-02  0.9560967E-01
       -1   -1    0    0    0  501  0.00000000000E+00  0.00000000000E+00  0.65539988704E+02  0.65539988898E+02  0.50400001928E-02 0. -1.
        1   -1    0    0  501    0  0.00000000000E+00  0.00000000000E+00 -0.24372562497E+04  0.24372562498E+04  0.50400001928E-02 0.  1.
    10030    2    1    2    0    0  0.00000000000E+00  0.00000000000E+00 -0.23717162610E+04  0.25027962387E+04  0.79934409944E+03 0.  0.
        3    1    3    3  502    0  0.29746096210E+03 -0.25879587273E+03 -0.13906834490E+04  0.14454960371E+04  0.10100000352E+00 0.  1.
       -3    1    3    3    0  502 -0.29746096210E+03  0.25879587273E+03 -0.98103281207E+03  0.10573002016E+04  0.10100000352E+00 0. -1.
</event>
<event>
 5   0  0.2460312E-02  0.8174007E+03  0.7818609E-02  0.9535166E-01
       -2   -1    0    0    0  501  0.00000000000E+00  0.00000000000E+00  0.33483359447E+03  0.33483359448E+03  0.25500000920E-02 0.  1.
        2   -1    0    0  501    0  0.00000000000E+00  0.00000000000E+00 -0.49886269235E+03  0.49886269235E+03  0.25500000920E-02 0. -1.
    10030    2    1    2    0    0  0.00000000000E+00  0.00000000000E+00 -0.16402909788E+03  0.83369628683E+03  0.81740073020E+03 0.  0.
        2    1    3    3  502    0  0.21115982723E+03 -0.34836977839E+03 -0.48402853733E+02  0.41023506845E+03  0.25500000920E-02 0. -1.
       -2    1    3    3    0  502 -0.21115982723E+03  0.34836977839E+03 -0.11562624415E+03  0.42346121838E+03  0.25500000920E-02 0.  1.
</event>
<event>
 5   0  0.2571778E-02  0.8196784E+03  0.7818609E-02  0.9531962E-01
       -2   -1    0    0    0  501  0.00000000000E+00  0.00000000000E+00  0.14219572590E+03  0.14219572592E+03  0.25500000920E-02 0.  1.
        2   -1    0    0  501    0  0.00000000000E+00  0.00000000000E+00 -0.11812463099E+04  0.11812463099E+04  0.25500000920E-02 0. -1.
    10030    2    1    2    0    0  0.00000000000E+00  0.00000000000E+00 -0.10390505840E+04  0.13234420359E+04  0.81967841627E+03 0.  0.
        1    1    3    3  502    0  0.31642196970E+03  0.21934624109E+03 -0.29272013638E+03  0.48365350682E+03  0.50400001928E-02 0.  1.
       -1    1    3    3    0  502 -0.31642196970E+03 -0.21934624109E+03 -0.74633044765E+03  0.83978852904E+03  0.50400001928E-02 0. -1.
</event>
<event>
 5   0  0.2571778E-02  0.8043656E+03  0.7818609E-02  0.9553719E-01
       -2   -1    0    0    0  501  0.00000000000E+00  0.00000000000E+00  0.98116243505E+02  0.98116243539E+02  0.25500000920E-02 0. -1.
        2   -1    0    0  501    0  0.00000000000E+00  0.00000000000E+00 -0.16485649964E+04  0.16485649964E+04  0.25500000920E-02 0.  1.
    10030    2    1    2    0    0  0.00000000000E+00  0.00000000000E+00 -0.15504487529E+04  0.17466812399E+04  0.80436560009E+03 0.  0.
        1    1    3    3  502    0  0.11983530732E+03  0.38134777651E+03 -0.67898061279E+03  0.78790944917E+03  0.50400001928E-02 0.  1.
       -1    1    3    3    0  502 -0.11983530732E+03 -0.38134777651E+03 -0.87146814010E+03  0.95877179076E+03  0.50400001928E-02 0. -1.
</event>
<event>
 5   0  0.2464780E-02  0.8079318E+03  0.7818609E-02  0.9548607E-01
        2   -1    0    0  501    0  0.00000000000E+00  0.00000000000E+00  0.53318265508E+03  0.53318265509E+03  0.25500000920E-02 0. -1.
       -2   -1    0    0    0  501  0.00000000000E+00  0.00000000000E+00 -0.30606478467E+03  0.30606478468E+03  0.25500000920E-02 0.  1.
    10030    2    1    2    0    0  0.00000000000E+00  0.00000000000E+00  0.22711787041E+03  0.83924743977E+03  0.80793176575E+03 0.  0.
        3    1    3    3  502    0 -0.27147053233E+02 -0.40099789019E+03  0.71336761348E+02  0.40819751856E+03  0.10100000352E+00 0. -1.
       -3    1    3    3    0  502  0.27147053233E+02  0.40099789019E+03  0.15578110906E+03  0.43104992121E+03  0.10100000352E+00 0.  1.
</event>
<event>
 5   0  0.1498375E-02  0.8081621E+03  0.7818609E-02  0.9548277E-01
       -1   -1    0    0    0  501  0.00000000000E+00  0.00000000000E+00  0.74176055362E+03  0.74176055364E+03  0.50400001928E-02 0. -1.
        1   -1    0    0  501    0  0.00000000000E+00  0.00000000000E+00 -0.22012696637E+03  0.22012696642E+03  0.50400001928E-02 0.  1.
    10030    2    1    2    0    0  0.00000000000E+00  0.00000000000E+00  0.52163358726E+03  0.96188752006E+03  0.80816211362E+03 0.  0.
        4    1    3    3  502    0 -0.48058983427E+02  0.39872972330E+03  0.31384261448E+03  0.50969977211E+03  0.12699999809E+01 0. -1.
       -4    1    3    3    0  502  0.48058983427E+02 -0.39872972330E+03  0.20779097277E+03  0.45218774795E+03  0.12699999809E+01 0.  1.
</event>
<event>
 5   0  0.2464780E-02  0.7953480E+03  0.7818609E-02  0.9566775E-01
       -2   -1    0    0    0  501  0.00000000000E+00  0.00000000000E+00  0.19240979006E+03  0.19240979008E+03  0.25500000920E-02 0. -1.
        2   -1    0    0  501    0  0.00000000000E+00  0.00000000000E+00 -0.82191571029E+03  0.82191571029E+03  0.25500000920E-02 0.  1.
    10030    2    1    2    0    0  0.00000000000E+00  0.00000000000E+00 -0.62950592022E+03  0.10143255004E+04  0.79534804778E+03 0.  0.
        3    1    3    3  502    0  0.12388236610E+03 -0.16693240364E+03  0.11760093954E+03  0.23883730696E+03  0.10100000352E+00 0. -1.
       -3    1    3    3    0  502 -0.12388236610E+03  0.16693240364E+03 -0.74710685977E+03  0.77548819341E+03  0.10100000352E+00 0.  1.
</event>
<event>
 5   0  0.1471290E-02  0.7787004E+03  0.7818609E-02  0.9591370E-01
        1   -1    0    0  501    0  0.00000000000E+00  0.00000000000E+00  0.54636718842E+03  0.54636718845E+03  0.50400001928E-02 0.  1.
       -1   -1    0    0    0  501  0.00000000000E+00  0.00000000000E+00 -0.27745735816E+03  0.27745735820E+03  0.50400001928E-02 0. -1.
    10030    2    1    2    0    0  0.00000000000E+00  0.00000000000E+00  0.26890983027E+03  0.82382454665E+03  0.77870044744E+03 0.  0.
        2    1    3    3  502    0  0.17161411182E+03 -0.20282428252E+03 -0.16665072233E+03  0.31362645968E+03  0.25500000920E-02 0. -1.
       -2    1    3    3    0  502 -0.17161411182E+03  0.20282428252E+03  0.43556055260E+03  0.51019808696E+03  0.25500000920E-02 0.  1.
</event>
<event>
 5   0  0.2454354E-02  0.7729615E+03  0.7818609E-02  0.9600000E-01
       -2   -1    0    0    0  501  0.00000000000E+00  0.00000000000E+00  0.84382164012E+03  0.84382164012E+03  0.25500000920E-02 0.  1.
        2   -1    0    0  501    0  0.00000000000E+00  0.00000000000E+00 -0.17701296500E+03  0.17701296502E+03  0.25500000920E-02 0. -1.
    10030    2    1    2    0    0  0.00000000000E+00  0.00000000000E+00  0.66680867512E+03  0.10208346051E+04  0.77296150088E+03 0.  0.
        5    1    3    3  502    0 -0.19199173257E+03 -0.12336161079E+03  0.74529208221E+03  0.77946218009E+03  0.46999998093E+01 0.  1.
       -5    1    3    3    0  502  0.19199173257E+03  0.12336161079E+03 -0.78483407088E+02  0.24137242506E+03  0.46999998093E+01 0. -1.
</event>
<event>
 5   0  0.2464780E-02  0.8125605E+03  0.7818609E-02  0.9542012E-01
        2   -1    0    0  501    0  0.00000000000E+00  0.00000000000E+00  0.74512628818E+03  0.74512628818E+03  0.25500000920E-02 0.  1.
       -2   -1    0    0    0  501  0.00000000000E+00  0.00000000000E+00 -0.22152439228E+03  0.22152439229E+03  0.25500000920E-02 0. -1.
    10030    2    1    2    0    0  0.00000000000E+00  0.00000000000E+00  0.52360189590E+03  0.96665068047E+03  0.81256051631E+03 0.  0.
        3    1    3    3  502    0 -0.26079786461E+03 -0.56766320147E+02  0.62619790738E+03  0.68070681699E+03  0.10100000352E+00 0. -1.
       -3    1    3    3    0  502  0.26079786461E+03  0.56766320147E+02 -0.10259601148E+03  0.28594386348E+03  0.10100000352E+00 0.  1.
</event>
<event>
 5   0  0.1471290E-02  0.7613564E+03  0.7818609E-02  0.9617701E-01
        1   -1    0    0  501    0  0.00000000000E+00  0.00000000000E+00  0.58682708088E+03  0.58682708090E+03  0.50400001928E-02 0.  1.
       -1   -1    0    0    0  501  0.00000000000E+00  0.00000000000E+00 -0.24694819982E+03  0.24694819988E+03  0.50400001928E-02 0. -1.
    10030    2    1    2    0    0  0.00000000000E+00  0.00000000000E+00  0.33987888105E+03  0.83377528078E+03  0.76135639818E+03 0.  0.
        2    1    3    3  502    0  0.28324929208E+03 -0.19350097881E+03  0.35069400944E+03  0.49057015658E+03  0.25500000920E-02 0.  1.
       -2    1    3    3    0  502 -0.28324929208E+03  0.19350097881E+03 -0.10815128384E+02  0.34320512419E+03  0.25500000920E-02 0. -1.
</event>
<event>
 5   0  0.1471290E-02  0.8116834E+03  0.7818609E-02  0.9543258E-01
        1   -1    0    0  501    0  0.00000000000E+00  0.00000000000E+00  0.18306281085E+04  0.18306281085E+04  0.50400001928E-02 0.  1.
       -1   -1    0    0    0  501  0.00000000000E+00  0.00000000000E+00 -0.89973208240E+02  0.89973208381E+02  0.50400001928E-02 0. -1.
    10030    2    1    2    0    0  0.00000000000E+00  0.00000000000E+00  0.17406549003E+04  0.19206013169E+04  0.81168339680E+03 0.  0.
        2    1    3    3  502    0 -0.79794417043E+02 -0.39399849948E+03  0.73846608877E+03  0.84079375049E+03  0.25500000920E-02 0.  1.
       -2    1    3    3    0  502  0.79794417043E+02  0.39399849948E+03  0.10021888115E+04  0.10798075664E+04  0.25500000920E-02 0. -1.
</event>
<event>
 5   0  0.9919125E-03  0.8052842E+03  0.7818609E-02  0.9552400E-01
        3   -1    0    0  501    0  0.00000000000E+00  0.00000000000E+00  0.30012988673E+03  0.30012990372E+03  0.10100000352E+00 0.  1.
       -3   -1    0    0    0  501  0.00000000000E+00  0.00000000000E+00 -0.54016832076E+03  0.54016833020E+03  0.10100000352E+00 0. -1.
    10030    2    1    2    0    0  0.00000000000E+00  0.00000000000E+00 -0.24003843403E+03  0.84029823393E+03  0.80528421823E+03 0.  0.
        3    1    3    3  502    0  0.34117228912E+03  0.79896713346E+02  0.86944371304E+02  0.36102818390E+03  0.10100000352E+00 0.  1.
       -3    1    3    3    0  502 -0.34117228912E+03 -0.79896713346E+02 -0.32698280534E+03  0.47927005003E+03  0.10100000352E+00 0. -1.
</event>
<event>
 5   0  0.1509629E-02  0.7994888E+03  0.7818609E-02  0.9560757E-01
       -1   -1    0    0    0  501  0.00000000000E+00  0.00000000000E+00  0.84894433742E+02  0.84894433891E+02  0.50400001928E-02 0. -1.
        1   -1    0    0  501    0  0.00000000000E+00  0.00000000000E+00 -0.18822857689E+04  0.18822857689E+04  0.50400001928E-02 0.  1.
    10030    2    1    2    0    0  0.00000000000E+00  0.00000000000E+00 -0.17973913352E+04  0.19671802028E+04  0.79948879829E+03 0.  0.
        5    1    3    3  502    0 -0.12273148207E+03 -0.13572411406E+03 -0.24285325612E+02  0.18465080250E+03  0.46999998093E+01 0. -1.
       -5    1    3    3    0  502  0.12273148207E+03  0.13572411406E+03 -0.17731060096E+04  0.17825294003E+04  0.46999998093E+01 0.  1.
</event>
<event>
 5   0  0.2460312E-02  0.7898220E+03  0.7818609E-02  0.9574867E-01
       -2   -1    0    0    0  501  0.00000000000E+00  0.00000000000E+00  0.51823711108E+03  0.51823711109E+03  0.25500000920E-02 0. -1.
        2   -1    0    0  501    0  0.00000000000E+00  0.00000000000E+00 -0.30093309786E+03  0.30093309787E+03  0.25500000920E-02 0.  1.
    10030    2    1    2    0    0  0.00000000000E+00  0.00000000000E+00  0.21730401323E+03  0.81917020896E+03  0.78982200342E+03 0.  0.
        2    1    3    3  502    0  0.14012091953E+03  0.50441107035E+02  0.48799744978E+03  0.51021533529E+03  0.25500000920E-02 0. -1.
       -2    1    3    3    0  502 -0.14012091953E+03 -0.50441107035E+02 -0.27069343655E+03  0.30895487367E+03  0.25500000920E-02 0.  1.
</event>
<event>
 5   0  0.2460312E-02  0.8023039E+03  0.7818609E-02  0.9556688E-01
        2   -1    0    0  501    0  0.00000000000E+00  0.00000000000E+00  0.50698589081E+03  0.50698589081E+03  0.25500000920E-02 0.  1.
       -2   -1    0    0    0  501  0.00000000000E+00  0.00000000000E+00 -0.31741101384E+03  0.31741101385E+03  0.25500000920E-02 0. -1.
    10030    2    1    2    0    0  0.00000000000E+00  0.00000000000E+00  0.18957487697E+03  0.82439690466E+03  0.80230394642E+03 0.  0.
        2    1    3    3  502    0  0.11905288695E+03  0.90923138233E+02 -0.28759202182E+03  0.32426806500E+03  0.25500000920E-02 0. -1.
       -2    1    3    3    0  502 -0.11905288695E+03 -0.90923138233E+02  0.47716689879E+03  0.50012883966E+03  0.25500000920E-02 0.  1.
</event>
<event>
 5   0  0.1624094E-02  0.7252319E+03  0.7818609E-02  0.9675029E-01
        1   -1    0    0  501    0  0.00000000000E+00  0.00000000000E+00  0.13352247926E+04  0.13352247926E+04  0.50400001928E-02 0. -1.
       -1   -1    0    0    0  501  0.00000000000E+00  0.00000000000E+00 -0.98478041578E+02  0.98478041707E+02  0.50400001928E-02 0.  1.
    10030    2    1    2    0    0  0.00000000000E+00  0.00000000000E+00  0.12367467510E+04  0.14337028343E+04  0.72523188772E+03 0.  0.
        3    1    3    3  502    0  0.28636857945E+03  0.16751883018E+03  0.90770772930E+03  0.96643823072E+03  0.10100000352E+00 0. -1.
       -3    1    3    3    0  502 -0.28636857945E+03 -0.16751883018E+03  0.32903902173E+03  0.46726460360E+03  0.10100000352E+00 0.  1.
</event>
<event>
 5   0  0.2422031E-02  0.7860423E+03  0.7818609E-02  0.9580443E-01
       -2   -1    0    0    0  501  0.00000000000E+00  0.00000000000E+00  0.42732950052E+03  0.42732950052E+03  0.25500000920E-02 0. -1.
        2   -1    0    0  501    0  0.00000000000E+00  0.00000000000E+00 -0.36146726800E+03  0.36146726801E+03  0.25500000920E-02 0.  1.
    10030    2    1    2    0    0  0.00000000000E+00  0.00000000000E+00  0.65862232520E+02  0.78879676853E+03  0.78604230698E+03 0.  0.
        4    1    3    3  502    0  0.13049679656E+02 -0.27861898182E+03  0.31078616311E+03  0.41759847132E+03  0.12699999809E+01 0.  1.
       -4    1    3    3    0  502 -0.13049679656E+02  0.27861898182E+03 -0.24492393059E+03  0.37119829720E+03  0.12699999809E+01 0. -1.
</event>
<event>
 5   0  0.1523811E-02  0.8057657E+03  0.7818609E-02  0.9551709E-01
        1   -1    0    0  501    0  0.00000000000E+00  0.00000000000E+00  0.17337201488E+03  0.17337201495E+03  0.50400001928E-02 0. -1.
       -1   -1    0    0    0  501  0.00000000000E+00  0.00000000000E+00 -0.93622135536E+03  0.93622135537E+03  0.50400001928E-02 0.  1.
    10030    2    1    2    0    0  0.00000000000E+00  0.00000000000E+00 -0.76284934048E+03  0.11095933703E+04  0.80576568007E+03 0.  0.
        1    1    3    3  502    0  0.27942414805E+02 -0.14060896632E+03  0.13706059295E+03  0.19833624510E+03  0.50400001928E-02 0. -1.
       -1    1    3    3    0  502 -0.27942414805E+02  0.14060896632E+03 -0.89990993343E+03  0.91125712522E+03  0.50400001928E-02 0.  1.
</event>
<event>
 5   0  0.2460312E-02  0.8008671E+03  0.7818609E-02  0.9558763E-01
       -2   -1    0    0    0  501  0.00000000000E+00  0.00000000000E+00  0.93975246899E+02  0.93975246934E+02  0.25500000920E-02 0. -1.
        2   -1    0    0  501    0  0.00000000000E+00  0.00000000000E+00 -0.17062687497E+04  0.17062687497E+04  0.25500000920E-02 0.  1.
    10030    2    1    2    0    0  0.00000000000E+00  0.00000000000E+00 -0.16122935028E+04  0.18002439966E+04  0.80086709773E+03 0.  0.
        2    1    3    3  502    0 -0.58668330674E+02  0.23671900642E+03 -0.92225788047E+02  0.26073637455E+03  0.25500000920E-02 0. -1.
       -2    1    3    3    0  502  0.58668330674E+02 -0.23671900642E+03 -0.15200677147E+04  0.15395076220E+04  0.25500000920E-02 0.  1.
</event>
<event>
 5   0  0.1624094E-02  0.8520916E+03  0.7818609E-02  0.9487534E-01
       -1   -1    0    0    0  501  0.00000000000E+00  0.00000000000E+00  0.51155410611E+03  0.51155410613E+03  0.50400001928E-02 0. -1.
        1   -1    0    0  501    0  0.00000000000E+00  0.00000000000E+00 -0.35483053436E+03  0.35483053439E+03  0.50400001928E-02 0.  1.
    10030    2    1    2    0    0  0.00000000000E+00  0.00000000000E+00  0.15672357175E+03  0.86638464052E+03  0.85209158392E+03 0.  0.
        3    1    3    3  502    0  0.17030790214E+03 -0.35424253380E+03  0.24550426849E+03  0.46342735173E+03  0.10100000352E+00 0. -1.
       -3    1    3    3    0  502 -0.17030790214E+03  0.35424253380E+03 -0.88780696737E+02  0.40295728880E+03  0.10100000352E+00 0.  1.
</event>
<event>
 5   0  0.9919125E-03  0.7963283E+03  0.7818609E-02  0.9565347E-01
       -3   -1    0    0    0  501  0.00000000000E+00  0.00000000000E+00  0.46164938350E+03  0.46164939455E+03  0.10100000352E+00 0. -1.
        3   -1    0    0  501    0  0.00000000000E+00  0.00000000000E+00 -0.34340928644E+03  0.34340930129E+03  0.10100000352E+00 0.  1.
    10030    2    1    2    0    0  0.00000000000E+00  0.00000000000E+00  0.11824009706E+03  0.80505869584E+03  0.79632831369E+03 0.  0.
        5    1    3    3  502    0  0.66550104946E+01 -0.39026972425E+03  0.13845238715E+03  0.41418099949E+03  0.46999998093E+01 0. -1.
       -5    1    3    3    0  502 -0.66550104946E+01  0.39026972425E+03 -0.20212290086E+02  0.39087769635E+03  0.46999998093E+01 0.  1.
</event>
<event>
 5   0  0.2571778E-02  0.8195312E+03  0.7818609E-02  0.9532169E-01
       -2   -1    0    0    0  501  0.00000000000E+00  0.00000000000E+00  0.21669909568E+03  0.21669909570E+03  0.25500000920E-02 0. -1.
        2   -1    0    0  501    0  0.00000000000E+00  0.00000000000E+00 -0.77484337348E+03  0.77484337348E+03  0.25500000920E-02 0.  1.
    10030    2    1    2    0    0  0.00000000000E+00  0.00000000000E+00 -0.55814427780E+03  0.99154246918E+03  0.81953122781E+03 0.  0.
        1    1    3    3  502    0 -0.12018182894E+03 -0.36081915180E+03 -0.94494633501E+02  0.39187162197E+03  0.50400001928E-02 0. -1.
       -1    1    3    3    0  502  0.12018182894E+03  0.36081915180E+03 -0.46364964430E+03  0.59967084721E+03  0.50400001928E-02 0.  1.
</event>
<event>
 5   0  0.2454354E-02  0.8007705E+03  0.7818609E-02  0.9558902E-01
        2   -1    0    0  501    0  0.00000000000E+00  0.00000000000E+00  0.35141963958E+03  0.35141963958E+03  0.25500000920E-02 0.  1.
       -2   -1    0    0    0  501  0.00000000000E+00  0.00000000000E+00 -0.45617360856E+03  0.45617360857E+03  0.25500000920E-02 0. -1.
    10030    2    1    2    0    0  0.00000000000E+00  0.00000000000E+00 -0.10475396899E+03  0.80759324816E+03  0.80077054170E+03 0.  0.
        5    1    3    3  502    0  0.24219099530E+03  0.81954359036E+02  0.25832790095E+03  0.36349468989E+03  0.46999998093E+01 0.  1.
       -5    1    3    3    0  502 -0.24219099530E+03 -0.81954359036E+02 -0.36308186994E+03  0.44409855826E+03  0.46999998093E+01 0. -1.
</event>
<event>
 5   0  0.1523811E-02  0.8054002E+03  0.7818609E-02  0.9552233E-01
        1   -1    0    0  501    0  0.00000000000E+00  0.00000000000E+00  0.63544787431E+03  0.63544787433E+03  0.50400001928E-02 0. -1.
       -1   -1    0    0    0  501  0.00000000000E+00  0.00000000000E+00 -0.25520166747E+03  0.25520166752E+03  0.50400001928E-02 0.  1.
    10030    2    1    2    0    0  0.00000000000E+00  0.00000000000E+00  0.38024620684E+03  0.89064954186E+03  0.80540016674E+03 0.  0.
        1    1    3    3  502    0 -0.59681997665E+02 -0.38388260035E+03  0.72884700538E+02  0.39527202190E+03  0.50400001928E-02 0.  1.
       -1    1    3    3    0  502  0.59681997665E+02  0.38388260035E+03  0.30736150630E+03  0.49537751996E+03  0.50400001928E-02 0. -1.
</event>
<event>
 5   0  0.1471290E-02  0.7919064E+03  0.7818609E-02  0.9571807E-01
       -1   -1    0    0    0  501  0.00000000000E+00  0.00000000000E+00  0.20819265068E+03  0.20819265074E+03  0.50400001928E-02 0. -1.
        1   -1    0    0  501    0  0.00000000000E+00  0.00000000000E+00 -0.75304750250E+03  0.75304750252E+03  0.50400001928E-02 0.  1.
    10030    2    1    2    0    0  0.00000000000E+00  0.00000000000E+00 -0.54485485182E+03  0.96124015327E+03  0.79190644820E+03 0.  0.
        2    1    3    3  502    0  0.32473353414E+03 -0.10473637919E+03 -0.51627559433E+03  0.61883928982E+03  0.25500000920E-02 0. -1.
       -2    1    3    3    0  502 -0.32473353414E+03  0.10473637919E+03 -0.28579257491E+02  0.34240086344E+03  0.25500000920E-02 0.  1.
</event>
<event>
 5   0  0.1498375E-02  0.8042486E+03  0.7818609E-02  0.9553888E-01
        1   -1    0    0  501    0  0.00000000000E+00  0.00000000000E+00  0.57934880556E+03  0.57934880558E+03  0.50400001928E-02 0.  1.
       -1   -1    0    0    0  501  0.00000000000E+00  0.00000000000E+00 -0.27911331149E+03  0.27911331153E+03  0.50400001928E-02 0. -1.
    10030    2    1    2    0    0  0.00000000000E+00  0.00000000000E+00  0.30023549407E+03  0.85846211711E+03  0.80424862736E+03 0.  0.
        4    1    3    3  502    0 -0.25269641655E+03 -0.16298371175E+03  0.43510428410E+03  0.52890123858E+03  0.12699999809E+01 0.  1.
       -4    1    3    3    0  502  0.25269641655E+03  0.16298371175E+03 -0.13486879002E+03  0.32956087853E+03  0.12699999809E+01 0. -1.
</event>
<event>
 5   0  0.2460312E-02  0.8084822E+03  0.7818609E-02  0.9547820E-01
       -2   -1    0    0    0  501  0.00000000000E+00  0.00000000000E+00  0.92950565860E+02  0.92950565894E+02  0.25500000920E-02 0. -1.
        2   -1    0    0  501    0  0.00000000000E+00  0.00000000000E+00 -0.17580405656E+04  0.17580405656E+04  0.25500000920E-02 0.  1.
    10030    2    1    2    0    0  0.00000000000E+00  0.00000000000E+00 -0.16650899997E+04  0.18509911315E+04  0.80848219624E+03 0.  0.
        2    1    3    3  502    0 -0.20627621927E+03 -0.39987804151E+02 -0.16231960511E+04  0.16367389295E+04  0.25500000920E-02 0.  1.
       -2    1    3    3    0  502  0.20627621927E+03  0.39987804151E+02 -0.41893948661E+02  0.21425220199E+03  0.25500000920E-02 0. -1.
</event>
<event>
 5   0  0.2460312E-02  0.7962626E+03  0.7818609E-02  0.9565443E-01
        2   -1    0    0  501    0  0.00000000000E+00  0.00000000000E+00  0.15250734278E+04  0.15250734278E+04  0.25500000920E-02 0.  1.
       -2   -1    0    0    0  501  0.00000000000E+00  0.00000000000E+00 -0.10393501060E+03  0.10393501063E+03  0.25500000920E-02 0. -1.
    10030    2    1    2    0    0  0.00000000000E+00  0.00000000000E+00  0.14211384172E+04  0.16290084385E+04  0.79626257707E+03 0.  0.
        2    1    3    3  502    0  0.10099792217E+03 -0.19642240107E+03  0.13882453014E+04  0.14057052880E+04  0.25500000920E-02 0.  1.
       -2    1    3    3    0  502 -0.10099792217E+03  0.19642240107E+03  0.32893115858E+02  0.22330315045E+03  0.25500000920E-02 0. -1.
</event>
<event>
 5   0  0.2422031E-02  0.7816271E+03  0.7818609E-02  0.9586999E-01
        2   -1    0    0  501    0  0.00000000000E+00  0.00000000000E+00  0.84772204522E+03  0.84772204522E+03  0.25500000920E-02 0.  1.
       -2   -1    0    0    0  501  0.00000000000E+00  0.00000000000E+00 -0.18017136243E+03  0.18017136245E+03  0.25500000920E-02 0. -1.
    10030    2    1    2    0    0  0.00000000000E+00  0.00000000000E+00  0.66755068279E+03  0.10278934077E+04  0.78162711279E+03 0.  0.
        4    1    3    3  502    0 -0.34431966858E+02 -0.34197468608E+03  0.89153543142E+02  0.35508057314E+03  0.12699999809E+01 0. -1.
       -4    1    3    3    0  502  0.34431966858E+02  0.34197468608E+03  0.57839713964E+03  0.67281283453E+03  0.12699999809E+01 0.  1.
</event>
<event>
 5   0  0.2454354E-02  0.8039973E+03  0.7818609E-02  0.9554249E-01
        2   -1    0    0  501    0  0.00000000000E+00  0.00000000000E+00  0.84530038204E+03  0.84530038204E+03  0.25500000920E-02 0.  1.
       -2   -1    0    0    0  501  0.00000000000E+00  0.00000000000E+00 -0.19117810309E+03  0.19117810310E+03  0.25500000920E-02 0. -1.
    10030    2    1    2    0    0  0.00000000000E+00  0.00000000000E+00  0.65412227895E+03  0.10364784851E+04  0.80399732235E+03 0.  0.
        5    1    3    3  502    0  0.13581595704E+03 -0.12362344607E+03 -0.13389502492E+03  0.22732949281E+03  0.46999998093E+01 0. -1.
       -5    1    3    3    0  502 -0.13581595704E+03  0.12362344607E+03  0.78801730387E+03  0.80914899234E+03  0.46999998093E+01 0.  1.
</event>
<event>
 5   0  0.2460312E-02  0.7987047E+03  0.7818609E-02  0.9561894E-01
        2   -1    0    0  501    0  0.00000000000E+00  0.00000000000E+00  0.85669371076E+03  0.85669371076E+03  0.25500000920E-02 0.  1.
       -2   -1    0    0    0  501  0.00000000000E+00  0.00000000000E+00 -0.18616023876E+03  0.18616023878E+03  0.25500000920E-02 0. -1.
    10030    2    1    2    0    0  0.00000000000E+00  0.00000000000E+00  0.67053347200E+03  0.10428539495E+04  0.79870471577E+03 0.  0.
        2    1    3    3  502    0 -0.10939911879E+03  0.97830949480E+02 -0.14967265078E+03  0.20962100149E+03  0.25500000920E-02 0. -1.
       -2    1    3    3    0  502  0.10939911879E+03 -0.97830949480E+02  0.82020612278E+03  0.83323294805E+03  0.25500000920E-02 0.  1.
</event>
<event>
 5   0  0.2571778E-02  0.7839935E+03  0.7818609E-02  0.9583479E-01
       -2   -1    0    0    0  501  0.00000000000E+00  0.00000000000E+00  0.94808597814E+02  0.94808597848E+02  0.25500000920E-02 0. -1.
        2   -1    0    0  501    0  0.00000000000E+00  0.00000000000E+00 -0.16207544722E+04  0.16207544722E+04  0.25500000920E-02 0.  1.
    10030    2    1    2    0    0  0.00000000000E+00  0.00000000000E+00 -0.15259458743E+04  0.17155630700E+04  0.78399351767E+03 0.  0.
        1    1    3    3  502    0 -0.36589800199E+02 -0.31046300973E+03 -0.12805052316E+04  0.13181121887E+04  0.50400001928E-02 0.  1.
       -1    1    3    3    0  502  0.36589800199E+02  0.31046300973E+03 -0.24544064274E+03  0.39745088127E+03  0.50400001928E-02 0. -1.
</event>
<event>
 5   0  0.2422031E-02  0.7852484E+03  0.7818609E-02  0.9581618E-01
        2   -1    0    0  501    0  0.00000000000E+00  0.00000000000E+00  0.68977548393E+03  0.68977548394E+03  0.25500000920E-02 0. -1.
       -2   -1    0    0    0  501  0.00000000000E+00  0.00000000000E+00 -0.22348396032E+03  0.22348396033E+03  0.25500000920E-02 0.  1.
    10030    2    1    2    0    0  0.00000000000E+00  0.00000000000E+00  0.46629152361E+03  0.91325944427E+03  0.78524838590E+03 0.  0.
        4    1    3    3  502    0  0.18224822813E+03 -0.27050805395E+03  0.48732113166E+03  0.58640644792E+03  0.12699999809E+01 0. -1.
       -4    1    3    3    0  502 -0.18224822813E+03  0.27050805395E+03 -0.21029608046E+02  0.32685299635E+03  0.12699999809E+01 0.  1.
</event>
<event>
 5   0  0.2422031E-02  0.8023697E+03  0.7818609E-02  0.9556593E-01
        2   -1    0    0  501    0  0.00000000000E+00  0.00000000000E+00  0.51672920199E+03  0.51672920199E+03  0.25500000920E-02 0. -1.
       -2   -1    0    0    0  501  0.00000000000E+00  0.00000000000E+00 -0.31147704466E+03  0.31147704467E+03  0.25500000920E-02 0.  1.
    10030    2    1    2    0    0  0.00000000000E+00  0.00000000000E+00  0.20525215733E+03  0.82820624666E+03  0.80236970214E+03 0.  0.
        4    1    3    3  502    0 -0.75070306808E+02  0.33977944857E+03  0.30870984374E+03  0.46517631620E+03  0.12699999809E+01 0.  1.
       -4    1    3    3    0  502  0.75070306808E+02 -0.33977944857E+03 -0.10345768640E+03  0.36302993046E+03  0.12699999809E+01 0. -1.
</event>
<event>
 5   0  0.2454354E-02  0.7910228E+03  0.7818609E-02  0.9573103E-01
        2   -1    0    0  501    0  0.00000000000E+00  0.00000000000E+00  0.10328935257E+04  0.10328935257E+04  0.25500000920E-02 0.  1.
       -2   -1    0    0    0  501  0.00000000000E+00  0.00000000000E+00 -0.15144760501E+03  0.15144760504E+03  0.25500000920E-02 0. -1.
    10030    2    1    2    0    0  0.00000000000E+00  0.00000000000E+00  0.88144592071E+03  0.11843411308E+04  0.79102275750E+03 0.  0.
        5    1    3    3  502    0  0.87053616386E+02  0.15367987784E+03 -0.89074213594E+02  0.19786900340E+03  0.46999998093E+01 0. -1.
       -5    1    3    3    0  502 -0.87053616386E+02 -0.15367987784E+03  0.97052013431E+03  0.98647212737E+03  0.46999998093E+01 0.  1.
</event>
<event>
 5   0  0.1471290E-02  0.8006846E+03  0.7818609E-02  0.9559027E-01
       -1   -1    0    0    0  501  0.00000000000E+00  0.00000000000E+00  0.20354220201E+03  0.20354220208E+03  0.50400001928E-02 0. -1.
        1   -1    0    0  501    0  0.00000000000E+00  0.00000000000E+00 -0.78742378357E+03  0.78742378359E+03  0.50400001928E-02 0.  1.
    10030    2    1    2    0    0  0.00000000000E+00  0.00000000000E+00 -0.58388158156E+03  0.99096598567E+03  0.80068463421E+03 0.  0.
        2    1    3    3  502    0 -0.26976062495E+03  0.21626288725E+02 -0.65706902545E+03  0.71061817832E+03  0.25500000920E-02 0.  1.
       -2    1    3    3    0  502  0.26976062495E+03 -0.21626288725E+02  0.73187443893E+02  0.28034780735E+03  0.25500000920E-02 0. -1.
</event>
<event>
 5   0  0.2454354E-02  0.7994036E+03  0.7818609E-02  0.9560881E-01
        2   -1    0    0  501    0  0.00000000000E+00  0.00000000000E+00  0.50904912277E+03  0.50904912278E+03  0.25500000920E-02 0. -1.
       -2   -1    0    0    0  501  0.00000000000E+00  0.00000000000E+00 -0.31384308224E+03  0.31384308225E+03  0.25500000920E-02 0.  1.
    10030    2    1    2    0    0  0.00000000000E+00  0.00000000000E+00  0.19520604053E+03  0.82289220503E+03  0.79940364200E+03 0.  0.
        5    1    3    3  502    0  0.29137177368E+03  0.26401494833E+02 -0.18269335797E+03  0.34495434839E+03  0.46999998093E+01 0.  1.
       -5    1    3    3    0  502 -0.29137177368E+03 -0.26401494833E+02  0.37789939850E+03  0.47793785664E+03  0.46999998093E+01 0. -1.
</event>
<event>
 5   0  0.2464780E-02  0.8000407E+03  0.7818609E-02  0.9559958E-01
       -2   -1    0    0    0  501  0.00000000000E+00  0.00000000000E+00  0.82707963302E+02  0.82707963341E+02  0.25500000920E-02 0.  1.
        2   -1    0    0  501    0  0.00000000000E+00  0.00000000000E+00 -0.19347142203E+04  0.19347142203E+04  0.25500000920E-02 0. -1.
    10030    2    1    2    0    0  0.00000000000E+00  0.00000000000E+00 -0.18520062570E+04  0.20174221836E+04  0.80004068089E+03 0.  0.
        3    1    3    3  502    0  0.15656545349E+02  0.34357074884E+03 -0.41088083201E+03  0.53582558280E+03  0.10100000352E+00 0.  1.
       -3    1    3    3    0  502 -0.15656545349E+02 -0.34357074884E+03 -0.14411254249E+04  0.14815966008E+04  0.10100000352E+00 0. -1.
</event>
<event>
 5   0  0.2454354E-02  0.7709624E+03  0.7818609E-02  0.9603026E-01
       -2   -1    0    0    0  501  0.00000000000E+00  0.00000000000E+00  0.13582685939E+03  0.13582685941E+03  0.25500000920E-02 0.  1.
        2   -1    0    0  501    0  0.00000000000E+00  0.00000000000E+00 -0.10940085499E+04  0.10940085499E+04  0.25500000920E-02 0. -1.
    10030    2    1    2    0    0  0.00000000000E+00  0.00000000000E+00 -0.95818169054E+03  0.12298354093E+04  0.77096237391E+03 0.  0.
        5    1    3    3  502    0  0.54205350094E+02  0.20237750454E+03 -0.99520187270E+03  0.10170269081E+04  0.46999998093E+01 0. -1.
       -5    1    3    3    0  502 -0.54205350094E+02 -0.20237750454E+03  0.37020182164E+02  0.21280850126E+03  0.46999998093E+01 0.  1.
</event>
<event>
 5   0  0.1498375E-02  0.7803684E+03  0.7818609E-02  0.9588876E-01
       -1   -1    0    0    0  501  0.00000000000E+00  0.00000000000E+00  0.42778019298E+03  0.42778019301E+03  0.50400001928E-02 0.  1.
        1   -1    0    0  501    0  0.00000000000E+00  0.00000000000E+00 -0.35589233861E+03  0.35589233864E+03  0.50400001928E-02 0. -1.
    10030    2    1    2    0    0  0.00000000000E+00  0.00000000000E+00  0.71887854367E+02  0.78367253165E+03  0.78036835742E+03 0.  0.
        4    1    3    3  502    0  0.27830175043E+03 -0.12568265813E+03  0.27985932116E+03  0.41421111452E+03  0.12699999809E+01 0.  1.
       -4    1    3    3    0  502 -0.27830175043E+03  0.12568265813E+03 -0.20797146680E+03  0.36946141713E+03  0.12699999809E+01 0. -1.
</event>
<event>
 5   0  0.1509629E-02  0.7978641E+03  0.7818609E-02  0.9563114E-01
        1   -1    0    0  501    0  0.00000000000E+00  0.00000000000E+00  0.11173679385E+04  0.11173679386E+04  0.50400001928E-02 0.  1.
       -1   -1    0    0    0  501  0.00000000000E+00  0.00000000000E+00 -0.14243006594E+03  0.14243006603E+03  0.50400001928E-02 0. -1.
    10030    2    1    2    0    0  0.00000000000E+00  0.00000000000E+00  0.97493787261E+03  0.12597980046E+04  0.79786412184E+03 0.  0.
        5    1    3    3  502    0 -0.13569704312E+03 -0.36287129518E+03  0.63755712257E+03  0.74604989037E+03  0.46999998093E+01 0.  1.
       -5    1    3    3    0  502  0.13569704312E+03  0.36287129518E+03  0.33738075003E+03  0.51374811422E+03  0.46999998093E+01 0. -1.
</event>
<event>
 5   0  0.1509629E-02  0.7974950E+03  0.7818609E-02  0.9563650E-01
        1   -1    0    0  501    0  0.00000000000E+00  0.00000000000E+00  0.75629047720E+03  0.75629047722E+03  0.50400001928E-02 0.  1.
       -1   -1    0    0    0  501  0.00000000000E+00  0.00000000000E+00 -0.21023609411E+03  0.21023609417E+03  0.50400001928E-02 0. -1.
    10030    2    1    2    0    0  0.00000000000E+00  0.00000000000E+00  0.54605438309E+03  0.96652657139E+03  0.79749496796E+03 0.  0.
        5    1    3    3  502    0  0.25835924314E+03  0.23189039516E+01 -0.95020844290E+02  0.27532876108E+03  0.46999998093E+01 0. -1.
       -5    1    3    3    0  502 -0.25835924314E+03 -0.23189039516E+01  0.64107522738E+03  0.69119781031E+03  0.46999998093E+01 0.  1.
</event>
<event>
 5   0  0.9919125E-03  0.6312283E+03  0.7818609E-02  0.9842655E-01
        3   -1    0    0  501    0  0.00000000000E+00  0.00000000000E+00  0.20151177568E+03  0.20151180099E+03  0.10100000352E+00 0.  1.
       -3   -1    0    0    0  501  0.00000000000E+00  0.00000000000E+00 -0.49432482494E+03  0.49432483526E+03  0.10100000352E+00 0. -1.
    10030    2    1    2    0    0  0.00000000000E+00  0.00000000000E+00 -0.29281304926E+03  0.69583663625E+03  0.63122828084E+03 0.  0.
        1    1    3    3  502    0  0.12411909827E+03  0.17299719295E+03 -0.40323051326E+03  0.45599169529E+03  0.50400001928E-02 0. -1.
       -1    1    3    3    0  502 -0.12411909827E+03 -0.17299719295E+03  0.11041746400E+03  0.23984494096E+03  0.50400001928E-02 0.  1.
</event>
<event>
 5   0  0.2571778E-02  0.8554429E+03  0.7818609E-02  0.9483061E-01
        2   -1    0    0  501    0  0.00000000000E+00  0.00000000000E+00  0.11014431145E+04  0.11014431145E+04  0.25500000920E-02 0.  1.
       -2   -1    0    0    0  501  0.00000000000E+00  0.00000000000E+00 -0.16609632468E+03  0.16609632470E+03  0.25500000920E-02 0. -1.
    10030    2    1    2    0    0  0.00000000000E+00  0.00000000000E+00  0.93534678984E+03  0.12675394392E+04  0.85544293365E+03 0.  0.
        1    1    3    3  502    0 -0.35678255636E+02  0.10537263457E+03 -0.14428359677E+03  0.18219244321E+03  0.50400001928E-02 0. -1.
       -1    1    3    3    0  502  0.35678255636E+02 -0.10537263457E+03  0.10796303866E+04  0.10853469960E+04  0.50400001928E-02 0.  1.
</event>
<event>
 5   0  0.2571778E-02  0.7955677E+03  0.7818609E-02  0.9566455E-01
        2   -1    0    0  501    0  0.00000000000E+00  0.00000000000E+00  0.75072156536E+03  0.75072156536E+03  0.25500000920E-02 0. -1.
       -2   -1    0    0    0  501  0.00000000000E+00  0.00000000000E+00 -0.21077321488E+03  0.21077321490E+03  0.25500000920E-02 0.  1.
    10030    2    1    2    0    0  0.00000000000E+00  0.00000000000E+00  0.53994835047E+03  0.96149478026E+03  0.79556771634E+03 0.  0.
        1    1    3    3  502    0  0.39180154249E+03 -0.43301115382E+02  0.33447758253E+03  0.51697068440E+03  0.50400001928E-02 0. -1.
       -1    1    3    3    0  502 -0.39180154249E+03  0.43301115382E+02  0.20547076794E+03  0.44452409586E+03  0.50400001928E-02 0.  1.
</event>
<event>
 5   0  0.1498375E-02  0.7875856E+03  0.7818609E-02  0.9578162E-01
        1   -1    0    0  501    0  0.00000000000E+00  0.00000000000E+00  0.36484552009E+03  0.36484552012E+03  0.50400001928E-02 0. -1.
       -1   -1    0    0    0  501  0.00000000000E+00  0.00000000000E+00 -0.42503684017E+03  0.42503684020E+03  0.50400001928E-02 0.  1.
    10030    2    1    2    0    0  0.00000000000E+00  0.00000000000E+00 -0.60191320085E+02  0.78988236033E+03  0.78758564496E+03 0.  0.
        4    1    3    3  502    0 -0.31190145919E+03 -0.12706293667E+03 -0.23475854439E+03  0.41053708381E+03  0.12699999809E+01 0.  1.
       -4    1    3    3    0  502  0.31190145919E+03  0.12706293667E+03  0.17456722431E+03  0.37934527652E+03  0.12699999809E+01 0. -1.
</event>
<event>
 5   0  0.2460312E-02  0.7954321E+03  0.7818609E-02  0.9566653E-01
        2   -1    0    0  501    0  0.00000000000E+00  0.00000000000E+00  0.48291837015E+03  0.48291837015E+03  0.25500000920E-02 0. -1.
       -2   -1    0    0    0  501  0.00000000000E+00  0.00000000000E+00 -0.32754614199E+03  0.32754614200E+03  0.25500000920E-02 0.  1.
    10030    2    1    2    0    0  0.00000000000E+00  0.00000000000E+00  0.15537222815E+03  0.81046451216E+03  0.79543208144E+03 0.  0.
        2    1    3    3  502    0  0.39463957911E+03 -0.23077279403E+02  0.12215832717E+03  0.41375791851E+03  0.25500000920E-02 0. -1.
       -2    1    3    3    0  502 -0.39463957911E+03  0.23077279403E+02  0.33213900977E+02  0.39670659365E+03  0.25500000920E-02 0.  1.
</event>
<event>
 5   0  0.1509629E-02  0.8024316E+03  0.7818609E-02  0.9556504E-01
        1   -1    0    0  501    0  0.00000000000E+00  0.00000000000E+00  0.26688731490E+03  0.26688731495E+03  0.50400001928E-02 0. -1.
       -1   -1    0    0    0  501  0.00000000000E+00  0.00000000000E+00 -0.60315393019E+03  0.60315393021E+03  0.50400001928E-02 0.  1.
    10030    2    1    2    0    0  0.00000000000E+00  0.00000000000E+00 -0.33626661529E+03  0.87004124516E+03  0.80243163679E+03 0.  0.
        5    1    3    3  502    0  0.37151929997E+02  0.34544097512E+03 -0.38564031250E+03  0.51908599848E+03  0.46999998093E+01 0.  1.
       -5    1    3    3    0  502 -0.37151929997E+02 -0.34544097512E+03  0.49373697210E+02  0.35095524668E+03  0.46999998093E+01 0. -1.
</event>
<event>
 5   0  0.2454354E-02  0.7957642E+03  0.7818609E-02  0.9566169E-01
        2   -1    0    0  501    0  0.00000000000E+00  0.00000000000E+00  0.47437526939E+03  0.47437526940E+03  0.25500000920E-02 0.  1.
       -2   -1    0    0    0  501  0.00000000000E+00  0.00000000000E+00 -0.33372348513E+03  0.33372348514E+03  0.25500000920E-02 0. -1.
    10030    2    1    2    0    0  0.00000000000E+00  0.00000000000E+00  0.14065178427E+03  0.80809875454E+03  0.79576420670E+03 0.  0.
        5    1    3    3  502    0 -0.15143437907E+03 -0.29235031915E+03 -0.15649012578E+03  0.36457143297E+03  0.46999998093E+01 0.  1.
       -5    1    3    3    0  502  0.15143437907E+03  0.29235031915E+03  0.29714191005E+03  0.44352732157E+03  0.46999998093E+01 0. -1.
</event>
<event>
 5   0  0.2454354E-02  0.7965961E+03  0.7818609E-02  0.9564957E-01
        2   -1    0    0  501    0  0.00000000000E+00  0.00000000000E+00  0.14538605456E+04  0.14538605456E+04  0.25500000920E-02 0.  1.
       -2   -1    0    0    0  501  0.00000000000E+00  0.00000000000E+00 -0.10911730751E+03  0.10911730754E+03  0.25500000920E-02 0. -1.
    10030    2    1    2    0    0  0.00000000000E+00  0.00000000000E+00  0.13447432381E+04  0.15629778532E+04  0.79659612920E+03 0.  0.
        5    1    3    3  502    0 -0.13274612816E+03  0.44253902021E+02  0.14039880385E+04  0.14109516096E+04  0.46999998093E+01 0.  1.
       -5    1    3    3    0  502  0.13274612816E+03 -0.44253902021E+02 -0.59244800333E+02  0.15202624363E+03  0.46999998093E+01 0. -1.
</event>
<event>
 5   0  0.1523811E-02  0.7894923E+03  0.7818609E-02  0.9575352E-01
       -1   -1    0    0    0  501  0.00000000000E+00  0.00000000000E+00  0.24919339948E+03  0.24919339953E+03  0.50400001928E-02 0.  1.
        1   -1    0    0  501    0  0.00000000000E+00  0.00000000000E+00 -0.62531553682E+03  0.62531553684E+03  0.50400001928E-02 0. -1.
    10030    2    1    2    0    0  0.00000000000E+00  0.00000000000E+00 -0.37612213734E+03  0.87450893637E+03  0.78949225303E+03 0.  0.
        1    1    3    3  502    0  0.36268019876E+03  0.11825370821E+03 -0.30049869828E+03  0.48561335831E+03  0.50400001928E-02 0.  1.
       -1    1    3    3    0  502 -0.36268019876E+03 -0.11825370821E+03 -0.75623439064E+02  0.38889557806E+03  0.50400001928E-02 0. -1.
</event>
<event>
 5   0  0.1498375E-02  0.7942041E+03  0.7818609E-02  0.9568444E-01
       -1   -1    0    0    0  501  0.00000000000E+00  0.00000000000E+00  0.44064515554E+03  0.44064515556E+03  0.50400001928E-02 0. -1.
        1   -1    0    0  501    0  0.00000000000E+00  0.00000000000E+00 -0.35786177472E+03  0.35786177475E+03  0.50400001928E-02 0.  1.
    10030    2    1    2    0    0  0.00000000000E+00  0.00000000000E+00  0.82783380819E+02  0.79850693032E+03  0.79420414858E+03 0.  0.
        4    1    3    3  502    0  0.25349337417E+02 -0.38947097416E+03  0.11498810248E+03  0.40688340496E+03  0.12699999809E+01 0. -1.
       -4    1    3    3    0  502 -0.25349337417E+02  0.38947097416E+03 -0.32204721659E+02  0.39162352536E+03  0.12699999809E+01 0.  1.
</event>
<event>
 5   0  0.2464780E-02  0.8489532E+03  0.7818609E-02  0.9491743E-01
        2   -1    0    0  501    0  0.00000000000E+00  0.00000000000E+00  0.84357626445E+03  0.84357626445E+03  0.25500000920E-02 0.  1.
       -2   -1    0    0    0  501  0.00000000000E+00  0.00000000000E+00 -0.21359112340E+03  0.21359112341E+03  0.25500000920E-02 0. -1.
    10030    2    1    2    0    0  0.00000000000E+00  0.00000000000E+00  0.62998514105E+03  0.10571673879E+04  0.84895324254E+03 0.  0.
        3    1    3    3  502    0 -0.16098020459E+03  0.28482556832E+03  0.65176609525E+03  0.72927312014E+03  0.10100000352E+00 0.  1.
       -3    1    3    3    0  502  0.16098020459E+03 -0.28482556832E+03 -0.21780954203E+02  0.32789426772E+03  0.10100000352E+00 0. -1.
</event>
<event>
 5   0  0.2571778E-02  0.7985447E+03  0.7818609E-02  0.9562126E-01
       -2   -1    0    0    0  501  0.00000000000E+00  0.00000000000E+00  0.57476073009E+02  0.57476073066E+02  0.25500000920E-02 0.  1.
        2   -1    0    0  501    0  0.00000000000E+00  0.00000000000E+00 -0.27736481149E+04  0.27736481149E+04  0.25500000920E-02 0. -1.
    10030    2    1    2    0    0  0.00000000000E+00  0.00000000000E+00 -0.27161720419E+04  0.28311241880E+04  0.79854468037E+03 0.  0.
        1    1    3    3  502    0  0.76304491502E+02  0.23788597445E+03 -0.25385575770E+03  0.35616689628E+03  0.50400001928E-02 0.  1.
       -1    1    3    3    0  502 -0.76304491502E+02 -0.23788597445E+03 -0.24623162842E+04  0.24749572917E+04  0.50400001928E-02 0. -1.
</event>
<event>
 5   0  0.2454354E-02  0.6009752E+03  0.7818609E-02  0.9903385E-01
       -2   -1    0    0    0  501  0.00000000000E+00  0.00000000000E+00  0.95603540511E+02  0.95603540545E+02  0.25500000920E-02 0.  1.
        2   -1    0    0  501    0  0.00000000000E+00  0.00000000000E+00 -0.94445040406E+03  0.94445040406E+03  0.25500000920E-02 0. -1.
    10030    2    1    2    0    0  0.00000000000E+00  0.00000000000E+00 -0.84884686355E+03  0.10400539446E+04  0.60097521574E+03 0.  0.
        5    1    3    3  502    0  0.13348332205E+03 -0.23922344280E+03 -0.21088364502E+03  0.34574507167E+03  0.46999998093E+01 0.  1.
       -5    1    3    3    0  502 -0.13348332205E+03  0.23922344280E+03 -0.63796321852E+03  0.69430887293E+03  0.46999998093E+01 0. -1.
</event>
<event>
 5   0  0.2454354E-02  0.7917611E+03  0.7818609E-02  0.9572020E-01
       -2   -1    0    0    0  501  0.00000000000E+00  0.00000000000E+00  0.14708644009E+03  0.14708644011E+03  0.25500000920E-02 0. -1.
        2   -1    0    0  501    0  0.00000000000E+00  0.00000000000E+00 -0.10655054799E+04  0.10655054799E+04  0.25500000920E-02 0.  1.
    10030    2    1    2    0    0  0.00000000000E+00  0.00000000000E+00 -0.91841903980E+03  0.12125919200E+04  0.79176109516E+03 0.  0.
        5    1    3    3  502    0 -0.44351173607E+02 -0.21025702663E+02 -0.10607844078E+04  0.10619297324E+04  0.46999998093E+01 0.  1.
       -5    1    3    3    0  502  0.44351173607E+02  0.21025702663E+02  0.14236536798E+03  0.15066218760E+03  0.46999998093E+01 0. -1.
</event>
<event>
 5   0  0.2464780E-02  0.8113897E+03  0.7818609E-02  0.9543676E-01
        2   -1    0    0  501    0  0.00000000000E+00  0.00000000000E+00  0.25846753060E+04  0.25846753060E+04  0.25500000920E-02 0. -1.
       -2   -1    0    0    0  501  0.00000000000E+00  0.00000000000E+00 -0.63678521476E+02  0.63678521527E+02  0.25500000920E-02 0.  1.
    10030    2    1    2    0    0  0.00000000000E+00  0.00000000000E+00  0.25209967845E+04  0.26483538275E+04  0.81138967716E+03 0.  0.
        3    1    3    3  502    0  0.92944392309E+02 -0.15049427556E+03  0.68808093358E+02  0.18979396974E+03  0.10100000352E+00 0.  1.
       -3    1    3    3    0  502 -0.92944392309E+02  0.15049427556E+03  0.24521886911E+04  0.24585598578E+04  0.10100000352E+00 0. -1.
</event>
<event>
 5   0  0.2422031E-02  0.7883628E+03  0.7818609E-02  0.9577016E-01
       -2   -1    0    0    0  501  0.00000000000E+00  0.00000000000E+00  0.19944939744E+03  0.19944939746E+03  0.25500000920E-02 0.  1.
        2   -1    0    0  501    0  0.00000000000E+00  0.00000000000E+00 -0.77903959165E+03  0.77903959166E+03  0.25500000920E-02 0. -1.
    10030    2    1    2    0    0  0.00000000000E+00  0.00000000000E+00 -0.57959019421E+03  0.97848898912E+03  0.78836280265E+03 0.  0.
        4    1    3    3  502    0 -0.16012857501E+03 -0.27168472222E+03 -0.58330816271E+03  0.66310163203E+03  0.12699999809E+01 0. -1.
       -4    1    3    3    0  502  0.16012857501E+03  0.27168472222E+03  0.37179684969E+01  0.31538735709E+03  0.12699999809E+01 0.  1.
</event>
<event>
 5   0  0.1509629E-02  0.7902839E+03  0.7818609E-02  0.9574188E-01
        1   -1    0    0  501    0  0.00000000000E+00  0.00000000000E+00  0.19211200400E+04  0.19211200400E+04  0.50400001928E-02 0.  1.
       -1   -1    0    0    0  501  0.00000000000E+00  0.00000000000E+00 -0.81274025566E+02  0.81274025722E+02  0.50400001928E-02 0. -1.
    10030    2    1    2    0    0  0.00000000000E+00  0.00000000000E+00  0.18398460145E+04  0.20023940657E+04  0.79028389687E+03 0.  0.
        5    1    3    3  502    0  0.10523969494E+03  0.36255304338E+03  0.62449239675E+03  0.72974855002E+03  0.46999998093E+01 0. -1.
       -5    1    3    3    0  502 -0.10523969494E+03 -0.36255304338E+03  0.12153536177E+04  0.12726455157E+04  0.46999998093E+01 0.  1.
</event>
<event>
 5   0  0.2464780E-02  0.7873113E+03  0.7818609E-02  0.9578567E-01
        2   -1    0    0  501    0  0.00000000000E+00  0.00000000000E+00  0.70307515046E+03  0.70307515046E+03  0.25500000920E-02 0. -1.
       -2   -1    0    0    0  501  0.00000000000E+00  0.00000000000E+00 -0.22040996950E+03  0.22040996952E+03  0.25500000920E-02 0.  1.
    10030    2    1    2    0    0  0.00000000000E+00  0.00000000000E+00  0.48266518096E+03  0.92348511998E+03  0.78731130432E+03 0.  0.
        3    1    3    3  502    0  0.44394349408E+02  0.97078814830E+02  0.68577415920E+03  0.69403268092E+03  0.10100000352E+00 0. -1.
       -3    1    3    3    0  502 -0.44394349408E+02 -0.97078814830E+02 -0.20310897824E+03  0.22945243906E+03  0.10100000352E+00 0.  1.
</event>
<event>
 5   0  0.2422031E-02  0.7903391E+03  0.7818609E-02  0.9574107E-01
        2   -1    0    0  501    0  0.00000000000E+00  0.00000000000E+00  0.59663254207E+03  0.59663254208E+03  0.25500000920E-02 0.  1.
       -2   -1    0    0    0  501  0.00000000000E+00  0.00000000000E+00 -0.26173390157E+03  0.26173390158E+03  0.25500000920E-02 0. -1.
    10030    2    1    2    0    0  0.00000000000E+00  0.00000000000E+00  0.33489864050E+03  0.85836644366E+03  0.79033907419E+03 0.  0.
        4    1    3    3  502    0  0.86638728145E+02 -0.23482240036E+03 -0.16466468799E+03  0.29960624375E+03  0.12699999809E+01 0. -1.
       -4    1    3    3    0  502 -0.86638728145E+02  0.23482240036E+03  0.49956332850E+03  0.55876019991E+03  0.12699999809E+01 0.  1.
</event>
<event>
 5   0  0.2571778E-02  0.7906963E+03  0.7818609E-02  0.9573582E-01
       -2   -1    0    0    0  501  0.00000000000E+00  0.00000000000E+00  0.12328004650E+03  0.12328004652E+03  0.25500000920E-02 0.  1.
        2   -1    0    0  501    0  0.00000000000E+00  0.00000000000E+00 -0.12678462436E+04  0.12678462436E+04  0.25500000920E-02 0. -1.
    10030    2    1    2    0    0  0.00000000000E+00  0.00000000000E+00 -0.11445661971E+04  0.13911262902E+04  0.79069625998E+03 0.  0.
        1    1    3    3  502    0  0.79812085186E+01 -0.19858720541E+03  0.28997911779E+02  0.20085182786E+03  0.50400001928E-02 0.  1.
       -1    1    3    3    0  502 -0.79812085186E+01  0.19858720541E+03 -0.11735641089E+04  0.11902744623E+04  0.50400001928E-02 0. -1.
</event>
<event>
 5   0  0.1498375E-02  0.7952586E+03  0.7818609E-02  0.9566906E-01
        1   -1    0    0  501    0  0.00000000000E+00  0.00000000000E+00  0.13056571729E+04  0.13056571729E+04  0.50400001928E-02 0. -1.
       -1   -1    0    0    0  501  0.00000000000E+00  0.00000000000E+00 -0.12109539051E+03  0.12109539062E+03  0.50400001928E-02 0.  1.
    10030    2    1    2    0    0  0.00000000000E+00  0.00000000000E+00  0.11845617824E+04  0.14267525636E+04  0.79525861281E+03 0.  0.
        4    1    3    3  502    0 -0.79526259303E+02 -0.23848000497E+03  0.11449904617E+04  0.11722635834E+04  0.12699999809E+01 0. -1.
       -4    1    3    3    0  502  0.79526259303E+02  0.23848000497E+03  0.39571320699E+02  0.25448898014E+03  0.12699999809E+01 0.  1.
</event>
<event>
 5   0  0.2464780E-02  0.7873868E+03  0.7818609E-02  0.9578456E-01
        2   -1    0    0  501    0  0.00000000000E+00  0.00000000000E+00  0.67701620765E+03  0.67701620765E+03  0.25500000920E-02 0. -1.
       -2   -1    0    0    0  501  0.00000000000E+00  0.00000000000E+00 -0.22893762489E+03  0.22893762491E+03  0.25500000920E-02 0.  1.
    10030    2    1    2    0    0  0.00000000000E+00  0.00000000000E+00  0.44807858275E+03  0.90595383256E+03  0.78738677307E+03 0.  0.
        3    1    3    3  502    0 -0.28340381324E+03  0.26016775931E+03  0.12784691917E+03  0.40540082547E+03  0.10100000352E+00 0.  1.
       -3    1    3    3    0  502  0.28340381324E+03 -0.26016775931E+03  0.32023166358E+03  0.50055300709E+03  0.10100000352E+00 0. -1.
</event>
<event>
 5   0  0.2454354E-02  0.7616372E+03  0.7818609E-02  0.9617268E-01
       -2   -1    0    0    0  501  0.00000000000E+00  0.00000000000E+00  0.47818730932E+03  0.47818730933E+03  0.25500000920E-02 0.  1.
        2   -1    0    0  501    0  0.00000000000E+00  0.00000000000E+00 -0.30327611970E+03  0.30327611971E+03  0.25500000920E-02 0. -1.
    10030    2    1    2    0    0  0.00000000000E+00  0.00000000000E+00  0.17491118962E+03  0.78146342905E+03  0.76163716209E+03 0.  0.
        5    1    3    3  502    0 -0.26935665394E+03 -0.15175513523E+03 -0.14063293106E+03  0.33967976005E+03  0.46999998093E+01 0.  1.
       -5    1    3    3    0  502  0.26935665394E+03  0.15175513523E+03  0.31554412068E+03  0.44178366899E+03  0.46999998093E+01 0. -1.
</event>
<event>
 5   0  0.1523811E-02  0.8325614E+03  0.7818609E-02  0.9514046E-01
       -1   -1    0    0    0  501  0.00000000000E+00  0.00000000000E+00  0.32492449685E+03  0.32492449688E+03  0.50400001928E-02 0.  1.
        1   -1    0    0  501    0  0.00000000000E+00  0.00000000000E+00 -0.53332277472E+03  0.53332277474E+03  0.50400001928E-02 0. -1.
    10030    2    1    2    0    0  0.00000000000E+00  0.00000000000E+00 -0.20839827787E+03  0.85824727163E+03  0.83256143139E+03 0.  0.
        1    1    3    3  502    0  0.15699987478E+03 -0.27002743197E+03  0.17947402268E+03  0.36024255653E+03  0.50400001928E-02 0.  1.
       -1    1    3    3    0  502 -0.15699987478E+03  0.27002743197E+03 -0.38787230055E+03  0.49800471509E+03  0.50400001928E-02 0. -1.
</event>
<event>
 5   0  0.9919125E-03  0.7851456E+03  0.7818609E-02  0.9581771E-01
        3   -1    0    0  501    0  0.00000000000E+00  0.00000000000E+00  0.40785084342E+03  0.40785085593E+03  0.10100000352E+00 0.  1.
       -3   -1    0    0    0  501  0.00000000000E+00  0.00000000000E+00 -0.37786708837E+03  0.37786710187E+03  0.10100000352E+00 0. -1.
    10030    2    1    2    0    0  0.00000000000E+00  0.00000000000E+00  0.29983755048E+02  0.78571795779E+03  0.78514564485E+03 0.  0.
        4    1    3    3  502    0  0.15019616815E+03  0.11052829909E+03 -0.33071096073E+03  0.37966662518E+03  0.12699999809E+01 0. -1.
       -4    1    3    3    0  502 -0.15019616815E+03 -0.11052829909E+03  0.36069471578E+03  0.40605133261E+03  0.12699999809E+01 0.  1.
</event>
<event>
 5   0  0.1498375E-02  0.8064065E+03  0.7818609E-02  0.9550790E-01
       -1   -1    0    0    0  501  0.00000000000E+00  0.00000000000E+00  0.21365735133E+03  0.21365735139E+03  0.50400001928E-02 0. -1.
        1   -1    0    0  501    0  0.00000000000E+00  0.00000000000E+00 -0.76090452991E+03  0.76090452993E+03  0.50400001928E-02 0.  1.
    10030    2    1    2    0    0  0.00000000000E+00  0.00000000000E+00 -0.54724717858E+03  0.97456188132E+03  0.80640646455E+03 0.  0.
        4    1    3    3  502    0  0.25723343180E+03 -0.30424851284E+03 -0.34846470168E+03  0.52930658150E+03  0.12699999809E+01 0.  1.
       -4    1    3    3    0  502 -0.25723343180E+03  0.30424851284E+03 -0.19878247690E+03  0.44525529983E+03  0.12699999809E+01 0. -1.
</event>
<event>
 5   0  0.2422031E-02  0.8114110E+03  0.7818609E-02  0.9543645E-01
       -2   -1    0    0    0  501  0.00000000000E+00  0.00000000000E+00  0.94388020098E+02  0.94388020133E+02  0.25500000920E-02 0.  1.
        2   -1    0    0  501    0  0.00000000000E+00  0.00000000000E+00 -0.17438331132E+04  0.17438331132E+04  0.25500000920E-02 0. -1.
    10030    2    1    2    0    0  0.00000000000E+00  0.00000000000E+00 -0.16494450931E+04  0.18382211333E+04  0.81141100552E+03 0.  0.
        4    1    3    3  502    0  0.28064497759E+03  0.27849798425E+03 -0.10307751815E+04  0.11040026351E+04  0.12699999809E+01 0. -1.
       -4    1    3    3    0  502 -0.28064497759E+03 -0.27849798425E+03 -0.61866991159E+03  0.73421849819E+03  0.12699999809E+01 0.  1.
</event>
<event>
 5   0  0.1624094E-02  0.8151750E+03  0.7818609E-02  0.9538308E-01
        1   -1    0    0  501    0  0.00000000000E+00  0.00000000000E+00  0.44815741321E+03  0.44815741324E+03  0.50400001928E-02 0.  1.
       -1   -1    0    0    0  501  0.00000000000E+00  0.00000000000E+00 -0.37069026025E+03  0.37069026028E+03  0.50400001928E-02 0. -1.
    10030    2    1    2    0    0  0.00000000000E+00  0.00000000000E+00  0.77467152958E+02  0.81884767352E+03  0.81517504417E+03 0.  0.
        3    1    3    3  502    0 -0.39366898918E+03  0.10363487280E+03  0.18341424202E+02  0.40749463548E+03  0.10100000352E+00 0.  1.
       -3    1    3    3    0  502  0.39366898918E+03 -0.10363487280E+03  0.59125728756E+02  0.41135303804E+03  0.10100000352E+00 0. -1.
</event>
<event>
 5   0  0.2454354E-02  0.7836497E+03  0.7818609E-02  0.9583990E-01
       -2   -1    0    0    0  501  0.00000000000E+00  0.00000000000E+00  0.86686091175E+02  0.86686091213E+02  0.25500000920E-02 0. -1.
        2   -1    0    0  501    0  0.00000000000E+00  0.00000000000E+00 -0.17710650479E+04  0.17710650479E+04  0.25500000920E-02 0.  1.
    10030    2    1    2    0    0  0.00000000000E+00  0.00000000000E+00 -0.16843789567E+04  0.18577511391E+04  0.78364968258E+03 0.  0.
        5    1    3    3  502    0 -0.22468080721E+03  0.26880076428E+03 -0.42635127659E+03  0.55184492120E+03  0.46999998093E+01 0. -1.
       -5    1    3    3    0  502  0.22468080721E+03 -0.26880076428E+03 -0.12580276801E+04  0.13059062179E+04  0.46999998093E+01 0.  1.
</event>
<event>
 5   0  0.2460312E-02  0.8061193E+03  0.7818609E-02  0.9551202E-01
       -2   -1    0    0    0  501  0.00000000000E+00  0.00000000000E+00  0.63477679926E+02  0.63477679977E+02  0.25500000920E-02 0.  1.
        2   -1    0    0  501    0  0.00000000000E+00  0.00000000000E+00 -0.25592789829E+04  0.25592789829E+04  0.25500000920E-02 0. -1.
    10030    2    1    2    0    0  0.00000000000E+00  0.00000000000E+00 -0.24958013030E+04  0.26227566629E+04  0.80611932662E+03 0.  0.
        2    1    3    3  502    0 -0.39729926834E+03  0.44894756747E+02 -0.14136356861E+04  0.14690909097E+04  0.25500000920E-02 0. -1.
       -2    1    3    3    0  502  0.39729926834E+03 -0.44894756747E+02 -0.10821656168E+04  0.11536657532E+04  0.25500000920E-02 0.  1.
</event>
<event>
 5   0  0.2454354E-02  0.7340530E+03  0.7818609E-02  0.9660706E-01
       -2   -1    0    0    0  501  0.00000000000E+00  0.00000000000E+00  0.53651071313E+02  0.53651071373E+02  0.25500000920E-02 0.  1.
        2   -1    0    0  501    0  0.00000000000E+00  0.00000000000E+00 -0.25108249634E+04  0.25108249634E+04  0.25500000920E-02 0. -1.
    10030    2    1    2    0    0  0.00000000000E+00  0.00000000000E+00 -0.24571738921E+04  0.25644760348E+04  0.73405299330E+03 0.  0.
        5    1    3    3  502    0  0.12456584169E+03 -0.33879306902E+03 -0.99713950983E+03  0.10604747449E+04  0.46999998093E+01 0. -1.
       -5    1    3    3    0  502 -0.12456584169E+03  0.33879306902E+03 -0.14600343823E+04  0.15040012899E+04  0.46999998093E+01 0.  1.
</event>
<event>
 5   0  0.1624094E-02  0.8041839E+03  0.7818609E-02  0.9553981E-01
        1   -1    0    0  501    0  0.00000000000E+00  0.00000000000E+00  0.22715550798E+03  0.22715550804E+03  0.50400001928E-02 0.  1.
       -1   -1    0    0    0  501  0.00000000000E+00  0.00000000000E+00 -0.71175006828E+03  0.71175006830E+03  0.50400001928E-02 0. -1.
    10030    2    1    2    0    0  0.00000000000E+00  0.00000000000E+00 -0.48459456030E+03  0.93890557634E+03  0.80418393008E+03 0.  0.
        3    1    3    3  502    0 -0.13676480888E+03 -0.19602826266E+03 -0.61980057662E+03  0.66429244891E+03  0.10100000352E+00 0. -1.
       -3    1    3    3    0  502  0.13676480888E+03  0.19602826266E+03  0.13520601631E+03  0.27461312743E+03  0.10100000352E+00 0.  1.
</event>
<event>
 5   0  0.1471290E-02  0.8094992E+03  0.7818609E-02  0.9546368E-01
        1   -1    0    0  501    0  0.00000000000E+00  0.00000000000E+00  0.44471709920E+03  0.44471709923E+03  0.50400001928E-02 0.  1.
       -1   -1    0    0    0  501  0.00000000000E+00  0.00000000000E+00 -0.36837405732E+03  0.36837405735E+03  0.50400001928E-02 0. -1.
    10030    2    1    2    0    0  0.00000000000E+00  0.00000000000E+00  0.76343041882E+02  0.81309115658E+03  0.80949920869E+03 0.  0.
        2    1    3    3  502    0 -0.85494214109E+02 -0.28830967498E+03  0.31028043578E+03  0.43209452457E+03  0.25500000920E-02 0.  1.
       -2    1    3    3    0  502  0.85494214109E+02  0.28830967498E+03 -0.23393739390E+03  0.38099663201E+03  0.25500000920E-02 0. -1.
</event>
<event>
 5   0  0.2464780E-02  0.7964633E+03  0.7818609E-02  0.9565151E-01
       -2   -1    0    0    0  501  0.00000000000E+00  0.00000000000E+00  0.30350454017E+03  0.30350454018E+03  0.25500000920E-02 0. -1.
        2   -1    0    0  501    0  0.00000000000E+00  0.00000000000E+00 -0.52252409691E+03  0.52252409692E+03  0.25500000920E-02 0.  1.
    10030    2    1    2    0    0  0.00000000000E+00  0.00000000000E+00 -0.21901955674E+03  0.82602863710E+03  0.79646327164E+03 0.  0.
        3    1    3    3  502    0  0.18171627932E+02  0.29162696363E+03  0.17111129605E+03  0.33860829850E+03  0.10100000352E+00 0. -1.
       -3    1    3    3    0  502 -0.18171627932E+02 -0.29162696363E+03 -0.39013085279E+03  0.48742033860E+03  0.10100000352E+00 0.  1.
</event>
<event>
 5   0  0.1471290E-02  0.7912859E+03  0.7818609E-02  0.9572717E-01
       -1   -1    0    0    0  501  0.00000000000E+00  0.00000000000E+00  0.29981188240E+03  0.29981188244E+03  0.50400001928E-02 0. -1.
        1   -1    0    0  501    0  0.00000000000E+00  0.00000000000E+00 -0.52210526778E+03  0.52210526781E+03  0.50400001928E-02 0.  1.
    10030    2    1    2    0    0  0.00000000000E+00  0.00000000000E+00 -0.22229338538E+03  0.82191715025E+03  0.79128594875E+03 0.  0.
        2    1    3    3  502    0 -0.39014036880E+02 -0.22921590942E+03 -0.44364985940E+03  0.50088644019E+03  0.25500000920E-02 0.  1.
       -2    1    3    3    0  502  0.39014036880E+02  0.22921590942E+03  0.22135647402E+03  0.32103071006E+03  0.25500000920E-02 0. -1.
</event>
<event>
 5   0  0.2422031E-02  0.8009748E+03  0.7818609E-02  0.9558607E-01
       -2   -1    0    0    0  501  0.00000000000E+00  0.00000000000E+00  0.35139242165E+03  0.35139242166E+03  0.25500000920E-02 0. -1.
        2   -1    0    0  501    0  0.00000000000E+00  0.00000000000E+00 -0.45644175049E+03  0.45644175050E+03  0.25500000920E-02 0.  1.
    10030    2    1    2    0    0  0.00000000000E+00  0.00000000000E+00 -0.10504932884E+03  0.80783417216E+03  0.80097483620E+03 0.  0.
        4    1    3    3  502    0  0.31701658271E+02  0.14626521751E+03  0.32212662727E+03  0.35519809387E+03  0.12699999809E+01 0. -1.
       -4    1    3    3    0  502 -0.31701658271E+02 -0.14626521751E+03 -0.42717595611E+03  0.45263607829E+03  0.12699999809E+01 0.  1.
</event>
<event>
 5   0  0.1498375E-02  0.7946832E+03  0.7818609E-02  0.9567745E-01
        1   -1    0    0  501    0  0.00000000000E+00  0.00000000000E+00  0.53021869949E+03  0.53021869951E+03  0.50400001928E-02 0. -1.
       -1   -1    0    0    0  501  0.00000000000E+00  0.00000000000E+00 -0.29776455078E+03  0.29776455082E+03  0.50400001928E-02 0.  1.
    10030    2    1    2    0    0  0.00000000000E+00  0.00000000000E+00  0.23245414871E+03  0.82798325034E+03  0.79468316428E+03 0.  0.
        4    1    3    3  502    0 -0.37277552606E+03 -0.56630686785E+01 -0.26954352773E+02  0.37379381109E+03  0.12699999809E+01 0.  1.
       -4    1    3    3    0  502  0.37277552606E+03  0.56630686785E+01  0.25940850148E+03  0.45418943924E+03  0.12699999809E+01 0. -1.
</event>
<event>
 5   0  0.1523811E-02  0.7868735E+03  0.7818609E-02  0.9579214E-01
       -1   -1    0    0    0  501  0.00000000000E+00  0.00000000000E+00  0.33131817713E+03  0.33131817717E+03  0.50400001928E-02 0. -1.
        1   -1    0    0  501    0  0.00000000000E+00  0.00000000000E+00 -0.46720190283E+03  0.46720190286E+03  0.50400001928E-02 0.  1.
    10030    2    1    2    0    0  0.00000000000E+00  0.00000000000E+00 -0.13588372569E+03  0.79852008003E+03  0.78687351671E+03 0.  0.
        1    1    3    3  502    0  0.12088209732E+03  0.56632035639E+02  0.30763437016E+03  0.33534843766E+03  0.50400001928E-02 0. -1.
       -1    1    3    3    0  502 -0.12088209732E+03 -0.56632035639E+02 -0.44351809586E+03  0.46317164236E+03  0.50400001928E-02 0.  1.
</event>
<event>
 5   0  0.1509629E-02  0.8004290E+03  0.7818609E-02  0.9559396E-01
       -1   -1    0    0    0  501  0.00000000000E+00  0.00000000000E+00  0.37284275034E+03  0.37284275037E+03  0.50400001928E-02 0. -1.
        1   -1    0    0  501    0  0.00000000000E+00  0.00000000000E+00 -0.42959573902E+03  0.42959573905E+03  0.50400001928E-02 0.  1.
    10030    2    1    2    0    0  0.00000000000E+00  0.00000000000E+00 -0.56752988684E+02  0.80243848942E+03  0.80042902720E+03 0.  0.
        5    1    3    3  502    0 -0.41994961076E+02 -0.26155141268E+03 -0.32909095386E+03  0.42248747217E+03  0.46999998093E+01 0.  1.
       -5    1    3    3    0  502  0.41994961076E+02  0.26155141268E+03  0.27233796518E+03  0.37995101725E+03  0.46999998093E+01 0. -1.
</event>
<event>
 5   0  0.1523811E-02  0.8254092E+03  0.7818609E-02  0.9523950E-01
       -1   -1    0    0    0  501  0.00000000000E+00  0.00000000000E+00  0.23692848377E+03  0.23692848383E+03  0.50400001928E-02 0. -1.
        1   -1    0    0  501    0  0.00000000000E+00  0.00000000000E+00 -0.71888812962E+03  0.71888812964E+03  0.50400001928E-02 0.  1.
    10030    2    1    2    0    0  0.00000000000E+00  0.00000000000E+00 -0.48195964585E+03  0.95581661346E+03  0.82540917026E+03 0.  0.
        1    1    3    3  502    0  0.33829762080E+03  0.12549700226E+03 -0.47295497651E+03  0.59487913701E+03  0.50400001928E-02 0.  1.
       -1    1    3    3    0  502 -0.33829762080E+03 -0.12549700226E+03 -0.90046693364E+01  0.36093747646E+03  0.50400001928E-02 0. -1.
</event>
<event>
 5   0  0.2460312E-02  0.8055409E+03  0.7818609E-02  0.9552031E-01
       -2   -1    0    0    0  501  0.00000000000E+00  0.00000000000E+00  0.12708411571E+03  0.12708411574E+03  0.25500000920E-02 0.  1.
        2   -1    0    0  501    0  0.00000000000E+00  0.00000000000E+00 -0.12765091400E+04  0.12765091400E+04  0.25500000920E-02 0. -1.
    10030    2    1    2    0    0  0.00000000000E+00  0.00000000000E+00 -0.11494250243E+04  0.14035932557E+04  0.80554089970E+03 0.  0.
        2    1    3    3  502    0 -0.18854953435E+03  0.95954721250E+02  0.22473184289E+02  0.21275168495E+03  0.25500000920E-02 0.  1.
       -2    1    3    3    0  502  0.18854953435E+03 -0.95954721250E+02 -0.11718982086E+04  0.11908415708E+04  0.25500000920E-02 0. -1.
</event>
<event>
 5   0  0.1498375E-02  0.7904444E+03  0.7818609E-02  0.9573952E-01
        1   -1    0    0  501    0  0.00000000000E+00  0.00000000000E+00  0.75874659801E+03  0.75874659803E+03  0.50400001928E-02 0.  1.
       -1   -1    0    0    0  501  0.00000000000E+00  0.00000000000E+00 -0.20586658648E+03  0.20586658655E+03  0.50400001928E-02 0. -1.
    10030    2    1    2    0    0  0.00000000000E+00  0.00000000000E+00  0.55288001153E+03  0.96461318458E+03  0.79044436155E+03 0.  0.
        4    1    3    3  502    0  0.27869125002E+03 -0.25785265741E+03  0.41035646786E+03  0.55906247360E+03  0.12699999809E+01 0. -1.
       -4    1    3    3    0  502 -0.27869125002E+03  0.25785265741E+03  0.14252354367E+03  0.40555071097E+03  0.12699999809E+01 0.  1.
</event>
<event>
 5   0  0.2464780E-02  0.7916637E+03  0.7818609E-02  0.9572163E-01
       -2   -1    0    0    0  501  0.00000000000E+00  0.00000000000E+00  0.89458305545E+02  0.89458305581E+02  0.25500000920E-02 0. -1.
        2   -1    0    0  501    0  0.00000000000E+00  0.00000000000E+00 -0.17514624712E+04  0.17514624712E+04  0.25500000920E-02 0.  1.
    10030    2    1    2    0    0  0.00000000000E+00  0.00000000000E+00 -0.16620041656E+04  0.18409207768E+04  0.79166372895E+03 0.  0.
        3    1    3    3  502    0 -0.38941600852E+03  0.61160800181E+02 -0.74724364912E+03  0.84484232406E+03  0.10100000352E+00 0. -1.
       -3    1    3    3    0  502  0.38941600852E+03 -0.61160800181E+02 -0.91476051652E+03  0.99607845271E+03  0.10100000352E+00 0.  1.
</event>
<event>
 5   0  0.9919125E-03  0.8199868E+03  0.7818609E-02  0.9531529E-01
       -3   -1    0    0    0  501  0.00000000000E+00  0.00000000000E+00  0.30193978362E+03  0.30193980051E+03  0.10100000352E+00 0. -1.
        3   -1    0    0  501    0  0.00000000000E+00  0.00000000000E+00 -0.55671559739E+03  0.55671560655E+03  0.10100000352E+00 0.  1.
    10030    2    1    2    0    0  0.00000000000E+00  0.00000000000E+00 -0.25477581377E+03  0.85865540707E+03  0.81998682477E+03 0.  0.
        4    1    3    3  502    0  0.92553231082E+02  0.34297619909E+02  0.28931049392E+03  0.30568709836E+03  0.12699999809E+01 0. -1.
       -4    1    3    3    0  502 -0.92553231082E+02 -0.34297619909E+02 -0.54408630769E+03  0.55296830870E+03  0.12699999809E+01 0.  1.
</event>
<event>
 5   0  0.2422031E-02  0.7969059E+03  0.7818609E-02  0.9564506E-01
        2   -1    0    0  501    0  0.00000000000E+00  0.00000000000E+00  0.29745453324E+03  0.29745453325E+03  0.25500000920E-02 0. -1.
       -2   -1    0    0    0  501  0.00000000000E+00  0.00000000000E+00 -0.53374467410E+03  0.53374467411E+03  0.25500000920E-02 0.  1.
    10030    2    1    2    0    0  0.00000000000E+00  0.00000000000E+00 -0.23629014086E+03  0.83119920736E+03  0.79690594906E+03 0.  0.
        4    1    3    3  502    0  0.18547501494E+03 -0.29222928895E+03 -0.32403307920E+03  0.47412866165E+03  0.12699999809E+01 0.  1.
       -4    1    3    3    0  502 -0.18547501494E+03  0.29222928895E+03  0.87742938336E+02  0.35707054571E+03  0.12699999809E+01 0. -1.
</event>
<event>
 5   0  0.1523811E-02  0.8087870E+03  0.7818609E-02  0.9547385E-01
       -1   -1    0    0    0  501  0.00000000000E+00  0.00000000000E+00  0.21610000494E+03  0.21610000500E+03  0.50400001928E-02 0.  1.
        1   -1    0    0  501    0  0.00000000000E+00  0.00000000000E+00 -0.75675192793E+03  0.75675192795E+03  0.50400001928E-02 0. -1.
    10030    2    1    2    0    0  0.00000000000E+00  0.00000000000E+00 -0.54065192299E+03  0.97285193294E+03  0.80878698160E+03 0.  0.
        1    1    3    3  502    0  0.48123522469E+02  0.40091157660E+03 -0.24375053687E+03  0.47165696213E+03  0.50400001928E-02 0.  1.
       -1    1    3    3    0  502 -0.48123522469E+02 -0.40091157660E+03 -0.29690138612E+03  0.50119497082E+03  0.50400001928E-02 0. -1.
</event>
<event>
 5   0  0.2454354E-02  0.8016921E+03  0.7818609E-02  0.9557571E-01
        2   -1    0    0  501    0  0.00000000000E+00  0.00000000000E+00  0.78563388191E+03  0.78563388191E+03  0.25500000920E-02 0. -1.
       -2   -1    0    0    0  501  0.00000000000E+00  0.00000000000E+00 -0.20451964931E+03  0.20451964933E+03  0.25500000920E-02 0.  1.
    10030    2    1    2    0    0  0.00000000000E+00  0.00000000000E+00  0.58111423260E+03  0.99015353124E+03  0.80169212551E+03 0.  0.
        5    1    3    3  502    0 -0.31402244503E+03 -0.24332563107E+03  0.35635356341E+03  0.53369224359E+03  0.46999998093E+01 0. -1.
       -5    1    3    3    0  502  0.31402244503E+03  0.24332563107E+03  0.22476066919E+03  0.45646128765E+03  0.46999998093E+01 0.  1.
</event>
<event>
 5   0  0.9919125E-03  0.7881568E+03  0.7818609E-02  0.9577320E-01
        3   -1    0    0  501    0  0.00000000000E+00  0.00000000000E+00  0.14463087980E+03  0.14463091506E+03  0.10100000352E+00 0.  1.
       -3   -1    0    0    0  501  0.00000000000E+00  0.00000000000E+00 -0.10737525005E+04  0.10737525053E+04  0.10100000352E+00 0. -1.
    10030    2    1    2    0    0  0.00000000000E+00  0.00000000000E+00 -0.92912162074E+03  0.12183834203E+04  0.78815681996E+03 0.  0.
        4    1    3    3  502    0  0.33429370191E+03 -0.19236283850E+03 -0.33954215884E+03  0.51385428996E+03  0.12699999809E+01 0.  1.
       -4    1    3    3    0  502 -0.33429370191E+03  0.19236283850E+03 -0.58957946190E+03  0.70452913039E+03  0.12699999809E+01 0. -1.
</event>
<event>
 5   0  0.2571778E-02  0.8136360E+03  0.7818609E-02  0.9540487E-01
       -2   -1    0    0    0  501  0.00000000000E+00  0.00000000000E+00  0.29455003461E+03  0.29455003462E+03  0.25500000920E-02 0. -1.
        2   -1    0    0  501    0  0.00000000000E+00  0.00000000000E+00 -0.56187698827E+03  0.56187698828E+03  0.25500000920E-02 0.  1.
    10030    2    1    2    0    0  0.00000000000E+00  0.00000000000E+00 -0.26732695366E+03  0.85642702290E+03  0.81363600301E+03 0.  0.
        1    1    3    3  502    0 -0.59241984584E+02  0.25860735688E+03 -0.45828798572E+03  0.52954249655E+03  0.50400001928E-02 0.  1.
       -1    1    3    3    0  502  0.59241984584E+02 -0.25860735688E+03  0.19096103206E+03  0.32688452634E+03  0.50400001928E-02 0. -1.
</event>
<event>
 5   0  0.2464780E-02  0.8028219E+03  0.7818609E-02  0.9555941E-01
       -2   -1    0    0    0  501  0.00000000000E+00  0.00000000000E+00  0.15965397668E+03  0.15965397670E+03  0.25500000920E-02 0. -1.
        2   -1    0    0  501    0  0.00000000000E+00  0.00000000000E+00 -0.10092498594E+04  0.10092498594E+04  0.25500000920E-02 0.  1.
    10030    2    1    2    0    0  0.00000000000E+00  0.00000000000E+00 -0.84959588270E+03  0.11689038361E+04  0.80282190684E+03 0.  0.
        3    1    3    3  502    0 -0.24589924569E+03  0.31356807179E+03 -0.35437585270E+03  0.53326694052E+03  0.10100000352E+00 0.  1.
       -3    1    3    3    0  502  0.24589924569E+03 -0.31356807179E+03 -0.49522003000E+03  0.63563689555E+03  0.10100000352E+00 0. -1.
</event>
<event>
 5   0  0.1498375E-02  0.8000140E+03  0.7818609E-02  0.9559997E-01
        1   -1    0    0  501    0  0.00000000000E+00  0.00000000000E+00  0.12169409980E+03  0.12169409990E+03  0.50400001928E-02 0. -1.
       -1   -1    0    0    0  501  0.00000000000E+00  0.00000000000E+00 -0.13148179119E+04  0.13148179119E+04  0.50400001928E-02 0.  1.
    10030    2    1    2    0    0  0.00000000000E+00  0.00000000000E+00 -0.11931238121E+04  0.14365120118E+04  0.80001395555E+03 0.  0.
        4    1    3    3  502    0 -0.13631728780E+02  0.11360852134E+03  0.91677008106E+02  0.14662539639E+03  0.12699999809E+01 0. -1.
       -4    1    3    3    0  502  0.13631728780E+02 -0.11360852134E+03 -0.12848008202E+04  0.12898866154E+04  0.12699999809E+01 0.  1.
</event>
<event>
 5   0  0.9919125E-03  0.7545317E+03  0.7818609E-02  0.9628268E-01
       -4   -1    0    0    0  501  0.00000000000E+00  0.00000000000E+00  0.62148585531E+03  0.62148715292E+03  0.12699999809E+01 0. -1.
        4   -1    0    0  501    0  0.00000000000E+00  0.00000000000E+00 -0.22901158808E+03  0.22901510949E+03  0.12699999809E+01 0.  1.
    10030    2    1    2    0    0  0.00000000000E+00  0.00000000000E+00  0.39247426723E+03  0.85050226241E+03  0.75453167457E+03 0.  0.
        1    1    3    3  502    0 -0.15960349757E+02 -0.33672271764E+02  0.61940882365E+03  0.62052868225E+03  0.50400001928E-02 0. -1.
       -1    1    3    3    0  502  0.15960349757E+02  0.33672271764E+02 -0.22693455642E+03  0.22997358016E+03  0.50400001928E-02 0.  1.
</event>
<event>
 5   0  0.2571778E-02  0.8039396E+03  0.7818609E-02  0.9554332E-01
       -2   -1    0    0    0  501  0.00000000000E+00  0.00000000000E+00  0.10439861492E+03  0.10439861495E+03  0.25500000920E-02 0. -1.
        2   -1    0    0  501    0  0.00000000000E+00  0.00000000000E+00 -0.15477189147E+04  0.15477189147E+04  0.25500000920E-02 0.  1.
    10030    2    1    2    0    0  0.00000000000E+00  0.00000000000E+00 -0.14433202998E+04  0.16521175297E+04  0.80393957737E+03 0.  0.
        1    1    3    3  502    0 -0.29428557797E+03 -0.26614864691E+03 -0.58942419564E+03  0.71053499990E+03  0.50400001928E-02 0. -1.
       -1    1    3    3    0  502  0.29428557797E+03  0.26614864691E+03 -0.85389610417E+03  0.94158252979E+03  0.50400001928E-02 0.  1.
</event>
<event>
 5   0  0.2464780E-02  0.7968945E+03  0.7818609E-02  0.9564523E-01
        2   -1    0    0  501    0  0.00000000000E+00  0.00000000000E+00  0.87251006190E+03  0.87251006190E+03  0.25500000920E-02 0.  1.
       -2   -1    0    0    0  501  0.00000000000E+00  0.00000000000E+00 -0.18195803396E+03  0.18195803398E+03  0.25500000920E-02 0. -1.
    10030    2    1    2    0    0  0.00000000000E+00  0.00000000000E+00  0.69055202794E+03  0.10544680959E+04  0.79689451118E+03 0.  0.
        3    1    3    3  502    0 -0.82611816278E+02  0.33727529790E+02 -0.16856684211E+03  0.19072768261E+03  0.10100000352E+00 0. -1.
       -3    1    3    3    0  502  0.82611816278E+02 -0.33727529790E+02  0.85911887004E+03  0.86374041327E+03  0.10100000352E+00 0.  1.
</event>
<event>
 5   0  0.1509629E-02  0.7874213E+03  0.7818609E-02  0.9578405E-01
        1   -1    0    0  501    0  0.00000000000E+00  0.00000000000E+00  0.16190441691E+04  0.16190441691E+04  0.50400001928E-02 0. -1.
       -1   -1    0    0    0  501  0.00000000000E+00  0.00000000000E+00 -0.95740482687E+02  0.95740482820E+02  0.50400001928E-02 0.  1.
    10030    2    1    2    0    0  0.00000000000E+00  0.00000000000E+00  0.15233036864E+04  0.17147846520E+04  0.78742128588E+03 0.  0.
        5    1    3    3  502    0  0.26326925174E+03 -0.20047157782E+03  0.29719715229E+03  0.44480084280E+03  0.46999998093E+01 0.  1.
       -5    1    3    3    0  502 -0.26326925174E+03  0.20047157782E+03  0.12261065342E+04  0.12699838092E+04  0.46999998093E+01 0. -1.
</event>
<event>
 5   0  0.2464780E-02  0.8028329E+03  0.7818609E-02  0.9555926E-01
       -2   -1    0    0    0  501  0.00000000000E+00  0.00000000000E+00  0.36880243149E+03  0.36880243150E+03  0.25500000920E-02 0. -1.
        2   -1    0    0  501    0  0.00000000000E+00  0.00000000000E+00 -0.43691456337E+03  0.43691456338E+03  0.25500000920E-02 0.  1.
    10030    2    1    2    0    0  0.00000000000E+00  0.00000000000E+00 -0.68112131882E+02  0.80571699487E+03  0.80283286761E+03 0.  0.
        3    1    3    3  502    0  0.50905493630E+02  0.11701148992E+02  0.36537732639E+03  0.36909197635E+03  0.10100000352E+00 0. -1.
       -3    1    3    3    0  502 -0.50905493630E+02 -0.11701148992E+02 -0.43348945827E+03  0.43662501852E+03  0.10100000352E+00 0.  1.
</event>
<event>
 5   0  0.1471290E-02  0.7869391E+03  0.7818609E-02  0.9579117E-01
       -1   -1    0    0    0  501  0.00000000000E+00  0.00000000000E+00  0.57447080959E+02  0.57447081180E+02  0.50400001928E-02 0.  1.
        1   -1    0    0  501    0  0.00000000000E+00  0.00000000000E+00 -0.26949724841E+04  0.26949724841E+04  0.50400001928E-02 0. -1.
    10030    2    1    2    0    0  0.00000000000E+00  0.00000000000E+00 -0.26375254031E+04  0.27524195653E+04  0.78693914069E+03 0.  0.
        2    1    3    3  502    0 -0.25678935978E+03  0.24808482678E+03 -0.18969982611E+04  0.19303080736E+04  0.25500000920E-02 0. -1.
       -2    1    3    3    0  502  0.25678935978E+03 -0.24808482678E+03 -0.74052714208E+03  0.82211149167E+03  0.25500000920E-02 0.  1.
</event>
<event>
 5   0  0.1498375E-02  0.8069923E+03  0.7818609E-02  0.9549951E-01
        1   -1    0    0  501    0  0.00000000000E+00  0.00000000000E+00  0.98888528916E+03  0.98888528917E+03  0.50400001928E-02 0.  1.
       -1   -1    0    0    0  501  0.00000000000E+00  0.00000000000E+00 -0.16463907131E+03  0.16463907138E+03  0.50400001928E-02 0. -1.
    10030    2    1    2    0    0  0.00000000000E+00  0.00000000000E+00  0.82424621786E+03  0.11535243606E+04  0.80699233128E+03 0.  0.
        4    1    3    3  502    0 -0.73516444755E+02 -0.24329519084E+03 -0.35833488821E+02  0.25667658514E+03  0.12699999809E+01 0. -1.
       -4    1    3    3    0  502  0.73516444755E+02  0.24329519084E+03  0.86007970668E+03  0.89684777542E+03  0.12699999809E+01 0.  1.
</event>
<event>
 5   0  0.2464780E-02  0.8042306E+03  0.7818609E-02  0.9553914E-01
        2   -1    0    0  501    0  0.00000000000E+00  0.00000000000E+00  0.28175539179E+04  0.28175539179E+04  0.25500000920E-02 0. -1.
       -2   -1    0    0    0  501  0.00000000000E+00  0.00000000000E+00 -0.57389034583E+02  0.57389034640E+02  0.25500000920E-02 0.  1.
    10030    2    1    2    0    0  0.00000000000E+00  0.00000000000E+00  0.27601648833E+04  0.28749429525E+04  0.80423056226E+03 0.  0.
        3    1    3    3  502    0  0.76765438870E+02  0.32028693516E+03  0.55540096667E+03  0.64571425369E+03  0.10100000352E+00 0.  1.
       -3    1    3    3    0  502 -0.76765438870E+02 -0.32028693516E+03  0.22047639166E+04  0.22292286988E+04  0.10100000352E+00 0. -1.
</event>
<event>
 5   0  0.1624094E-02  0.8018625E+03  0.7818609E-02  0.9557325E-01
        1   -1    0    0  501    0  0.00000000000E+00  0.00000000000E+00  0.61812100242E+03  0.61812100244E+03  0.50400001928E-02 0. -1.
       -1   -1    0    0    0  501  0.00000000000E+00  0.00000000000E+00 -0.26005564464E+03  0.26005564469E+03  0.50400001928E-02 0.  1.
    10030    2    1    2    0    0  0.00000000000E+00  0.00000000000E+00  0.35806535777E+03  0.87817664713E+03  0.80186247146E+03 0.  0.
        3    1    3    3  502    0 -0.77542193247E+02 -0.36891994146E+03  0.32851905072E+03  0.50003949027E+03  0.10100000352E+00 0. -1.
       -3    1    3    3    0  502  0.77542193247E+02  0.36891994146E+03  0.29546307049E+02  0.37813715686E+03  0.10100000352E+00 0.  1.
</event>
<event>
 5   0  0.1523811E-02  0.8440395E+03  0.7818609E-02  0.9498372E-01
       -1   -1    0    0    0  501  0.00000000000E+00  0.00000000000E+00  0.21360529731E+03  0.21360529737E+03  0.50400001928E-02 0.  1.
        1   -1    0    0  501    0  0.00000000000E+00  0.00000000000E+00 -0.83378400920E+03  0.83378400922E+03  0.50400001928E-02 0. -1.
    10030    2    1    2    0    0  0.00000000000E+00  0.00000000000E+00 -0.62017871190E+03  0.10473893066E+04  0.84403952802E+03 0.  0.
        1    1    3    3  502    0  0.95598374159E+02  0.24039456828E+03 -0.72384432478E+03  0.76868667488E+03  0.50400001928E-02 0. -1.
       -1    1    3    3    0  502 -0.95598374159E+02 -0.24039456828E+03  0.10366561289E+03  0.27870263170E+03  0.50400001928E-02 0.  1.
</event>
<event>
 5   0  0.1498375E-02  0.7983196E+03  0.7818609E-02  0.9562453E-01
       -1   -1    0    0    0  501  0.00000000000E+00  0.00000000000E+00  0.22938035478E+03  0.22938035483E+03  0.50400001928E-02 0.  1.
        1   -1    0    0  501    0  0.00000000000E+00  0.00000000000E+00 -0.69460417426E+03  0.69460417428E+03  0.50400001928E-02 0. -1.
    10030    2    1    2    0    0  0.00000000000E+00  0.00000000000E+00 -0.46522381948E+03  0.92398452911E+03  0.79831961508E+03 0.  0.
        4    1    3    3  502    0 -0.14619231751E+03 -0.36338981734E+03 -0.32153387686E+03  0.50676424490E+03  0.12699999809E+01 0.  1.
       -4    1    3    3    0  502  0.14619231751E+03  0.36338981734E+03 -0.14368994262E+03  0.41722028421E+03  0.12699999809E+01 0. -1.
</event>
<event>
 5   0  0.2460312E-02  0.7903648E+03  0.7818609E-02  0.9574069E-01
        2   -1    0    0  501    0  0.00000000000E+00  0.00000000000E+00  0.51313519509E+03  0.51313519510E+03  0.25500000920E-02 0.  1.
       -2   -1    0    0    0  501  0.00000000000E+00  0.00000000000E+00 -0.30434301141E+03  0.30434301142E+03  0.25500000920E-02 0. -1.
    10030    2    1    2    0    0  0.00000000000E+00  0.00000000000E+00  0.20879218369E+03  0.81747820652E+03  0.79036475260E+03 0.  0.
        2    1    3    3  502    0  0.22211466044E+03 -0.22559493870E+02  0.44165764893E+03  0.49487910848E+03  0.25500000920E-02 0.  1.
       -2    1    3    3    0  502 -0.22211466044E+03  0.22559493870E+02 -0.23286546524E+03  0.32259909804E+03  0.25500000920E-02 0. -1.
</event>
<event>
 5   0  0.2460312E-02  0.7956237E+03  0.7818609E-02  0.9566373E-01
       -2   -1    0    0    0  501  0.00000000000E+00  0.00000000000E+00  0.10049437137E+03  0.10049437140E+03  0.25500000920E-02 0.  1.
        2   -1    0    0  501    0  0.00000000000E+00  0.00000000000E+00 -0.15747575506E+04  0.15747575506E+04  0.25500000920E-02 0. -1.
    10030    2    1    2    0    0  0.00000000000E+00  0.00000000000E+00 -0.14742631793E+04  0.16752519220E+04  0.79562370537E+03 0.  0.
        2    1    3    3  502    0  0.21679399659E+03  0.90203752851E+02 -0.60987159878E+02  0.24260211801E+03  0.25500000920E-02 0.  1.
       -2    1    3    3    0  502 -0.21679399659E+03 -0.90203752851E+02 -0.14132760194E+04  0.14326498040E+04  0.25500000920E-02 0. -1.
</event>
<event>
 5   0  0.2460312E-02  0.8157619E+03  0.7818609E-02  0.9537479E-01
       -2   -1    0    0    0  501  0.00000000000E+00  0.00000000000E+00  0.20969660863E+03  0.20969660864E+03  0.25500000920E-02 0. -1.
        2   -1    0    0  501    0  0.00000000000E+00  0.00000000000E+00 -0.79336935513E+03  0.79336935514E+03  0.25500000920E-02 0.  1.
    10030    2    1    2    0    0  0.00000000000E+00  0.00000000000E+00 -0.58367274651E+03  0.10030659638E+04  0.81576188479E+03 0.  0.
        2    1    3    3  502    0 -0.32327436291E+02 -0.82608546364E+02  0.19769154839E+03  0.21668221750E+03  0.25500000920E-02 0. -1.
       -2    1    3    3    0  502  0.32327436291E+02  0.82608546364E+02 -0.78136429490E+03  0.78638374628E+03  0.25500000920E-02 0.  1.
</event>
<event>
 5   0  0.9919125E-03  0.7883369E+03  0.7818609E-02  0.9577054E-01
        4   -1    0    0  501    0  0.00000000000E+00  0.00000000000E+00  0.43971525543E+03  0.43971708945E+03  0.12699999809E+01 0.  1.
       -4   -1    0    0    0  501  0.00000000000E+00  0.00000000000E+00 -0.35333575044E+03  0.35333803282E+03  0.12699999809E+01 0. -1.
    10030    2    1    2    0    0  0.00000000000E+00  0.00000000000E+00  0.86379504992E+02  0.79305512227E+03  0.78833686206E+03 0.  0.
        3    1    3    3  502    0 -0.29383980696E+03  0.31258974229E+02 -0.21923507641E+03  0.36794426827E+03  0.10100000352E+00 0. -1.
       -3    1    3    3    0  502  0.29383980696E+03 -0.31258974229E+02  0.30561458140E+03  0.42511085400E+03  0.10100000352E+00 0.  1.
</event>
<event>
 5   0  0.1498375E-02  0.7950615E+03  0.7818609E-02  0.9567193E-01
       -1   -1    0    0    0  501  0.00000000000E+00  0.00000000000E+00  0.19634937361E+03  0.19634937368E+03  0.50400001928E-02 0. -1.
        1   -1    0    0  501    0  0.00000000000E+00  0.00000000000E+00 -0.80484444987E+03  0.80484444988E+03  0.50400001928E-02 0.  1.
    10030    2    1    2    0    0  0.00000000000E+00  0.00000000000E+00 -0.60849507626E+03  0.10011938236E+04  0.79506151618E+03 0.  0.
        4    1    3    3  502    0  0.64988618311E+02 -0.10267846057E+03  0.17238534486E+03  0.21091397961E+03  0.12699999809E+01 0. -1.
       -4    1    3    3    0  502 -0.64988618311E+02  0.10267846057E+03 -0.78088042111E+03  0.79027984395E+03  0.12699999809E+01 0.  1.
</event>
<event>
 5   0  0.1624094E-02  0.8482875E+03  0.7818609E-02  0.9492638E-01
       -1   -1    0    0    0  501  0.00000000000E+00  0.00000000000E+00  0.28857125337E+03  0.28857125342E+03  0.50400001928E-02 0. -1.
        1   -1    0    0  501    0  0.00000000000E+00  0.00000000000E+00 -0.62340897006E+03  0.62340897008E+03  0.50400001928E-02 0.  1.
    10030    2    1    2    0    0  0.00000000000E+00  0.00000000000E+00 -0.33483771669E+03  0.91198022350E+03  0.84828746987E+03 0.  0.
        3    1    3    3  502    0 -0.44750653860E+02  0.41083797981E+03 -0.27001719349E+03  0.49365956048E+03  0.10100000352E+00 0.  1.
       -3    1    3    3    0  502  0.44750653860E+02 -0.41083797981E+03 -0.64820523192E+02  0.41832066301E+03  0.10100000352E+00 0. -1.
</event>
<event>
 5   0  0.2454354E-02  0.7912233E+03  0.7818609E-02  0.9572809E-01
        2   -1    0    0  501    0  0.00000000000E+00  0.00000000000E+00  0.21905087107E+04  0.21905087107E+04  0.25500000920E-02 0. -1.
       -2   -1    0    0    0  501  0.00000000000E+00  0.00000000000E+00 -0.71448504045E+02  0.71448504091E+02  0.25500000920E-02 0.  1.
    10030    2    1    2    0    0  0.00000000000E+00  0.00000000000E+00  0.21190602066E+04  0.22619572148E+04  0.79122328209E+03 0.  0.
        5    1    3    3  502    0 -0.14647125832E+03  0.31340595479E+03  0.51104548551E+03  0.61714398666E+03  0.46999998093E+01 0.  1.
       -5    1    3    3    0  502  0.14647125832E+03 -0.31340595479E+03  0.16080147211E+04  0.16448132281E+04  0.46999998093E+01 0. -1.
</event>
<event>
 5   0  0.1471290E-02  0.7955039E+03  0.7818609E-02  0.9566548E-01
        1   -1    0    0  501    0  0.00000000000E+00  0.00000000000E+00  0.73189752963E+03  0.73189752965E+03  0.50400001928E-02 0. -1.
       -1   -1    0    0    0  501  0.00000000000E+00  0.00000000000E+00 -0.21615948628E+03  0.21615948634E+03  0.50400001928E-02 0.  1.
    10030    2    1    2    0    0  0.00000000000E+00  0.00000000000E+00  0.51573804336E+03  0.94805701599E+03  0.79550385053E+03 0.  0.
        2    1    3    3  502    0  0.73911529047E+01  0.37136185043E+03  0.88309361239E+02  0.38178894220E+03  0.25500000920E-02 0.  1.
       -2    1    3    3    0  502 -0.73911529047E+01 -0.37136185043E+03  0.42742868212E+03  0.56626807379E+03  0.25500000920E-02 0. -1.
</event>
<event>
 5   0  0.2454354E-02  0.7928100E+03  0.7818609E-02  0.9570483E-01
       -2   -1    0    0    0  501  0.00000000000E+00  0.00000000000E+00  0.29798757027E+03  0.29798757028E+03  0.25500000920E-02 0.  1.
        2   -1    0    0  501    0  0.00000000000E+00  0.00000000000E+00 -0.52732707661E+03  0.52732707661E+03  0.25500000920E-02 0. -1.
    10030    2    1    2    0    0  0.00000000000E+00  0.00000000000E+00 -0.22933950634E+03  0.82531464690E+03  0.79280997548E+03 0.  0.
        5    1    3    3  502    0  0.37142208739E+03  0.33923480847E+02 -0.25437191938E+03  0.45147794290E+03  0.46999998093E+01 0. -1.
       -5    1    3    3    0  502 -0.37142208739E+03 -0.33923480847E+02  0.25032413044E+02  0.37383670400E+03  0.46999998093E+01 0.  1.
</event>
<event>
 5   0  0.1498375E-02  0.8240778E+03  0.7818609E-02  0.9525805E-01
        1   -1    0    0  501    0  0.00000000000E+00  0.00000000000E+00  0.18806456905E+04  0.18806456905E+04  0.50400001928E-02 0. -1.
       -1   -1    0    0    0  501  0.00000000000E+00  0.00000000000E+00 -0.90275401850E+02  0.90275401991E+02  0.50400001928E-02 0.  1.
    10030    2    1    2    0    0  0.00000000000E+00  0.00000000000E+00  0.17903702887E+04  0.19709210925E+04  0.82407777690E+03 0.  0.
        4    1    3    3  502    0 -0.20094618886E+03  0.49503994897E+02  0.17473190313E+04  0.17595327296E+04  0.12699999809E+01 0. -1.
       -4    1    3    3    0  502  0.20094618886E+03 -0.49503994897E+02  0.43051257346E+02  0.21138836294E+03  0.12699999809E+01 0.  1.
</event>
<event>
 5   0  0.1509629E-02  0.7795141E+03  0.7818609E-02  0.9590152E-01
        1   -1    0    0  501    0  0.00000000000E+00  0.00000000000E+00  0.70372037585E+03  0.70372037586E+03  0.50400001928E-02 0. -1.
       -1   -1    0    0    0  501  0.00000000000E+00  0.00000000000E+00 -0.21586778762E+03  0.21586778768E+03  0.50400001928E-02 0.  1.
    10030    2    1    2    0    0  0.00000000000E+00  0.00000000000E+00  0.48785258822E+03  0.91958816355E+03  0.77951410680E+03 0.  0.
        5    1    3    3  502    0 -0.27697236247E+03  0.11634797948E+03 -0.48956198468E+02  0.30441639455E+03  0.46999998093E+01 0.  1.
       -5    1    3    3    0  502  0.27697236247E+03 -0.11634797948E+03  0.53680878669E+03  0.61517176900E+03  0.46999998093E+01 0. -1.
</event>
<event>
 5   0  0.1624094E-02  0.7649191E+03  0.7818609E-02  0.9612231E-01
        1   -1    0    0  501    0  0.00000000000E+00  0.00000000000E+00  0.11506685949E+04  0.11506685949E+04  0.50400001928E-02 0.  1.
       -1   -1    0    0    0  501  0.00000000000E+00  0.00000000000E+00 -0.12712201796E+03  0.12712201806E+03  0.50400001928E-02 0. -1.
    10030    2    1    2    0    0  0.00000000000E+00  0.00000000000E+00  0.10235465769E+04  0.12777906130E+04  0.76491911692E+03 0.  0.
        3    1    3    3  502    0 -0.30441154810E+03  0.79435519467E+02  0.14846964729E+03  0.34787877018E+03  0.10100000352E+00 0. -1.
       -3    1    3    3    0  502  0.30441154810E+03 -0.79435519467E+02  0.87507692962E+03  0.92991184277E+03  0.10100000352E+00 0.  1.
</event>
<event>
 5   0  0.1523811E-02  0.7942800E+03  0.7818609E-02  0.9568334E-01
        1   -1    0    0  501    0  0.00000000000E+00  0.00000000000E+00  0.81059829173E+03  0.81059829175E+03  0.50400001928E-02 0. -1.
       -1   -1    0    0    0  501  0.00000000000E+00  0.00000000000E+00 -0.19457255810E+03  0.19457255817E+03  0.50400001928E-02 0.  1.
    10030    2    1    2    0    0  0.00000000000E+00  0.00000000000E+00  0.61602573363E+03  0.10051708499E+04  0.79428000921E+03 0.  0.
        1    1    3    3  502    0  0.20651889995E+03  0.33916635171E+03  0.30038685094E+03  0.49791176970E+03  0.50400001928E-02 0.  1.
       -1    1    3    3    0  502 -0.20651889995E+03 -0.33916635171E+03  0.31563888270E+03  0.50725908022E+03  0.50400001928E-02 0. -1.
</event>
<event>
 5   0  0.2422031E-02  0.7339007E+03  0.7818609E-02  0.9660952E-01
       -2   -1    0    0    0  501  0.00000000000E+00  0.00000000000E+00  0.33402040283E+03  0.33402040284E+03  0.25500000920E-02 0.  1.
        2   -1    0    0  501    0  0.00000000000E+00  0.00000000000E+00 -0.40312675314E+03  0.40312675315E+03  0.25500000920E-02 0. -1.
    10030    2    1    2    0    0  0.00000000000E+00  0.00000000000E+00 -0.69106350318E+02  0.73714715599E+03  0.73390070304E+03 0.  0.
        4    1    3    3  502    0  0.24015266223E+03 -0.27637944561E+02  0.24273648231E+03  0.34257812233E+03  0.12699999809E+01 0.  1.
       -4    1    3    3    0  502 -0.24015266223E+03  0.27637944561E+02 -0.31184283263E+03  0.39456903365E+03  0.12699999809E+01 0. -1.
</event>
<event>
 5   0  0.2460312E-02  0.8018964E+03  0.7818609E-02  0.9557276E-01
        2   -1    0    0  501    0  0.00000000000E+00  0.00000000000E+00  0.43290413254E+03  0.43290413255E+03  0.25500000920E-02 0.  1.
       -2   -1    0    0    0  501  0.00000000000E+00  0.00000000000E+00 -0.37135122142E+03  0.37135122143E+03  0.25500000920E-02 0. -1.
    10030    2    1    2    0    0  0.00000000000E+00  0.00000000000E+00  0.61552911125E+02  0.80425535398E+03  0.80189644814E+03 0.  0.
        2    1    3    3  502    0 -0.21896592903E+03  0.20207840120E+03  0.29985230123E+03  0.42272113842E+03  0.25500000920E-02 0.  1.
       -2    1    3    3    0  502  0.21896592903E+03 -0.20207840120E+03 -0.23829939011E+03  0.38153421556E+03  0.25500000920E-02 0. -1.
</event>
<event>
 5   0  0.1624094E-02  0.7956835E+03  0.7818609E-02  0.9566286E-01
        1   -1    0    0  501    0  0.00000000000E+00  0.00000000000E+00  0.17369697979E+03  0.17369697987E+03  0.50400001928E-02 0.  1.
       -1   -1    0    0    0  501  0.00000000000E+00  0.00000000000E+00 -0.91123093841E+03  0.91123093843E+03  0.50400001928E-02 0. -1.
    10030    2    1    2    0    0  0.00000000000E+00  0.00000000000E+00 -0.73753395862E+03  0.10849279183E+04  0.79568350981E+03 0.  0.
        3    1    3    3  502    0 -0.31680274539E+03 -0.23634820727E+03 -0.30697698484E+03  0.50045912320E+03  0.10100000352E+00 0. -1.
       -3    1    3    3    0  502  0.31680274539E+03  0.23634820727E+03 -0.43055697378E+03  0.58446879510E+03  0.10100000352E+00 0.  1.
</event>
<event>
 5   0  0.2464780E-02  0.8226950E+03  0.7818609E-02  0.9527736E-01
       -2   -1    0    0    0  501  0.00000000000E+00  0.00000000000E+00  0.29610405959E+03  0.29610405960E+03  0.25500000920E-02 0. -1.
        2   -1    0    0  501    0  0.00000000000E+00  0.00000000000E+00 -0.57144355203E+03  0.57144355203E+03  0.25500000920E-02 0.  1.
    10030    2    1    2    0    0  0.00000000000E+00  0.00000000000E+00 -0.27533949244E+03  0.86754761163E+03  0.82269497528E+03 0.  0.
        3    1    3    3  502    0 -0.72652794895E+02 -0.39548563397E+03 -0.22911200325E+03  0.46279545754E+03  0.10100000352E+00 0.  1.
       -3    1    3    3    0  502  0.72652794895E+02  0.39548563397E+03 -0.46227489186E+02  0.40475215409E+03  0.10100000352E+00 0. -1.
</event>
<event>
 5   0  0.1523811E-02  0.8034796E+03  0.7818609E-02  0.9554994E-01
        1   -1    0    0  501    0  0.00000000000E+00  0.00000000000E+00  0.72105321159E+03  0.72105321161E+03  0.50400001928E-02 0.  1.
       -1   -1    0    0    0  501  0.00000000000E+00  0.00000000000E+00 -0.22383212510E+03  0.22383212516E+03  0.50400001928E-02 0. -1.
    10030    2    1    2    0    0  0.00000000000E+00  0.00000000000E+00  0.49722108648E+03  0.94488533677E+03  0.80347961442E+03 0.  0.
        1    1    3    3  502    0 -0.34077314935E+03 -0.13609631352E+03  0.44093579975E+03  0.57364878226E+03  0.50400001928E-02 0.  1.
       -1    1    3    3    0  502  0.34077314935E+03  0.13609631352E+03  0.56285286737E+02  0.37123655450E+03  0.50400001928E-02 0. -1.
</event>
<event>
 5   0  0.1498375E-02  0.7982842E+03  0.7818609E-02  0.9562504E-01
        1   -1    0    0  501    0  0.00000000000E+00  0.00000000000E+00  0.45320932225E+03  0.45320932228E+03  0.50400001928E-02 0.  1.
       -1   -1    0    0    0  501  0.00000000000E+00  0.00000000000E+00 -0.35152502512E+03  0.35152502516E+03  0.50400001928E-02 0. -1.
    10030    2    1    2    0    0  0.00000000000E+00  0.00000000000E+00  0.10168429713E+03  0.80473434744E+03  0.79828420607E+03 0.  0.
        4    1    3    3  502    0  0.53080858607E+02 -0.23620784264E+03 -0.26905625440E+03  0.36194558073E+03  0.12699999809E+01 0. -1.
       -4    1    3    3    0  502 -0.53080858607E+02  0.23620784264E+03  0.37074055153E+03  0.44278876671E+03  0.12699999809E+01 0.  1.
</event>
<event>
 5   0  0.1509629E-02  0.8229831E+03  0.7818609E-02  0.9527333E-01
       -1   -1    0    0    0  501  0.00000000000E+00  0.00000000000E+00  0.42832128104E+03  0.42832128107E+03  0.50400001928E-02 0. -1.
        1   -1    0    0  501    0  0.00000000000E+00  0.00000000000E+00 -0.39532312094E+03  0.39532312098E+03  0.50400001928E-02 0.  1.
    10030    2    1    2    0    0  0.00000000000E+00  0.00000000000E+00  0.32998160092E+02  0.82364440204E+03  0.82298312404E+03 0.  0.
        5    1    3    3  502    0  0.21202989115E+03  0.20856541075E+03 -0.26806547472E+03  0.40042152045E+03  0.46999998093E+01 0.  1.
       -5    1    3    3    0  502 -0.21202989115E+03 -0.20856541075E+03  0.30106363481E+03  0.42322288160E+03  0.46999998093E+01 0. -1.
</event>
<event>
 5   0  0.2464780E-02  0.7841385E+03  0.7818609E-02  0.9583264E-01
        2   -1    0    0  501    0  0.00000000000E+00  0.00000000000E+00  0.18661278169E+04  0.18661278169E+04  0.25500000920E-02 0.  1.
       -2   -1    0    0    0  501  0.00000000000E+00  0.00000000000E+00 -0.82372855612E+02  0.82372855652E+02  0.25500000920E-02 0. -1.
    10030    2    1    2    0    0  0.00000000000E+00  0.00000000000E+00  0.17837549613E+04  0.19485006725E+04  0.78413845016E+03 0.  0.
        3    1    3    3  502    0  0.26572177104E+03 -0.26105953179E+03  0.58796646833E+03  0.69603499684E+03  0.10100000352E+00 0. -1.
       -3    1    3    3    0  502 -0.26572177104E+03  0.26105953179E+03  0.11957884929E+04  0.12524656757E+04  0.10100000352E+00 0.  1.
</event>
<event>
 5   0  0.1498375E-02  0.7927686E+03  0.7818609E-02  0.9570544E-01
        1   -1    0    0  501    0  0.00000000000E+00  0.00000000000E+00  0.28453911919E+04  0.28453911919E+04  0.50400001928E-02 0. -1.
       -1   -1    0    0    0  501  0.00000000000E+00  0.00000000000E+00 -0.55219306726E+02  0.55219306956E+02  0.50400001928E-02 0.  1.
    10030    2    1    2    0    0  0.00000000000E+00  0.00000000000E+00  0.27901718851E+04  0.29006104988E+04  0.79276864045E+03 0.  0.
        4    1    3    3  502    0  0.34077070053E+03 -0.19248991759E+03  0.16248036775E+04  0.16712766503E+04  0.12699999809E+01 0. -1.
       -4    1    3    3    0  502 -0.34077070053E+03  0.19248991759E+03  0.11653682076E+04  0.12293338485E+04  0.12699999809E+01 0.  1.
</event>
<event>
 5   0  0.2571778E-02  0.7975389E+03  0.7818609E-02  0.9563586E-01
       -2   -1    0    0    0  501  0.00000000000E+00  0.00000000000E+00  0.50226612268E+03  0.50226612268E+03  0.25500000920E-02 0. -1.
        2   -1    0    0  501    0  0.00000000000E+00  0.00000000000E+00 -0.31659923584E+03  0.31659923585E+03  0.25500000920E-02 0.  1.
    10030    2    1    2    0    0  0.00000000000E+00  0.00000000000E+00  0.18566688684E+03  0.81886535853E+03  0.79753889093E+03 0.  0.
        1    1    3    3  502    0  0.16163373993E+03 -0.60364266171E+02  0.46195732293E+03  0.49312663561E+03  0.50400001928E-02 0. -1.
       -1    1    3    3    0  502 -0.16163373993E+03  0.60364266171E+02 -0.27629043609E+03  0.32573872293E+03  0.50400001928E-02 0.  1.
</event>
<event>
 5   0  0.1498375E-02  0.7458420E+03  0.7818609E-02  0.9641896E-01
        1   -1    0    0  501    0  0.00000000000E+00  0.00000000000E+00  0.18191813066E+04  0.18191813066E+04  0.50400001928E-02 0.  1.
       -1   -1    0    0    0  501  0.00000000000E+00  0.00000000000E+00 -0.76446513063E+02  0.76446513229E+02  0.50400001928E-02 0. -1.
    10030    2    1    2    0    0  0.00000000000E+00  0.00000000000E+00  0.17427347935E+04  0.18956278198E+04  0.74584198777E+03 0.  0.
        4    1    3    3  502    0 -0.19636735950E+03  0.15656921039E+03  0.17072400147E+03  0.30368133807E+03  0.12699999809E+01 0. -1.
       -4    1    3    3    0  502  0.19636735950E+03 -0.15656921039E+03  0.15720107920E+04  0.15919464817E+04  0.12699999809E+01 0.  1.
</event>
<event>
 5   0  0.1509629E-02  0.8009282E+03  0.7818609E-02  0.9558675E-01
        1   -1    0    0  501    0  0.00000000000E+00  0.00000000000E+00  0.77620249439E+03  0.77620249441E+03  0.50400001928E-02 0. -1.
       -1   -1    0    0    0  501  0.00000000000E+00  0.00000000000E+00 -0.20661038007E+03  0.20661038013E+03  0.50400001928E-02 0.  1.
    10030    2    1    2    0    0  0.00000000000E+00  0.00000000000E+00  0.56959211432E+03  0.98281287454E+03  0.80092819258E+03 0.  0.
        5    1    3    3  502    0  0.30263546626E+02  0.12445891749E+03 -0.18076139431E+03  0.22159123644E+03  0.46999998093E+01 0.  1.
       -5    1    3    3    0  502 -0.30263546626E+02 -0.12445891749E+03  0.75035350863E+03  0.76122163810E+03  0.46999998093E+01 0. -1.
</event>
<event>
 5   0  0.9919125E-03  0.7965713E+03  0.7818609E-02  0.9564993E-01
        3   -1    0    0  501    0  0.00000000000E+00  0.00000000000E+00  0.69607340451E+03  0.69607341184E+03  0.10100000352E+00 0.  1.
       -3   -1    0    0    0  501  0.00000000000E+00  0.00000000000E+00 -0.22789471804E+03  0.22789474042E+03  0.10100000352E+00 0. -1.
    10030    2    1    2    0    0  0.00000000000E+00  0.00000000000E+00  0.46817868647E+03  0.92396815226E+03  0.79657131754E+03 0.  0.
        3    1    3    3  502    0  0.50676074862E+02 -0.75138761400E+02  0.68395371976E+03  0.68993231479E+03  0.10100000352E+00 0.  1.
       -3    1    3    3    0  502 -0.50676074862E+02  0.75138761400E+02 -0.21577503329E+03  0.23403583747E+03  0.10100000352E+00 0. -1.
</event>
<event>
 5   0  0.1471290E-02  0.8011193E+03  0.7818609E-02  0.9558398E-01
       -1   -1    0    0    0  501  0.00000000000E+00  0.00000000000E+00  0.66077743235E+03  0.66077743237E+03  0.50400001928E-02 0. -1.
        1   -1    0    0  501    0  0.00000000000E+00  0.00000000000E+00 -0.24281708274E+03  0.24281708280E+03  0.50400001928E-02 0.  1.
    10030    2    1    2    0    0  0.00000000000E+00  0.00000000000E+00  0.41796034961E+03  0.90359451516E+03  0.80111933817E+03 0.  0.
        2    1    3    3  502    0 -0.39429799401E+03  0.69252764927E+02  0.19379746013E+03  0.44477444743E+03  0.25500000920E-02 0. -1.
       -2    1    3    3    0  502  0.39429799401E+03 -0.69252764927E+02  0.22416288947E+03  0.45882006773E+03  0.25500000920E-02 0.  1.
</event>
<event>
 5   0  0.1471290E-02  0.7996102E+03  0.7818609E-02  0.9560581E-01
       -1   -1    0    0    0  501  0.00000000000E+00  0.00000000000E+00  0.32141570549E+03  0.32141570553E+03  0.50400001928E-02 0. -1.
        1   -1    0    0  501    0  0.00000000000E+00  0.00000000000E+00 -0.49731276104E+03  0.49731276107E+03  0.50400001928E-02 0.  1.
    10030    2    1    2    0    0  0.00000000000E+00  0.00000000000E+00 -0.17589705555E+03  0.81872846660E+03  0.79961023497E+03 0.  0.
        2    1    3    3  502    0 -0.58946525940E+02  0.23128200661E+03 -0.41636350571E+03  0.47992148149E+03  0.25500000920E-02 0.  1.
       -2    1    3    3    0  502  0.58946525940E+02 -0.23128200661E+03  0.24046645016E+03  0.33880698511E+03  0.25500000920E-02 0. -1.
</event>
<event>
 5   0  0.9919125E-03  0.8063103E+03  0.7818609E-02  0.9550928E-01
       -3   -1    0    0    0  501  0.00000000000E+00  0.00000000000E+00  0.10493885328E+04  0.10493885377E+04  0.10100000352E+00 0. -1.
        3   -1    0    0  501    0  0.00000000000E+00  0.00000000000E+00 -0.15488454143E+03  0.15488457436E+03  0.10100000352E+00 0.  1.
    10030    2    1    2    0    0  0.00000000000E+00  0.00000000000E+00  0.89450399141E+03  0.12042731121E+04  0.80631032350E+03 0.  0.
        5    1    3    3  502    0  0.62490316370E+02  0.34032579995E+02 -0.14538991665E+03  0.16193694452E+03  0.46999998093E+01 0.  1.
       -5    1    3    3    0  502 -0.62490316370E+02 -0.34032579995E+02  0.10398939081E+04  0.10423361675E+04  0.46999998093E+01 0. -1.
</event>
<event>
 5   0  0.1509629E-02  0.7934520E+03  0.7818609E-02  0.9569544E-01
       -1   -1    0    0    0  501  0.00000000000E+00  0.00000000000E+00  0.67388898757E+03  0.67388898759E+03  0.50400001928E-02 0.  1.
        1   -1    0    0  501    0  0.00000000000E+00  0.00000000000E+00 -0.23355703449E+03  0.23355703455E+03  0.50400001928E-02 0. -1.
    10030    2    1    2    0    0  0.00000000000E+00  0.00000000000E+00  0.44033195308E+03  0.90744602214E+03  0.79345198606E+03 0.  0.
        5    1    3    3  502    0  0.34603806755E+03 -0.12352487586E+02  0.44156109789E+03  0.56115347393E+03  0.46999998093E+01 0. -1.
       -5    1    3    3    0  502 -0.34603806755E+03  0.12352487586E+02 -0.12291448069E+01  0.34629254820E+03  0.46999998093E+01 0.  1.
</event>
<event>
 5   0  0.2460312E-02  0.8052052E+03  0.7818609E-02  0.9552513E-01
       -2   -1    0    0    0  501  0.00000000000E+00  0.00000000000E+00  0.21661888719E+03  0.21661888721E+03  0.25500000920E-02 0. -1.
        2   -1    0    0  501    0  0.00000000000E+00  0.00000000000E+00 -0.74826732942E+03  0.74826732942E+03  0.25500000920E-02 0.  1.
    10030    2    1    2    0    0  0.00000000000E+00  0.00000000000E+00 -0.53164844223E+03  0.96488621663E+03  0.80520515704E+03 0.  0.
        2    1    3    3  502    0  0.15733895317E+02 -0.40122814241E+03 -0.23073890016E+03  0.46311123694E+03  0.25500000920E-02 0.  1.
       -2    1    3    3    0  502 -0.15733895317E+02  0.40122814241E+03 -0.30090954207E+03  0.50177497969E+03  0.25500000920E-02 0. -1.
</event>
<event>
 5   0  0.1498375E-02  0.7990782E+03  0.7818609E-02  0.9561352E-01
        1   -1    0    0  501    0  0.00000000000E+00  0.00000000000E+00  0.35636725947E+03  0.35636725951E+03  0.50400001928E-02 0.  1.
       -1   -1    0    0    0  501  0.00000000000E+00  0.00000000000E+00 -0.44794101345E+03  0.44794101348E+03  0.50400001928E-02 0. -1.
    10030    2    1    2    0    0  0.00000000000E+00  0.00000000000E+00 -0.91573753973E+02  0.80430827298E+03  0.79907824747E+03 0.  0.
        4    1    3    3  502    0  0.28387766028E+03  0.11824031478E+03  0.21095631483E+03  0.37292288441E+03  0.12699999809E+01 0.  1.
       -4    1    3    3    0  502 -0.28387766028E+03 -0.11824031478E+03 -0.30253006881E+03  0.43138538858E+03  0.12699999809E+01 0. -1.
</event>
<event>
 5   0  0.1523811E-02  0.7915212E+03  0.7818609E-02  0.9572372E-01
        1   -1    0    0  501    0  0.00000000000E+00  0.00000000000E+00  0.22874258338E+03  0.22874258343E+03  0.50400001928E-02 0. -1.
       -1   -1    0    0    0  501  0.00000000000E+00  0.00000000000E+00 -0.68472802186E+03  0.68472802188E+03  0.50400001928E-02 0.  1.
    10030    2    1    2    0    0  0.00000000000E+00  0.00000000000E+00 -0.45598543848E+03  0.91347060531E+03  0.79152121049E+03 0.  0.
        1    1    3    3  502    0  0.24013429800E+03  0.10596015673E+03  0.11384267320E+03  0.28609821767E+03  0.50400001928E-02 0. -1.
       -1    1    3    3    0  502 -0.24013429800E+03 -0.10596015673E+03 -0.56982811168E+03  0.62737238764E+03  0.50400001928E-02 0.  1.
</event>
<event>
 5   0  0.1523811E-02  0.8072197E+03  0.7818609E-02  0.9549625E-01
        1   -1    0    0  501    0  0.00000000000E+00  0.00000000000E+00  0.12959008610E+04  0.12959008610E+04  0.50400001928E-02 0.  1.
       -1   -1    0    0    0  501  0.00000000000E+00  0.00000000000E+00 -0.12570477863E+03  0.12570477873E+03  0.50400001928E-02 0. -1.
    10030    2    1    2    0    0  0.00000000000E+00  0.00000000000E+00  0.11701960824E+04  0.14216056398E+04  0.80721974938E+03 0.  0.
        1    1    3    3  502    0  0.34323345630E+02 -0.39733742811E+03  0.47588333880E+03  0.62090263006E+03  0.50400001928E-02 0. -1.
       -1    1    3    3    0  502 -0.34323345630E+02  0.39733742811E+03  0.69431274360E+03  0.80070300973E+03  0.50400001928E-02 0.  1.
</event>
<event>
 5   0  0.9919125E-03  0.7987182E+03  0.7818609E-02  0.9561874E-01
        3   -1    0    0  501    0  0.00000000000E+00  0.00000000000E+00  0.59114647948E+03  0.59114648810E+03  0.10100000352E+00 0. -1.
       -3   -1    0    0    0  501  0.00000000000E+00  0.00000000000E+00 -0.26979383293E+03  0.26979385183E+03  0.10100000352E+00 0.  1.
    10030    2    1    2    0    0  0.00000000000E+00  0.00000000000E+00  0.32135264655E+03  0.86094033994E+03  0.79871818903E+03 0.  0.
        1    1    3    3  502    0  0.94327552996E+02  0.23235600701E+01  0.57895888860E+03  0.58659737546E+03  0.50400001928E-02 0. -1.
       -1    1    3    3    0  502 -0.94327552996E+02 -0.23235600701E+01 -0.25760624205E+03  0.27434296447E+03  0.50400001928E-02 0.  1.
</event>
<event>
 5   0  0.2422031E-02  0.8498440E+03  0.7818609E-02  0.9490546E-01
        2   -1    0    0  501    0  0.00000000000E+00  0.00000000000E+00  0.10424492335E+04  0.10424492335E+04  0.25500000920E-02 0. -1.
       -2   -1    0    0    0  501  0.00000000000E+00  0.00000000000E+00 -0.17320621411E+03  0.17320621413E+03  0.25500000920E-02 0.  1.
    10030    2    1    2    0    0  0.00000000000E+00  0.00000000000E+00  0.86924301942E+03  0.12156554477E+04  0.84984395074E+03 0.  0.
        4    1    3    3  502    0  0.25909203854E+03 -0.23101027093E+03  0.84052492578E+02  0.35715663807E+03  0.12699999809E+01 0.  1.
       -4    1    3    3    0  502 -0.25909203854E+03  0.23101027093E+03  0.78519052684E+03  0.85849880958E+03  0.12699999809E+01 0. -1.
</event>
<event>
 5   0  0.1523811E-02  0.7979091E+03  0.7818609E-02  0.9563049E-01
       -1   -1    0    0    0  501  0.00000000000E+00  0.00000000000E+00  0.15281982578E+03  0.15281982586E+03  0.50400001928E-02 0. -1.
        1   -1    0    0  501    0  0.00000000000E+00  0.00000000000E+00 -0.10415189021E+04  0.10415189021E+04  0.50400001928E-02 0.  1.
    10030    2    1    2    0    0  0.00000000000E+00  0.00000000000E+00 -0.88869907632E+03  0.11943387280E+04  0.79790911066E+03 0.  0.
        1    1    3    3  502    0 -0.29951809820E+02 -0.30345036141E+03 -0.59265486341E+02  0.31063102010E+03  0.50400001928E-02 0. -1.
       -1    1    3    3    0  502  0.29951809820E+02  0.30345036141E+03 -0.82943358997E+03  0.88370770787E+03  0.50400001928E-02 0.  1.
</event>
<event>
 5   0  0.2422031E-02  0.8134800E+03  0.7818609E-02  0.9540708E-01
       -2   -1    0    0    0  501  0.00000000000E+00  0.00000000000E+00  0.13235871529E+03  0.13235871532E+03  0.25500000920E-02 0. -1.
        2   -1    0    0  501    0  0.00000000000E+00  0.00000000000E+00 -0.12499170704E+04  0.12499170704E+04  0.25500000920E-02 0.  1.
    10030    2    1    2    0    0  0.00000000000E+00  0.00000000000E+00 -0.11175583551E+04  0.13822757857E+04  0.81347997562E+03 0.  0.
        4    1    3    3  502    0 -0.36882398375E+03 -0.55370607641E+02 -0.83454826057E+03  0.91409487872E+03  0.12699999809E+01 0.  1.
       -4    1    3    3    0  502  0.36882398375E+03  0.55370607641E+02 -0.28301009455E+03  0.46818090702E+03  0.12699999809E+01 0. -1.
</event>
<event>
 5   0  0.2464780E-02  0.8065954E+03  0.7818609E-02  0.9550519E-01
        2   -1    0    0  501    0  0.00000000000E+00  0.00000000000E+00  0.19019348333E+04  0.19019348333E+04  0.25500000920E-02 0. -1.
       -2   -1    0    0    0  501  0.00000000000E+00  0.00000000000E+00 -0.85517665861E+02  0.85517665899E+02  0.25500000920E-02 0.  1.
    10030    2    1    2    0    0  0.00000000000E+00  0.00000000000E+00  0.18164171674E+04  0.19874524992E+04  0.80659538209E+03 0.  0.
        3    1    3    3  502    0 -0.23307251849E+03  0.25809569483E+03  0.14114494004E+04  0.14536593847E+04  0.10100000352E+00 0. -1.
       -3    1    3    3    0  502  0.23307251849E+03 -0.25809569483E+03  0.40496776701E+03  0.53379311450E+03  0.10100000352E+00 0.  1.
</event>
<event>
 5   0  0.2571778E-02  0.7939944E+03  0.7818609E-02  0.9568751E-01
        2   -1    0    0  501    0  0.00000000000E+00  0.00000000000E+00  0.32178264710E+03  0.32178264711E+03  0.25500000920E-02 0. -1.
       -2   -1    0    0    0  501  0.00000000000E+00  0.00000000000E+00 -0.48979270169E+03  0.48979270170E+03  0.25500000920E-02 0.  1.
    10030    2    1    2    0    0  0.00000000000E+00  0.00000000000E+00 -0.16801005459E+03  0.81157534881E+03  0.79399443849E+03 0.  0.
        1    1    3    3  502    0 -0.31953692396E+03 -0.17217412429E+03 -0.24837307404E+03  0.43981468686E+03  0.50400001928E-02 0.  1.
       -1    1    3    3    0  502  0.31953692396E+03  0.17217412429E+03  0.80363019448E+02  0.37176066194E+03  0.50400001928E-02 0. -1.
</event>
<event>
 5   0  0.2422031E-02  0.7756423E+03  0.7818609E-02  0.9595959E-01
       -2   -1    0    0    0  501  0.00000000000E+00  0.00000000000E+00  0.16810170328E+03  0.16810170330E+03  0.25500000920E-02 0.  1.
        2   -1    0    0  501    0  0.00000000000E+00  0.00000000000E+00 -0.89472766987E+03  0.89472766987E+03  0.25500000920E-02 0. -1.
    10030    2    1    2    0    0  0.00000000000E+00  0.00000000000E+00 -0.72662596659E+03  0.10628293732E+04  0.77564230232E+03 0.  0.
        4    1    3    3  502    0 -0.29818596699E+02  0.31035167903E+03 -0.67935356497E+03  0.74748257005E+03  0.12699999809E+01 0. -1.
       -4    1    3    3    0  502  0.29818596699E+02 -0.31035167903E+03 -0.47272401618E+02  0.31534680312E+03  0.12699999809E+01 0.  1.
</event>
<event>
 5   0  0.1523811E-02  0.7631665E+03  0.7818609E-02  0.9614918E-01
        1   -1    0    0  501    0  0.00000000000E+00  0.00000000000E+00  0.35633072510E+03  0.35633072514E+03  0.50400001928E-02 0. -1.
       -1   -1    0    0    0  501  0.00000000000E+00  0.00000000000E+00 -0.40862534601E+03  0.40862534604E+03  0.50400001928E-02 0.  1.
    10030    2    1    2    0    0  0.00000000000E+00  0.00000000000E+00 -0.52294620903E+02  0.76495607118E+03  0.76316647165E+03 0.  0.
        1    1    3    3  502    0 -0.76282703676E+02  0.28875988211E+02 -0.39978528496E+03  0.40802101377E+03  0.50400001928E-02 0.  1.
       -1    1    3    3    0  502  0.76282703676E+02 -0.28875988211E+02  0.34749066406E+03  0.35693505741E+03  0.50400001928E-02 0. -1.
</event>
<event>
 5   0  0.2464780E-02  0.7073931E+03  0.7818609E-02  0.9704672E-01
       -2   -1    0    0    0  501  0.00000000000E+00  0.00000000000E+00  0.26129660308E+03  0.26129660309E+03  0.25500000920E-02 0.  1.
        2   -1    0    0  501    0  0.00000000000E+00  0.00000000000E+00 -0.47877111584E+03  0.47877111585E+03  0.25500000920E-02 0. -1.
    10030    2    1    2    0    0  0.00000000000E+00  0.00000000000E+00 -0.21747451276E+03  0.74006771894E+03  0.70739314735E+03 0.  0.
        3    1    3    3  502    0 -0.22174870258E+03 -0.22008380959E+03 -0.28220266257E+03  0.42100798485E+03  0.10100000352E+00 0. -1.
       -3    1    3    3    0  502  0.22174870258E+03  0.22008380959E+03  0.64728149805E+02  0.31905973409E+03  0.10100000352E+00 0.  1.
</event>
<event>
 5   0  0.1523811E-02  0.8096203E+03  0.7818609E-02  0.9546196E-01
        1   -1    0    0  501    0  0.00000000000E+00  0.00000000000E+00  0.73904217742E+03  0.73904217744E+03  0.50400001928E-02 0. -1.
       -1   -1    0    0    0  501  0.00000000000E+00  0.00000000000E+00 -0.22173462960E+03  0.22173462966E+03  0.50400001928E-02 0.  1.
    10030    2    1    2    0    0  0.00000000000E+00  0.00000000000E+00  0.51730754782E+03  0.96077680709E+03  0.80962026532E+03 0.  0.
        1    1    3    3  502    0  0.67075120286E+02 -0.37259735013E+03  0.88564409679E+02  0.38880780827E+03  0.50400001928E-02 0.  1.
       -1    1    3    3    0  502 -0.67075120286E+02  0.37259735013E+03  0.42874313814E+03  0.57196899882E+03  0.50400001928E-02 0. -1.
</event>
<event>
 5   0  0.2422031E-02  0.7667242E+03  0.7818609E-02  0.9609472E-01
        2   -1    0    0  501    0  0.00000000000E+00  0.00000000000E+00  0.13968534462E+04  0.13968534462E+04  0.25500000920E-02 0.  1.
       -2   -1    0    0    0  501  0.00000000000E+00  0.00000000000E+00 -0.10521252918E+03  0.10521252921E+03  0.25500000920E-02 0. -1.
    10030    2    1    2    0    0  0.00000000000E+00  0.00000000000E+00  0.12916409170E+04  0.15020659754E+04  0.76672415899E+03 0.  0.
        4    1    3    3  502    0  0.30890215051E+03  0.91624727947E+02  0.23887477624E+03  0.40109649834E+03  0.12699999809E+01 0. -1.
       -4    1    3    3    0  502 -0.30890215051E+03 -0.91624727947E+02  0.10527661408E+04  0.11009694771E+04  0.12699999809E+01 0.  1.
</event>
<event>
 5   0  0.2460312E-02  0.8047212E+03  0.7818609E-02  0.9553208E-01
       -2   -1    0    0    0  501  0.00000000000E+00  0.00000000000E+00  0.84040293287E+02  0.84040293326E+02  0.25500000920E-02 0.  1.
        2   -1    0    0  501    0  0.00000000000E+00  0.00000000000E+00 -0.19263862367E+04  0.19263862367E+04  0.25500000920E-02 0. -1.
    10030    2    1    2    0    0  0.00000000000E+00  0.00000000000E+00 -0.18423459434E+04  0.20104265300E+04  0.80472122963E+03 0.  0.
        2    1    3    3  502    0 -0.22212067185E+03  0.33368172305E+03 -0.83416292080E+03  0.92547764079E+03  0.25500000920E-02 0.  1.
       -2    1    3    3    0  502  0.22212067185E+03 -0.33368172305E+03 -0.10081830226E+04  0.10849488892E+04  0.25500000920E-02 0. -1.
</event>
<event>
 5   0  0.2571778E-02  0.8025752E+03  0.7818609E-02  0.9556297E-01
        2   -1    0    0  501    0  0.00000000000E+00  0.00000000000E+00  0.97307553948E+03  0.97307553948E+03  0.25500000920E-02 0.  1.
       -2   -1    0    0    0  501  0.00000000000E+00  0.00000000000E+00 -0.16548740426E+03  0.16548740428E+03  0.25500000920E-02 0. -1.
    10030    2    1    2    0    0  0.00000000000E+00  0.00000000000E+00  0.80758813521E+03  0.11385629438E+04  0.80257521815E+03 0.  0.
        1    1    3    3  502    0  0.18757043658E+02  0.93365511977E+02 -0.14922479224E+03  0.17702255268E+03  0.50400001928E-02 0. -1.
       -1    1    3    3    0  502 -0.18757043658E+02 -0.93365511977E+02  0.95681292746E+03  0.96154039108E+03  0.50400001928E-02 0.  1.
</event>
<event>
 5   0  0.2464780E-02  0.8163934E+03  0.7818609E-02  0.9536587E-01
       -2   -1    0    0    0  501  0.00000000000E+00  0.00000000000E+00  0.13389238770E+03  0.13389238772E+03  0.25500000920E-02 0. -1.
        2   -1    0    0  501    0  0.00000000000E+00  0.00000000000E+00 -0.12444661888E+04  0.12444661888E+04  0.25500000920E-02 0.  1.
    10030    2    1    2    0    0  0.00000000000E+00  0.00000000000E+00 -0.11105738011E+04  0.13783585765E+04  0.81639340870E+03 0.  0.
        3    1    3    3  502    0 -0.12513394358E+03  0.12480234949E+02 -0.12109461543E+04  0.12174583602E+04  0.10100000352E+00 0.  1.
       -3    1    3    3    0  502  0.12513394358E+03 -0.12480234949E+02  0.10037235322E+03  0.16090021626E+03  0.10100000352E+00 0. -1.
</event>
<event>
 5   0  0.9919125E-03  0.8260349E+03  0.7818609E-02  0.9523079E-01
        3   -1    0    0  501    0  0.00000000000E+00  0.00000000000E+00  0.48952122585E+03  0.48952123627E+03  0.10100000352E+00 0. -1.
       -3   -1    0    0    0  501  0.00000000000E+00  0.00000000000E+00 -0.34846992000E+03  0.34846993464E+03  0.10100000352E+00 0.  1.
    10030    2    1    2    0    0  0.00000000000E+00  0.00000000000E+00  0.14105130584E+03  0.83799117091E+03  0.82603494577E+03 0.  0.
        1    1    3    3  502    0 -0.27238249960E+03  0.13877196029E+03  0.35227484646E+03  0.46641982219E+03  0.50400001928E-02 0. -1.
       -1    1    3    3    0  502  0.27238249960E+03 -0.13877196029E+03 -0.21122354062E+03  0.37157134872E+03  0.50400001928E-02 0.  1.
</event>
<event>
 5   0  0.2460312E-02  0.8028123E+03  0.7818609E-02  0.9555955E-01
       -2   -1    0    0    0  501  0.00000000000E+00  0.00000000000E+00  0.17000354300E+03  0.17000354302E+03  0.25500000920E-02 0. -1.
        2   -1    0    0  501    0  0.00000000000E+00  0.00000000000E+00 -0.94778543806E+03  0.94778543807E+03  0.25500000920E-02 0.  1.
    10030    2    1    2    0    0  0.00000000000E+00  0.00000000000E+00 -0.77778189507E+03  0.11177889811E+04  0.80281226320E+03 0.  0.
        2    1    3    3  502    0 -0.36621562943E+03 -0.38562651884E+02 -0.16643885075E+03  0.40410748125E+03  0.25500000920E-02 0. -1.
       -2    1    3    3    0  502  0.36621562943E+03  0.38562651884E+02 -0.61134304432E+03  0.71368149983E+03  0.25500000920E-02 0.  1.
</event>
<event>
 5   0  0.1471290E-02  0.8000738E+03  0.7818609E-02  0.9559910E-01
        1   -1    0    0  501    0  0.00000000000E+00  0.00000000000E+00  0.33115672729E+03  0.33115672733E+03  0.50400001928E-02 0.  1.
       -1   -1    0    0    0  501  0.00000000000E+00  0.00000000000E+00 -0.48324409405E+03  0.48324409407E+03  0.50400001928E-02 0. -1.
    10030    2    1    2    0    0  0.00000000000E+00  0.00000000000E+00 -0.15208736676E+03  0.81440082140E+03  0.80007382832E+03 0.  0.
        2    1    3    3  502    0 -0.12506394887E+03 -0.33925272785E+03 -0.25026979784E+03  0.43973671257E+03  0.25500000920E-02 0. -1.
       -2    1    3    3    0  502  0.12506394887E+03  0.33925272785E+03  0.98182431088E+02  0.37466410883E+03  0.25500000920E-02 0.  1.
</event>
<event>
 5   0  0.1471290E-02  0.7891189E+03  0.7818609E-02  0.9575902E-01
       -1   -1    0    0    0  501  0.00000000000E+00  0.00000000000E+00  0.10405829403E+03  0.10405829415E+03  0.50400001928E-02 0.  1.
        1   -1    0    0  501    0  0.00000000000E+00  0.00000000000E+00 -0.14960572730E+04  0.14960572730E+04  0.50400001928E-02 0. -1.
    10030    2    1    2    0    0  0.00000000000E+00  0.00000000000E+00 -0.13919989790E+04  0.16001155672E+04  0.78911892058E+03 0.  0.
        2    1    3    3  502    0 -0.34058320843E+03 -0.18298958577E+03 -0.85559900140E+03  0.93889922865E+03  0.25500000920E-02 0. -1.
       -2    1    3    3    0  502  0.34058320843E+03  0.18298958577E+03 -0.53639997757E+03  0.66121633851E+03  0.25500000920E-02 0.  1.
</event>
<event>
 5   0  0.1498375E-02  0.8129415E+03  0.7818609E-02  0.9541472E-01
        1   -1    0    0  501    0  0.00000000000E+00  0.00000000000E+00  0.12781048151E+04  0.12781048151E+04  0.50400001928E-02 0. -1.
       -1   -1    0    0    0  501  0.00000000000E+00  0.00000000000E+00 -0.12926831608E+03  0.12926831618E+03  0.50400001928E-02 0.  1.
    10030    2    1    2    0    0  0.00000000000E+00  0.00000000000E+00  0.11488364990E+04  0.14073731313E+04  0.81294146727E+03 0.  0.
        4    1    3    3  502    0  0.30491237924E+03 -0.22386972291E+03  0.83194209801E+03  0.91390288280E+03  0.12699999809E+01 0. -1.
       -4    1    3    3    0  502 -0.30491237924E+03  0.22386972291E+03  0.31689440099E+03  0.49347024847E+03  0.12699999809E+01 0.  1.
</event>
<event>
 5   0  0.1509629E-02  0.7810450E+03  0.7818609E-02  0.9587866E-01
        1   -1    0    0  501    0  0.00000000000E+00  0.00000000000E+00  0.80821258789E+03  0.80821258790E+03  0.50400001928E-02 0.  1.
       -1   -1    0    0    0  501  0.00000000000E+00  0.00000000000E+00 -0.18869763595E+03  0.18869763602E+03  0.50400001928E-02 0. -1.
    10030    2    1    2    0    0  0.00000000000E+00  0.00000000000E+00  0.61951495194E+03  0.99691022392E+03  0.78104495317E+03 0.  0.
        5    1    3    3  502    0  0.37268131813E+03  0.88350963885E+02  0.40686691067E+03  0.55880231808E+03  0.46999998093E+01 0.  1.
       -5    1    3    3    0  502 -0.37268131813E+03 -0.88350963885E+02  0.21264804127E+03  0.43810790583E+03  0.46999998093E+01 0. -1.
</event>
<event>
 5   0  0.1509629E-02  0.7950173E+03  0.7818609E-02  0.9567257E-01
       -1   -1    0    0    0  501  0.00000000000E+00  0.00000000000E+00  0.25018650494E+03  0.25018650499E+03  0.50400001928E-02 0.  1.
        1   -1    0    0  501    0  0.00000000000E+00  0.00000000000E+00 -0.63158136885E+03  0.63158136887E+03  0.50400001928E-02 0. -1.
    10030    2    1    2    0    0  0.00000000000E+00  0.00000000000E+00 -0.38139486391E+03  0.88176787386E+03  0.79501732129E+03 0.  0.
        5    1    3    3  502    0 -0.71201951736E+02  0.32379435692E+03  0.52496830399E+02  0.33569407309E+03  0.46999998093E+01 0.  1.
       -5    1    3    3    0  502  0.71201951736E+02 -0.32379435692E+03 -0.43389169430E+03  0.54607380077E+03  0.46999998093E+01 0. -1.
</event>
<event>
 5   0  0.2464780E-02  0.7634697E+03  0.7818609E-02  0.9614452E-01
        2   -1    0    0  501    0  0.00000000000E+00  0.00000000000E+00  0.83589639068E+03  0.83589639068E+03  0.25500000920E-02 0.  1.
       -2   -1    0    0    0  501  0.00000000000E+00  0.00000000000E+00 -0.17432960106E+03  0.17432960107E+03  0.25500000920E-02 0. -1.
    10030    2    1    2    0    0  0.00000000000E+00  0.00000000000E+00  0.66156678963E+03  0.10102259918E+04  0.76346967018E+03 0.  0.
        3    1    3    3  502    0  0.52781094305E+02  0.37261387918E+03  0.41545321393E+03  0.56056072824E+03  0.10100000352E+00 0.  1.
       -3    1    3    3    0  502 -0.52781094305E+02 -0.37261387918E+03  0.24611357570E+03  0.44966526352E+03  0.10100000352E+00 0. -1.
</event>
<event>
 5   0  0.2464780E-02  0.8093856E+03  0.7818609E-02  0.9546530E-01
        2   -1    0    0  501    0  0.00000000000E+00  0.00000000000E+00  0.13909548073E+04  0.13909548073E+04  0.25500000920E-02 0.  1.
       -2   -1    0    0    0  501  0.00000000000E+00  0.00000000000E+00 -0.11774376134E+03  0.11774376137E+03  0.25500000920E-02 0. -1.
    10030    2    1    2    0    0  0.00000000000E+00  0.00000000000E+00  0.12732110460E+04  0.15086985687E+04  0.80938557163E+03 0.  0.
        3    1    3    3  502    0  0.16657932416E+02  0.98176959250E+02  0.13677613385E+04  0.13713815265E+04  0.10100000352E+00 0.  1.
       -3    1    3    3    0  502 -0.16657932416E+02 -0.98176959250E+02 -0.94550292542E+02  0.13731704213E+03  0.10100000352E+00 0. -1.
</event>
<event>
 5   0  0.1509629E-02  0.7246254E+03  0.7818609E-02  0.9676022E-01
        1   -1    0    0  501    0  0.00000000000E+00  0.00000000000E+00  0.13828853606E+04  0.13828853607E+04  0.50400001928E-02 0. -1.
       -1   -1    0    0    0  501  0.00000000000E+00  0.00000000000E+00 -0.94925072632E+02  0.94925072766E+02  0.50400001928E-02 0.  1.
    10030    2    1    2    0    0  0.00000000000E+00  0.00000000000E+00  0.12879602880E+04  0.14778104334E+04  0.72462540228E+03 0.  0.
        5    1    3    3  502    0 -0.20802308596E+03 -0.18312465639E+03  0.16813584803E+03  0.32419129763E+03  0.46999998093E+01 0.  1.
       -5    1    3    3    0  502  0.20802308596E+03  0.18312465639E+03  0.11198244400E+04  0.11536191358E+04  0.46999998093E+01 0. -1.
</event>
<event>
 5   0  0.2571778E-02  0.7981356E+03  0.7818609E-02  0.9562720E-01
        2   -1    0    0  501    0  0.00000000000E+00  0.00000000000E+00  0.14312005121E+04  0.14312005121E+04  0.25500000920E-02 0. -1.
       -2   -1    0    0    0  501  0.00000000000E+00  0.00000000000E+00 -0.11127379533E+03  0.11127379536E+03  0.25500000920E-02 0.  1.
    10030    2    1    2    0    0  0.00000000000E+00  0.00000000000E+00  0.13199267168E+04  0.15424743075E+04  0.79813560976E+03 0.  0.
        1    1    3    3  502    0 -0.21679792748E+03 -0.67562021654E+02  0.12941647855E+04  0.13139362466E+04  0.50400001928E-02 0. -1.
       -1    1    3    3    0  502  0.21679792748E+03  0.67562021654E+02  0.25761931268E+02  0.22853806085E+03  0.50400001928E-02 0.  1.
</event>
<event>
 5   0  0.1471290E-02  0.7783392E+03  0.7818609E-02  0.9591910E-01
       -1   -1    0    0    0  501  0.00000000000E+00  0.00000000000E+00  0.39564249245E+03  0.39564249248E+03  0.50400001928E-02 0.  1.
        1   -1    0    0  501    0  0.00000000000E+00  0.00000000000E+00 -0.38280261492E+03  0.38280261496E+03  0.50400001928E-02 0. -1.
    10030    2    1    2    0    0  0.00000000000E+00  0.00000000000E+00  0.12839877522E+02  0.77844510743E+03  0.77833920808E+03 0.  0.
        2    1    3    3  502    0  0.20402486627E+03  0.17865030682E+03 -0.27274328371E+03  0.38461796240E+03  0.25500000920E-02 0. -1.
       -2    1    3    3    0  502 -0.20402486627E+03 -0.17865030682E+03  0.28558316123E+03  0.39382714504E+03  0.25500000920E-02 0.  1.
</event>
<event>
 5   0  0.2464780E-02  0.8120115E+03  0.7818609E-02  0.9542792E-01
       -2   -1    0    0    0  501  0.00000000000E+00  0.00000000000E+00  0.25321659915E+03  0.25321659916E+03  0.25500000920E-02 0.  1.
        2   -1    0    0  501    0  0.00000000000E+00  0.00000000000E+00 -0.65098676520E+03  0.65098676521E+03  0.25500000920E-02 0. -1.
    10030    2    1    2    0    0  0.00000000000E+00  0.00000000000E+00 -0.39777016606E+03  0.90420336437E+03  0.81201146490E+03 0.  0.
        3    1    3    3  502    0  0.10639020526E+03  0.38879015916E+02  0.23526542117E+03  0.26111354284E+03  0.10100000352E+00 0.  1.
       -3    1    3    3    0  502 -0.10639020526E+03 -0.38879015916E+02 -0.63303558723E+03  0.64308982153E+03  0.10100000352E+00 0. -1.
</event>
<event>
 5   0  0.2422031E-02  0.8114624E+03  0.7818609E-02  0.9543572E-01
        2   -1    0    0  501    0  0.00000000000E+00  0.00000000000E+00  0.42538060429E+03  0.42538060430E+03  0.25500000920E-02 0. -1.
       -2   -1    0    0    0  501  0.00000000000E+00  0.00000000000E+00 -0.38698949170E+03  0.38698949171E+03  0.25500000920E-02 0.  1.
    10030    2    1    2    0    0  0.00000000000E+00  0.00000000000E+00  0.38391112592E+02  0.81237009600E+03  0.81146244236E+03 0.  0.
        4    1    3    3  502    0  0.82570850486E+02 -0.48958551190E+02  0.41384624444E+03  0.42483551172E+03  0.12699999809E+01 0. -1.
       -4    1    3    3    0  502 -0.82570850486E+02  0.48958551190E+02 -0.37545513185E+03  0.38753458428E+03  0.12699999809E+01 0.  1.
</event>
<event>
 5   0  0.2454354E-02  0.7985567E+03  0.7818609E-02  0.9562109E-01
       -2   -1    0    0    0  501  0.00000000000E+00  0.00000000000E+00  0.16275692518E+03  0.16275692520E+03  0.25500000920E-02 0.  1.
        2   -1    0    0  501    0  0.00000000000E+00  0.00000000000E+00 -0.97951720973E+03  0.97951720973E+03  0.25500000920E-02 0. -1.
    10030    2    1    2    0    0  0.00000000000E+00  0.00000000000E+00 -0.81676028455E+03  0.11422741349E+04  0.79855672117E+03 0.  0.
        5    1    3    3  502    0  0.53764333828E+02 -0.15226124950E+03 -0.93068452737E+03  0.94460037645E+03  0.46999998093E+01 0. -1.
       -5    1    3    3    0  502 -0.53764333828E+02  0.15226124950E+03  0.11392424282E+03  0.19767375849E+03  0.46999998093E+01 0.  1.
</event>
<event>
 5   0  0.1523811E-02  0.8000453E+03  0.7818609E-02  0.9559952E-01
        1   -1    0    0  501    0  0.00000000000E+00  0.00000000000E+00  0.73895624274E+03  0.73895624276E+03  0.50400001928E-02 0.  1.
       -1   -1    0    0    0  501  0.00000000000E+00  0.00000000000E+00 -0.21654614489E+03  0.21654614495E+03  0.50400001928E-02 0. -1.
    10030    2    1    2    0    0  0.00000000000E+00  0.00000000000E+00  0.52241009785E+03  0.95550238771E+03  0.80004531283E+03 0.  0.
        1    1    3    3  502    0  0.13943908184E+03 -0.30367401928E+03  0.52383646678E+03  0.62134194408E+03  0.50400001928E-02 0.  1.
       -1    1    3    3    0  502 -0.13943908184E+03  0.30367401928E+03 -0.14263689259E+01  0.33416044362E+03  0.50400001928E-02 0. -1.
</event>
<event>
 5   0  0.9919125E-03  0.7199638E+03  0.7818609E-02  0.9683688E-01
       -3   -1    0    0    0  501  0.00000000000E+00  0.00000000000E+00  0.62499880696E+03  0.62499881512E+03  0.10100000352E+00 0. -1.
        3   -1    0    0  501    0  0.00000000000E+00  0.00000000000E+00 -0.20733954224E+03  0.20733956684E+03  0.10100000352E+00 0.  1.
    10030    2    1    2    0    0  0.00000000000E+00  0.00000000000E+00  0.41765926472E+03  0.83233838195E+03  0.71996383289E+03 0.  0.
        5    1    3    3  502    0  0.17310314420E+02 -0.25189296248E+03 -0.87757478691E+02  0.26734467752E+03  0.46999998093E+01 0.  1.
       -5    1    3    3    0  502 -0.17310314420E+02  0.25189296248E+03  0.50541674341E+03  0.56499370443E+03  0.46999998093E+01 0. -1.
</event>
<event>
 5   0  0.1523811E-02  0.8246618E+03  0.7818609E-02  0.9524991E-01
       -1   -1    0    0    0  501  0.00000000000E+00  0.00000000000E+00  0.12651631777E+04  0.12651631777E+04  0.50400001928E-02 0. -1.
        1   -1    0    0  501    0  0.00000000000E+00  0.00000000000E+00 -0.13438325910E+03  0.13438325920E+03  0.50400001928E-02 0.  1.
    10030    2    1    2    0    0  0.00000000000E+00  0.00000000000E+00  0.11307799186E+04  0.13995464369E+04  0.82466175173E+03 0.  0.
        1    1    3    3  502    0  0.40532709666E+03  0.34765116844E+02  0.45131546807E+03  0.60760539858E+03  0.50400001928E-02 0. -1.
       -1    1    3    3    0  502 -0.40532709666E+03 -0.34765116844E+02  0.67946445053E+03  0.79194103834E+03  0.50400001928E-02 0.  1.
</event>
<event>
 5   0  0.1498375E-02  0.7996368E+03  0.7818609E-02  0.9560543E-01
       -1   -1    0    0    0  501  0.00000000000E+00  0.00000000000E+00  0.14109268024E+03  0.14109268033E+03  0.50400001928E-02 0. -1.
        1   -1    0    0  501    0  0.00000000000E+00  0.00000000000E+00 -0.11329769963E+04  0.11329769963E+04  0.50400001928E-02 0.  1.
    10030    2    1    2    0    0  0.00000000000E+00  0.00000000000E+00 -0.99188431610E+03  0.12740696767E+04  0.79963682038E+03 0.  0.
        4    1    3    3  502    0 -0.12171641755E+02  0.26134173674E+02  0.13943121024E+03  0.14238616220E+03  0.12699999809E+01 0. -1.
       -4    1    3    3    0  502  0.12171641755E+02 -0.26134173674E+02 -0.11313155263E+04  0.11316835145E+04  0.12699999809E+01 0.  1.
</event>
<event>
 5   0  0.1509629E-02  0.7971557E+03  0.7818609E-02  0.9564143E-01
        1   -1    0    0  501    0  0.00000000000E+00  0.00000000000E+00  0.58471859162E+03  0.58471859165E+03  0.50400001928E-02 0.  1.
       -1   -1    0    0    0  501  0.00000000000E+00  0.00000000000E+00 -0.27169359859E+03  0.27169359864E+03  0.50400001928E-02 0. -1.
    10030    2    1    2    0    0  0.00000000000E+00  0.00000000000E+00  0.31302499303E+03  0.85641219028E+03  0.79715568956E+03 0.  0.
        5    1    3    3  502    0  0.32719100588E+02 -0.15512573275E+03  0.54935444841E+03  0.57179273561E+03  0.46999998093E+01 0.  1.
       -5    1    3    3    0  502 -0.32719100588E+02  0.15512573275E+03 -0.23632945538E+03  0.28461945468E+03  0.46999998093E+01 0. -1.
</event>
<event>
 5   0  0.2464780E-02  0.7818673E+03  0.7818609E-02  0.9586641E-01
        2   -1    0    0  501    0  0.00000000000E+00  0.00000000000E+00  0.11276106081E+04  0.11276106081E+04  0.25500000920E-02 0.  1.
       -2   -1    0    0    0  501  0.00000000000E+00  0.00000000000E+00 -0.13553359454E+03  0.13553359456E+03  0.25500000920E-02 0. -1.
    10030    2    1    2    0    0  0.00000000000E+00  0.00000000000E+00  0.99207701359E+03  0.12631442027E+04  0.78186730071E+03 0.  0.
        3    1    3    3  502    0 -0.19843020503E+03  0.10280002230E+03  0.10142410493E+04  0.10385698374E+04  0.10100000352E+00 0.  1.
       -3    1    3    3    0  502  0.19843020503E+03 -0.10280002230E+03 -0.22164035750E+02  0.22457436527E+03  0.10100000352E+00 0. -1.
</event>
<event>
 5   0  0.1471290E-02  0.7971897E+03  0.7818609E-02  0.9564094E-01
        1   -1    0    0  501    0  0.00000000000E+00  0.00000000000E+00  0.84504462749E+03  0.84504462750E+03  0.50400001928E-02 0.  1.
       -1   -1    0    0    0  501  0.00000000000E+00  0.00000000000E+00 -0.18801122077E+03  0.18801122084E+03  0.50400001928E-02 0. -1.
    10030    2    1    2    0    0  0.00000000000E+00  0.00000000000E+00  0.65703340671E+03  0.10330558483E+04  0.79718974420E+03 0.  0.
        2    1    3    3  502    0  0.71783295948E+02 -0.16090712840E+02 -0.17913792915E+03  0.19365471924E+03  0.25500000920E-02 0. -1.
       -2    1    3    3    0  502 -0.71783295948E+02  0.16090712840E+02  0.83617133586E+03  0.83940112911E+03  0.25500000920E-02 0.  1.
</event>
<event>
 5   0  0.1498375E-02  0.8041027E+03  0.7818609E-02  0.9554098E-01
       -1   -1    0    0    0  501  0.00000000000E+00  0.00000000000E+00  0.15369702581E+03  0.15369702589E+03  0.50400001928E-02 0.  1.
        1   -1    0    0  501    0  0.00000000000E+00  0.00000000000E+00 -0.10517138911E+04  0.10517138911E+04  0.50400001928E-02 0. -1.
    10030    2    1    2    0    0  0.00000000000E+00  0.00000000000E+00 -0.89801686526E+03  0.12054109170E+04  0.80410272258E+03 0.  0.
        4    1    3    3  502    0  0.22543219210E+03 -0.20357073516E+03 -0.84387468764E+03  0.89687614462E+03  0.12699999809E+01 0. -1.
       -4    1    3    3    0  502 -0.22543219210E+03  0.20357073516E+03 -0.54142177619E+02  0.30853477235E+03  0.12699999809E+01 0.  1.
</event>
<event>
 5   0  0.1624094E-02  0.8074800E+03  0.7818609E-02  0.9549253E-01
        1   -1    0    0  501    0  0.00000000000E+00  0.00000000000E+00  0.32095944434E+03  0.32095944437E+03  0.50400001928E-02 0.  1.
       -1   -1    0    0    0  501  0.00000000000E+00  0.00000000000E+00 -0.50787103732E+03  0.50787103734E+03  0.50400001928E-02 0. -1.
    10030    2    1    2    0    0  0.00000000000E+00  0.00000000000E+00 -0.18691159298E+03  0.82883048172E+03  0.80748004547E+03 0.  0.
        3    1    3    3  502    0 -0.23455781092E+03 -0.17302728828E+03 -0.38021732637E+03  0.47908353617E+03  0.10100000352E+00 0. -1.
       -3    1    3    3    0  502  0.23455781092E+03  0.17302728828E+03  0.19330573339E+03  0.34974694555E+03  0.10100000352E+00 0.  1.
</event>
<event>
 5   0  0.1498375E-02  0.8242050E+03  0.7818609E-02  0.9525627E-01
        1   -1    0    0  501    0  0.00000000000E+00  0.00000000000E+00  0.86110520496E+03  0.86110520497E+03  0.50400001928E-02 0.  1.
       -1   -1    0    0    0  501  0.00000000000E+00  0.00000000000E+00 -0.19722151634E+03  0.19722151640E+03  0.50400001928E-02 0. -1.
    10030    2    1    2    0    0  0.00000000000E+00  0.00000000000E+00  0.66388368862E+03  0.10583267214E+04  0.82420500919E+03 0.  0.
        4    1    3    3  502    0  0.22469218994E+03 -0.31301585714E+03  0.14427009412E+03  0.41143769881E+03  0.12699999809E+01 0. -1.
       -4    1    3    3    0  502 -0.22469218994E+03  0.31301585714E+03  0.51961359449E+03  0.64688902257E+03  0.12699999809E+01 0.  1.
</event>
<event>
 5   0  0.2460312E-02  0.7984847E+03  0.7818609E-02  0.9562213E-01
        2   -1    0    0  501    0  0.00000000000E+00  0.00000000000E+00  0.15435888630E+04  0.15435888630E+04  0.25500000920E-02 0. -1.
       -2   -1    0    0    0  501  0.00000000000E+00  0.00000000000E+00 -0.10326224933E+03  0.10326224936E+03  0.25500000920E-02 0.  1.
    10030    2    1    2    0    0  0.00000000000E+00  0.00000000000E+00  0.14403266137E+04  0.16468511124E+04  0.79848471010E+03 0.  0.
        2    1    3    3  502    0  0.13107395269E+03  0.25165792793E+01  0.14979300270E+04  0.15036559048E+04  0.25500000920E-02 0. -1.
       -2    1    3    3    0  502 -0.13107395269E+03 -0.25165792793E+01 -0.57603413307E+02  0.14319520759E+03  0.25500000920E-02 0.  1.
</event>
<event>
 5   0  0.2454354E-02  0.8107499E+03  0.7818609E-02  0.9544586E-01
       -2   -1    0    0    0  501  0.00000000000E+00  0.00000000000E+00  0.29065702943E+03  0.29065702944E+03  0.25500000920E-02 0. -1.
        2   -1    0    0  501    0  0.00000000000E+00  0.00000000000E+00 -0.56537025625E+03  0.56537025626E+03  0.25500000920E-02 0.  1.
    10030    2    1    2    0    0  0.00000000000E+00  0.00000000000E+00 -0.27471322682E+03  0.85602728570E+03  0.81074987318E+03 0.  0.
        5    1    3    3  502    0 -0.81024818218E+02 -0.15212903316E+03  0.25000876743E+03  0.30370172487E+03  0.46999998093E+01 0. -1.
       -5    1    3    3    0  502  0.81024818218E+02  0.15212903316E+03 -0.52472199425E+03  0.55232556083E+03  0.46999998093E+01 0.  1.
</event>
<event>
 5   0  0.2464780E-02  0.7905865E+03  0.7818609E-02  0.9573744E-01
       -2   -1    0    0    0  501  0.00000000000E+00  0.00000000000E+00  0.11051006507E+03  0.11051006510E+03  0.25500000920E-02 0.  1.
        2   -1    0    0  501    0  0.00000000000E+00  0.00000000000E+00 -0.14139594588E+04  0.14139594588E+04  0.25500000920E-02 0. -1.
    10030    2    1    2    0    0  0.00000000000E+00  0.00000000000E+00 -0.13034493938E+04  0.15244695239E+04  0.79058649578E+03 0.  0.
        3    1    3    3  502    0  0.62580972760E+02  0.33748363048E+01 -0.14043184572E+04  0.14057162257E+04  0.10100000352E+00 0. -1.
       -3    1    3    3    0  502 -0.62580972760E+02 -0.33748363048E+01  0.10086906348E+03  0.11875329823E+03  0.10100000352E+00 0.  1.
</event>
<event>
 5   0  0.2454354E-02  0.8208107E+03  0.7818609E-02  0.9530374E-01
       -2   -1    0    0    0  501  0.00000000000E+00  0.00000000000E+00  0.10155587321E+03  0.10155587324E+03  0.25500000920E-02 0. -1.
        2   -1    0    0  501    0  0.00000000000E+00  0.00000000000E+00 -0.16585208426E+04  0.16585208426E+04  0.25500000920E-02 0.  1.
    10030    2    1    2    0    0  0.00000000000E+00  0.00000000000E+00 -0.15569649694E+04  0.17600767159E+04  0.82081065401E+03 0.  0.
        5    1    3    3  502    0  0.14305521863E+03 -0.35485660716E+03 -0.10966979506E+04  0.11615319591E+04  0.46999998093E+01 0.  1.
       -5    1    3    3    0  502 -0.14305521863E+03  0.35485660716E+03 -0.46026701885E+03  0.59854475677E+03  0.46999998093E+01 0. -1.
</event>
<event>
 5   0  0.1498375E-02  0.6669793E+03  0.7818609E-02  0.9775430E-01
        1   -1    0    0  501    0  0.00000000000E+00  0.00000000000E+00  0.41520156839E+03  0.41520156842E+03  0.50400001928E-02 0. -1.
       -1   -1    0    0    0  501  0.00000000000E+00  0.00000000000E+00 -0.26785872034E+03  0.26785872039E+03  0.50400001928E-02 0.  1.
    10030    2    1    2    0    0  0.00000000000E+00  0.00000000000E+00  0.14734284805E+03  0.68306028881E+03  0.66697934247E+03 0.  0.
        4    1    3    3  502    0  0.45355180807E+01 -0.32105987262E+03 -0.18576599295E+02  0.32163133502E+03  0.12699999809E+01 0.  1.
       -4    1    3    3    0  502 -0.45355180807E+01  0.32105987262E+03  0.16591944734E+03  0.36142895378E+03  0.12699999809E+01 0. -1.
</event>
<event>
 5   0  0.1624094E-02  0.8011469E+03  0.7818609E-02  0.9558358E-01
       -1   -1    0    0    0  501  0.00000000000E+00  0.00000000000E+00  0.27945659630E+03  0.27945659635E+03  0.50400001928E-02 0.  1.
        1   -1    0    0  501    0  0.00000000000E+00  0.00000000000E+00 -0.57418251054E+03  0.57418251057E+03  0.50400001928E-02 0. -1.
    10030    2    1    2    0    0  0.00000000000E+00  0.00000000000E+00 -0.29472591424E+03  0.85363910691E+03  0.80114690309E+03 0.  0.
        3    1    3    3  502    0 -0.31228406805E+02  0.18951198515E+03 -0.52191920048E+03  0.55613817343E+03  0.10100000352E+00 0. -1.
       -3    1    3    3    0  502  0.31228406805E+02 -0.18951198515E+03  0.22719328625E+03  0.29750093349E+03  0.10100000352E+00 0.  1.
</event>
<event>
 5   0  0.1624094E-02  0.7845565E+03  0.7818609E-02  0.9582644E-01
       -1   -1    0    0    0  501  0.00000000000E+00  0.00000000000E+00  0.14403528271E+03  0.14403528280E+03  0.50400001928E-02 0. -1.
        1   -1    0    0  501    0  0.00000000000E+00  0.00000000000E+00 -0.10683648194E+04  0.10683648194E+04  0.50400001928E-02 0.  1.
    10030    2    1    2    0    0  0.00000000000E+00  0.00000000000E+00 -0.92432953666E+03  0.12124001022E+04  0.78455650874E+03 0.  0.
        3    1    3    3  502    0  0.52998076056E+02 -0.38154536019E+03 -0.57673380168E+03  0.69354707566E+03  0.10100000352E+00 0. -1.
       -3    1    3    3    0  502 -0.52998076056E+02  0.38154536019E+03 -0.34759573498E+03  0.51885302651E+03  0.10100000352E+00 0.  1.
</event>
<event>
 5   0  0.1509629E-02  0.7981152E+03  0.7818609E-02  0.9562749E-01
       -1   -1    0    0    0  501  0.00000000000E+00  0.00000000000E+00  0.77872551318E+03  0.77872551320E+03  0.50400001928E-02 0. -1.
        1   -1    0    0  501    0  0.00000000000E+00  0.00000000000E+00 -0.20449689926E+03  0.20449689932E+03  0.50400001928E-02 0.  1.
    10030    2    1    2    0    0  0.00000000000E+00  0.00000000000E+00  0.57422861392E+03  0.98322241252E+03  0.79811516176E+03 0.  0.
        5    1    3    3  502    0 -0.52317205598E+02  0.12503848952E+03 -0.17523423132E+03  0.22158709278E+03  0.46999998093E+01 0.  1.
       -5    1    3    3    0  502  0.52317205598E+02 -0.12503848952E+03  0.74946284525E+03  0.76163531973E+03  0.46999998093E+01 0. -1.
</event>
<event>
 5   0  0.2460312E-02  0.7870330E+03  0.7818609E-02  0.9578978E-01
       -2   -1    0    0    0  501  0.00000000000E+00  0.00000000000E+00  0.96756304644E+02  0.96756304678E+02  0.25500000920E-02 0. -1.
        2   -1    0    0  501    0  0.00000000000E+00  0.00000000000E+00 -0.16004666137E+04  0.16004666138E+04  0.25500000920E-02 0.  1.
    10030    2    1    2    0    0  0.00000000000E+00  0.00000000000E+00 -0.15037103091E+04  0.16972229184E+04  0.78703299876E+03 0.  0.
        2    1    3    3  502    0  0.26990191201E+03 -0.45383958813E+02 -0.14210618218E+03  0.30838435895E+03  0.25500000920E-02 0. -1.
       -2    1    3    3    0  502 -0.26990191201E+03  0.45383958813E+02 -0.13616041269E+04  0.13888385595E+04  0.25500000920E-02 0.  1.
</event>
<event>
 5   0  0.2464780E-02  0.7985384E+03  0.7818609E-02  0.9562135E-01
        2   -1    0    0  501    0  0.00000000000E+00  0.00000000000E+00  0.92004933805E+03  0.92004933806E+03  0.25500000920E-02 0.  1.
       -2   -1    0    0    0  501  0.00000000000E+00  0.00000000000E+00 -0.17326886439E+03  0.17326886441E+03  0.25500000920E-02 0. -1.
    10030    2    1    2    0    0  0.00000000000E+00  0.00000000000E+00  0.74678047367E+03  0.10933182025E+04  0.79853842487E+03 0.  0.
        3    1    3    3  502    0 -0.32588176284E+03  0.28561492071E+02  0.68680642496E+03  0.76073501152E+03  0.10100000352E+00 0.  1.
       -3    1    3    3    0  502  0.32588176284E+03 -0.28561492071E+02  0.59974048704E+02  0.33258319094E+03  0.10100000352E+00 0. -1.
</event>
<event>
 5   0  0.2464780E-02  0.7882643E+03  0.7818609E-02  0.9577161E-01
       -2   -1    0    0    0  501  0.00000000000E+00  0.00000000000E+00  0.40817754746E+03  0.40817754746E+03  0.25500000920E-02 0. -1.
        2   -1    0    0  501    0  0.00000000000E+00  0.00000000000E+00 -0.38057007114E+03  0.38057007115E+03  0.25500000920E-02 0.  1.
    10030    2    1    2    0    0  0.00000000000E+00  0.00000000000E+00  0.27607476310E+02  0.78874761862E+03  0.78826431679E+03 0.  0.
        3    1    3    3  502    0 -0.23015881890E+03  0.28289916628E+03 -0.13573730829E+03  0.38913962438E+03  0.10100000352E+00 0.  1.
       -3    1    3    3    0  502  0.23015881890E+03 -0.28289916628E+03  0.16334478460E+03  0.39960799424E+03  0.10100000352E+00 0. -1.
</event>
<event>
 5   0  0.1471290E-02  0.7972643E+03  0.7818609E-02  0.9563985E-01
        1   -1    0    0  501    0  0.00000000000E+00  0.00000000000E+00  0.79840961481E+03  0.79840961482E+03  0.50400001928E-02 0.  1.
       -1   -1    0    0    0  501  0.00000000000E+00  0.00000000000E+00 -0.19903013777E+03  0.19903013784E+03  0.50400001928E-02 0. -1.
    10030    2    1    2    0    0  0.00000000000E+00  0.00000000000E+00  0.59937947703E+03  0.99743975266E+03  0.79726426152E+03 0.  0.
        2    1    3    3  502    0 -0.31909132389E+03 -0.18112094993E+03  0.10473219022E+03  0.38156638106E+03  0.25500000920E-02 0. -1.
       -2    1    3    3    0  502  0.31909132389E+03  0.18112094993E+03  0.49464728681E+03  0.61587337159E+03  0.25500000920E-02 0.  1.
</event>
<event>
 5   0  0.2422031E-02  0.8047037E+03  0.7818609E-02  0.9553234E-01
        2   -1    0    0  501    0  0.00000000000E+00  0.00000000000E+00  0.28039358245E+03  0.28039358246E+03  0.25500000920E-02 0. -1.
       -2   -1    0    0    0  501  0.00000000000E+00  0.00000000000E+00 -0.57735633977E+03  0.57735633978E+03  0.25500000920E-02 0.  1.
    10030    2    1    2    0    0  0.00000000000E+00  0.00000000000E+00 -0.29696275732E+03  0.85774992224E+03  0.80470370315E+03 0.  0.
        4    1    3    3  502    0 -0.86322364969E+02 -0.39239830775E+03 -0.12568421510E+03  0.42098232438E+03  0.12699999809E+01 0. -1.
       -4    1    3    3    0  502  0.86322364969E+02  0.39239830775E+03 -0.17127854222E+03  0.43676759786E+03  0.12699999809E+01 0.  1.
</event>
<event>
 5   0  0.2464780E-02  0.8018204E+03  0.7818609E-02  0.9557386E-01
       -2   -1    0    0    0  501  0.00000000000E+00  0.00000000000E+00  0.29766323513E+03  0.29766323514E+03  0.25500000920E-02 0.  1.
        2   -1    0    0  501    0  0.00000000000E+00  0.00000000000E+00 -0.53996920140E+03  0.53996920141E+03  0.25500000920E-02 0. -1.
    10030    2    1    2    0    0  0.00000000000E+00  0.00000000000E+00 -0.24230596627E+03  0.83763243655E+03  0.80182037731E+03 0.  0.
        3    1    3    3  502    0 -0.17990515292E+03  0.35784308452E+03 -0.13958861384E+03  0.42414918190E+03  0.10100000352E+00 0. -1.
       -3    1    3    3    0  502  0.17990515292E+03 -0.35784308452E+03 -0.10271735243E+03  0.41348325465E+03  0.10100000352E+00 0.  1.
</event>
<event>
 5   0  0.2464780E-02  0.8032531E+03  0.7818609E-02  0.9555320E-01
       -2   -1    0    0    0  501  0.00000000000E+00  0.00000000000E+00  0.21699874604E+03  0.21699874606E+03  0.25500000920E-02 0. -1.
        2   -1    0    0  501    0  0.00000000000E+00  0.00000000000E+00 -0.74334025977E+03  0.74334025977E+03  0.25500000920E-02 0.  1.
    10030    2    1    2    0    0  0.00000000000E+00  0.00000000000E+00 -0.52634151373E+03  0.96033900583E+03  0.80325314630E+03 0.  0.
        3    1    3    3  502    0  0.29839686017E+02  0.37720733726E+03 -0.42414204535E+03  0.56839446424E+03  0.10100000352E+00 0.  1.
       -3    1    3    3    0  502 -0.29839686017E+02 -0.37720733726E+03 -0.10219946837E+03  0.39194454159E+03  0.10100000352E+00 0. -1.
</event>
<event>
 5   0  0.9919125E-03  0.7972620E+03  0.7818609E-02  0.9563989E-01
       -3   -1    0    0    0  501  0.00000000000E+00  0.00000000000E+00  0.23130983164E+03  0.23130985369E+03  0.10100000352E+00 0. -1.
        3   -1    0    0  501    0  0.00000000000E+00  0.00000000000E+00 -0.68698620225E+03  0.68698620967E+03  0.10100000352E+00 0.  1.
    10030    2    1    2    0    0  0.00000000000E+00  0.00000000000E+00 -0.45567637061E+03  0.91829606336E+03  0.79726200540E+03 0.  0.
        1    1    3    3  502    0  0.11582759907E+03 -0.26229363073E+03 -0.54681466011E+03  0.61743036365E+03  0.50400001928E-02 0.  1.
       -1    1    3    3    0  502 -0.11582759907E+03  0.26229363073E+03  0.91138289494E+02  0.30086569971E+03  0.50400001928E-02 0. -1.
</event>
<event>
 5   0  0.2464780E-02  0.8000779E+03  0.7818609E-02  0.9559904E-01
        2   -1    0    0  501    0  0.00000000000E+00  0.00000000000E+00  0.98215421445E+03  0.98215421445E+03  0.25500000920E-02 0.  1.
       -2   -1    0    0    0  501  0.00000000000E+00  0.00000000000E+00 -0.16293894552E+03  0.16293894554E+03  0.25500000920E-02 0. -1.
    10030    2    1    2    0    0  0.00000000000E+00  0.00000000000E+00  0.81921526893E+03  0.11450931600E+04  0.80007792635E+03 0.  0.
        3    1    3    3  502    0 -0.12725117076E+02 -0.30974648804E+03  0.47741056279E+02  0.31366229310E+03  0.10100000352E+00 0. -1.
       -3    1    3    3    0  502  0.12725117076E+02  0.30974648804E+03  0.77147421265E+03  0.83143086690E+03  0.10100000352E+00 0.  1.
</event>
<event>
 5   0  0.2454354E-02  0.8432947E+03  0.7818609E-02  0.9499381E-01
        2   -1    0    0  501    0  0.00000000000E+00  0.00000000000E+00  0.96949167778E+03  0.96949167779E+03  0.25500000920E-02 0. -1.
       -2   -1    0    0    0  501  0.00000000000E+00  0.00000000000E+00 -0.18338115715E+03  0.18338115717E+03  0.25500000920E-02 0.  1.
    10030    2    1    2    0    0  0.00000000000E+00  0.00000000000E+00  0.78611052064E+03  0.11528728350E+04  0.84329474261E+03 0.  0.
        5    1    3    3  502    0 -0.38680052823E+03 -0.13566062696E+03  0.25809237434E+03  0.48440914322E+03  0.46999998093E+01 0.  1.
       -5    1    3    3    0  502  0.38680052823E+03  0.13566062696E+03  0.52801814630E+03  0.66846369173E+03  0.46999998093E+01 0. -1.
</event>
<event>
 5   0  0.1624094E-02  0.8080939E+03  0.7818609E-02  0.9548375E-01
        1   -1    0    0  501    0  0.00000000000E+00  0.00000000000E+00  0.13566397702E+04  0.13566397702E+04  0.50400001928E-02 0. -1.
       -1   -1    0    0    0  501  0.00000000000E+00  0.00000000000E+00 -0.12033696962E+03  0.12033696973E+03  0.50400001928E-02 0.  1.
    10030    2    1    2    0    0  0.00000000000E+00  0.00000000000E+00  0.12363028006E+04  0.14769767399E+04  0.80809385320E+03 0.  0.
        3    1    3    3  502    0  0.14803895555E+03 -0.21135153999E+03  0.49880722496E+02  0.26281762212E+03  0.10100000352E+00 0.  1.
       -3    1    3    3    0  502 -0.14803895555E+03  0.21135153999E+03  0.11864220781E+04  0.12141591178E+04  0.10100000352E+00 0. -1.
</event>
<event>
 5   0  0.9919125E-03  0.9015195E+03  0.7818609E-02  0.9423684E-01
        3   -1    0    0  501    0  0.00000000000E+00  0.00000000000E+00  0.93933472387E+02  0.93933526686E+02  0.10100000352E+00 0.  1.
       -3   -1    0    0    0  501  0.00000000000E+00  0.00000000000E+00 -0.21630659698E+04  0.21630659722E+04  0.10100000352E+00 0. -1.
    10030    2    1    2    0    0  0.00000000000E+00  0.00000000000E+00 -0.20691324974E+04  0.22569994989E+04  0.90151952055E+03 0.  0.
        1    1    3    3  502    0 -0.78607812386E+02 -0.24109756993E+03 -0.19675448912E+04  0.19838195798E+04  0.50400001928E-02 0. -1.
       -1    1    3    3    0  502  0.78607812386E+02  0.24109756993E+03 -0.10158760621E+03  0.27317991902E+03  0.50400001928E-02 0.  1.
</event>
<event>
 5   0  0.1471290E-02  0.7746039E+03  0.7818609E-02  0.9597522E-01
       -1   -1    0    0    0  501  0.00000000000E+00  0.00000000000E+00  0.11175227816E+03  0.11175227827E+03  0.50400001928E-02 0. -1.
        1   -1    0    0  501    0  0.00000000000E+00  0.00000000000E+00 -0.13422795333E+04  0.13422795333E+04  0.50400001928E-02 0.  1.
    10030    2    1    2    0    0  0.00000000000E+00  0.00000000000E+00 -0.12305272551E+04  0.14540318116E+04  0.77460388808E+03 0.  0.
        2    1    3    3  502    0 -0.24906134465E+03 -0.16433340762E+03 -0.10787503316E+04  0.11192583706E+04  0.25500000920E-02 0.  1.
       -2    1    3    3    0  502  0.24906134465E+03  0.16433340762E+03 -0.15177692357E+03  0.33477344099E+03  0.25500000920E-02 0. -1.
</event>
<event>
 5   0  0.1498375E-02  0.7982580E+03  0.7818609E-02  0.9562542E-01
        1   -1    0    0  501    0  0.00000000000E+00  0.00000000000E+00  0.29575636113E+03  0.29575636117E+03  0.50400001928E-02 0. -1.
       -1   -1    0    0    0  501  0.00000000000E+00  0.00000000000E+00 -0.53863243925E+03  0.53863243927E+03  0.50400001928E-02 0.  1.
    10030    2    1    2    0    0  0.00000000000E+00  0.00000000000E+00 -0.24287607812E+03  0.83438880044E+03  0.79825802907E+03 0.  0.
        4    1    3    3  502    0  0.17267759475E+02  0.18287204118E+03 -0.49182379817E+03  0.52500725739E+03  0.12699999809E+01 0.  1.
       -4    1    3    3    0  502 -0.17267759475E+02 -0.18287204118E+03  0.24894772005E+03  0.30938154305E+03  0.12699999809E+01 0. -1.
</event>
<event>
 5   0  0.2464780E-02  0.8288461E+03  0.7818609E-02  0.9519177E-01
        2   -1    0    0  501    0  0.00000000000E+00  0.00000000000E+00  0.10297059317E+04  0.10297059317E+04  0.25500000920E-02 0.  1.
       -2   -1    0    0    0  501  0.00000000000E+00  0.00000000000E+00 -0.16679174730E+03  0.16679174732E+03  0.25500000920E-02 0. -1.
    10030    2    1    2    0    0  0.00000000000E+00  0.00000000000E+00  0.86291418440E+03  0.11964976790E+04  0.82884606910E+03 0.  0.
        3    1    3    3  502    0 -0.36176988623E+03  0.15981094671E+03  0.61018867222E+03  0.72715006373E+03  0.10100000352E+00 0.  1.
       -3    1    3    3    0  502  0.36176988623E+03 -0.15981094671E+03  0.25272551218E+03  0.46934761529E+03  0.10100000352E+00 0. -1.
</event>
<event>
 5   0  0.2464780E-02  0.8058665E+03  0.7818609E-02  0.9551564E-01
        2   -1    0    0  501    0  0.00000000000E+00  0.00000000000E+00  0.56465547703E+03  0.56465547703E+03  0.25500000920E-02 0. -1.
       -2   -1    0    0    0  501  0.00000000000E+00  0.00000000000E+00 -0.28752966302E+03  0.28752966303E+03  0.25500000920E-02 0.  1.
    10030    2    1    2    0    0  0.00000000000E+00  0.00000000000E+00  0.27712581400E+03  0.85218514006E+03  0.80586648780E+03 0.  0.
        3    1    3    3  502    0 -0.26947448533E+03 -0.17459825688E+03  0.39597574816E+03  0.50980177803E+03  0.10100000352E+00 0. -1.
       -3    1    3    3    0  502  0.26947448533E+03  0.17459825688E+03 -0.11884993415E+03  0.34238336204E+03  0.10100000352E+00 0.  1.
</event>
<event>
 5   0  0.2571778E-02  0.7830147E+03  0.7818609E-02  0.9584933E-01
        2   -1    0    0  501    0  0.00000000000E+00  0.00000000000E+00  0.23626572831E+03  0.23626572833E+03  0.25500000920E-02 0.  1.
       -2   -1    0    0    0  501  0.00000000000E+00  0.00000000000E+00 -0.64875257338E+03  0.64875257339E+03  0.25500000920E-02 0. -1.
    10030    2    1    2    0    0  0.00000000000E+00  0.00000000000E+00 -0.41248684507E+03  0.88501830172E+03  0.78301468506E+03 0.  0.
        1    1    3    3  502    0  0.30151756413E+03 -0.15764553965E+03  0.12670550950E+02  0.34047834077E+03  0.50400001928E-02 0.  1.
       -1    1    3    3    0  502 -0.30151756413E+03  0.15764553965E+03 -0.42515739602E+03  0.54453996094E+03  0.50400001928E-02 0. -1.
</event>
<event>
 5   0  0.1523811E-02  0.8026824E+03  0.7818609E-02  0.9556143E-01
       -1   -1    0    0    0  501  0.00000000000E+00  0.00000000000E+00  0.25393400319E+03  0.25393400324E+03  0.50400001928E-02 0. -1.
        1   -1    0    0  501    0  0.00000000000E+00  0.00000000000E+00 -0.63431739503E+03  0.63431739505E+03  0.50400001928E-02 0.  1.
    10030    2    1    2    0    0  0.00000000000E+00  0.00000000000E+00 -0.38038339183E+03  0.88825139829E+03  0.80268239160E+03 0.  0.
        1    1    3    3  502    0 -0.23533968449E+03  0.22027159771E+03  0.74400982859E+02  0.33081694354E+03  0.50400001928E-02 0. -1.
       -1    1    3    3    0  502  0.23533968449E+03 -0.22027159771E+03 -0.45478437469E+03  0.55743445475E+03  0.50400001928E-02 0.  1.
</event>
<event>
 5   0  0.2460312E-02  0.7956604E+03  0.7818609E-02  0.9566320E-01
       -2   -1    0    0    0  501  0.00000000000E+00  0.00000000000E+00  0.19128539745E+03  0.19128539747E+03  0.25500000920E-02 0. -1.
        2   -1    0    0  501    0  0.00000000000E+00  0.00000000000E+00 -0.82739648853E+03  0.82739648854E+03  0.25500000920E-02 0.  1.
    10030    2    1    2    0    0  0.00000000000E+00  0.00000000000E+00 -0.63611109108E+03  0.10186818860E+04  0.79566039531E+03 0.  0.
        2    1    3    3  502    0 -0.24607066315E+02 -0.31411473201E+03 -0.62902628462E+03  0.70352515188E+03  0.25500000920E-02 0.  1.
       -2    1    3    3    0  502  0.24607066315E+02  0.31411473201E+03 -0.70848064666E+01  0.31515673413E+03  0.25500000920E-02 0. -1.
</event>
<event>
 5   0  0.2464780E-02  0.7936486E+03  0.7818609E-02  0.9569256E-01
       -2   -1    0    0    0  501  0.00000000000E+00  0.00000000000E+00  0.11784122106E+03  0.11784122109E+03  0.25500000920E-02 0. -1.
        2   -1    0    0  501    0  0.00000000000E+00  0.00000000000E+00 -0.13362855694E+04  0.13362855694E+04  0.25500000920E-02 0.  1.
    10030    2    1    2    0    0  0.00000000000E+00  0.00000000000E+00 -0.12184443484E+04  0.14541267905E+04  0.79364859532E+03 0.  0.
        3    1    3    3  502    0 -0.10482590335E+02 -0.82255257364E+02 -0.13202349873E+04  0.13228364388E+04  0.10100000352E+00 0.  1.
       -3    1    3    3    0  502  0.10482590335E+02  0.82255257364E+02  0.10179063894E+03  0.13129035167E+03  0.10100000352E+00 0. -1.
</event>
<event>
 5   0  0.1523811E-02  0.8024908E+03  0.7818609E-02  0.9556419E-01
       -1   -1    0    0    0  501  0.00000000000E+00  0.00000000000E+00  0.23876326581E+03  0.23876326587E+03  0.50400001928E-02 0. -1.
        1   -1    0    0  501    0  0.00000000000E+00  0.00000000000E+00 -0.67429920415E+03  0.67429920417E+03  0.50400001928E-02 0.  1.
    10030    2    1    2    0    0  0.00000000000E+00  0.00000000000E+00 -0.43553593834E+03  0.91306247004E+03  0.80249082275E+03 0.  0.
        1    1    3    3  502    0  0.30200673848E+02 -0.33765155322E+03  0.26464606667E+02  0.34003092142E+03  0.50400001928E-02 0. -1.
       -1    1    3    3    0  502 -0.30200673848E+02  0.33765155322E+03 -0.46200054501E+03  0.57303154861E+03  0.50400001928E-02 0.  1.
</event>
<event>
 5   0  0.2422031E-02  0.7925185E+03  0.7818609E-02  0.9570910E-01
        2   -1    0    0  501    0  0.00000000000E+00  0.00000000000E+00  0.82391140744E+03  0.82391140744E+03  0.25500000920E-02 0.  1.
       -2   -1    0    0    0  501  0.00000000000E+00  0.00000000000E+00 -0.19058041769E+03  0.19058041771E+03  0.25500000920E-02 0. -1.
    10030    2    1    2    0    0  0.00000000000E+00  0.00000000000E+00  0.63333098975E+03  0.10144918252E+04  0.79251846712E+03 0.  0.
        4    1    3    3  502    0 -0.26869462381E+03  0.71540068462E+02  0.67806029809E+03  0.73285889706E+03  0.12699999809E+01 0.  1.
       -4    1    3    3    0  502  0.26869462381E+03 -0.71540068462E+02 -0.44729308341E+02  0.28163292809E+03  0.12699999809E+01 0. -1.
</event>
<event>
 5   0  0.1509629E-02  0.7994472E+03  0.7818609E-02  0.9560818E-01
       -1   -1    0    0    0  501  0.00000000000E+00  0.00000000000E+00  0.44998392265E+03  0.44998392268E+03  0.50400001928E-02 0.  1.
        1   -1    0    0  501    0  0.00000000000E+00  0.00000000000E+00 -0.35507701966E+03  0.35507701969E+03  0.50400001928E-02 0. -1.
    10030    2    1    2    0    0  0.00000000000E+00  0.00000000000E+00  0.94906902990E+02  0.80506094237E+03  0.79944718443E+03 0.  0.
        5    1    3    3  502    0 -0.26223864640E+03 -0.28518272508E+03  0.14642156728E+03  0.41419760950E+03  0.46999998093E+01 0.  1.
       -5    1    3    3    0  502  0.26223864640E+03  0.28518272508E+03 -0.51514664287E+02  0.39086333287E+03  0.46999998093E+01 0. -1.
</event>
<event>
 5   0  0.2454354E-02  0.7966051E+03  0.7818609E-02  0.9564944E-01
        2   -1    0    0  501    0  0.00000000000E+00  0.00000000000E+00  0.11993369193E+04  0.11993369193E+04  0.25500000920E-02 0. -1.
       -2   -1    0    0    0  501  0.00000000000E+00  0.00000000000E+00 -0.13227718209E+03  0.13227718211E+03  0.25500000920E-02 0.  1.
    10030    2    1    2    0    0  0.00000000000E+00  0.00000000000E+00  0.10670597372E+04  0.13316141014E+04  0.79660506671E+03 0.  0.
        5    1    3    3  502    0 -0.26753916481E+03 -0.19626324326E+03  0.90176408987E+03  0.96088346283E+03  0.46999998093E+01 0. -1.
       -5    1    3    3    0  502  0.26753916481E+03  0.19626324326E+03  0.16529564734E+03  0.37073063859E+03  0.46999998093E+01 0.  1.
</event>
<event>
 5   0  0.2422031E-02  0.7963522E+03  0.7818609E-02  0.9565312E-01
        2   -1    0    0  501    0  0.00000000000E+00  0.00000000000E+00  0.28938785347E+03  0.28938785348E+03  0.25500000920E-02 0. -1.
       -2   -1    0    0    0  501  0.00000000000E+00  0.00000000000E+00 -0.54786059436E+03  0.54786059436E+03  0.25500000920E-02 0.  1.
    10030    2    1    2    0    0  0.00000000000E+00  0.00000000000E+00 -0.25847274089E+03  0.83724844784E+03  0.79635218693E+03 0.  0.
        4    1    3    3  502    0  0.12519539156E+03  0.25828178622E+03 -0.41937825100E+03  0.50819592430E+03  0.12699999809E+01 0.  1.
       -4    1    3    3    0  502 -0.12519539156E+03 -0.25828178622E+03  0.16090551011E+03  0.32905252354E+03  0.12699999809E+01 0. -1.
</event>
<event>
 5   0  0.2464780E-02  0.7982076E+03  0.7818609E-02  0.9562615E-01
       -2   -1    0    0    0  501  0.00000000000E+00  0.00000000000E+00  0.48815058796E+03  0.48815058797E+03  0.25500000920E-02 0.  1.
        2   -1    0    0  501    0  0.00000000000E+00  0.00000000000E+00 -0.32630061283E+03  0.32630061284E+03  0.25500000920E-02 0. -1.
    10030    2    1    2    0    0  0.00000000000E+00  0.00000000000E+00  0.16184997513E+03  0.81445120081E+03  0.79820758206E+03 0.  0.
        3    1    3    3  502    0 -0.29691028494E+03  0.17343639241E+03  0.28765085842E+03  0.44830673212E+03  0.10100000352E+00 0.  1.
       -3    1    3    3    0  502  0.29691028494E+03 -0.17343639241E+03 -0.12580088329E+03  0.36614446869E+03  0.10100000352E+00 0. -1.
</event>
<event>
 5   0  0.2464780E-02  0.7953870E+03  0.7818609E-02  0.9566718E-01
       -2   -1    0    0    0  501  0.00000000000E+00  0.00000000000E+00  0.39236615159E+03  0.39236615160E+03  0.25500000920E-02 0.  1.
        2   -1    0    0  501    0  0.00000000000E+00  0.00000000000E+00 -0.40309313925E+03  0.40309313926E+03  0.25500000920E-02 0. -1.
    10030    2    1    2    0    0  0.00000000000E+00  0.00000000000E+00 -0.10726987655E+02  0.79545929086E+03  0.79538695938E+03 0.  0.
        3    1    3    3  502    0  0.20609131185E+03 -0.22448071735E+03  0.25018835709E+03  0.39428345833E+03  0.10100000352E+00 0.  1.
       -3    1    3    3    0  502 -0.20609131185E+03  0.22448071735E+03 -0.26091534475E+03  0.40117583253E+03  0.10100000352E+00 0. -1.
</event>
<event>
 5   0  0.2422031E-02  0.7985529E+03  0.7818609E-02  0.9562114E-01
       -2   -1    0    0    0  501  0.00000000000E+00  0.00000000000E+00  0.17577505252E+03  0.17577505254E+03  0.25500000920E-02 0.  1.
        2   -1    0    0  501    0  0.00000000000E+00  0.00000000000E+00 -0.90696411762E+03  0.90696411762E+03  0.25500000920E-02 0. -1.
    10030    2    1    2    0    0  0.00000000000E+00  0.00000000000E+00 -0.73118906510E+03  0.10827391702E+04  0.79855285466E+03 0.  0.
        4    1    3    3  502    0 -0.16833175644E+03 -0.36192421444E+03 -0.37883328440E+03  0.55030990133E+03  0.12699999809E+01 0.  1.
       -4    1    3    3    0  502  0.16833175644E+03  0.36192421444E+03 -0.35235578069E+03  0.53242926884E+03  0.12699999809E+01 0. -1.
</event>
<event>
 5   0  0.2464780E-02  0.8002625E+03  0.7818609E-02  0.9559637E-01
        2   -1    0    0  501    0  0.00000000000E+00  0.00000000000E+00  0.16331227624E+04  0.16331227624E+04  0.25500000920E-02 0.  1.
       -2   -1    0    0    0  501  0.00000000000E+00  0.00000000000E+00 -0.98036117936E+02  0.98036117969E+02  0.25500000920E-02 0. -1.
    10030    2    1    2    0    0  0.00000000000E+00  0.00000000000E+00  0.15350866445E+04  0.17311588804E+04  0.80026249636E+03 0.  0.
        3    1    3    3  502    0 -0.37916798016E+03 -0.12674501150E+03  0.73184329786E+03  0.83392282494E+03  0.10100000352E+00 0.  1.
       -3    1    3    3    0  502  0.37916798016E+03  0.12674501150E+03  0.80324334662E+03  0.89723605546E+03  0.10100000352E+00 0. -1.
</event>
<event>
 5   0  0.9919125E-03  0.8046530E+03  0.7818609E-02  0.9553306E-01
       -3   -1    0    0    0  501  0.00000000000E+00  0.00000000000E+00  0.84941985588E+03  0.84941986188E+03  0.10100000352E+00 0. -1.
        3   -1    0    0  501    0  0.00000000000E+00  0.00000000000E+00 -0.19056134123E+03  0.19056136799E+03  0.10100000352E+00 0.  1.
    10030    2    1    2    0    0  0.00000000000E+00  0.00000000000E+00  0.65885851465E+03  0.10399812299E+04  0.80465297872E+03 0.  0.
        1    1    3    3  502    0 -0.13819801034E+03 -0.25953354010E+03 -0.25492059240E+02  0.29513758420E+03  0.50400001928E-02 0.  1.
       -1    1    3    3    0  502  0.13819801034E+03  0.25953354010E+03  0.68435057389E+03  0.74484364568E+03  0.50400001928E-02 0. -1.
</event>
<event>
 5   0  0.1509629E-02  0.7759677E+03  0.7818609E-02  0.9595469E-01
       -1   -1    0    0    0  501  0.00000000000E+00  0.00000000000E+00  0.24303957887E+03  0.24303957892E+03  0.50400001928E-02 0. -1.
        1   -1    0    0  501    0  0.00000000000E+00  0.00000000000E+00 -0.61937010963E+03  0.61937010965E+03  0.50400001928E-02 0.  1.
    10030    2    1    2    0    0  0.00000000000E+00  0.00000000000E+00 -0.37633053076E+03  0.86240968856E+03  0.77596765561E+03 0.  0.
        5    1    3    3  502    0 -0.18202449358E+03  0.24612529486E+03  0.76708853665E+02  0.31562147465E+03  0.46999998093E+01 0. -1.
       -5    1    3    3    0  502  0.18202449358E+03 -0.24612529486E+03 -0.45303938442E+03  0.54678821391E+03  0.46999998093E+01 0.  1.
</event>
<event>
 5   0  0.2571778E-02  0.7879619E+03  0.7818609E-02  0.9577607E-01
       -2   -1    0    0    0  501  0.00000000000E+00  0.00000000000E+00  0.64099762963E+03  0.64099762963E+03  0.25500000920E-02 0.  1.
        2   -1    0    0  501    0  0.00000000000E+00  0.00000000000E+00 -0.24215531850E+03  0.24215531851E+03  0.25500000920E-02 0. -1.
    10030    2    1    2    0    0  0.00000000000E+00  0.00000000000E+00  0.39884231113E+03  0.88315294814E+03  0.78796189036E+03 0.  0.
        1    1    3    3  502    0 -0.22161857245E+03  0.30927353713E+03  0.84813136230E+02  0.38981813776E+03  0.50400001928E-02 0.  1.
       -1    1    3    3    0  502  0.22161857245E+03 -0.30927353713E+03  0.31402917490E+03  0.49333481038E+03  0.50400001928E-02 0. -1.
</event>
<event>
 5   0  0.1523811E-02  0.7832914E+03  0.7818609E-02  0.9584522E-01
        1   -1    0    0  501    0  0.00000000000E+00  0.00000000000E+00  0.88255244773E+03  0.88255244774E+03  0.50400001928E-02 0.  1.
       -1   -1    0    0    0  501  0.00000000000E+00  0.00000000000E+00 -0.17379858480E+03  0.17379858488E+03  0.50400001928E-02 0. -1.
    10030    2    1    2    0    0  0.00000000000E+00  0.00000000000E+00  0.70875386292E+03  0.10563510326E+04  0.78329143102E+03 0.  0.
        1    1    3    3  502    0  0.75233911115E+02 -0.38400792838E+03  0.37629481899E+03  0.54288122206E+03  0.50400001928E-02 0. -1.
       -1    1    3    3    0  502 -0.75233911115E+02  0.38400792838E+03  0.33245904394E+03  0.51346981056E+03  0.50400001928E-02 0.  1.
</event>
<event>
 5   0  0.2422031E-02  0.7974705E+03  0.7818609E-02  0.9563686E-01
       -2   -1    0    0    0  501  0.00000000000E+00  0.00000000000E+00  0.19551058418E+03  0.19551058420E+03  0.25500000920E-02 0. -1.
        2   -1    0    0  501    0  0.00000000000E+00  0.00000000000E+00 -0.81320306353E+03  0.81320306354E+03  0.25500000920E-02 0.  1.
    10030    2    1    2    0    0  0.00000000000E+00  0.00000000000E+00 -0.61769247935E+03  0.10087136477E+04  0.79747051611E+03 0.  0.
        4    1    3    3  502    0 -0.37938263672E+03 -0.10423044015E+03 -0.22694001558E+03  0.45420100536E+03  0.12699999809E+01 0. -1.
       -4    1    3    3    0  502  0.37938263672E+03  0.10423044015E+03 -0.39075246377E+03  0.55451264237E+03  0.12699999809E+01 0.  1.
</event>
<event>
 5   0  0.2422031E-02  0.8026803E+03  0.7818609E-02  0.9556146E-01
        2   -1    0    0  501    0  0.00000000000E+00  0.00000000000E+00  0.46307688675E+03  0.46307688675E+03  0.25500000920E-02 0. -1.
       -2   -1    0    0    0  501  0.00000000000E+00  0.00000000000E+00 -0.34783409140E+03  0.34783409141E+03  0.25500000920E-02 0.  1.
    10030    2    1    2    0    0  0.00000000000E+00  0.00000000000E+00  0.11524279534E+03  0.81091097817E+03  0.80268033029E+03 0.  0.
        4    1    3    3  502    0 -0.38736581570E+03 -0.11038773687E+02  0.16308622803E+03  0.42044364708E+03  0.12699999809E+01 0. -1.
       -4    1    3    3    0  502  0.38736581570E+03  0.11038773687E+02 -0.47843432687E+02  0.39046733109E+03  0.12699999809E+01 0.  1.
</event>
<event>
 5   0  0.9919125E-03  0.8080708E+03  0.7818609E-02  0.9548408E-01
       -3   -1    0    0    0  501  0.00000000000E+00  0.00000000000E+00  0.85289800352E+03  0.85289800950E+03  0.10100000352E+00 0.  1.
        3   -1    0    0  501    0  0.00000000000E+00  0.00000000000E+00 -0.19139990076E+03  0.19139992741E+03  0.10100000352E+00 0. -1.
    10030    2    1    2    0    0  0.00000000000E+00  0.00000000000E+00  0.66149810276E+03  0.10442979369E+04  0.80807081439E+03 0.  0.
        2    1    3    3  502    0 -0.64604654650E+02 -0.38797035694E+03  0.45024530003E+03  0.59784244536E+03  0.25500000920E-02 0.  1.
       -2    1    3    3    0  502  0.64604654650E+02  0.38797035694E+03  0.21125280273E+03  0.44645549155E+03  0.25500000920E-02 0. -1.
</event>
<event>
 5   0  0.2422031E-02  0.8042178E+03  0.7818609E-02  0.9553932E-01
        2   -1    0    0  501    0  0.00000000000E+00  0.00000000000E+00  0.98325529540E+03  0.98325529541E+03  0.25500000920E-02 0.  1.
       -2   -1    0    0    0  501  0.00000000000E+00  0.00000000000E+00 -0.16444517316E+03  0.16444517318E+03  0.25500000920E-02 0. -1.
    10030    2    1    2    0    0  0.00000000000E+00  0.00000000000E+00  0.81881012224E+03  0.11477004686E+04  0.80421784941E+03 0.  0.
        4    1    3    3  502    0  0.28330484267E+03 -0.27802699167E+03  0.50111043287E+03  0.63927609122E+03  0.12699999809E+01 0.  1.
       -4    1    3    3    0  502 -0.28330484267E+03  0.27802699167E+03  0.31769968937E+03  0.50842437737E+03  0.12699999809E+01 0. -1.
</event>
<event>
 5   0  0.2571778E-02  0.7690357E+03  0.7818609E-02  0.9605951E-01
       -2   -1    0    0    0  501  0.00000000000E+00  0.00000000000E+00  0.18875908796E+03  0.18875908798E+03  0.25500000920E-02 0.  1.
        2   -1    0    0  501    0  0.00000000000E+00  0.00000000000E+00 -0.78329463932E+03  0.78329463933E+03  0.25500000920E-02 0. -1.
    10030    2    1    2    0    0  0.00000000000E+00  0.00000000000E+00 -0.59453555136E+03  0.97205372731E+03  0.76903571240E+03 0.  0.
        1    1    3    3  502    0 -0.18830556599E+03  0.27610932217E+03 -0.53762091117E+03  0.63303363902E+03  0.50400001928E-02 0. -1.
       -1    1    3    3    0  502  0.18830556599E+03 -0.27610932217E+03 -0.56914640192E+02  0.33902008830E+03  0.50400001928E-02 0.  1.
</event>
<event>
 5   0  0.1498375E-02  0.7996803E+03  0.7818609E-02  0.9560480E-01
        1   -1    0    0  501    0  0.00000000000E+00  0.00000000000E+00  0.13302529262E+04  0.13302529262E+04  0.50400001928E-02 0.  1.
       -1   -1    0    0    0  501  0.00000000000E+00  0.00000000000E+00 -0.12018177994E+03  0.12018178004E+03  0.50400001928E-02 0. -1.
    10030    2    1    2    0    0  0.00000000000E+00  0.00000000000E+00  0.12100711463E+04  0.14504347063E+04  0.79968034745E+03 0.  0.
        4    1    3    3  502    0  0.51736675056E+02 -0.38801155594E+03  0.75284265662E+03  0.84853009942E+03  0.12699999809E+01 0.  1.
       -4    1    3    3    0  502 -0.51736675056E+02  0.38801155594E+03  0.45722848964E+03  0.60190460683E+03  0.12699999809E+01 0. -1.
</event>
<event>
 5   0  0.9919125E-03  0.8316056E+03  0.7818609E-02  0.9515363E-01
       -3   -1    0    0    0  501  0.00000000000E+00  0.00000000000E+00  0.11608549344E+04  0.11608549388E+04  0.10100000352E+00 0.  1.
        3   -1    0    0  501    0  0.00000000000E+00  0.00000000000E+00 -0.14893500197E+03  0.14893503621E+03  0.10100000352E+00 0. -1.
    10030    2    1    2    0    0  0.00000000000E+00  0.00000000000E+00  0.10119199324E+04  0.13097899750E+04  0.83160557294E+03 0.  0.
        2    1    3    3  502    0  0.18709898100E+03 -0.37099151136E+03  0.48099577730E+03  0.63560810880E+03  0.25500000920E-02 0.  1.
       -2    1    3    3    0  502 -0.18709898100E+03  0.37099151136E+03  0.53092415510E+03  0.67418186617E+03  0.25500000920E-02 0. -1.
</event>
<event>
 5   0  0.1624094E-02  0.8000132E+03  0.7818609E-02  0.9559998E-01
       -1   -1    0    0    0  501  0.00000000000E+00  0.00000000000E+00  0.37903118992E+03  0.37903118996E+03  0.50400001928E-02 0. -1.
        1   -1    0    0  501    0  0.00000000000E+00  0.00000000000E+00 -0.42214283035E+03  0.42214283038E+03  0.50400001928E-02 0.  1.
    10030    2    1    2    0    0  0.00000000000E+00  0.00000000000E+00 -0.43111640428E+02  0.80117402034E+03  0.80001324822E+03 0.  0.
        3    1    3    3  502    0 -0.35901180718E+03  0.42083780984E+02  0.14999587361E+03  0.39135571366E+03  0.10100000352E+00 0. -1.
       -3    1    3    3    0  502  0.35901180718E+03 -0.42083780984E+02 -0.19310751403E+03  0.40981830668E+03  0.10100000352E+00 0.  1.
</event>
<event>
 5   0  0.2422031E-02  0.8099861E+03  0.7818609E-02  0.9545674E-01
       -2   -1    0    0    0  501  0.00000000000E+00  0.00000000000E+00  0.71865854775E+02  0.71865854821E+02  0.25500000920E-02 0.  1.
        2   -1    0    0  501    0  0.00000000000E+00  0.00000000000E+00 -0.22822991897E+04  0.22822991897E+04  0.25500000920E-02 0. -1.
    10030    2    1    2    0    0  0.00000000000E+00  0.00000000000E+00 -0.22104333350E+04  0.23541650446E+04  0.80998612872E+03 0.  0.
        4    1    3    3  502    0  0.35701483291E+03 -0.75636744437E+02 -0.59483246281E+03  0.69785942692E+03  0.12699999809E+01 0.  1.
       -4    1    3    3    0  502 -0.35701483291E+03  0.75636744437E+02 -0.16156008721E+04  0.16563056176E+04  0.12699999809E+01 0. -1.
</event>
<event>
 5   0  0.2571778E-02  0.7949157E+03  0.7818609E-02  0.9567406E-01
       -2   -1    0    0    0  501  0.00000000000E+00  0.00000000000E+00  0.16302500694E+03  0.16302500696E+03  0.25500000920E-02 0. -1.
        2   -1    0    0  501    0  0.00000000000E+00  0.00000000000E+00 -0.96900918466E+03  0.96900918466E+03  0.25500000920E-02 0.  1.
    10030    2    1    2    0    0  0.00000000000E+00  0.00000000000E+00 -0.80598417772E+03  0.11320341916E+04  0.79491566613E+03 0.  0.
        1    1    3    3  502    0 -0.16375220893E+03  0.35985808863E+03 -0.46101580003E+03  0.60732873947E+03  0.50400001928E-02 0. -1.
       -1    1    3    3    0  502  0.16375220893E+03 -0.35985808863E+03 -0.34496837769E+03  0.52470545215E+03  0.50400001928E-02 0.  1.
</event>
<event>
 5   0  0.2460312E-02  0.8094352E+03  0.7818609E-02  0.9546460E-01
        2   -1    0    0  501    0  0.00000000000E+00  0.00000000000E+00  0.39218304457E+03  0.39218304458E+03  0.25500000920E-02 0.  1.
       -2   -1    0    0    0  501  0.00000000000E+00  0.00000000000E+00 -0.41765277680E+03  0.41765277681E+03  0.25500000920E-02 0. -1.
    10030    2    1    2    0    0  0.00000000000E+00  0.00000000000E+00 -0.25469732228E+02  0.80983582139E+03  0.80943520454E+03 0.  0.
        2    1    3    3  502    0  0.18515519982E+03 -0.35845440417E+03 -0.44755857615E+02  0.40592498652E+03  0.25500000920E-02 0. -1.
       -2    1    3    3    0  502 -0.18515519982E+03  0.35845440417E+03  0.19286125386E+02  0.40391083487E+03  0.25500000920E-02 0.  1.
</event>
<event>
 5   0  0.2454354E-02  0.7850716E+03  0.7818609E-02  0.9581880E-01
       -2   -1    0    0    0  501  0.00000000000E+00  0.00000000000E+00  0.38757949639E+03  0.38757949640E+03  0.25500000920E-02 0. -1.
        2   -1    0    0  501    0  0.00000000000E+00  0.00000000000E+00 -0.39755552099E+03  0.39755552100E+03  0.25500000920E-02 0.  1.
    10030    2    1    2    0    0  0.00000000000E+00  0.00000000000E+00 -0.99760245964E+01  0.78513501740E+03  0.78507163652E+03 0.  0.
        5    1    3    3  502    0 -0.75414093133E+02 -0.27663590089E+03  0.26307760069E+03  0.38916143320E+03  0.46999998093E+01 0. -1.
       -5    1    3    3    0  502  0.75414093133E+02  0.27663590089E+03 -0.27305362528E+03  0.39597358420E+03  0.46999998093E+01 0.  1.
</event>
<event>
 5   0  0.2460312E-02  0.7929186E+03  0.7818609E-02  0.9570324E-01
        2   -1    0    0  501    0  0.00000000000E+00  0.00000000000E+00  0.68779642547E+03  0.68779642548E+03  0.25500000920E-02 0. -1.
       -2   -1    0    0    0  501  0.00000000000E+00  0.00000000000E+00 -0.22852687820E+03  0.22852687821E+03  0.25500000920E-02 0.  1.
    10030    2    1    2    0    0  0.00000000000E+00  0.00000000000E+00  0.45926954727E+03  0.91632330369E+03  0.79291858336E+03 0.  0.
        2    1    3    3  502    0 -0.22800708737E+03  0.11396777937E+03  0.58054434364E+03  0.63404070971E+03  0.25500000920E-02 0. -1.
       -2    1    3    3    0  502  0.22800708737E+03 -0.11396777937E+03 -0.12127479637E+03  0.28228259398E+03  0.25500000920E-02 0.  1.
</event>
<event>
 5   0  0.1624094E-02  0.8047076E+03  0.7818609E-02  0.9553228E-01
        1   -1    0    0  501    0  0.00000000000E+00  0.00000000000E+00  0.89656832705E+03  0.89656832707E+03  0.50400001928E-02 0.  1.
       -1   -1    0    0    0  501  0.00000000000E+00  0.00000000000E+00 -0.18056470045E+03  0.18056470052E+03  0.50400001928E-02 0. -1.
    10030    2    1    2    0    0  0.00000000000E+00  0.00000000000E+00  0.71600362660E+03  0.10771330276E+04  0.80470762754E+03 0.  0.
        3    1    3    3  502    0  0.31833874421E+03  0.24605411176E+03  0.35461573833E+03  0.53631568507E+03  0.10100000352E+00 0. -1.
       -3    1    3    3    0  502 -0.31833874421E+03 -0.24605411176E+03  0.36138788828E+03  0.54081734252E+03  0.10100000352E+00 0.  1.
</event>
<event>
 5   0  0.2571778E-02  0.7949523E+03  0.7818609E-02  0.9567352E-01
        2   -1    0    0  501    0  0.00000000000E+00  0.00000000000E+00  0.33209507987E+03  0.33209507988E+03  0.25500000920E-02 0.  1.
       -2   -1    0    0    0  501  0.00000000000E+00  0.00000000000E+00 -0.47572907386E+03  0.47572907387E+03  0.25500000920E-02 0. -1.
    10030    2    1    2    0    0  0.00000000000E+00  0.00000000000E+00 -0.14363399400E+03  0.80782415375E+03  0.79495228734E+03 0.  0.
        1    1    3    3  502    0 -0.17389121791E+03  0.32210660003E+03 -0.22923319775E+03  0.43190123457E+03  0.50400001928E-02 0. -1.
       -1    1    3    3    0  502  0.17389121791E+03 -0.32210660003E+03  0.85599203750E+02  0.37592291917E+03  0.50400001928E-02 0.  1.
</event>
<event>
 5   0  0.1471290E-02  0.7904709E+03  0.7818609E-02  0.9573913E-01
        1   -1    0    0  501    0  0.00000000000E+00  0.00000000000E+00  0.29281536345E+03  0.29281536350E+03  0.50400001928E-02 0.  1.
       -1   -1    0    0    0  501  0.00000000000E+00  0.00000000000E+00 -0.53347968882E+03  0.53347968885E+03  0.50400001928E-02 0. -1.
    10030    2    1    2    0    0  0.00000000000E+00  0.00000000000E+00 -0.24066432537E+03  0.82629505235E+03  0.79047086981E+03 0.  0.
        2    1    3    3  502    0  0.40967142033E+02  0.39175259145E+03 -0.86256502719E+02  0.40322274725E+03  0.25500000920E-02 0.  1.
       -2    1    3    3    0  502 -0.40967142033E+02 -0.39175259145E+03 -0.15440782265E+03  0.42307230509E+03  0.25500000920E-02 0. -1.
</event>
<event>
 5   0  0.1498375E-02  0.7954297E+03  0.7818609E-02  0.9566656E-01
        1   -1    0    0  501    0  0.00000000000E+00  0.00000000000E+00  0.18049749073E+03  0.18049749080E+03  0.50400001928E-02 0. -1.
       -1   -1    0    0    0  501  0.00000000000E+00  0.00000000000E+00 -0.87633970857E+03  0.87633970858E+03  0.50400001928E-02 0.  1.
    10030    2    1    2    0    0  0.00000000000E+00  0.00000000000E+00 -0.69584221784E+03  0.10568371994E+04  0.79542974164E+03 0.  0.
        4    1    3    3  502    0 -0.88308884757E+02 -0.21868078602E+03  0.77565890813E+02  0.24826966311E+03  0.12699999809E+01 0. -1.
       -4    1    3    3    0  502  0.88308884757E+02  0.21868078602E+03 -0.77340810865E+03  0.80856753628E+03  0.12699999809E+01 0.  1.
</event>
<event>
 5   0  0.2464780E-02  0.7983317E+03  0.7818609E-02  0.9562435E-01
        2   -1    0    0  501    0  0.00000000000E+00  0.00000000000E+00  0.12841358207E+04  0.12841358207E+04  0.25500000920E-02 0.  1.
       -2   -1    0    0    0  501  0.00000000000E+00  0.00000000000E+00 -0.12407828724E+03  0.12407828727E+03  0.25500000920E-02 0. -1.
    10030    2    1    2    0    0  0.00000000000E+00  0.00000000000E+00  0.11600575335E+04  0.14082141080E+04  0.79833169356E+03 0.  0.
        3    1    3    3  502    0  0.36400349424E+03  0.12610295173E+03  0.39558995809E+03  0.55217019423E+03  0.10100000352E+00 0. -1.
       -3    1    3    3    0  502 -0.36400349424E+03 -0.12610295173E+03  0.76446757539E+03  0.85604391376E+03  0.10100000352E+00 0.  1.
</event>
<event>
 5   0  0.2454354E-02  0.8008894E+03  0.7818609E-02  0.9558731E-01
       -2   -1    0    0    0  501  0.00000000000E+00  0.00000000000E+00  0.13414692422E+03  0.13414692424E+03  0.25500000920E-02 0.  1.
        2   -1    0    0  501    0  0.00000000000E+00  0.00000000000E+00 -0.11953755582E+04  0.11953755582E+04  0.25500000920E-02 0. -1.
    10030    2    1    2    0    0  0.00000000000E+00  0.00000000000E+00 -0.10612286340E+04  0.13295224824E+04  0.80088939170E+03 0.  0.
        5    1    3    3  502    0  0.24131275754E+03 -0.17903798223E+03 -0.91255636212E+02  0.31406389027E+03  0.46999998093E+01 0.  1.
       -5    1    3    3    0  502 -0.24131275754E+03  0.17903798223E+03 -0.96997299774E+03  0.10154585922E+04  0.46999998093E+01 0. -1.
</event>
<event>
 5   0  0.9919125E-03  0.8021878E+03  0.7818609E-02  0.9556856E-01
        3   -1    0    0  501    0  0.00000000000E+00  0.00000000000E+00  0.35691002306E+03  0.35691003735E+03  0.10100000352E+00 0. -1.
       -3   -1    0    0    0  501  0.00000000000E+00  0.00000000000E+00 -0.45074755434E+03  0.45074756566E+03  0.10100000352E+00 0.  1.
    10030    2    1    2    0    0  0.00000000000E+00  0.00000000000E+00 -0.93837531280E+02  0.80765760301E+03  0.80218783426E+03 0.  0.
        1    1    3    3  502    0  0.23514742151E+02  0.39967512570E+03 -0.71232571529E+02  0.40665369601E+03  0.50400001928E-02 0. -1.
       -1    1    3    3    0  502 -0.23514742151E+02 -0.39967512570E+03 -0.22604959751E+02  0.40100390701E+03  0.50400001928E-02 0.  1.
</event>
<event>
 5   0  0.9919125E-03  0.7940860E+03  0.7818609E-02  0.9568617E-01
       -3   -1    0    0    0  501  0.00000000000E+00  0.00000000000E+00  0.53088099671E+03  0.53088100632E+03  0.10100000352E+00 0.  1.
        3   -1    0    0  501    0  0.00000000000E+00  0.00000000000E+00 -0.29694625264E+03  0.29694626981E+03  0.10100000352E+00 0. -1.
    10030    2    1    2    0    0  0.00000000000E+00  0.00000000000E+00  0.23393474407E+03  0.82782727613E+03  0.79408597433E+03 0.  0.
        2    1    3    3  502    0 -0.70146016010E+02  0.17681763483E+03 -0.24634954173E+03  0.31124433531E+03  0.25500000920E-02 0. -1.
       -2    1    3    3    0  502  0.70146016010E+02 -0.17681763483E+03  0.48028428580E+03  0.51658294082E+03  0.25500000920E-02 0.  1.
</event>
<event>
 5   0  0.2454354E-02  0.8118643E+03  0.7818609E-02  0.9543001E-01
       -2   -1    0    0    0  501  0.00000000000E+00  0.00000000000E+00  0.19030961155E+03  0.19030961156E+03  0.25500000920E-02 0. -1.
        2   -1    0    0  501    0  0.00000000000E+00  0.00000000000E+00 -0.86585691673E+03  0.86585691674E+03  0.25500000920E-02 0.  1.
    10030    2    1    2    0    0  0.00000000000E+00  0.00000000000E+00 -0.67554730519E+03  0.10561665283E+04  0.81186425833E+03 0.  0.
        5    1    3    3  502    0  0.34302395137E+03 -0.42671585448E+02 -0.61457376038E+03  0.70513069169E+03  0.46999998093E+01 0.  1.
       -5    1    3    3    0  502 -0.34302395137E+03  0.42671585448E+02 -0.60973544804E+02  0.35103583661E+03  0.46999998093E+01 0. -1.
</event>
<event>
 5   0  0.2571778E-02  0.7549024E+03  0.7818609E-02  0.9627691E-01
       -2   -1    0    0    0  501  0.00000000000E+00  0.00000000000E+00  0.44812608289E+03  0.44812608290E+03  0.25500000920E-02 0. -1.
        2   -1    0    0  501    0  0.00000000000E+00  0.00000000000E+00 -0.31792259449E+03  0.31792259450E+03  0.25500000920E-02 0.  1.
    10030    2    1    2    0    0  0.00000000000E+00  0.00000000000E+00  0.13020348840E+03  0.76604867740E+03  0.75490239618E+03 0.  0.
        1    1    3    3  502    0 -0.34733752700E+03  0.81546679279E+02  0.19011236652E+03  0.40427209957E+03  0.50400001928E-02 0. -1.
       -1    1    3    3    0  502  0.34733752700E+03 -0.81546679279E+02 -0.59908878122E+02  0.36177657783E+03  0.50400001928E-02 0.  1.
</event>
<event>
 5   0  0.1498375E-02  0.8061666E+03  0.7818609E-02  0.9551134E-01
       -1   -1    0    0    0  501  0.00000000000E+00  0.00000000000E+00  0.51035004960E+03  0.51035004963E+03  0.50400001928E-02 0.  1.
        1   -1    0    0  501    0  0.00000000000E+00  0.00000000000E+00 -0.31836215288E+03  0.31836215292E+03  0.50400001928E-02 0. -1.
    10030    2    1    2    0    0  0.00000000000E+00  0.00000000000E+00  0.19198789672E+03  0.82871220255E+03  0.80616658462E+03 0.  0.
        4    1    3    3  502    0 -0.72564914307E+02  0.17709267029E+03 -0.26867640306E+03  0.32987285902E+03  0.12699999809E+01 0. -1.
       -4    1    3    3    0  502  0.72564914307E+02 -0.17709267029E+03  0.46066429978E+03  0.49883934353E+03  0.12699999809E+01 0.  1.
</event>
<event>
 5   0  0.1509629E-02  0.7937130E+03  0.7818609E-02  0.9569162E-01
        1   -1    0    0  501    0  0.00000000000E+00  0.00000000000E+00  0.33042020932E+03  0.33042020936E+03  0.50400001928E-02 0. -1.
       -1   -1    0    0    0  501  0.00000000000E+00  0.00000000000E+00 -0.47665092783E+03  0.47665092786E+03  0.50400001928E-02 0.  1.
    10030    2    1    2    0    0  0.00000000000E+00  0.00000000000E+00 -0.14623071851E+03  0.80707113722E+03  0.79371304480E+03 0.  0.
        5    1    3    3  502    0  0.82408881528E+02 -0.29962293694E+03  0.17783339515E+03  0.35806694140E+03  0.46999998093E+01 0. -1.
       -5    1    3    3    0  502 -0.82408881528E+02  0.29962293694E+03 -0.32406411366E+03  0.44900419581E+03  0.46999998093E+01 0.  1.
</event>
<event>
 5   0  0.2454354E-02  0.7833476E+03  0.7818609E-02  0.9584439E-01
        2   -1    0    0  501    0  0.00000000000E+00  0.00000000000E+00  0.12372180070E+04  0.12372180070E+04  0.25500000920E-02 0. -1.
       -2   -1    0    0    0  501  0.00000000000E+00  0.00000000000E+00 -0.12399461242E+03  0.12399461245E+03  0.25500000920E-02 0.  1.
    10030    2    1    2    0    0  0.00000000000E+00  0.00000000000E+00  0.11132233946E+04  0.13612126194E+04  0.78334760427E+03 0.  0.
        5    1    3    3  502    0 -0.44730093055E+02  0.36088269877E+03  0.80931920814E+03  0.88727491464E+03  0.46999998093E+01 0. -1.
       -5    1    3    3    0  502  0.44730093055E+02 -0.36088269877E+03  0.30390418642E+03  0.47393770479E+03  0.46999998093E+01 0.  1.
</event>
<event>
 5   0  0.2460312E-02  0.8667814E+03  0.7818609E-02  0.9468086E-01
        2   -1    0    0  501    0  0.00000000000E+00  0.00000000000E+00  0.29416944434E+03  0.29416944435E+03  0.25500000920E-02 0. -1.
       -2   -1    0    0    0  501  0.00000000000E+00  0.00000000000E+00 -0.63850101850E+03  0.63850101851E+03  0.25500000920E-02 0.  1.
    10030    2    1    2    0    0  0.00000000000E+00  0.00000000000E+00 -0.34433157416E+03  0.93267046286E+03  0.86678137920E+03 0.  0.
        2    1    3    3  502    0  0.29149876889E+03 -0.91531577195E+02 -0.50290358472E+03  0.58843995226E+03  0.25500000920E-02 0.  1.
       -2    1    3    3    0  502 -0.29149876889E+03  0.91531577195E+02  0.15857201056E+03  0.34423051060E+03  0.25500000920E-02 0. -1.
</event>
<event>
 5   0  0.2464780E-02  0.7744949E+03  0.7818609E-02  0.9597687E-01
        2   -1    0    0  501    0  0.00000000000E+00  0.00000000000E+00  0.11068267663E+03  0.11068267666E+03  0.25500000920E-02 0. -1.
       -2   -1    0    0    0  501  0.00000000000E+00  0.00000000000E+00 -0.13548694392E+04  0.13548694392E+04  0.25500000920E-02 0.  1.
    10030    2    1    2    0    0  0.00000000000E+00  0.00000000000E+00 -0.12441867626E+04  0.14655521159E+04  0.77449487033E+03 0.  0.
        3    1    3    3  502    0 -0.82206334599E+02  0.34959723279E+03 -0.89620763056E+03  0.96548652704E+03  0.10100000352E+00 0.  1.
       -3    1    3    3    0  502  0.82206334599E+02 -0.34959723279E+03 -0.34797913204E+03  0.50006558886E+03  0.10100000352E+00 0. -1.
</event>
<event>
 5   0  0.1523811E-02  0.8088127E+03  0.7818609E-02  0.9547348E-01
       -1   -1    0    0    0  501  0.00000000000E+00  0.00000000000E+00  0.18653159376E+03  0.18653159383E+03  0.50400001928E-02 0.  1.
        1   -1    0    0  501    0  0.00000000000E+00  0.00000000000E+00 -0.87676568390E+03  0.87676568392E+03  0.50400001928E-02 0. -1.
    10030    2    1    2    0    0  0.00000000000E+00  0.00000000000E+00 -0.69023409014E+03  0.10632972778E+04  0.80881271113E+03 0.  0.
        1    1    3    3  502    0 -0.23644117926E+03  0.26166857271E+03 -0.60530156450E+03  0.70054611355E+03  0.50400001928E-02 0. -1.
       -1    1    3    3    0  502  0.23644117926E+03 -0.26166857271E+03 -0.84932525642E+02  0.36275116420E+03  0.50400001928E-02 0.  1.
</event>
<event>
 5   0  0.2464780E-02  0.8058570E+03  0.7818609E-02  0.9551578E-01
       -2   -1    0    0    0  501  0.00000000000E+00  0.00000000000E+00  0.26107380947E+03  0.26107380949E+03  0.25500000920E-02 0.  1.
        2   -1    0    0  501    0  0.00000000000E+00  0.00000000000E+00 -0.62186002622E+03  0.62186002622E+03  0.25500000920E-02 0. -1.
    10030    2    1    2    0    0  0.00000000000E+00  0.00000000000E+00 -0.36078621674E+03  0.88293383571E+03  0.80585697493E+03 0.  0.
        3    1    3    3  502    0  0.39451464393E+03  0.36953009968E+02 -0.10029827614E+03  0.40873840487E+03  0.10100000352E+00 0.  1.
       -3    1    3    3    0  502 -0.39451464393E+03 -0.36953009968E+02 -0.26048794060E+03  0.47419543083E+03  0.10100000352E+00 0. -1.
</event>
<event>
 5   0  0.2454354E-02  0.7859930E+03  0.7818609E-02  0.9580516E-01
       -2   -1    0    0    0  501  0.00000000000E+00  0.00000000000E+00  0.79319569976E+02  0.79319570017E+02  0.25500000920E-02 0. -1.
        2   -1    0    0  501    0  0.00000000000E+00  0.00000000000E+00 -0.19471392483E+04  0.19471392483E+04  0.25500000920E-02 0.  1.
    10030    2    1    2    0    0  0.00000000000E+00  0.00000000000E+00 -0.18678196784E+04  0.20264588183E+04  0.78599299718E+03 0.  0.
        5    1    3    3  502    0  0.95001364146E+02 -0.30865393332E+03 -0.35664501126E+03  0.48115513486E+03  0.46999998093E+01 0. -1.
       -5    1    3    3    0  502 -0.95001364146E+02  0.30865393332E+03 -0.15111746671E+04  0.15453036835E+04  0.46999998093E+01 0.  1.
</event>
<event>
 5   0  0.1498375E-02  0.7869972E+03  0.7818609E-02  0.9579031E-01
        1   -1    0    0  501    0  0.00000000000E+00  0.00000000000E+00  0.53487549172E+03  0.53487549174E+03  0.50400001928E-02 0. -1.
       -1   -1    0    0    0  501  0.00000000000E+00  0.00000000000E+00 -0.28949006131E+03  0.28949006135E+03  0.50400001928E-02 0.  1.
    10030    2    1    2    0    0  0.00000000000E+00  0.00000000000E+00  0.24538543042E+03  0.82436555309E+03  0.78699717640E+03 0.  0.
        4    1    3    3  502    0 -0.18053390743E+03 -0.34961862638E+03  0.11879439615E+03  0.41102238029E+03  0.12699999809E+01 0.  1.
       -4    1    3    3    0  502  0.18053390743E+03  0.34961862638E+03  0.12659103427E+03  0.41334317280E+03  0.12699999809E+01 0. -1.
</event>
<event>
 5   0  0.1471290E-02  0.7963047E+03  0.7818609E-02  0.9565381E-01
        1   -1    0    0  501    0  0.00000000000E+00  0.00000000000E+00  0.41238449997E+03  0.41238450000E+03  0.50400001928E-02 0.  1.
       -1   -1    0    0    0  501  0.00000000000E+00  0.00000000000E+00 -0.38441142585E+03  0.38441142588E+03  0.50400001928E-02 0. -1.
    10030    2    1    2    0    0  0.00000000000E+00  0.00000000000E+00  0.27973074120E+02  0.79679592589E+03  0.79630474985E+03 0.  0.
        2    1    3    3  502    0 -0.52541942064E+02 -0.17299843887E+03 -0.34096625185E+03  0.38593665340E+03  0.25500000920E-02 0. -1.
       -2    1    3    3    0  502  0.52541942064E+02  0.17299843887E+03  0.36893932597E+03  0.41085927248E+03  0.25500000920E-02 0.  1.
</event>
<event>
 5   0  0.2422031E-02  0.9564165E+03  0.7818609E-02  0.9357682E-01
        2   -1    0    0  501    0  0.00000000000E+00  0.00000000000E+00  0.22615158802E+03  0.22615158804E+03  0.25500000920E-02 0.  1.
       -2   -1    0    0    0  501  0.00000000000E+00  0.00000000000E+00 -0.10111939510E+04  0.10111939510E+04  0.25500000920E-02 0. -1.
    10030    2    1    2    0    0  0.00000000000E+00  0.00000000000E+00 -0.78504236294E+03  0.12373455390E+04  0.95641647376E+03 0.  0.
        4    1    3    3  502    0 -0.98248328796E+02  0.34837199059E+03 -0.79683170224E+03  0.87519035217E+03  0.12699999809E+01 0.  1.
       -4    1    3    3    0  502  0.98248328796E+02 -0.34837199059E+03  0.11789339292E+02  0.36215518684E+03  0.12699999809E+01 0. -1.
</event>
<event>
 5   0  0.2422031E-02  0.8043652E+03  0.7818609E-02  0.9553720E-01
       -2   -1    0    0    0  501  0.00000000000E+00  0.00000000000E+00  0.21124851885E+03  0.21124851887E+03  0.25500000920E-02 0.  1.
        2   -1    0    0  501    0  0.00000000000E+00  0.00000000000E+00 -0.76568989291E+03  0.76568989291E+03  0.25500000920E-02 0. -1.
    10030    2    1    2    0    0  0.00000000000E+00  0.00000000000E+00 -0.55444137406E+03  0.97693841178E+03  0.80436522994E+03 0.  0.
        4    1    3    3  502    0  0.53757586697E+02 -0.37313510323E+03 -0.10705610418E+03  0.39189578428E+03  0.12699999809E+01 0.  1.
       -4    1    3    3    0  502 -0.53757586697E+02  0.37313510323E+03 -0.44738526988E+03  0.58504262750E+03  0.12699999809E+01 0. -1.
</event>
<event>
 5   0  0.2460312E-02  0.7979803E+03  0.7818609E-02  0.9562945E-01
        2   -1    0    0  501    0  0.00000000000E+00  0.00000000000E+00  0.33801418292E+03  0.33801418293E+03  0.25500000920E-02 0. -1.
       -2   -1    0    0    0  501  0.00000000000E+00  0.00000000000E+00 -0.47096591572E+03  0.47096591573E+03  0.25500000920E-02 0.  1.
    10030    2    1    2    0    0  0.00000000000E+00  0.00000000000E+00 -0.13295173280E+03  0.80898009865E+03  0.79798034861E+03 0.  0.
        2    1    3    3  502    0  0.38948461021E+03  0.82002888532E+02 -0.38336746735E+02  0.39986552924E+03  0.25500000920E-02 0. -1.
       -2    1    3    3    0  502 -0.38948461021E+03 -0.82002888532E+02 -0.94614986067E+02  0.40911456942E+03  0.25500000920E-02 0.  1.
</event>
<event>
 5   0  0.2571778E-02  0.8160977E+03  0.7818609E-02  0.9537004E-01
       -2   -1    0    0    0  501  0.00000000000E+00  0.00000000000E+00  0.35309713715E+03  0.35309713716E+03  0.25500000920E-02 0.  1.
        2   -1    0    0  501    0  0.00000000000E+00  0.00000000000E+00 -0.47155252774E+03  0.47155252774E+03  0.25500000920E-02 0. -1.
    10030    2    1    2    0    0  0.00000000000E+00  0.00000000000E+00 -0.11845539058E+03  0.82464966490E+03  0.81609765976E+03 0.  0.
        1    1    3    3  502    0  0.57883841751E+00  0.18733506278E+03 -0.42553033883E+03  0.46494174914E+03  0.50400001928E-02 0. -1.
       -1    1    3    3    0  502 -0.57883841751E+00 -0.18733506278E+03  0.30707494824E+03  0.35970791577E+03  0.50400001928E-02 0.  1.
</event>
<event>
 5   0  0.2422031E-02  0.7870161E+03  0.7818609E-02  0.9579003E-01
       -2   -1    0    0    0  501  0.00000000000E+00  0.00000000000E+00  0.10033967369E+03  0.10033967372E+03  0.25500000920E-02 0.  1.
        2   -1    0    0  501    0  0.00000000000E+00  0.00000000000E+00 -0.15432438777E+04  0.15432438777E+04  0.25500000920E-02 0. -1.
    10030    2    1    2    0    0  0.00000000000E+00  0.00000000000E+00 -0.14429042040E+04  0.16435835515E+04  0.78701610440E+03 0.  0.
        4    1    3    3  502    0 -0.19275542278E+03 -0.34287209178E+03 -0.74535918184E+03  0.84277983316E+03  0.12699999809E+01 0. -1.
       -4    1    3    3    0  502  0.19275542278E+03  0.34287209178E+03 -0.69754502221E+03  0.80080371830E+03  0.12699999809E+01 0.  1.
</event>
<event>
 5   0  0.2464780E-02  0.7814560E+03  0.7818609E-02  0.9587254E-01
       -2   -1    0    0    0  501  0.00000000000E+00  0.00000000000E+00  0.67439446586E+02  0.67439446635E+02  0.25500000920E-02 0. -1.
        2   -1    0    0  501    0  0.00000000000E+00  0.00000000000E+00 -0.22637843229E+04  0.22637843229E+04  0.25500000920E-02 0.  1.
    10030    2    1    2    0    0  0.00000000000E+00  0.00000000000E+00 -0.21963448763E+04  0.23312237695E+04  0.78145597952E+03 0.  0.
        3    1    3    3  502    0  0.25339532709E+03 -0.24369649853E+03 -0.58953215940E+03  0.68640028581E+03  0.10100000352E+00 0.  1.
       -3    1    3    3    0  502 -0.25339532709E+03  0.24369649853E+03 -0.16068127169E+04  0.16448234837E+04  0.10100000352E+00 0. -1.
</event>
<event>
 5   0  0.1523811E-02  0.7977247E+03  0.7818609E-02  0.9563316E-01
       -1   -1    0    0    0  501  0.00000000000E+00  0.00000000000E+00  0.27022688794E+03  0.27022688798E+03  0.50400001928E-02 0.  1.
        1   -1    0    0  501    0  0.00000000000E+00  0.00000000000E+00 -0.58873191059E+03  0.58873191061E+03  0.50400001928E-02 0. -1.
    10030    2    1    2    0    0  0.00000000000E+00  0.00000000000E+00 -0.31850502265E+03  0.85895879860E+03  0.79772474465E+03 0.  0.
        1    1    3    3  502    0  0.21825205199E+03  0.28453843066E+03  0.28780633205E+02  0.35975603066E+03  0.50400001928E-02 0.  1.
       -1    1    3    3    0  502 -0.21825205199E+03 -0.28453843066E+03 -0.34728565586E+03  0.49920276794E+03  0.50400001928E-02 0. -1.
</event>
<event>
 5   0  0.1523811E-02  0.7934314E+03  0.7818609E-02  0.9569574E-01
        1   -1    0    0  501    0  0.00000000000E+00  0.00000000000E+00  0.12339993821E+04  0.12339993821E+04  0.50400001928E-02 0. -1.
       -1   -1    0    0    0  501  0.00000000000E+00  0.00000000000E+00 -0.12753923861E+03  0.12753923871E+03  0.50400001928E-02 0.  1.
    10030    2    1    2    0    0  0.00000000000E+00  0.00000000000E+00  0.11064601435E+04  0.13615386208E+04  0.79343138762E+03 0.  0.
        1    1    3    3  502    0  0.30608048056E+03  0.12872404746E+03  0.18070027311E+03  0.37803138719E+03  0.50400001928E-02 0.  1.
       -1    1    3    3    0  502 -0.30608048056E+03 -0.12872404746E+03  0.92575987036E+03  0.98350723361E+03  0.50400001928E-02 0. -1.
</event>
<event>
 5   0  0.1498375E-02  0.7997437E+03  0.7818609E-02  0.9560388E-01
        1   -1    0    0  501    0  0.00000000000E+00  0.00000000000E+00  0.46410628360E+03  0.46410628363E+03  0.50400001928E-02 0.  1.
       -1   -1    0    0    0  501  0.00000000000E+00  0.00000000000E+00 -0.34452774053E+03  0.34452774056E+03  0.50400001928E-02 0. -1.
    10030    2    1    2    0    0  0.00000000000E+00  0.00000000000E+00  0.11957854307E+03  0.80863402419E+03  0.79974368214E+03 0.  0.
        4    1    3    3  502    0  0.21546446024E+03 -0.13148558575E+03  0.37336987116E+03  0.45068843615E+03  0.12699999809E+01 0.  1.
       -4    1    3    3    0  502 -0.21546446024E+03  0.13148558575E+03 -0.25379132809E+03  0.35794558804E+03  0.12699999809E+01 0. -1.
</event>
<event>
 5   0  0.1523811E-02  0.7883452E+03  0.7818609E-02  0.9577042E-01
       -1   -1    0    0    0  501  0.00000000000E+00  0.00000000000E+00  0.12712487837E+03  0.12712487847E+03  0.50400001928E-02 0.  1.
        1   -1    0    0  501    0  0.00000000000E+00  0.00000000000E+00 -0.12221999807E+04  0.12221999807E+04  0.50400001928E-02 0. -1.
    10030    2    1    2    0    0  0.00000000000E+00  0.00000000000E+00 -0.10950751023E+04  0.13493248591E+04  0.78834516288E+03 0.  0.
        1    1    3    3  502    0 -0.36244504262E+03 -0.34549160927E+02 -0.80605003172E+03  0.88446407904E+03  0.50400001928E-02 0.  1.
       -1    1    3    3    0  502  0.36244504262E+03  0.34549160927E+02 -0.28902507058E+03  0.46486078011E+03  0.50400001928E-02 0. -1.
</event>
<event>
 5   0  0.2571778E-02  0.8098022E+03  0.7818609E-02  0.9545936E-01
       -2   -1    0    0    0  501  0.00000000000E+00  0.00000000000E+00  0.12788803576E+03  0.12788803578E+03  0.25500000920E-02 0.  1.
        2   -1    0    0  501    0  0.00000000000E+00  0.00000000000E+00 -0.12819409630E+04  0.12819409630E+04  0.25500000920E-02 0. -1.
    10030    2    1    2    0    0  0.00000000000E+00  0.00000000000E+00 -0.11540529272E+04  0.14098289988E+04  0.80980222705E+03 0.  0.
        1    1    3    3  502    0 -0.17684464414E+03  0.14271552680E+02 -0.12106651153E+04  0.12235962271E+04  0.50400001928E-02 0. -1.
       -1    1    3    3    0  502  0.17684464414E+03 -0.14271552680E+02  0.56612188130E+02  0.18623277168E+03  0.50400001928E-02 0.  1.
</event>
<event>
 5   0  0.2422031E-02  0.8055610E+03  0.7818609E-02  0.9552003E-01
       -2   -1    0    0    0  501  0.00000000000E+00  0.00000000000E+00  0.39047451711E+03  0.39047451712E+03  0.25500000920E-02 0. -1.
        2   -1    0    0  501    0  0.00000000000E+00  0.00000000000E+00 -0.41547430368E+03  0.41547430368E+03  0.25500000920E-02 0.  1.
    10030    2    1    2    0    0  0.00000000000E+00  0.00000000000E+00 -0.24999786567E+02  0.80594882080E+03  0.80556099237E+03 0.  0.
        4    1    3    3  502    0  0.19732499312E+03 -0.25665663772E+03  0.22724170736E+03  0.39553784782E+03  0.12699999809E+01 0.  1.
       -4    1    3    3    0  502 -0.19732499312E+03  0.25665663772E+03 -0.25224149392E+03  0.41041097299E+03  0.12699999809E+01 0. -1.
</event>
<event>
 5   0  0.2460312E-02  0.8018719E+03  0.7818609E-02  0.9557312E-01
       -2   -1    0    0    0  501  0.00000000000E+00  0.00000000000E+00  0.32257743565E+03  0.32257743566E+03  0.25500000920E-02 0.  1.
        2   -1    0    0  501    0  0.00000000000E+00  0.00000000000E+00 -0.49832883125E+03  0.49832883125E+03  0.25500000920E-02 0. -1.
    10030    2    1    2    0    0  0.00000000000E+00  0.00000000000E+00 -0.17575139559E+03  0.82090626691E+03  0.80187190124E+03 0.  0.
        2    1    3    3  502    0 -0.78087512376E+02 -0.38602411749E+03 -0.16474029737E+03  0.42690941012E+03  0.25500000920E-02 0.  1.
       -2    1    3    3    0  502  0.78087512376E+02  0.38602411749E+03 -0.11011098229E+02  0.39399685679E+03  0.25500000920E-02 0. -1.
</event>
<event>
 5   0  0.1509629E-02  0.8297965E+03  0.7818609E-02  0.9517862E-01
        1   -1    0    0  501    0  0.00000000000E+00  0.00000000000E+00  0.41973952206E+03  0.41973952209E+03  0.50400001928E-02 0. -1.
       -1   -1    0    0    0  501  0.00000000000E+00  0.00000000000E+00 -0.41011279243E+03  0.41011279246E+03  0.50400001928E-02 0.  1.
    10030    2    1    2    0    0  0.00000000000E+00  0.00000000000E+00  0.96267296372E+01  0.82985231455E+03  0.82979647507E+03 0.  0.
        5    1    3    3  502    0 -0.31451983472E+03 -0.64961288994E+02 -0.25783667896E+03  0.41187927663E+03  0.46999998093E+01 0.  1.
       -5    1    3    3    0  502  0.31451983472E+03  0.64961288994E+02  0.26746340860E+03  0.41797303793E+03  0.46999998093E+01 0. -1.
</event>
<event>
 5   0  0.1624094E-02  0.7826971E+03  0.7818609E-02  0.9585406E-01
       -1   -1    0    0    0  501  0.00000000000E+00  0.00000000000E+00  0.14708580545E+03  0.14708580553E+03  0.50400001928E-02 0. -1.
        1   -1    0    0  501    0  0.00000000000E+00  0.00000000000E+00 -0.10412539910E+04  0.10412539910E+04  0.50400001928E-02 0.  1.
    10030    2    1    2    0    0  0.00000000000E+00  0.00000000000E+00 -0.89416818553E+03  0.11883397965E+04  0.78269708572E+03 0.  0.
        3    1    3    3  502    0 -0.42732333560E+02 -0.49107252281E+02  0.13880814957E+03  0.15331434097E+03  0.10100000352E+00 0. -1.
       -3    1    3    3    0  502  0.42732333560E+02  0.49107252281E+02 -0.10329763351E+04  0.10350254556E+04  0.10100000352E+00 0.  1.
</event>
<event>
 5   0  0.2571778E-02  0.7945806E+03  0.7818609E-02  0.9567895E-01
       -2   -1    0    0    0  501  0.00000000000E+00  0.00000000000E+00  0.15993729570E+03  0.15993729572E+03  0.25500000920E-02 0. -1.
        2   -1    0    0  501    0  0.00000000000E+00  0.00000000000E+00 -0.98688411976E+03  0.98688411976E+03  0.25500000920E-02 0.  1.
    10030    2    1    2    0    0  0.00000000000E+00  0.00000000000E+00 -0.82694682406E+03  0.11468214155E+04  0.79458058697E+03 0.  0.
        1    1    3    3  502    0 -0.14120568243E+03  0.20119085792E+03 -0.86396644983E+03  0.89825098526E+03  0.50400001928E-02 0.  1.
       -1    1    3    3    0  502  0.14120568243E+03 -0.20119085792E+03  0.37019625770E+02  0.24857043022E+03  0.50400001928E-02 0. -1.
</event>
<event>
 5   0  0.1498375E-02  0.7948317E+03  0.7818609E-02  0.9567528E-01
       -1   -1    0    0    0  501  0.00000000000E+00  0.00000000000E+00  0.36692178517E+03  0.36692178521E+03  0.50400001928E-02 0. -1.
        1   -1    0    0  501    0  0.00000000000E+00  0.00000000000E+00 -0.43044421017E+03  0.43044421020E+03  0.50400001928E-02 0.  1.
    10030    2    1    2    0    0  0.00000000000E+00  0.00000000000E+00 -0.63522424997E+02  0.79736599541E+03  0.79483170052E+03 0.  0.
        4    1    3    3  502    0  0.25963280875E+02  0.39360524331E+03 -0.80274120873E+02  0.40254779455E+03  0.12699999809E+01 0.  1.
       -4    1    3    3    0  502 -0.25963280875E+02 -0.39360524331E+03  0.16751695876E+02  0.39481820086E+03  0.12699999809E+01 0. -1.
</event>
<event>
 5   0  0.1523811E-02  0.7936497E+03  0.7818609E-02  0.9569255E-01
        1   -1    0    0  501    0  0.00000000000E+00  0.00000000000E+00  0.11155375085E+04  0.11155375085E+04  0.50400001928E-02 0. -1.
       -1   -1    0    0    0  501  0.00000000000E+00  0.00000000000E+00 -0.14116062750E+03  0.14116062759E+03  0.50400001928E-02 0.  1.
    10030    2    1    2    0    0  0.00000000000E+00  0.00000000000E+00  0.97437688100E+03  0.12566981361E+04  0.79364973323E+03 0.  0.
        1    1    3    3  502    0  0.26774824698E+03  0.28852997737E+03  0.40752222719E+03  0.56658012433E+03  0.50400001928E-02 0.  1.
       -1    1    3    3    0  502 -0.26774824698E+03 -0.28852997737E+03  0.56685465381E+03  0.69011801177E+03  0.50400001928E-02 0. -1.
</event>
<event>
 5   0  0.1523811E-02  0.8368349E+03  0.7818609E-02  0.9508179E-01
        1   -1    0    0  501    0  0.00000000000E+00  0.00000000000E+00  0.67114753256E+03  0.67114753258E+03  0.50400001928E-02 0. -1.
       -1   -1    0    0    0  501  0.00000000000E+00  0.00000000000E+00 -0.26085642341E+03  0.26085642346E+03  0.50400001928E-02 0.  1.
    10030    2    1    2    0    0  0.00000000000E+00  0.00000000000E+00  0.41029110915E+03  0.93200395604E+03  0.83683485816E+03 0.  0.
        1    1    3    3  502    0 -0.23350976295E+03  0.35575875017E+02 -0.17950208318E+03  0.29667060887E+03  0.50400001928E-02 0.  1.
       -1    1    3    3    0  502  0.23350976295E+03 -0.35575875017E+02  0.58979319233E+03  0.63533334717E+03  0.50400001928E-02 0. -1.
</event>
<event>
 5   0  0.9919125E-03  0.8023570E+03  0.7818609E-02  0.9556612E-01
       -3   -1    0    0    0  501  0.00000000000E+00  0.00000000000E+00  0.27974828386E+03  0.27974830210E+03  0.10100000352E+00 0. -1.
        3   -1    0    0  501    0  0.00000000000E+00  0.00000000000E+00 -0.57531790453E+03  0.57531791340E+03  0.10100000352E+00 0.  1.
    10030    2    1    2    0    0  0.00000000000E+00  0.00000000000E+00 -0.29556962067E+03  0.85506621549E+03  0.80235704784E+03 0.  0.
        1    1    3    3  502    0 -0.40361582718E+02  0.23273000758E+03  0.19778884428E+03  0.30807911441E+03  0.50400001928E-02 0. -1.
       -1    1    3    3    0  502  0.40361582718E+02 -0.23273000758E+03 -0.49335846495E+03  0.54698710108E+03  0.50400001928E-02 0.  1.
</event>
<event>
 5   0  0.1509629E-02  0.7964539E+03  0.7818609E-02  0.9565164E-01
        1   -1    0    0  501    0  0.00000000000E+00  0.00000000000E+00  0.12027854065E+04  0.12027854065E+04  0.50400001928E-02 0. -1.
       -1   -1    0    0    0  501  0.00000000000E+00  0.00000000000E+00 -0.13184788886E+03  0.13184788895E+03  0.50400001928E-02 0.  1.
    10030    2    1    2    0    0  0.00000000000E+00  0.00000000000E+00  0.10709375177E+04  0.13346332955E+04  0.79645393254E+03 0.  0.
        5    1    3    3  502    0 -0.34104179946E+02  0.33702171943E+02  0.11978840347E+04  0.11988524438E+04  0.46999998093E+01 0. -1.
       -5    1    3    3    0  502  0.34104179946E+02 -0.33702171943E+02 -0.12694651705E+03  0.13578085164E+03  0.46999998093E+01 0.  1.
</event>
<event>
 5   0  0.1624094E-02  0.9731598E+03  0.7818609E-02  0.9338483E-01
        1   -1    0    0  501    0  0.00000000000E+00  0.00000000000E+00  0.44093210943E+03  0.44093210946E+03  0.50400001928E-02 0. -1.
       -1   -1    0    0    0  501  0.00000000000E+00  0.00000000000E+00 -0.53695341480E+03  0.53695341482E+03  0.50400001928E-02 0.  1.
    10030    2    1    2    0    0  0.00000000000E+00  0.00000000000E+00 -0.96021305368E+02  0.97788552428E+03  0.97315980574E+03 0.  0.
        3    1    3    3  502    0 -0.34964811066E+03 -0.20098516394E+03  0.22554496823E+03  0.46208157322E+03  0.10100000352E+00 0. -1.
       -3    1    3    3    0  502  0.34964811066E+03  0.20098516394E+03 -0.32156627359E+03  0.51580395106E+03  0.10100000352E+00 0.  1.
</event>
<event>
 5   0  0.2422031E-02  0.8004580E+03  0.7818609E-02  0.9559354E-01
       -2   -1    0    0    0  501  0.00000000000E+00  0.00000000000E+00  0.20834713058E+03  0.20834713059E+03  0.25500000920E-02 0. -1.
        2   -1    0    0  501    0  0.00000000000E+00  0.00000000000E+00 -0.76882862265E+03  0.76882862265E+03  0.25500000920E-02 0.  1.
    10030    2    1    2    0    0  0.00000000000E+00  0.00000000000E+00 -0.56048149207E+03  0.97717575325E+03  0.80045796253E+03 0.  0.
        4    1    3    3  502    0  0.20098650972E+03  0.15789988686E+03 -0.65621770418E+03  0.70423805602E+03  0.12699999809E+01 0.  1.
       -4    1    3    3    0  502 -0.20098650972E+03 -0.15789988686E+03  0.95736212106E+02  0.27293769723E+03  0.12699999809E+01 0. -1.
</event>
<event>
 5   0  0.2571778E-02  0.8048490E+03  0.7818609E-02  0.9553025E-01
        2   -1    0    0  501    0  0.00000000000E+00  0.00000000000E+00  0.95000698691E+03  0.95000698691E+03  0.25500000920E-02 0. -1.
       -2   -1    0    0    0  501  0.00000000000E+00  0.00000000000E+00 -0.17046766314E+03  0.17046766316E+03  0.25500000920E-02 0.  1.
    10030    2    1    2    0    0  0.00000000000E+00  0.00000000000E+00  0.77953932377E+03  0.11204746501E+04  0.80484898220E+03 0.  0.
        1    1    3    3  502    0  0.52527509277E+02  0.20961761689E+03 -0.82839404119E+02  0.23143260670E+03  0.50400001928E-02 0.  1.
       -1    1    3    3    0  502 -0.52527509277E+02 -0.20961761689E+03  0.86237872789E+03  0.88904204337E+03  0.50400001928E-02 0. -1.
</event>
<event>
 5   0  0.1498375E-02  0.8178425E+03  0.7818609E-02  0.9534544E-01
        1   -1    0    0  501    0  0.00000000000E+00  0.00000000000E+00  0.14556287361E+04  0.14556287361E+04  0.50400001928E-02 0. -1.
       -1   -1    0    0    0  501  0.00000000000E+00  0.00000000000E+00 -0.11487586278E+03  0.11487586289E+03  0.50400001928E-02 0.  1.
    10030    2    1    2    0    0  0.00000000000E+00  0.00000000000E+00  0.13407528733E+04  0.15705045990E+04  0.81784254485E+03 0.  0.
        4    1    3    3  502    0  0.33126481054E+03  0.76550655016E+02  0.23408901316E+03  0.41279008766E+03  0.12699999809E+01 0.  1.
       -4    1    3    3    0  502 -0.33126481054E+03 -0.76550655016E+02  0.11066638602E+04  0.11577145114E+04  0.12699999809E+01 0. -1.
</event>
<event>
 5   0  0.2454354E-02  0.8114626E+03  0.7818609E-02  0.9543572E-01
       -2   -1    0    0    0  501  0.00000000000E+00  0.00000000000E+00  0.26070280314E+03  0.26070280315E+03  0.25500000920E-02 0.  1.
        2   -1    0    0  501    0  0.00000000000E+00  0.00000000000E+00 -0.63143894171E+03  0.63143894172E+03  0.25500000920E-02 0. -1.
    10030    2    1    2    0    0  0.00000000000E+00  0.00000000000E+00 -0.37073613857E+03  0.89214174487E+03  0.81146263530E+03 0.  0.
        5    1    3    3  502    0  0.18921031536E+03  0.23918171643E+03 -0.47952802653E+03  0.56831123087E+03  0.46999998093E+01 0. -1.
       -5    1    3    3    0  502 -0.18921031536E+03 -0.23918171643E+03  0.10879188795E+03  0.32383051400E+03  0.46999998093E+01 0.  1.
</event>
<event>
 5   0  0.1498375E-02  0.8090517E+03  0.7818609E-02  0.9547007E-01
        1   -1    0    0  501    0  0.00000000000E+00  0.00000000000E+00  0.10249919196E+04  0.10249919197E+04  0.50400001928E-02 0. -1.
       -1   -1    0    0    0  501  0.00000000000E+00  0.00000000000E+00 -0.15965116568E+03  0.15965116576E+03  0.50400001928E-02 0.  1.
    10030    2    1    2    0    0  0.00000000000E+00  0.00000000000E+00  0.86534075396E+03  0.11846430854E+04  0.80905167904E+03 0.  0.
        4    1    3    3  502    0  0.38795159499E+03 -0.41197253327E+02  0.58925395435E+03  0.70670042405E+03  0.12699999809E+01 0.  1.
       -4    1    3    3    0  502 -0.38795159499E+03  0.41197253327E+02  0.27608679961E+03  0.47794266137E+03  0.12699999809E+01 0. -1.
</event>
<event>
 5   0  0.1523811E-02  0.7907228E+03  0.7818609E-02  0.9573543E-01
        1   -1    0    0  501    0  0.00000000000E+00  0.00000000000E+00  0.73532248017E+03  0.73532248019E+03  0.50400001928E-02 0.  1.
       -1   -1    0    0    0  501  0.00000000000E+00  0.00000000000E+00 -0.21257428454E+03  0.21257428460E+03  0.50400001928E-02 0. -1.
    10030    2    1    2    0    0  0.00000000000E+00  0.00000000000E+00  0.52274819563E+03  0.94789676478E+03  0.79072283428E+03 0.  0.
        1    1    3    3  502    0  0.62541407093E+02 -0.32887143169E+03  0.92246147085E+01  0.33489243008E+03  0.50400001928E-02 0. -1.
       -1    1    3    3    0  502 -0.62541407093E+02  0.32887143169E+03  0.51352358092E+03  0.61300433471E+03  0.50400001928E-02 0.  1.
</event>
<event>
 5   0  0.1523811E-02  0.8020636E+03  0.7818609E-02  0.9557035E-01
        1   -1    0    0  501    0  0.00000000000E+00  0.00000000000E+00  0.27782306783E+03  0.27782306788E+03  0.50400001928E-02 0.  1.
       -1   -1    0    0    0  501  0.00000000000E+00  0.00000000000E+00 -0.57888107303E+03  0.57888107305E+03  0.50400001928E-02 0. -1.
    10030    2    1    2    0    0  0.00000000000E+00  0.00000000000E+00 -0.30105800520E+03  0.85670414093E+03  0.80206362752E+03 0.  0.
        1    1    3    3  502    0  0.29858436325E+03 -0.15969463526E+03  0.78984962755E+02  0.34769760263E+03  0.50400001928E-02 0.  1.
       -1    1    3    3    0  502 -0.29858436325E+03  0.15969463526E+03 -0.38004296796E+03  0.50900653830E+03  0.50400001928E-02 0. -1.
</event>
<event>
 5   0  0.1624094E-02  0.8122021E+03  0.7818609E-02  0.9542521E-01
       -1   -1    0    0    0  501  0.00000000000E+00  0.00000000000E+00  0.16647492705E+03  0.16647492712E+03  0.50400001928E-02 0.  1.
        1   -1    0    0  501    0  0.00000000000E+00  0.00000000000E+00 -0.99064813311E+03  0.99064813312E+03  0.50400001928E-02 0. -1.
    10030    2    1    2    0    0  0.00000000000E+00  0.00000000000E+00 -0.82417320606E+03  0.11571230602E+04  0.81220213184E+03 0.  0.
        3    1    3    3  502    0 -0.78523778315E+02 -0.37208595172E+03 -0.61509199672E+03  0.72315428081E+03  0.10100000352E+00 0. -1.
       -3    1    3    3    0  502  0.78523778315E+02  0.37208595172E+03 -0.20908120934E+03  0.43396877944E+03  0.10100000352E+00 0.  1.
</event>
<event>
 5   0  0.2454354E-02  0.7996270E+03  0.7818609E-02  0.9560557E-01
       -2   -1    0    0    0  501  0.00000000000E+00  0.00000000000E+00  0.14429101872E+04  0.14429101872E+04  0.25500000920E-02 0.  1.
        2   -1    0    0  501    0  0.00000000000E+00  0.00000000000E+00 -0.11078364260E+03  0.11078364263E+03  0.25500000920E-02 0. -1.
    10030    2    1    2    0    0  0.00000000000E+00  0.00000000000E+00  0.13321265446E+04  0.15536938298E+04  0.79962702932E+03 0.  0.
        5    1    3    3  502    0  0.17100914174E+03 -0.35729552210E+03  0.77114004990E+03  0.86693903086E+03  0.46999998093E+01 0. -1.
       -5    1    3    3    0  502 -0.17100914174E+03  0.35729552210E+03  0.56098649471E+03  0.68675479898E+03  0.46999998093E+01 0.  1.
</event>
<event>
 5   0  0.2571778E-02  0.8028611E+03  0.7818609E-02  0.9555885E-01
       -2   -1    0    0    0  501  0.00000000000E+00  0.00000000000E+00  0.16942351949E+03  0.16942351951E+03  0.25500000920E-02 0.  1.
        2   -1    0    0  501    0  0.00000000000E+00  0.00000000000E+00 -0.95114593783E+03  0.95114593783E+03  0.25500000920E-02 0. -1.
    10030    2    1    2    0    0  0.00000000000E+00  0.00000000000E+00 -0.78172241834E+03  0.11205694573E+04  0.80286111464E+03 0.  0.
        1    1    3    3  502    0  0.19983950076E+03 -0.17357499792E+03  0.30365166465E+02  0.26643226030E+03  0.50400001928E-02 0.  1.
       -1    1    3    3    0  502 -0.19983950076E+03  0.17357499792E+03 -0.81208758480E+03  0.85413719705E+03  0.50400001928E-02 0. -1.
</event>
<event>
 5   0  0.1498375E-02  0.8013170E+03  0.7818609E-02  0.9558113E-01
        1   -1    0    0  501    0  0.00000000000E+00  0.00000000000E+00  0.27105228405E+03  0.27105228410E+03  0.50400001928E-02 0. -1.
       -1   -1    0    0    0  501  0.00000000000E+00  0.00000000000E+00 -0.59223711371E+03  0.59223711373E+03  0.50400001928E-02 0.  1.
    10030    2    1    2    0    0  0.00000000000E+00  0.00000000000E+00 -0.32118482966E+03  0.86328939783E+03  0.80131697200E+03 0.  0.
        4    1    3    3  502    0 -0.16590366871E+03  0.36311117004E+03 -0.19715627082E+03  0.44524819722E+03  0.12699999809E+01 0.  1.
       -4    1    3    3    0  502  0.16590366871E+03 -0.36311117004E+03 -0.12402855884E+03  0.41804120061E+03  0.12699999809E+01 0. -1.
</event>
<event>
 5   0  0.1624094E-02  0.8097319E+03  0.7818609E-02  0.9546036E-01
       -1   -1    0    0    0  501  0.00000000000E+00  0.00000000000E+00  0.31852188695E+03  0.31852188699E+03  0.50400001928E-02 0.  1.
        1   -1    0    0  501    0  0.00000000000E+00  0.00000000000E+00 -0.51461593221E+03  0.51461593223E+03  0.50400001928E-02 0. -1.
    10030    2    1    2    0    0  0.00000000000E+00  0.00000000000E+00 -0.19609404526E+03  0.83313781922E+03  0.80973190083E+03 0.  0.
        3    1    3    3  502    0 -0.37622668525E+03  0.10083861972E+03 -0.21170027963E+03  0.44331925800E+03  0.10100000352E+00 0.  1.
       -3    1    3    3    0  502  0.37622668525E+03 -0.10083861972E+03  0.15606234368E+02  0.38981856122E+03  0.10100000352E+00 0. -1.
</event>
<event>
 5   0  0.2454354E-02  0.7966408E+03  0.7818609E-02  0.9564892E-01
        2   -1    0    0  501    0  0.00000000000E+00  0.00000000000E+00  0.68571537187E+03  0.68571537188E+03  0.25500000920E-02 0. -1.
       -2   -1    0    0    0  501  0.00000000000E+00  0.00000000000E+00 -0.23137753033E+03  0.23137753034E+03  0.25500000920E-02 0.  1.
    10030    2    1    2    0    0  0.00000000000E+00  0.00000000000E+00  0.45433784155E+03  0.91709290222E+03  0.79664077039E+03 0.  0.
        5    1    3    3  502    0 -0.27287838635E+03 -0.79107823408E+02  0.54850921035E+03  0.61774194070E+03  0.46999998093E+01 0. -1.
       -5    1    3    3    0  502  0.27287838635E+03  0.79107823408E+02 -0.94171368809E+02  0.29935096152E+03  0.46999998093E+01 0.  1.
</event>
<event>
 5   0  0.1624094E-02  0.7947798E+03  0.7818609E-02  0.9567604E-01
        1   -1    0    0  501    0  0.00000000000E+00  0.00000000000E+00  0.12708424969E+04  0.12708424969E+04  0.50400001928E-02 0.  1.
       -1   -1    0    0    0  501  0.00000000000E+00  0.00000000000E+00 -0.12426301961E+03  0.12426301971E+03  0.50400001928E-02 0. -1.
    10030    2    1    2    0    0  0.00000000000E+00  0.00000000000E+00  0.11465794773E+04  0.13951055166E+04  0.79477978381E+03 0.  0.
        3    1    3    3  502    0 -0.17553147354E+03  0.10959489239E+03  0.11688024986E+04  0.11869800460E+04  0.10100000352E+00 0.  1.
       -3    1    3    3    0  502  0.17553147354E+03 -0.10959489239E+03 -0.22223021325E+02  0.20812547061E+03  0.10100000352E+00 0. -1.
</event>
<event>
 5   0  0.1523811E-02  0.7937593E+03  0.7818609E-02  0.9569094E-01
        1   -1    0    0  501    0  0.00000000000E+00  0.00000000000E+00  0.96533414116E+02  0.96533414247E+02  0.50400001928E-02 0.  1.
       -1   -1    0    0    0  501  0.00000000000E+00  0.00000000000E+00 -0.16316988793E+04  0.16316988793E+04  0.50400001928E-02 0. -1.
    10030    2    1    2    0    0  0.00000000000E+00  0.00000000000E+00 -0.15351654652E+04  0.17282322935E+04  0.79375931805E+03 0.  0.
        1    1    3    3  502    0 -0.31207672643E+03 -0.23805114229E+03 -0.89552860966E+03  0.97776874581E+03  0.50400001928E-02 0. -1.
       -1    1    3    3    0  502  0.31207672643E+03  0.23805114229E+03 -0.63963685550E+03  0.75046354773E+03  0.50400001928E-02 0.  1.
</event>
<event>
 5   0  0.2422031E-02  0.8076834E+03  0.7818609E-02  0.9548962E-01
        2   -1    0    0  501    0  0.00000000000E+00  0.00000000000E+00  0.79632168155E+03  0.79632168155E+03  0.25500000920E-02 0. -1.
       -2   -1    0    0    0  501  0.00000000000E+00  0.00000000000E+00 -0.20480182893E+03  0.20480182894E+03  0.25500000920E-02 0.  1.
    10030    2    1    2    0    0  0.00000000000E+00  0.00000000000E+00  0.59151985262E+03  0.10011235105E+04  0.80768344494E+03 0.  0.
        4    1    3    3  502    0  0.22343779747E+03  0.50487073331E+02  0.70799963264E+03  0.74413606728E+03  0.12699999809E+01 0. -1.
       -4    1    3    3    0  502 -0.22343779747E+03 -0.50487073331E+02 -0.11647978002E+03  0.25698744321E+03  0.12699999809E+01 0.  1.
</event>
<event>
 5   0  0.2460312E-02  0.8159974E+03  0.7818609E-02  0.9537146E-01
        2   -1    0    0  501    0  0.00000000000E+00  0.00000000000E+00  0.61514888843E+03  0.61514888843E+03  0.25500000920E-02 0. -1.
       -2   -1    0    0    0  501  0.00000000000E+00  0.00000000000E+00 -0.27060590684E+03  0.27060590686E+03  0.25500000920E-02 0.  1.
    10030    2    1    2    0    0  0.00000000000E+00  0.00000000000E+00  0.34454298159E+03  0.88575479529E+03  0.81599735981E+03 0.  0.
        2    1    3    3  502    0 -0.19964004433E+03  0.26806342274E+03 -0.81715790442E+02  0.34408082818E+03  0.25500000920E-02 0.  1.
       -2    1    3    3    0  502  0.19964004433E+03 -0.26806342274E+03  0.42625877203E+03  0.54167396711E+03  0.25500000920E-02 0. -1.
</event>
<event>
 5   0  0.1471290E-02  0.8010953E+03  0.7818609E-02  0.9558433E-01
       -1   -1    0    0    0  501  0.00000000000E+00  0.00000000000E+00  0.20512601819E+03  0.20512601825E+03  0.50400001928E-02 0.  1.
        1   -1    0    0  501    0  0.00000000000E+00  0.00000000000E+00 -0.78214572558E+03  0.78214572559E+03  0.50400001928E-02 0. -1.
    10030    2    1    2    0    0  0.00000000000E+00  0.00000000000E+00 -0.57701970739E+03  0.98727174384E+03  0.80109534605E+03 0.  0.
        2    1    3    3  502    0  0.11379571666E+03 -0.36618767974E+03 -0.43114707766E+03  0.57700145971E+03  0.25500000920E-02 0.  1.
       -2    1    3    3    0  502 -0.11379571666E+03  0.36618767974E+03 -0.14587262973E+03  0.41027028413E+03  0.25500000920E-02 0. -1.
</event>
<event>
 5   0  0.2460312E-02  0.7938000E+03  0.7818609E-02  0.9569035E-01
       -2   -1    0    0    0  501  0.00000000000E+00  0.00000000000E+00  0.38595048657E+03  0.38595048657E+03  0.25500000920E-02 0. -1.
        2   -1    0    0  501    0  0.00000000000E+00  0.00000000000E+00 -0.40816011645E+03  0.40816011646E+03  0.25500000920E-02 0.  1.
    10030    2    1    2    0    0  0.00000000000E+00  0.00000000000E+00 -0.22209629881E+02  0.79411060303E+03  0.79379996358E+03 0.  0.
        2    1    3    3  502    0 -0.32399338725E+03 -0.22506551210E+03 -0.54749812735E+02  0.39827596176E+03  0.25500000920E-02 0.  1.
       -2    1    3    3    0  502  0.32399338725E+03  0.22506551210E+03  0.32540182854E+02  0.39583464126E+03  0.25500000920E-02 0. -1.
</event>
<event>
 5   0  0.1471290E-02  0.8044043E+03  0.7818609E-02  0.9553664E-01
       -1   -1    0    0    0  501  0.00000000000E+00  0.00000000000E+00  0.54891627256E+03  0.54891627258E+03  0.50400001928E-02 0. -1.
        1   -1    0    0  501    0  0.00000000000E+00  0.00000000000E+00 -0.29470171213E+03  0.29470171217E+03  0.50400001928E-02 0.  1.
    10030    2    1    2    0    0  0.00000000000E+00  0.00000000000E+00  0.25421456043E+03  0.84361798476E+03  0.80440428981E+03 0.  0.
        2    1    3    3  502    0  0.16122363493E+03 -0.32315844762E+03 -0.58560119218E+02  0.36586026062E+03  0.25500000920E-02 0.  1.
       -2    1    3    3    0  502 -0.16122363493E+03  0.32315844762E+03  0.31277467965E+03  0.47775772413E+03  0.25500000920E-02 0. -1.
</event>
<event>
 5   0  0.1509629E-02  0.7964581E+03  0.7818609E-02  0.9565158E-01
        1   -1    0    0  501    0  0.00000000000E+00  0.00000000000E+00  0.79275110102E+03  0.79275110104E+03  0.50400001928E-02 0. -1.
       -1   -1    0    0    0  501  0.00000000000E+00  0.00000000000E+00 -0.20004558974E+03  0.20004558981E+03  0.50400001928E-02 0.  1.
    10030    2    1    2    0    0  0.00000000000E+00  0.00000000000E+00  0.59270551128E+03  0.99279669085E+03  0.79645806309E+03 0.  0.
        5    1    3    3  502    0 -0.13835021558E+03 -0.16725751164E+03  0.71248786069E+03  0.74483347063E+03  0.46999998093E+01 0. -1.
       -5    1    3    3    0  502  0.13835021558E+03  0.16725751164E+03 -0.11978234941E+03  0.24796322021E+03  0.46999998093E+01 0.  1.
</event>
<event>
 5   0  0.1523811E-02  0.8041500E+03  0.7818609E-02  0.9554030E-01
        1   -1    0    0  501    0  0.00000000000E+00  0.00000000000E+00  0.12186732327E+04  0.12186732327E+04  0.50400001928E-02 0. -1.
       -1   -1    0    0    0  501  0.00000000000E+00  0.00000000000E+00 -0.13265598272E+03  0.13265598282E+03  0.50400001928E-02 0.  1.
    10030    2    1    2    0    0  0.00000000000E+00  0.00000000000E+00  0.10860172500E+04  0.13513292156E+04  0.80414997451E+03 0.  0.
        1    1    3    3  502    0 -0.18108150889E+03  0.23487394655E+03  0.86781122708E+02  0.30901010811E+03  0.50400001928E-02 0.  1.
       -1    1    3    3    0  502  0.18108150889E+03 -0.23487394655E+03  0.99923612730E+03  0.10423191074E+04  0.50400001928E-02 0. -1.
</event>
<event>
 5   0  0.2460312E-02  0.8178270E+03  0.7818609E-02  0.9534566E-01
       -2   -1    0    0    0  501  0.00000000000E+00  0.00000000000E+00  0.12216112740E+04  0.12216112740E+04  0.25500000920E-02 0. -1.
        2   -1    0    0  501    0  0.00000000000E+00  0.00000000000E+00 -0.13687679678E+03  0.13687679681E+03  0.25500000920E-02 0.  1.
    10030    2    1    2    0    0  0.00000000000E+00  0.00000000000E+00  0.10847344772E+04  0.13584880708E+04  0.81782696975E+03 0.  0.
        2    1    3    3  502    0 -0.30327439606E+03  0.17482947841E+03  0.89344239934E+03  0.95957283557E+03  0.25500000920E-02 0. -1.
       -2    1    3    3    0  502  0.30327439606E+03 -0.17482947841E+03  0.19129207784E+03  0.39891523520E+03  0.25500000920E-02 0.  1.
</event>
<event>
 5   0  0.2422031E-02  0.7953481E+03  0.7818609E-02  0.9566775E-01
        2   -1    0    0  501    0  0.00000000000E+00  0.00000000000E+00  0.10071975550E+04  0.10071975550E+04  0.25500000920E-02 0.  1.
       -2   -1    0    0    0  501  0.00000000000E+00  0.00000000000E+00 -0.15701454268E+03  0.15701454270E+03  0.25500000920E-02 0. -1.
    10030    2    1    2    0    0  0.00000000000E+00  0.00000000000E+00  0.85018301227E+03  0.11642120977E+04  0.79534813382E+03 0.  0.
        4    1    3    3  502    0 -0.29809281364E+03 -0.11149892231E+03  0.76074468530E+02  0.32723122236E+03  0.12699999809E+01 0. -1.
       -4    1    3    3    0  502  0.29809281364E+03  0.11149892231E+03  0.77410854374E+03  0.83698087530E+03  0.12699999809E+01 0.  1.
</event>
<event>
 5   0  0.2571778E-02  0.7936551E+03  0.7818609E-02  0.9569247E-01
        2   -1    0    0  501    0  0.00000000000E+00  0.00000000000E+00  0.78485215154E+03  0.78485215154E+03  0.25500000920E-02 0.  1.
       -2   -1    0    0    0  501  0.00000000000E+00  0.00000000000E+00 -0.20063919916E+03  0.20063919918E+03  0.25500000920E-02 0. -1.
    10030    2    1    2    0    0  0.00000000000E+00  0.00000000000E+00  0.58421295238E+03  0.98549135072E+03  0.79365510684E+03 0.  0.
        1    1    3    3  502    0 -0.37940647605E+03 -0.11626397557E+03  0.29502411559E+03  0.49447529249E+03  0.50400001928E-02 0. -1.
       -1    1    3    3    0  502  0.37940647605E+03  0.11626397557E+03  0.28918883679E+03  0.49101605823E+03  0.50400001928E-02 0.  1.
</event>
<event>
 5   0  0.2571778E-02  0.7789609E+03  0.7818609E-02  0.9590980E-01
       -2   -1    0    0    0  501  0.00000000000E+00  0.00000000000E+00  0.94605081542E+02  0.94605081576E+02  0.25500000920E-02 0.  1.
        2   -1    0    0  501    0  0.00000000000E+00  0.00000000000E+00 -0.16034553666E+04  0.16034553666E+04  0.25500000920E-02 0. -1.
    10030    2    1    2    0    0  0.00000000000E+00  0.00000000000E+00 -0.15088502851E+04  0.16980604482E+04  0.77896091234E+03 0.  0.
        1    1    3    3  502    0  0.64040282045E+02  0.23769387672E+03 -0.14123645757E+04  0.14336572922E+04  0.50400001928E-02 0. -1.
       -1    1    3    3    0  502 -0.64040282045E+02 -0.23769387672E+03 -0.96485709354E+02  0.26440315598E+03  0.50400001928E-02 0.  1.
</event>
<event>
 5   0  0.1471290E-02  0.7873456E+03  0.7818609E-02  0.9578517E-01
        1   -1    0    0  501    0  0.00000000000E+00  0.00000000000E+00  0.54921415797E+03  0.54921415799E+03  0.50400001928E-02 0. -1.
       -1   -1    0    0    0  501  0.00000000000E+00  0.00000000000E+00 -0.28218183315E+03  0.28218183319E+03  0.50400001928E-02 0.  1.
    10030    2    1    2    0    0  0.00000000000E+00  0.00000000000E+00  0.26703232482E+03  0.83139599118E+03  0.78734556051E+03 0.  0.
        2    1    3    3  502    0 -0.34336895150E+03 -0.18381258421E+03  0.72958165080E+02  0.39624764584E+03  0.25500000920E-02 0.  1.
       -2    1    3    3    0  502  0.34336895150E+03  0.18381258421E+03  0.19407415974E+03  0.43514834535E+03  0.25500000920E-02 0. -1.
</event>
<event>
 5   0  0.2454354E-02  0.8018028E+03  0.7818609E-02  0.9557411E-01
        2   -1    0    0  501    0  0.00000000000E+00  0.00000000000E+00  0.18244743800E+04  0.18244743800E+04  0.25500000920E-02 0. -1.
       -2   -1    0    0    0  501  0.00000000000E+00  0.00000000000E+00 -0.88092179006E+02  0.88092179043E+02  0.25500000920E-02 0.  1.
    10030    2    1    2    0    0  0.00000000000E+00  0.00000000000E+00  0.17363822010E+04  0.19125665590E+04  0.80180277802E+03 0.  0.
        5    1    3    3  502    0  0.38875218547E+03 -0.66616876246E+02  0.69728130941E+03  0.80111758460E+03  0.46999998093E+01 0.  1.
       -5    1    3    3    0  502 -0.38875218547E+03  0.66616876246E+02  0.10391008916E+04  0.11114489744E+04  0.46999998093E+01 0. -1.
</event>
<event>
 5   0  0.2571778E-02  0.7998024E+03  0.7818609E-02  0.9560303E-01
        2   -1    0    0  501    0  0.00000000000E+00  0.00000000000E+00  0.19083531903E+04  0.19083531903E+04  0.25500000920E-02 0. -1.
       -2   -1    0    0    0  501  0.00000000000E+00  0.00000000000E+00 -0.83800513484E+02  0.83800513523E+02  0.25500000920E-02 0.  1.
    10030    2    1    2    0    0  0.00000000000E+00  0.00000000000E+00  0.18245526768E+04  0.19921537038E+04  0.79980241883E+03 0.  0.
        1    1    3    3  502    0  0.36131834986E+03 -0.15792874509E+03  0.10780327579E+04  0.11478880893E+04  0.50400001928E-02 0. -1.
       -1    1    3    3    0  502 -0.36131834986E+03  0.15792874509E+03  0.74651991891E+03  0.84426561449E+03  0.50400001928E-02 0.  1.
</event>
<event>
 5   0  0.2454354E-02  0.7990039E+03  0.7818609E-02  0.9561460E-01
        2   -1    0    0  501    0  0.00000000000E+00  0.00000000000E+00  0.32483248551E+03  0.32483248552E+03  0.25500000920E-02 0. -1.
       -2   -1    0    0    0  501  0.00000000000E+00  0.00000000000E+00 -0.49133572481E+03  0.49133572482E+03  0.25500000920E-02 0.  1.
    10030    2    1    2    0    0  0.00000000000E+00  0.00000000000E+00 -0.16650323930E+03  0.81616821034E+03  0.79900389165E+03 0.  0.
        5    1    3    3  502    0  0.74469598611E+02  0.14392873909E+03  0.28972019088E+03  0.33199560548E+03  0.46999998093E+01 0. -1.
       -5    1    3    3    0  502 -0.74469598611E+02 -0.14392873909E+03 -0.45622343018E+03  0.48417260486E+03  0.46999998093E+01 0.  1.
</event>
<event>
 5   0  0.2422031E-02  0.7985153E+03  0.7818609E-02  0.9562169E-01
        2   -1    0    0  501    0  0.00000000000E+00  0.00000000000E+00  0.56927270232E+03  0.56927270232E+03  0.25500000920E-02 0.  1.
       -2   -1    0    0    0  501  0.00000000000E+00  0.00000000000E+00 -0.28001813887E+03  0.28001813888E+03  0.25500000920E-02 0. -1.
    10030    2    1    2    0    0  0.00000000000E+00  0.00000000000E+00  0.28925456345E+03  0.84929084120E+03  0.79851532889E+03 0.  0.
        4    1    3    3  502    0  0.15978363872E+03  0.51384754508E+02  0.52992473966E+03  0.55587143010E+03  0.12699999809E+01 0.  1.
       -4    1    3    3    0  502 -0.15978363872E+03 -0.51384754508E+02 -0.24067017620E+03  0.29341941110E+03  0.12699999809E+01 0. -1.
</event>
<event>
 5   0  0.1523811E-02  0.8036139E+03  0.7818609E-02  0.9554801E-01
        1   -1    0    0  501    0  0.00000000000E+00  0.00000000000E+00  0.31708582356E+03  0.31708582360E+03  0.50400001928E-02 0.  1.
       -1   -1    0    0    0  501  0.00000000000E+00  0.00000000000E+00 -0.50916446308E+03  0.50916446310E+03  0.50400001928E-02 0. -1.
    10030    2    1    2    0    0  0.00000000000E+00  0.00000000000E+00 -0.19207863951E+03  0.82625028671E+03  0.80361392007E+03 0.  0.
        1    1    3    3  502    0 -0.31416680334E+02  0.39664236384E+03 -0.15362280282E+03  0.42651159207E+03  0.50400001928E-02 0. -1.
       -1    1    3    3    0  502  0.31416680334E+02 -0.39664236384E+03 -0.38455836695E+02  0.39973869464E+03  0.50400001928E-02 0.  1.
</event>
<event>
 5   0  0.2464780E-02  0.8009813E+03  0.7818609E-02  0.9558598E-01
        2   -1    0    0  501    0  0.00000000000E+00  0.00000000000E+00  0.51722971615E+03  0.51722971615E+03  0.25500000920E-02 0. -1.
       -2   -1    0    0    0  501  0.00000000000E+00  0.00000000000E+00 -0.31009963104E+03  0.31009963105E+03  0.25500000920E-02 0.  1.
    10030    2    1    2    0    0  0.00000000000E+00  0.00000000000E+00  0.20713008511E+03  0.82732934720E+03  0.80098125857E+03 0.  0.
        3    1    3    3  502    0  0.28024036743E+03  0.85181084778E+02  0.38568385545E+03  0.48429590882E+03  0.10100000352E+00 0. -1.
       -3    1    3    3    0  502 -0.28024036743E+03 -0.85181084778E+02 -0.17855377034E+03  0.34303343838E+03  0.10100000352E+00 0.  1.
</event>
<event>
 5   0  0.2571778E-02  0.8263307E+03  0.7818609E-02  0.9522668E-01
        2   -1    0    0  501    0  0.00000000000E+00  0.00000000000E+00  0.31215415745E+03  0.31215415746E+03  0.25500000920E-02 0. -1.
       -2   -1    0    0    0  501  0.00000000000E+00  0.00000000000E+00 -0.54686309840E+03  0.54686309840E+03  0.25500000920E-02 0.  1.
    10030    2    1    2    0    0  0.00000000000E+00  0.00000000000E+00 -0.23470894094E+03  0.85901725587E+03  0.82633065955E+03 0.  0.
        1    1    3    3  502    0  0.21347784400E+03 -0.17788601601E+03  0.20050058737E+03  0.34266121772E+03  0.50400001928E-02 0. -1.
       -1    1    3    3    0  502 -0.21347784400E+03  0.17788601601E+03 -0.43520952831E+03  0.51635603814E+03  0.50400001928E-02 0.  1.
</event>
<event>
 5   0  0.1498375E-02  0.7881149E+03  0.7818609E-02  0.9577381E-01
       -1   -1    0    0    0  501  0.00000000000E+00  0.00000000000E+00  0.17896679421E+03  0.17896679428E+03  0.50400001928E-02 0.  1.
        1   -1    0    0  501    0  0.00000000000E+00  0.00000000000E+00 -0.86765410869E+03  0.86765410870E+03  0.50400001928E-02 0. -1.
    10030    2    1    2    0    0  0.00000000000E+00  0.00000000000E+00 -0.68868731448E+03  0.10466209030E+04  0.78811490116E+03 0.  0.
        4    1    3    3  502    0 -0.37649655499E+03  0.11287888957E+01 -0.49880805730E+03  0.62494961478E+03  0.12699999809E+01 0. -1.
       -4    1    3    3    0  502  0.37649655499E+03 -0.11287888957E+01 -0.18987925718E+03  0.42167128820E+03  0.12699999809E+01 0.  1.
</event>
<event>
 5   0  0.2464780E-02  0.8130790E+03  0.7818609E-02  0.9541276E-01
        2   -1    0    0  501    0  0.00000000000E+00  0.00000000000E+00  0.91334770416E+03  0.91334770417E+03  0.25500000920E-02 0.  1.
       -2   -1    0    0    0  501  0.00000000000E+00  0.00000000000E+00 -0.18095450610E+03  0.18095450612E+03  0.25500000920E-02 0. -1.
    10030    2    1    2    0    0  0.00000000000E+00  0.00000000000E+00  0.73239319806E+03  0.10943022103E+04  0.81307904344E+03 0.  0.
        3    1    3    3  502    0  0.17565856246E+03 -0.22531437859E+02  0.85870344610E+03  0.87677546430E+03  0.10100000352E+00 0.  1.
       -3    1    3    3    0  502 -0.17565856246E+03  0.22531437859E+02 -0.12631024804E+03  0.21752674598E+03  0.10100000352E+00 0. -1.
</event>
<event>
 5   0  0.2571778E-02  0.8037634E+03  0.7818609E-02  0.9554586E-01
       -2   -1    0    0    0  501  0.00000000000E+00  0.00000000000E+00  0.35241036176E+03  0.35241036177E+03  0.25500000920E-02 0.  1.
        2   -1    0    0  501    0  0.00000000000E+00  0.00000000000E+00 -0.45829784741E+03  0.45829784742E+03  0.25500000920E-02 0. -1.
    10030    2    1    2    0    0  0.00000000000E+00  0.00000000000E+00 -0.10588748566E+03  0.81070820919E+03  0.80376342342E+03 0.  0.
        1    1    3    3  502    0 -0.30796073349E+03  0.24532170499E+03 -0.13417754573E+03  0.41596414042E+03  0.50400001928E-02 0. -1.
       -1    1    3    3    0  502  0.30796073349E+03 -0.24532170499E+03  0.28290060079E+02  0.39474406877E+03  0.50400001928E-02 0.  1.
</event>
<event>
 5   0  0.1471290E-02  0.7937740E+03  0.7818609E-02  0.9569073E-01
       -1   -1    0    0    0  501  0.00000000000E+00  0.00000000000E+00  0.20294829644E+03  0.20294829650E+03  0.50400001928E-02 0. -1.
        1   -1    0    0  501    0  0.00000000000E+00  0.00000000000E+00 -0.77615481793E+03  0.77615481795E+03  0.50400001928E-02 0.  1.
    10030    2    1    2    0    0  0.00000000000E+00  0.00000000000E+00 -0.57320652149E+03  0.97910311445E+03  0.79377401849E+03 0.  0.
        2    1    3    3  502    0  0.26430377766E+03  0.24596348840E+03 -0.83304562758E+02  0.37053228563E+03  0.25500000920E-02 0. -1.
       -2    1    3    3    0  502 -0.26430377766E+03 -0.24596348840E+03 -0.48990195874E+03  0.60857082882E+03  0.25500000920E-02 0.  1.
</event>
<event>
 5   0  0.2454354E-02  0.7947497E+03  0.7818609E-02  0.9567648E-01
       -2   -1    0    0    0  501  0.00000000000E+00  0.00000000000E+00  0.62426555426E+03  0.62426555426E+03  0.25500000920E-02 0. -1.
        2   -1    0    0  501    0  0.00000000000E+00  0.00000000000E+00 -0.25294805205E+03  0.25294805206E+03  0.25500000920E-02 0.  1.
    10030    2    1    2    0    0  0.00000000000E+00  0.00000000000E+00  0.37131750221E+03  0.87721360632E+03  0.79474966101E+03 0.  0.
        5    1    3    3  502    0 -0.59546809004E+02  0.49186532709E+02 -0.24455254533E+03  0.25650180289E+03  0.46999998093E+01 0.  1.
       -5    1    3    3    0  502  0.59546809004E+02 -0.49186532709E+02  0.61587004754E+03  0.62071180343E+03  0.46999998093E+01 0. -1.
</event>
<event>
 5   0  0.1523811E-02  0.8002606E+03  0.7818609E-02  0.9559640E-01
       -1   -1    0    0    0  501  0.00000000000E+00  0.00000000000E+00  0.33664037163E+03  0.33664037167E+03  0.50400001928E-02 0.  1.
        1   -1    0    0  501    0  0.00000000000E+00  0.00000000000E+00 -0.47559438430E+03  0.47559438433E+03  0.50400001928E-02 0. -1.
    10030    2    1    2    0    0  0.00000000000E+00  0.00000000000E+00 -0.13895401267E+03  0.81223475600E+03  0.80026063330E+03 0.  0.
        1    1    3    3  502    0  0.23429593787E+02 -0.25692409512E+03 -0.37990521602E+03  0.45922424774E+03  0.50400001928E-02 0. -1.
       -1    1    3    3    0  502 -0.23429593787E+02  0.25692409512E+03  0.24095120335E+03  0.35301050826E+03  0.50400001928E-02 0.  1.
</event>
<event>
 5   0  0.2571778E-02  0.7992736E+03  0.7818609E-02  0.9561069E-01
       -2   -1    0    0    0  501  0.00000000000E+00  0.00000000000E+00  0.17448819911E+03  0.17448819912E+03  0.25500000920E-02 0.  1.
        2   -1    0    0  501    0  0.00000000000E+00  0.00000000000E+00 -0.91530297093E+03  0.91530297093E+03  0.25500000920E-02 0. -1.
    10030    2    1    2    0    0  0.00000000000E+00  0.00000000000E+00 -0.74081477182E+03  0.10897911701E+04  0.79927358782E+03 0.  0.
        1    1    3    3  502    0 -0.20094593733E+03  0.28206462536E+03 -0.98497643245E+02  0.36005764589E+03  0.50400001928E-02 0.  1.
       -1    1    3    3    0  502  0.20094593733E+03 -0.28206462536E+03 -0.64231712858E+03  0.72973352417E+03  0.50400001928E-02 0. -1.
</event>
<event>
 5   0  0.2460312E-02  0.7940045E+03  0.7818609E-02  0.9568736E-01
       -2   -1    0    0    0  501  0.00000000000E+00  0.00000000000E+00  0.19331096975E+03  0.19331096977E+03  0.25500000920E-02 0. -1.
        2   -1    0    0  501    0  0.00000000000E+00  0.00000000000E+00 -0.81532257763E+03  0.81532257764E+03  0.25500000920E-02 0.  1.
    10030    2    1    2    0    0  0.00000000000E+00  0.00000000000E+00 -0.62201160788E+03  0.10086335474E+04  0.79400452934E+03 0.  0.
        2    1    3    3  502    0 -0.32535898805E+03  0.15828494855E+03 -0.51856951990E+03  0.63231870368E+03  0.25500000920E-02 0.  1.
       -2    1    3    3    0  502  0.32535898805E+03 -0.15828494855E+03 -0.10344208798E+03  0.37631484373E+03  0.25500000920E-02 0. -1.
</event>
<event>
 5   0  0.1509629E-02  0.7899904E+03  0.7818609E-02  0.9574620E-01
       -1   -1    0    0    0  501  0.00000000000E+00  0.00000000000E+00  0.58056304432E+03  0.58056304434E+03  0.50400001928E-02 0.  1.
        1   -1    0    0  501    0  0.00000000000E+00  0.00000000000E+00 -0.26874117910E+03  0.26874117915E+03  0.50400001928E-02 0. -1.
    10030    2    1    2    0    0  0.00000000000E+00  0.00000000000E+00  0.31182186522E+03  0.84930422349E+03  0.78999037235E+03 0.  0.
        5    1    3    3  502    0  0.26143914428E+03  0.29068730250E+03  0.95576208369E+02  0.40250023056E+03  0.46999998093E+01 0.  1.
       -5    1    3    3    0  502 -0.26143914428E+03 -0.29068730250E+03  0.21624565685E+03  0.44680399293E+03  0.46999998093E+01 0. -1.
</event>
<event>
 5   0  0.1624094E-02  0.7993446E+03  0.7818609E-02  0.9560966E-01
        1   -1    0    0  501    0  0.00000000000E+00  0.00000000000E+00  0.37032209246E+03  0.37032209249E+03  0.50400001928E-02 0. -1.
       -1   -1    0    0    0  501  0.00000000000E+00  0.00000000000E+00 -0.43134865469E+03  0.43134865471E+03  0.50400001928E-02 0.  1.
    10030    2    1    2    0    0  0.00000000000E+00  0.00000000000E+00 -0.61026562226E+02  0.80167074721E+03  0.79934457253E+03 0.  0.
        3    1    3    3  502    0  0.17850174540E+03 -0.34729612429E+03 -0.11596955048E+03  0.40734066566E+03  0.10100000352E+00 0. -1.
       -3    1    3    3    0  502 -0.17850174540E+03  0.34729612429E+03  0.54942988257E+02  0.39433008155E+03  0.10100000352E+00 0.  1.
</event>
<event>
 5   0  0.2464780E-02  0.7838467E+03  0.7818609E-02  0.9583697E-01
        2   -1    0    0  501    0  0.00000000000E+00  0.00000000000E+00  0.29469016617E+03  0.29469016619E+03  0.25500000920E-02 0.  1.
       -2   -1    0    0    0  501  0.00000000000E+00  0.00000000000E+00 -0.52123863224E+03  0.52123863225E+03  0.25500000920E-02 0. -1.
    10030    2    1    2    0    0  0.00000000000E+00  0.00000000000E+00 -0.22654846607E+03  0.81592879844E+03  0.78384666654E+03 0.  0.
        3    1    3    3  502    0 -0.34297030991E+03  0.16188368485E+03 -0.21615746576E+03  0.43653066456E+03  0.10100000352E+00 0. -1.
       -3    1    3    3    0  502  0.34297030991E+03 -0.16188368485E+03 -0.10391000313E+02  0.37939813387E+03  0.10100000352E+00 0.  1.
</event>
<event>
 5   0  0.2454354E-02  0.8073009E+03  0.7818609E-02  0.9549509E-01
        2   -1    0    0  501    0  0.00000000000E+00  0.00000000000E+00  0.11070899601E+03  0.11070899604E+03  0.25500000920E-02 0.  1.
       -2   -1    0    0    0  501  0.00000000000E+00  0.00000000000E+00 -0.14717294563E+04  0.14717294563E+04  0.25500000920E-02 0. -1.
    10030    2    1    2    0    0  0.00000000000E+00  0.00000000000E+00 -0.13610204603E+04  0.15824384524E+04  0.80730091176E+03 0.  0.
        5    1    3    3  502    0  0.86291726143E+02 -0.28457902317E+03 -0.12154582236E+04  0.12513162133E+04  0.46999998093E+01 0. -1.
       -5    1    3    3    0  502 -0.86291726143E+02  0.28457902317E+03 -0.14556223673E+03  0.33112223904E+03  0.46999998093E+01 0.  1.
</event>
<event>
 5   0  0.1509629E-02  0.7861836E+03  0.7818609E-02  0.9580234E-01
       -1   -1    0    0    0  501  0.00000000000E+00  0.00000000000E+00  0.24136253617E+03  0.24136253623E+03  0.50400001928E-02 0. -1.
        1   -1    0    0  501    0  0.00000000000E+00  0.00000000000E+00 -0.64020357742E+03  0.64020357744E+03  0.50400001928E-02 0.  1.
    10030    2    1    2    0    0  0.00000000000E+00  0.00000000000E+00 -0.39884104125E+03  0.88156611366E+03  0.78618358961E+03 0.  0.
        5    1    3    3  502    0 -0.31035726438E+03 -0.15426440379E+03  0.84933272932E+01  0.34671798978E+03  0.46999998093E+01 0. -1.
       -5    1    3    3    0  502  0.31035726438E+03  0.15426440379E+03 -0.40733436854E+03  0.53484812388E+03  0.46999998093E+01 0.  1.
</event>
<event>
 5   0  0.2571778E-02  0.8032899E+03  0.7818609E-02  0.9555267E-01
        2   -1    0    0  501    0  0.00000000000E+00  0.00000000000E+00  0.61804768948E+03  0.61804768949E+03  0.25500000920E-02 0.  1.
       -2   -1    0    0    0  501  0.00000000000E+00  0.00000000000E+00 -0.26101330286E+03  0.26101330288E+03  0.25500000920E-02 0. -1.
    10030    2    1    2    0    0  0.00000000000E+00  0.00000000000E+00  0.35703438662E+03  0.87906099236E+03  0.80328990723E+03 0.  0.
        1    1    3    3  502    0  0.15410907001E+03 -0.62634347577E+02  0.57857678188E+03  0.60201641133E+03  0.50400001928E-02 0.  1.
       -1    1    3    3    0  502 -0.15410907001E+03  0.62634347577E+02 -0.22154239526E+03  0.27704458103E+03  0.50400001928E-02 0. -1.
</event>
<event>
 5   0  0.1498375E-02  0.7997690E+03  0.7818609E-02  0.9560351E-01
        1   -1    0    0  501    0  0.00000000000E+00  0.00000000000E+00  0.83603132015E+03  0.83603132016E+03  0.50400001928E-02 0. -1.
       -1   -1    0    0    0  501  0.00000000000E+00  0.00000000000E+00 -0.19126990621E+03  0.19126990628E+03  0.50400001928E-02 0.  1.
    10030    2    1    2    0    0  0.00000000000E+00  0.00000000000E+00  0.64476141394E+03  0.10273012264E+04  0.79976904725E+03 0.  0.
        4    1    3    3  502    0 -0.16862132107E+03 -0.19337911332E+03 -0.71600802653E+02  0.26637740000E+03  0.12699999809E+01 0.  1.
       -4    1    3    3    0  502  0.16862132107E+03  0.19337911332E+03  0.71636221659E+03  0.76092382644E+03  0.12699999809E+01 0. -1.
</event>
<event>
 5   0  0.2464780E-02  0.8071867E+03  0.7818609E-02  0.9549673E-01
       -2   -1    0    0    0  501  0.00000000000E+00  0.00000000000E+00  0.24884713967E+03  0.24884713968E+03  0.25500000920E-02 0.  1.
        2   -1    0    0  501    0  0.00000000000E+00  0.00000000000E+00 -0.65456884714E+03  0.65456884714E+03  0.25500000920E-02 0. -1.
    10030    2    1    2    0    0  0.00000000000E+00  0.00000000000E+00 -0.40572170747E+03  0.90341598683E+03  0.80718668308E+03 0.  0.
        3    1    3    3  502    0 -0.19349497043E+03  0.33587605039E+03 -0.77057077328E+02  0.39520985334E+03  0.10100000352E+00 0.  1.
       -3    1    3    3    0  502  0.19349497043E+03 -0.33587605039E+03 -0.32866463014E+03  0.50820613349E+03  0.10100000352E+00 0. -1.
</event>
<event>
 5   0  0.2422031E-02  0.7947961E+03  0.7818609E-02  0.9567580E-01
       -2   -1    0    0    0  501  0.00000000000E+00  0.00000000000E+00  0.11719165137E+03  0.11719165140E+03  0.25500000920E-02 0.  1.
        2   -1    0    0  501    0  0.00000000000E+00  0.00000000000E+00 -0.13475808078E+04  0.13475808078E+04  0.25500000920E-02 0. -1.
    10030    2    1    2    0    0  0.00000000000E+00  0.00000000000E+00 -0.12303891564E+04  0.14647724592E+04  0.79479612543E+03 0.  0.
        4    1    3    3  502    0 -0.33308194621E+03  0.92126126012E+02 -0.25361475862E+03  0.42866404639E+03  0.12699999809E+01 0.  1.
       -4    1    3    3    0  502  0.33308194621E+03 -0.92126126012E+02 -0.97677439780E+03  0.10361084128E+04  0.12699999809E+01 0. -1.
</event>
<event>
 5   0  0.2460312E-02  0.8159282E+03  0.7818609E-02  0.9537244E-01
        2   -1    0    0  501    0  0.00000000000E+00  0.00000000000E+00  0.69237212762E+03  0.69237212763E+03  0.25500000920E-02 0. -1.
       -2   -1    0    0    0  501  0.00000000000E+00  0.00000000000E+00 -0.24038329066E+03  0.24038329067E+03  0.25500000920E-02 0.  1.
    10030    2    1    2    0    0  0.00000000000E+00  0.00000000000E+00  0.45198883697E+03  0.93275541830E+03  0.81592815960E+03 0.  0.
        2    1    3    3  502    0 -0.35545541130E+03 -0.10617234275E+03  0.31944069256E+02  0.37234599415E+03  0.25500000920E-02 0.  1.
       -2    1    3    3    0  502  0.35545541130E+03  0.10617234275E+03  0.42004476771E+03  0.56040942415E+03  0.25500000920E-02 0. -1.
</event>
<event>
 5   0  0.2460312E-02  0.5850222E+03  0.7818609E-02  0.9936977E-01
       -2   -1    0    0    0  501  0.00000000000E+00  0.00000000000E+00  0.16805307876E+03  0.16805307878E+03  0.25500000920E-02 0. -1.
        2   -1    0    0  501    0  0.00000000000E+00  0.00000000000E+00 -0.50914125771E+03  0.50914125772E+03  0.25500000920E-02 0.  1.
    10030    2    1    2    0    0  0.00000000000E+00  0.00000000000E+00 -0.34108817895E+03  0.67719433650E+03  0.58502224194E+03 0.  0.
        2    1    3    3  502    0  0.16323286071E+03 -0.23745365628E+03 -0.11227936525E+03  0.30925048354E+03  0.25500000920E-02 0.  1.
       -2    1    3    3    0  502 -0.16323286071E+03  0.23745365628E+03 -0.22880881370E+03  0.36794385296E+03  0.25500000920E-02 0. -1.
</event>
<event>
 5   0  0.2571778E-02  0.7679797E+03  0.7818609E-02  0.9607558E-01
       -2   -1    0    0    0  501  0.00000000000E+00  0.00000000000E+00  0.17478545616E+03  0.17478545617E+03  0.25500000920E-02 0. -1.
        2   -1    0    0  501    0  0.00000000000E+00  0.00000000000E+00 -0.84359539095E+03  0.84359539095E+03  0.25500000920E-02 0.  1.
    10030    2    1    2    0    0  0.00000000000E+00  0.00000000000E+00 -0.66880993479E+03  0.10183808471E+04  0.76797970085E+03 0.  0.
        1    1    3    3  502    0  0.23988957913E+03  0.10163837121E+03  0.39651737513E+02  0.26353297515E+03  0.50400001928E-02 0. -1.
       -1    1    3    3    0  502 -0.23988957913E+03 -0.10163837121E+03 -0.70846167230E+03  0.75484787198E+03  0.50400001928E-02 0.  1.
</event>
<event>
 5   0  0.1509629E-02  0.7942922E+03  0.7818609E-02  0.9568316E-01
       -1   -1    0    0    0  501  0.00000000000E+00  0.00000000000E+00  0.47593082042E+03  0.47593082045E+03  0.50400001928E-02 0. -1.
        1   -1    0    0  501    0  0.00000000000E+00  0.00000000000E+00 -0.33140321774E+03  0.33140321778E+03  0.50400001928E-02 0.  1.
    10030    2    1    2    0    0  0.00000000000E+00  0.00000000000E+00  0.14452760268E+03  0.80733403823E+03  0.79429215113E+03 0.  0.
        5    1    3    3  502    0 -0.24225783521E+03 -0.30959145173E+03  0.12946564490E+03  0.41390719843E+03  0.46999998093E+01 0. -1.
       -5    1    3    3    0  502  0.24225783521E+03  0.30959145173E+03  0.15061957782E+02  0.39342683980E+03  0.46999998093E+01 0.  1.
</event>
<event>
 5   0  0.1523811E-02  0.7905199E+03  0.7818609E-02  0.9573841E-01
       -1   -1    0    0    0  501  0.00000000000E+00  0.00000000000E+00  0.23219008828E+03  0.23219008834E+03  0.50400001928E-02 0. -1.
        1   -1    0    0  501    0  0.00000000000E+00  0.00000000000E+00 -0.67285578157E+03  0.67285578159E+03  0.50400001928E-02 0.  1.
    10030    2    1    2    0    0  0.00000000000E+00  0.00000000000E+00 -0.44066569329E+03  0.90504586993E+03  0.79051993867E+03 0.  0.
        1    1    3    3  502    0  0.31652883641E+03  0.42718098088E+01 -0.49131199172E+03  0.58446233914E+03  0.50400001928E-02 0.  1.
       -1    1    3    3    0  502 -0.31652883641E+03 -0.42718098088E+01  0.50646298436E+02  0.32058353078E+03  0.50400001928E-02 0. -1.
</event>
<event>
 5   0  0.2571778E-02  0.8044156E+03  0.7818609E-02  0.9553648E-01
       -2   -1    0    0    0  501  0.00000000000E+00  0.00000000000E+00  0.13497642761E+03  0.13497642764E+03  0.25500000920E-02 0. -1.
        2   -1    0    0  501    0  0.00000000000E+00  0.00000000000E+00 -0.11985137874E+04  0.11985137874E+04  0.25500000920E-02 0.  1.
    10030    2    1    2    0    0  0.00000000000E+00  0.00000000000E+00 -0.10635373598E+04  0.13334902151E+04  0.80441558784E+03 0.  0.
        1    1    3    3  502    0  0.26204359432E+03  0.27394631351E+03 -0.75453029059E+03  0.84441067464E+03  0.50400001928E-02 0.  1.
       -1    1    3    3    0  502 -0.26204359432E+03 -0.27394631351E+03 -0.30900706923E+03  0.48907954043E+03  0.50400001928E-02 0. -1.
</event>
<event>
 5   0  0.1471290E-02  0.7859485E+03  0.7818609E-02  0.9580582E-01
        1   -1    0    0  501    0  0.00000000000E+00  0.00000000000E+00  0.76822279828E+03  0.76822279830E+03  0.50400001928E-02 0.  1.
       -1   -1    0    0    0  501  0.00000000000E+00  0.00000000000E+00 -0.20102081498E+03  0.20102081504E+03  0.50400001928E-02 0. -1.
    10030    2    1    2    0    0  0.00000000000E+00  0.00000000000E+00  0.56720198330E+03  0.96924361334E+03  0.78594853021E+03 0.  0.
        2    1    3    3  502    0  0.14856852072E+03 -0.25245522747E+03  0.60665281117E+03  0.67367193836E+03  0.25500000920E-02 0.  1.
       -2    1    3    3    0  502 -0.14856852072E+03  0.25245522747E+03 -0.39450827865E+02  0.29557167498E+03  0.25500000920E-02 0. -1.
</event>
<event>
 5   0  0.1624094E-02  0.8067227E+03  0.7818609E-02  0.9550337E-01
        1   -1    0    0  501    0  0.00000000000E+00  0.00000000000E+00  0.94409406846E+03  0.94409406848E+03  0.50400001928E-02 0. -1.
       -1   -1    0    0    0  501  0.00000000000E+00  0.00000000000E+00 -0.17233493335E+03  0.17233493342E+03  0.50400001928E-02 0.  1.
    10030    2    1    2    0    0  0.00000000000E+00  0.00000000000E+00  0.77175913512E+03  0.11164290019E+04  0.80672272414E+03 0.  0.
        3    1    3    3  502    0  0.72080133472E+02  0.37591668211E+02  0.93263955294E+03  0.93617585158E+03  0.10100000352E+00 0. -1.
       -3    1    3    3    0  502 -0.72080133472E+02 -0.37591668211E+02 -0.16088041782E+03  0.18025315032E+03  0.10100000352E+00 0.  1.
</event>
<event>
 5   0  0.1498375E-02  0.8134053E+03  0.7818609E-02  0.9540814E-01
       -1   -1    0    0    0  501  0.00000000000E+00  0.00000000000E+00  0.15434367626E+03  0.15434367635E+03  0.50400001928E-02 0. -1.
        1   -1    0    0  501    0  0.00000000000E+00  0.00000000000E+00 -0.10716802088E+04  0.10716802088E+04  0.50400001928E-02 0.  1.
    10030    2    1    2    0    0  0.00000000000E+00  0.00000000000E+00 -0.91733653251E+03  0.12260238851E+04  0.81340534362E+03 0.  0.
        4    1    3    3  502    0 -0.71730399239E+02  0.36221184528E+03 -0.20171124915E+03  0.42075136597E+03  0.12699999809E+01 0. -1.
       -4    1    3    3    0  502  0.71730399239E+02 -0.36221184528E+03 -0.71562528335E+03  0.80527251915E+03  0.12699999809E+01 0.  1.
</event>
<event>
 5   0  0.2571778E-02  0.8065068E+03  0.7818609E-02  0.9550646E-01
       -2   -1    0    0    0  501  0.00000000000E+00  0.00000000000E+00  0.60850688878E+02  0.60850688931E+02  0.25500000920E-02 0.  1.
        2   -1    0    0  501    0  0.00000000000E+00  0.00000000000E+00 -0.26723327264E+04  0.26723327264E+04  0.25500000920E-02 0. -1.
    10030    2    1    2    0    0  0.00000000000E+00  0.00000000000E+00 -0.26114820375E+04  0.27331834153E+04  0.80650675729E+03 0.  0.
        1    1    3    3  502    0 -0.36159882065E+03  0.16057419484E+03 -0.10415901321E+04  0.11142027565E+04  0.50400001928E-02 0.  1.
       -1    1    3    3    0  502  0.36159882065E+03 -0.16057419484E+03 -0.15698919054E+04  0.16189806589E+04  0.50400001928E-02 0. -1.
</event>
<event>
 5   0  0.1471290E-02  0.7569181E+03  0.7818609E-02  0.9624559E-01
       -1   -1    0    0    0  501  0.00000000000E+00  0.00000000000E+00  0.40604110747E+03  0.40604110750E+03  0.50400001928E-02 0. -1.
        1   -1    0    0  501    0  0.00000000000E+00  0.00000000000E+00 -0.35275062959E+03  0.35275062962E+03  0.50400001928E-02 0.  1.
    10030    2    1    2    0    0  0.00000000000E+00  0.00000000000E+00  0.53290477881E+02  0.75879173712E+03  0.75691811003E+03 0.  0.
        2    1    3    3  502    0  0.18320197583E+03 -0.33614375890E+02  0.35691235678E+03  0.40259076075E+03  0.25500000920E-02 0. -1.
       -2    1    3    3    0  502 -0.18320197583E+03  0.33614375890E+02 -0.30362187890E+03  0.35620097637E+03  0.25500000920E-02 0.  1.
</event>
<event>
 5   0  0.1624094E-02  0.8126558E+03  0.7818609E-02  0.9541877E-01
       -1   -1    0    0    0  501  0.00000000000E+00  0.00000000000E+00  0.79650413724E+02  0.79650413884E+02  0.50400001928E-02 0.  1.
        1   -1    0    0  501    0  0.00000000000E+00  0.00000000000E+00 -0.20728376099E+04  0.20728376099E+04  0.50400001928E-02 0. -1.
    10030    2    1    2    0    0  0.00000000000E+00  0.00000000000E+00 -0.19931871962E+04  0.21524880238E+04  0.81265582725E+03 0.  0.
        3    1    3    3  502    0 -0.37508110588E+02  0.12170023697E+03 -0.20186124732E+04  0.20226255544E+04  0.10100000352E+00 0. -1.
       -3    1    3    3    0  502  0.37508110588E+02 -0.12170023697E+03  0.25425277059E+02  0.12986246938E+03  0.10100000352E+00 0.  1.
</event>
<event>
 5   0  0.1509629E-02  0.8006825E+03  0.7818609E-02  0.9559030E-01
        1   -1    0    0  501    0  0.00000000000E+00  0.00000000000E+00  0.52640762218E+03  0.52640762220E+03  0.50400001928E-02 0. -1.
       -1   -1    0    0    0  501  0.00000000000E+00  0.00000000000E+00 -0.30446579285E+03  0.30446579289E+03  0.50400001928E-02 0.  1.
    10030    2    1    2    0    0  0.00000000000E+00  0.00000000000E+00  0.22194182933E+03  0.83087341509E+03  0.80068249406E+03 0.  0.
        5    1    3    3  502    0 -0.37181071875E+02  0.33665320324E+03  0.33240204509E+03  0.47458510400E+03  0.46999998093E+01 0. -1.
       -5    1    3    3    0  502  0.37181071875E+02 -0.33665320324E+03 -0.11046021576E+03  0.35628831109E+03  0.46999998093E+01 0.  1.
</event>
<event>
 5   0  0.2571778E-02  0.8097292E+03  0.7818609E-02  0.9546040E-01
       -2   -1    0    0    0  501  0.00000000000E+00  0.00000000000E+00  0.23431129944E+03  0.23431129946E+03  0.25500000920E-02 0. -1.
        2   -1    0    0  501    0  0.00000000000E+00  0.00000000000E+00 -0.69956223651E+03  0.69956223652E+03  0.25500000920E-02 0.  1.
    10030    2    1    2    0    0  0.00000000000E+00  0.00000000000E+00 -0.46525093707E+03  0.93387353598E+03  0.80972918112E+03 0.  0.
        1    1    3    3  502    0  0.17096695357E+02 -0.32943789899E+03 -0.50333234555E+03  0.60180152574E+03  0.50400001928E-02 0. -1.
       -1    1    3    3    0  502 -0.17096695357E+02  0.32943789899E+03  0.38081408480E+02  0.33207201023E+03  0.50400001928E-02 0.  1.
</event>
<event>
 5   0  0.9919125E-03  0.7964126E+03  0.7818609E-02  0.9565224E-01
        3   -1    0    0  501    0  0.00000000000E+00  0.00000000000E+00  0.51510481427E+03  0.51510482417E+03  0.10100000352E+00 0. -1.
       -3   -1    0    0    0  501  0.00000000000E+00  0.00000000000E+00 -0.30783687053E+03  0.30783688710E+03  0.10100000352E+00 0.  1.
    10030    2    1    2    0    0  0.00000000000E+00  0.00000000000E+00  0.20726794374E+03  0.82294171127E+03  0.79641261897E+03 0.  0.
        4    1    3    3  502    0 -0.26264710981E+03 -0.29136592394E+03  0.32876355689E+02  0.39364968385E+03  0.12699999809E+01 0.  1.
       -4    1    3    3    0  502  0.26264710981E+03  0.29136592394E+03  0.17439158805E+03  0.42929202743E+03  0.12699999809E+01 0. -1.
</event>
<event>
 5   0  0.1509629E-02  0.7052762E+03  0.7818609E-02  0.9708252E-01
       -1   -1    0    0    0  501  0.00000000000E+00  0.00000000000E+00  0.27926832750E+03  0.27926832755E+03  0.50400001928E-02 0.  1.
        1   -1    0    0  501    0  0.00000000000E+00  0.00000000000E+00 -0.44528367873E+03  0.44528367876E+03  0.50400001928E-02 0. -1.
    10030    2    1    2    0    0  0.00000000000E+00  0.00000000000E+00 -0.16601535123E+03  0.72455200631E+03  0.70527619625E+03 0.  0.
        5    1    3    3  502    0 -0.30961548253E+03  0.73214537061E+02 -0.23918029203E+03  0.39805956533E+03  0.46999998093E+01 0. -1.
       -5    1    3    3    0  502  0.30961548253E+03 -0.73214537061E+02  0.73164940799E+02  0.32649244098E+03  0.46999998093E+01 0.  1.
</event>
<event>
 5   0  0.9919125E-03  0.7969611E+03  0.7818609E-02  0.9564426E-01
        3   -1    0    0  501    0  0.00000000000E+00  0.00000000000E+00  0.42907685346E+03  0.42907686535E+03  0.10100000352E+00 0. -1.
       -3   -1    0    0    0  501  0.00000000000E+00  0.00000000000E+00 -0.37006595248E+03  0.37006596627E+03  0.10100000352E+00 0.  1.
    10030    2    1    2    0    0  0.00000000000E+00  0.00000000000E+00  0.59010900977E+02  0.79914283161E+03  0.79696108994E+03 0.  0.
        5    1    3    3  502    0  0.25430240157E+03  0.11419021318E+03  0.31498738926E+03  0.42065218604E+03  0.46999998093E+01 0. -1.
       -5    1    3    3    0  502 -0.25430240157E+03 -0.11419021318E+03 -0.25597648829E+03  0.37849064557E+03  0.46999998093E+01 0.  1.
</event>
<event>
 5   0  0.2460312E-02  0.7855959E+03  0.7818609E-02  0.9581104E-01
       -2   -1    0    0    0  501  0.00000000000E+00  0.00000000000E+00  0.36098971361E+03  0.36098971362E+03  0.25500000920E-02 0. -1.
        2   -1    0    0  501    0  0.00000000000E+00  0.00000000000E+00 -0.42740888765E+03  0.42740888765E+03  0.25500000920E-02 0.  1.
    10030    2    1    2    0    0  0.00000000000E+00  0.00000000000E+00 -0.66419174039E+02  0.78839860127E+03  0.78559585526E+03 0.  0.
        2    1    3    3  502    0 -0.19290820528E+03 -0.19384288166E+03 -0.31617576173E+03  0.41803797764E+03  0.25500000920E-02 0.  1.
       -2    1    3    3    0  502  0.19290820528E+03  0.19384288166E+03  0.24975658769E+03  0.37036062363E+03  0.25500000920E-02 0. -1.
</event>
<event>
 5   0  0.1471290E-02  0.8233063E+03  0.7818609E-02  0.9526882E-01
       -1   -1    0    0    0  501  0.00000000000E+00  0.00000000000E+00  0.34581831887E+03  0.34581831890E+03  0.50400001928E-02 0.  1.
        1   -1    0    0  501    0  0.00000000000E+00  0.00000000000E+00 -0.49002119146E+03  0.49002119149E+03  0.50400001928E-02 0. -1.
    10030    2    1    2    0    0  0.00000000000E+00  0.00000000000E+00 -0.14420287260E+03  0.83583951039E+03  0.82330627270E+03 0.  0.
        2    1    3    3  502    0  0.22430110548E+03 -0.25775091163E+03  0.16098410759E+03  0.37770676625E+03  0.25500000920E-02 0.  1.
       -2    1    3    3    0  502 -0.22430110548E+03  0.25775091163E+03 -0.30518698019E+03  0.45813274414E+03  0.25500000920E-02 0. -1.
</event>
<event>
 5   0  0.2454354E-02  0.7950773E+03  0.7818609E-02  0.9567170E-01
        2   -1    0    0  501    0  0.00000000000E+00  0.00000000000E+00  0.12422140267E+04  0.12422140267E+04  0.25500000920E-02 0.  1.
       -2   -1    0    0    0  501  0.00000000000E+00  0.00000000000E+00 -0.12722202276E+03  0.12722202279E+03  0.25500000920E-02 0. -1.
    10030    2    1    2    0    0  0.00000000000E+00  0.00000000000E+00  0.11149920039E+04  0.13694360495E+04  0.79507730743E+03 0.  0.
        5    1    3    3  502    0  0.29939331783E+03  0.14979505504E+02  0.10784191953E+03  0.31861059925E+03  0.46999998093E+01 0. -1.
       -5    1    3    3    0  502 -0.29939331783E+03 -0.14979505504E+02  0.10071500844E+04  0.10508254502E+04  0.46999998093E+01 0.  1.
</event>
<event>
 5   0  0.2422031E-02  0.8065173E+03  0.7818609E-02  0.9550631E-01
       -2   -1    0    0    0  501  0.00000000000E+00  0.00000000000E+00  0.18572484816E+03  0.18572484818E+03  0.25500000920E-02 0. -1.
        2   -1    0    0  501    0  0.00000000000E+00  0.00000000000E+00 -0.87558310865E+03  0.87558310865E+03  0.25500000920E-02 0.  1.
    10030    2    1    2    0    0  0.00000000000E+00  0.00000000000E+00 -0.68985826049E+03  0.10613079568E+04  0.80651730278E+03 0.  0.
        4    1    3    3  502    0  0.34093599996E+03 -0.18549641472E+03 -0.20096029981E+03  0.43707314141E+03  0.12699999809E+01 0. -1.
       -4    1    3    3    0  502 -0.34093599996E+03  0.18549641472E+03 -0.48889796067E+03  0.62423481542E+03  0.12699999809E+01 0.  1.
</event>
<event>
 5   0  0.2422031E-02  0.8286655E+03  0.7818609E-02  0.9519427E-01
        2   -1    0    0  501    0  0.00000000000E+00  0.00000000000E+00  0.13961486211E+04  0.13961486211E+04  0.25500000920E-02 0.  1.
       -2   -1    0    0    0  501  0.00000000000E+00  0.00000000000E+00 -0.12296085353E+03  0.12296085356E+03  0.25500000920E-02 0. -1.
    10030    2    1    2    0    0  0.00000000000E+00  0.00000000000E+00  0.12731877676E+04  0.15191094746E+04  0.82866549615E+03 0.  0.
        4    1    3    3  502    0 -0.29416267243E+03 -0.12426241289E+03  0.11205627729E+04  0.11651761094E+04  0.12699999809E+01 0.  1.
       -4    1    3    3    0  502  0.29416267243E+03  0.12426241289E+03  0.15262499465E+03  0.35393336520E+03  0.12699999809E+01 0. -1.
</event>
<event>
 5   0  0.1509629E-02  0.7987803E+03  0.7818609E-02  0.9561784E-01
       -1   -1    0    0    0  501  0.00000000000E+00  0.00000000000E+00  0.24462137101E+03  0.24462137106E+03  0.50400001928E-02 0. -1.
        1   -1    0    0  501    0  0.00000000000E+00  0.00000000000E+00 -0.65207913879E+03  0.65207913881E+03  0.50400001928E-02 0.  1.
    10030    2    1    2    0    0  0.00000000000E+00  0.00000000000E+00 -0.40745776778E+03  0.89670050988E+03  0.79878030264E+03 0.  0.
        5    1    3    3  502    0 -0.22430055372E+03 -0.19075251362E+03  0.99147426296E+02  0.31072425395E+03  0.46999998093E+01 0. -1.
       -5    1    3    3    0  502  0.22430055372E+03  0.19075251362E+03 -0.50660519408E+03  0.58597625593E+03  0.46999998093E+01 0.  1.
</event>
<event>
 5   0  0.1509629E-02  0.8001257E+03  0.7818609E-02  0.9559835E-01
        1   -1    0    0  501    0  0.00000000000E+00  0.00000000000E+00  0.15110146003E+03  0.15110146012E+03  0.50400001928E-02 0.  1.
       -1   -1    0    0    0  501  0.00000000000E+00  0.00000000000E+00 -0.10592239697E+04  0.10592239698E+04  0.50400001928E-02 0. -1.
    10030    2    1    2    0    0  0.00000000000E+00  0.00000000000E+00 -0.90812250971E+03  0.12103254299E+04  0.80012571109E+03 0.  0.
        5    1    3    3  502    0 -0.28588237756E+03 -0.17356749812E+03 -0.12205265630E+03  0.35605245556E+03  0.46999998093E+01 0.  1.
       -5    1    3    3    0  502  0.28588237756E+03  0.17356749812E+03 -0.78606985340E+03  0.85427297430E+03  0.46999998093E+01 0. -1.
</event>
<event>
 5   0  0.1509629E-02  0.8037449E+03  0.7818609E-02  0.9554612E-01
       -1   -1    0    0    0  501  0.00000000000E+00  0.00000000000E+00  0.18800719609E+03  0.18800719616E+03  0.50400001928E-02 0. -1.
        1   -1    0    0  501    0  0.00000000000E+00  0.00000000000E+00 -0.85901752591E+03  0.85901752592E+03  0.50400001928E-02 0.  1.
    10030    2    1    2    0    0  0.00000000000E+00  0.00000000000E+00 -0.67101032982E+03  0.10470247221E+04  0.80374492591E+03 0.  0.
        5    1    3    3  502    0 -0.13464789146E+03 -0.35539204712E+03 -0.50558299266E+03  0.63251072267E+03  0.46999998093E+01 0. -1.
       -5    1    3    3    0  502  0.13464789146E+03  0.35539204712E+03 -0.16542733715E+03  0.41451399941E+03  0.46999998093E+01 0.  1.
</event>
<event>
 5   0  0.2422031E-02  0.7997450E+03  0.7818609E-02  0.9560386E-01
       -2   -1    0    0    0  501  0.00000000000E+00  0.00000000000E+00  0.90912479670E+02  0.90912479706E+02  0.25500000920E-02 0. -1.
        2   -1    0    0  501    0  0.00000000000E+00  0.00000000000E+00 -0.17588126303E+04  0.17588126303E+04  0.25500000920E-02 0.  1.
    10030    2    1    2    0    0  0.00000000000E+00  0.00000000000E+00 -0.16679001506E+04  0.18497251100E+04  0.79974500318E+03 0.  0.
        4    1    3    3  502    0 -0.23544179350E+03 -0.27905304263E+03 -0.45677842225E+03  0.58476625985E+03  0.12699999809E+01 0.  1.
       -4    1    3    3    0  502  0.23544179350E+03  0.27905304263E+03 -0.12111217284E+04  0.12649588501E+04  0.12699999809E+01 0. -1.
</event>
<event>
 5   0  0.2454354E-02  0.8265051E+03  0.7818609E-02  0.9522425E-01
       -2   -1    0    0    0  501  0.00000000000E+00  0.00000000000E+00  0.18541876642E+03  0.18541876643E+03  0.25500000920E-02 0. -1.
        2   -1    0    0  501    0  0.00000000000E+00  0.00000000000E+00 -0.92103773495E+03  0.92103773495E+03  0.25500000920E-02 0.  1.
    10030    2    1    2    0    0  0.00000000000E+00  0.00000000000E+00 -0.73561896853E+03  0.11064565014E+04  0.82650512557E+03 0.  0.
        5    1    3    3  502    0 -0.27797329597E+03 -0.24768537817E+03 -0.60780374588E+03  0.71278656226E+03  0.46999998093E+01 0.  1.
       -5    1    3    3    0  502  0.27797329597E+03  0.24768537817E+03 -0.12781522265E+03  0.39366993913E+03  0.46999998093E+01 0. -1.
</event>
<event>
 5   0  0.1624094E-02  0.7912021E+03  0.7818609E-02  0.9572840E-01
        1   -1    0    0  501    0  0.00000000000E+00  0.00000000000E+00  0.50520271827E+03  0.50520271830E+03  0.50400001928E-02 0. -1.
       -1   -1    0    0    0  501  0.00000000000E+00  0.00000000000E+00 -0.30977698435E+03  0.30977698439E+03  0.50400001928E-02 0.  1.
    10030    2    1    2    0    0  0.00000000000E+00  0.00000000000E+00  0.19542573392E+03  0.81497970269E+03  0.79120205910E+03 0.  0.
        3    1    3    3  502    0  0.30753253286E+03 -0.36102482739E+02  0.35132451687E+03  0.46830393377E+03  0.10100000352E+00 0. -1.
       -3    1    3    3    0  502 -0.30753253286E+03  0.36102482739E+02 -0.15589878295E+03  0.34667576892E+03  0.10100000352E+00 0.  1.
</event>
<event>
 5   0  0.2422031E-02  0.8011480E+03  0.7818609E-02  0.9558357E-01
       -2   -1    0    0    0  501  0.00000000000E+00  0.00000000000E+00  0.14490703270E+03  0.14490703273E+03  0.25500000920E-02 0. -1.
        2   -1    0    0  501    0  0.00000000000E+00  0.00000000000E+00 -0.11073274247E+04  0.11073274247E+04  0.25500000920E-02 0.  1.
    10030    2    1    2    0    0  0.00000000000E+00  0.00000000000E+00 -0.96242039200E+03  0.12522344574E+04  0.80114800471E+03 0.  0.
        4    1    3    3  502    0 -0.21103134931E+03  0.33972427289E+03 -0.44587328448E+03  0.59895860516E+03  0.12699999809E+01 0.  1.
       -4    1    3    3    0  502  0.21103134931E+03 -0.33972427289E+03 -0.51654710752E+03  0.65327585228E+03  0.12699999809E+01 0. -1.
</event>
<event>
 5   0  0.2571778E-02  0.8419459E+03  0.7818609E-02  0.9501211E-01
        2   -1    0    0  501    0  0.00000000000E+00  0.00000000000E+00  0.14328187082E+04  0.14328187082E+04  0.25500000920E-02 0. -1.
       -2   -1    0    0    0  501  0.00000000000E+00  0.00000000000E+00 -0.12368502820E+03  0.12368502823E+03  0.25500000920E-02 0.  1.
    10030    2    1    2    0    0  0.00000000000E+00  0.00000000000E+00  0.13091336800E+04  0.15565037365E+04  0.84194589460E+03 0.  0.
        1    1    3    3  502    0  0.41509546229E+03  0.14189635634E+02  0.78147742002E+03  0.88499296416E+03  0.50400001928E-02 0. -1.
       -1    1    3    3    0  502 -0.41509546229E+03 -0.14189635634E+02  0.52765626000E+03  0.67151077230E+03  0.50400001928E-02 0.  1.
</event>
<event>
 5   0  0.9919125E-03  0.8040088E+03  0.7818609E-02  0.9554233E-01
        3   -1    0    0  501    0  0.00000000000E+00  0.00000000000E+00  0.62546794464E+02  0.62546876011E+02  0.10100000352E+00 0. -1.
       -3   -1    0    0    0  501  0.00000000000E+00  0.00000000000E+00 -0.25837845014E+04  0.25837845033E+04  0.10100000352E+00 0.  1.
    10030    2    1    2    0    0  0.00000000000E+00  0.00000000000E+00 -0.25212377069E+04  0.26463313793E+04  0.80400882746E+03 0.  0.
        5    1    3    3  502    0  0.32310973487E+03  0.15654360096E+03 -0.18556259792E+04  0.18900464716E+04  0.46999998093E+01 0.  1.
       -5    1    3    3    0  502 -0.32310973487E+03 -0.15654360096E+03 -0.66561172765E+03  0.75628490779E+03  0.46999998093E+01 0. -1.
</event>
<event>
 5   0  0.1523811E-02  0.8159148E+03  0.7818609E-02  0.9537263E-01
       -1   -1    0    0    0  501  0.00000000000E+00  0.00000000000E+00  0.14150907169E+03  0.14150907178E+03  0.50400001928E-02 0.  1.
        1   -1    0    0  501    0  0.00000000000E+00  0.00000000000E+00 -0.11761030579E+04  0.11761030579E+04  0.50400001928E-02 0. -1.
    10030    2    1    2    0    0  0.00000000000E+00  0.00000000000E+00 -0.10345939862E+04  0.13176121297E+04  0.81591482889E+03 0.  0.
        1    1    3    3  502    0  0.27061754907E+03 -0.24975708725E+03 -0.80078616009E+03  0.88140282204E+03  0.50400001928E-02 0.  1.
       -1    1    3    3    0  502 -0.27061754907E+03  0.24975708725E+03 -0.23380782611E+03  0.43620930764E+03  0.50400001928E-02 0. -1.
</event>
<event>
 5   0  0.2464780E-02  0.8014292E+03  0.7818609E-02  0.9557951E-01
       -2   -1    0    0    0  501  0.00000000000E+00  0.00000000000E+00  0.99236301669E+02  0.99236301702E+02  0.25500000920E-02 0. -1.
        2   -1    0    0  501    0  0.00000000000E+00  0.00000000000E+00 -0.16180792942E+04  0.16180792942E+04  0.25500000920E-02 0.  1.
    10030    2    1    2    0    0  0.00000000000E+00  0.00000000000E+00 -0.15188429925E+04  0.17173155959E+04  0.80142923579E+03 0.  0.
        3    1    3    3  502    0  0.98741201684E+02  0.96347608649E+02 -0.15655861895E+04  0.15716528922E+04  0.10100000352E+00 0.  1.
       -3    1    3    3    0  502 -0.98741201684E+02 -0.96347608649E+02  0.46743196929E+02  0.14566270375E+03  0.10100000352E+00 0. -1.
</event>
<event>
 5   0  0.1624094E-02  0.8019747E+03  0.7818609E-02  0.9557163E-01
       -1   -1    0    0    0  501  0.00000000000E+00  0.00000000000E+00  0.15236860398E+04  0.15236860398E+04  0.50400001928E-02 0.  1.
        1   -1    0    0  501    0  0.00000000000E+00  0.00000000000E+00 -0.10552754648E+03  0.10552754660E+03  0.50400001928E-02 0. -1.
    10030    2    1    2    0    0  0.00000000000E+00  0.00000000000E+00  0.14181584933E+04  0.16292135864E+04  0.80197468663E+03 0.  0.
        3    1    3    3  502    0  0.74993984310E+02 -0.14826710583E+03  0.14504624608E+04  0.14599481473E+04  0.10100000352E+00 0.  1.
       -3    1    3    3    0  502 -0.74993984310E+02  0.14826710583E+03 -0.32303967520E+02  0.16926543910E+03  0.10100000352E+00 0. -1.
</event>
<event>
 5   0  0.1509629E-02  0.8087501E+03  0.7818609E-02  0.9547437E-01
        1   -1    0    0  501    0  0.00000000000E+00  0.00000000000E+00  0.44778425913E+03  0.44778425916E+03  0.50400001928E-02 0.  1.
       -1   -1    0    0    0  501  0.00000000000E+00  0.00000000000E+00 -0.36517401813E+03  0.36517401816E+03  0.50400001928E-02 0. -1.
    10030    2    1    2    0    0  0.00000000000E+00  0.00000000000E+00  0.82610241003E+02  0.81295827732E+03  0.80875009041E+03 0.  0.
        5    1    3    3  502    0  0.21080068496E+03 -0.11254270751E+03  0.36918373446E+03  0.43979712320E+03  0.46999998093E+01 0.  1.
       -5    1    3    3    0  502 -0.21080068496E+03  0.11254270751E+03 -0.28657349345E+03  0.37316115412E+03  0.46999998093E+01 0. -1.
</event>
<event>
 5   0  0.9919125E-03  0.7959721E+03  0.7818609E-02  0.9565866E-01
        3   -1    0    0  501    0  0.00000000000E+00  0.00000000000E+00  0.11087847783E+04  0.11087847829E+04  0.10100000352E+00 0. -1.
       -3   -1    0    0    0  501  0.00000000000E+00  0.00000000000E+00 -0.14285268515E+03  0.14285272085E+03  0.10100000352E+00 0.  1.
    10030    2    1    2    0    0  0.00000000000E+00  0.00000000000E+00  0.96593209317E+03  0.12516375038E+04  0.79597213030E+03 0.  0.
        3    1    3    3  502    0 -0.20851761751E+01  0.37898803680E+03  0.29194812236E+03  0.47840359149E+03  0.10100000352E+00 0.  1.
       -3    1    3    3    0  502  0.20851761751E+01 -0.37898803680E+03  0.67398397081E+03  0.77323391228E+03  0.10100000352E+00 0. -1.
</event>
<event>
 5   0  0.1523811E-02  0.8307930E+03  0.7818609E-02  0.9516485E-01
        1   -1    0    0  501    0  0.00000000000E+00  0.00000000000E+00  0.80183292969E+03  0.80183292970E+03  0.50400001928E-02 0. -1.
       -1   -1    0    0    0  501  0.00000000000E+00  0.00000000000E+00 -0.21519974900E+03  0.21519974906E+03  0.50400001928E-02 0.  1.
    10030    2    1    2    0    0  0.00000000000E+00  0.00000000000E+00  0.58663318068E+03  0.10170326788E+04  0.83079298324E+03 0.  0.
        1    1    3    3  502    0  0.35204890768E+03  0.11109441125E+03  0.52646844577E+03  0.64300033128E+03  0.50400001928E-02 0. -1.
       -1    1    3    3    0  502 -0.35204890768E+03 -0.11109441125E+03  0.60164734910E+02  0.37403234748E+03  0.50400001928E-02 0.  1.
</event>
<event>
 5   0  0.1523811E-02  0.7932293E+03  0.7818609E-02  0.9569869E-01
        1   -1    0    0  501    0  0.00000000000E+00  0.00000000000E+00  0.32937509189E+03  0.32937509193E+03  0.50400001928E-02 0.  1.
       -1   -1    0    0    0  501  0.00000000000E+00  0.00000000000E+00 -0.47758065407E+03  0.47758065410E+03  0.50400001928E-02 0. -1.
    10030    2    1    2    0    0  0.00000000000E+00  0.00000000000E+00 -0.14820556218E+03  0.80695574602E+03  0.79322927794E+03 0.  0.
        1    1    3    3  502    0 -0.20577248292E+03  0.26211891475E+03 -0.29289311276E+03  0.44366092427E+03  0.50400001928E-02 0. -1.
       -1    1    3    3    0  502  0.20577248292E+03 -0.26211891475E+03  0.14468755058E+03  0.36329482175E+03  0.50400001928E-02 0.  1.
</event>
<event>
 5   0  0.9919125E-03  0.7963592E+03  0.7818609E-02  0.9565302E-01
       -3   -1    0    0    0  501  0.00000000000E+00  0.00000000000E+00  0.20549438565E+03  0.20549441047E+03  0.10100000352E+00 0. -1.
        3   -1    0    0  501    0  0.00000000000E+00  0.00000000000E+00 -0.77153928611E+03  0.77153929272E+03  0.10100000352E+00 0.  1.
    10030    2    1    2    0    0  0.00000000000E+00  0.00000000000E+00 -0.56604490046E+03  0.97703370319E+03  0.79635923290E+03 0.  0.
        3    1    3    3  502    0 -0.24854717572E+03  0.30718908257E+03 -0.34320399008E+03  0.52338305285E+03  0.10100000352E+00 0.  1.
       -3    1    3    3    0  502  0.24854717572E+03 -0.30718908257E+03 -0.22284091039E+03  0.45365065034E+03  0.10100000352E+00 0. -1.
</event>
<event>
 5   0  0.2464780E-02  0.8029604E+03  0.7818609E-02  0.9555742E-01
        2   -1    0    0  501    0  0.00000000000E+00  0.00000000000E+00  0.18427709964E+04  0.18427709964E+04  0.25500000920E-02 0.  1.
       -2   -1    0    0    0  501  0.00000000000E+00  0.00000000000E+00 -0.87469561085E+02  0.87469561122E+02  0.25500000920E-02 0. -1.
    10030    2    1    2    0    0  0.00000000000E+00  0.00000000000E+00  0.17553014353E+04  0.19302405575E+04  0.80296044803E+03 0.  0.
        3    1    3    3  502    0  0.62073334794E+02  0.30582112832E+03  0.14848768041E+04  0.15173130182E+04  0.10100000352E+00 0.  1.
       -3    1    3    3    0  502 -0.62073334794E+02 -0.30582112832E+03  0.27042463120E+03  0.41292753938E+03  0.10100000352E+00 0. -1.
</event>
<event>
 5   0  0.1523811E-02  0.7148961E+03  0.7818609E-02  0.9692092E-01
       -1   -1    0    0    0  501  0.00000000000E+00  0.00000000000E+00  0.73604735105E+02  0.73604735278E+02  0.50400001928E-02 0. -1.
        1   -1    0    0  501    0  0.00000000000E+00  0.00000000000E+00 -0.17358814712E+04  0.17358814712E+04  0.50400001928E-02 0.  1.
    10030    2    1    2    0    0  0.00000000000E+00  0.00000000000E+00 -0.16622767361E+04  0.18094862065E+04  0.71489606525E+03 0.  0.
        1    1    3    3  502    0 -0.13422704942E+03  0.24860422073E+03 -0.27689789423E+03  0.39559247113E+03  0.50400001928E-02 0. -1.
       -1    1    3    3    0  502  0.13422704942E+03 -0.24860422073E+03 -0.13853788419E+04  0.14138937354E+04  0.50400001928E-02 0.  1.
</event>
<event>
 5   0  0.1471290E-02  0.8114459E+03  0.7818609E-02  0.9543596E-01
       -1   -1    0    0    0  501  0.00000000000E+00  0.00000000000E+00  0.45959831124E+03  0.45959831127E+03  0.50400001928E-02 0.  1.
        1   -1    0    0  501    0  0.00000000000E+00  0.00000000000E+00 -0.35816302710E+03  0.35816302713E+03  0.50400001928E-02 0. -1.
    10030    2    1    2    0    0  0.00000000000E+00  0.00000000000E+00  0.10143528414E+03  0.81776133841E+03  0.81144592532E+03 0.  0.
        2    1    3    3  502    0 -0.76640949474E+02  0.10735884262E+03 -0.33594985057E+03  0.36091835411E+03  0.25500000920E-02 0. -1.
       -2    1    3    3    0  502  0.76640949474E+02 -0.10735884262E+03  0.43738513472E+03  0.45684298430E+03  0.25500000920E-02 0.  1.
</event>
<event>
 5   0  0.1624094E-02  0.7881492E+03  0.7818609E-02  0.9577331E-01
       -1   -1    0    0    0  501  0.00000000000E+00  0.00000000000E+00  0.14330208915E+03  0.14330208924E+03  0.50400001928E-02 0.  1.
        1   -1    0    0  501    0  0.00000000000E+00  0.00000000000E+00 -0.10836882613E+04  0.10836882613E+04  0.50400001928E-02 0. -1.
    10030    2    1    2    0    0  0.00000000000E+00  0.00000000000E+00 -0.94038617213E+03  0.12269903505E+04  0.78814920389E+03 0.  0.
        3    1    3    3  502    0 -0.34392597504E+03  0.19234426848E+03 -0.46449686546E+03  0.60912949539E+03  0.10100000352E+00 0.  1.
       -3    1    3    3    0  502  0.34392597504E+03 -0.19234426848E+03 -0.47588930667E+03  0.61786085515E+03  0.10100000352E+00 0. -1.
</event>
<event>
 5   0  0.2422031E-02  0.8083976E+03  0.7818609E-02  0.9547941E-01
        2   -1    0    0  501    0  0.00000000000E+00  0.00000000000E+00  0.15644965226E+04  0.15644965226E+04  0.25500000920E-02 0. -1.
       -2   -1    0    0    0  501  0.00000000000E+00  0.00000000000E+00 -0.10442764405E+03  0.10442764408E+03  0.25500000920E-02 0.  1.
    10030    2    1    2    0    0  0.00000000000E+00  0.00000000000E+00  0.14600688785E+04  0.16689241666E+04  0.80839763977E+03 0.  0.
        4    1    3    3  502    0 -0.13065767983E+03 -0.31567435957E+02 -0.56929885773E+02  0.14598135876E+03  0.12699999809E+01 0.  1.
       -4    1    3    3    0  502  0.13065767983E+03  0.31567435957E+02  0.15169987643E+04  0.15229428079E+04  0.12699999809E+01 0. -1.
</event>
<event>
 5   0  0.2464780E-02  0.8051315E+03  0.7818609E-02  0.9552619E-01
       -2   -1    0    0    0  501  0.00000000000E+00  0.00000000000E+00  0.10200533924E+03  0.10200533927E+03  0.25500000920E-02 0. -1.
        2   -1    0    0  501    0  0.00000000000E+00  0.00000000000E+00 -0.15887322689E+04  0.15887322689E+04  0.25500000920E-02 0.  1.
    10030    2    1    2    0    0  0.00000000000E+00  0.00000000000E+00 -0.14867269297E+04  0.16907376082E+04  0.80513147765E+03 0.  0.
        3    1    3    3  502    0  0.28883427131E+03  0.41537350634E+02 -0.13257305113E+04  0.13574652800E+04  0.10100000352E+00 0.  1.
       -3    1    3    3    0  502 -0.28883427131E+03 -0.41537350634E+02 -0.16099641845E+03  0.33327232819E+03  0.10100000352E+00 0. -1.
</event>
<event>
 5   0  0.1498375E-02  0.8144215E+03  0.7818609E-02  0.9539374E-01
        1   -1    0    0  501    0  0.00000000000E+00  0.00000000000E+00  0.52849775534E+03  0.52849775537E+03  0.50400001928E-02 0. -1.
       -1   -1    0    0    0  501  0.00000000000E+00  0.00000000000E+00 -0.31375833871E+03  0.31375833875E+03  0.50400001928E-02 0.  1.
    10030    2    1    2    0    0  0.00000000000E+00  0.00000000000E+00  0.21473941663E+03  0.84225609412E+03  0.81442145786E+03 0.  0.
        4    1    3    3  502    0 -0.37619259246E+03 -0.15092750852E+03  0.67063517653E+02  0.41085168583E+03  0.12699999809E+01 0. -1.
       -4    1    3    3    0  502  0.37619259246E+03  0.15092750852E+03  0.14767589898E+03  0.43140440829E+03  0.12699999809E+01 0.  1.
</event>
<event>
 5   0  0.1471290E-02  0.8305159E+03  0.7818609E-02  0.9516868E-01
       -1   -1    0    0    0  501  0.00000000000E+00  0.00000000000E+00  0.29793545437E+03  0.29793545442E+03  0.50400001928E-02 0.  1.
        1   -1    0    0  501    0  0.00000000000E+00  0.00000000000E+00 -0.57878026953E+03  0.57878026956E+03  0.50400001928E-02 0. -1.
    10030    2    1    2    0    0  0.00000000000E+00  0.00000000000E+00 -0.28084481516E+03  0.87671572397E+03  0.83051589416E+03 0.  0.
        2    1    3    3  502    0 -0.23858117788E+03  0.13236549019E+03 -0.47088209013E+03  0.54421644981E+03  0.25500000920E-02 0. -1.
       -2    1    3    3    0  502  0.23858117788E+03 -0.13236549019E+03  0.19003727497E+03  0.33249927416E+03  0.25500000920E-02 0.  1.
</event>
<event>
 5   0  0.1471290E-02  0.8365172E+03  0.7818609E-02  0.9508614E-01
        1   -1    0    0  501    0  0.00000000000E+00  0.00000000000E+00  0.10423890853E+04  0.10423890853E+04  0.50400001928E-02 0.  1.
       -1   -1    0    0    0  501  0.00000000000E+00  0.00000000000E+00 -0.16782624620E+03  0.16782624628E+03  0.50400001928E-02 0. -1.
    10030    2    1    2    0    0  0.00000000000E+00  0.00000000000E+00  0.87456283908E+03  0.12102153316E+04  0.83651717811E+03 0.  0.
        2    1    3    3  502    0 -0.39836581468E+03 -0.12688245672E+03  0.45474839317E+03  0.61773018481E+03  0.25500000920E-02 0. -1.
       -2    1    3    3    0  502  0.39836581468E+03  0.12688245672E+03  0.41981444591E+03  0.59248514676E+03  0.25500000920E-02 0.  1.
</event>
<event>
 5   0  0.1523811E-02  0.7962876E+03  0.7818609E-02  0.9565406E-01
       -1   -1    0    0    0  501  0.00000000000E+00  0.00000000000E+00  0.18082050001E+03  0.18082050008E+03  0.50400001928E-02 0. -1.
        1   -1    0    0  501    0  0.00000000000E+00  0.00000000000E+00 -0.87666215911E+03  0.87666215913E+03  0.50400001928E-02 0.  1.
    10030    2    1    2    0    0  0.00000000000E+00  0.00000000000E+00 -0.69584165910E+03  0.10574826592E+04  0.79628761135E+03 0.  0.
        1    1    3    3  502    0  0.28665717064E+03  0.27624017192E+03 -0.33978583383E+03  0.52338836342E+03  0.50400001928E-02 0.  1.
       -1    1    3    3    0  502 -0.28665717064E+03 -0.27624017192E+03 -0.35605582527E+03  0.53409429579E+03  0.50400001928E-02 0. -1.
</event>
<event>
 5   0  0.9919125E-03  0.8082780E+03  0.7818609E-02  0.9548112E-01
       -3   -1    0    0    0  501  0.00000000000E+00  0.00000000000E+00  0.87119368743E+03  0.87119369329E+03  0.10100000352E+00 0. -1.
        3   -1    0    0  501    0  0.00000000000E+00  0.00000000000E+00 -0.18747648825E+03  0.18747651546E+03  0.10100000352E+00 0.  1.
    10030    2    1    2    0    0  0.00000000000E+00  0.00000000000E+00  0.68371719918E+03  0.10586702087E+04  0.80827804773E+03 0.  0.
        2    1    3    3  502    0  0.28581836980E+03  0.48303451403E+02  0.71070426167E+03  0.76754538074E+03  0.25500000920E-02 0. -1.
       -2    1    3    3    0  502 -0.28581836980E+03 -0.48303451403E+02 -0.26987062487E+02  0.29112482801E+03  0.25500000920E-02 0.  1.
</event>
<event>
 5   0  0.1498375E-02  0.8030869E+03  0.7818609E-02  0.9555560E-01
       -1   -1    0    0    0  501  0.00000000000E+00  0.00000000000E+00  0.33876612699E+03  0.33876612703E+03  0.50400001928E-02 0. -1.
        1   -1    0    0  501    0  0.00000000000E+00  0.00000000000E+00 -0.47595409486E+03  0.47595409488E+03  0.50400001928E-02 0.  1.
    10030    2    1    2    0    0  0.00000000000E+00  0.00000000000E+00 -0.13718796787E+03  0.81472022191E+03  0.80308685798E+03 0.  0.
        4    1    3    3  502    0  0.89924784596E+02 -0.53657915678E+02  0.32466797442E+03  0.34114006700E+03  0.12699999809E+01 0. -1.
       -4    1    3    3    0  502 -0.89924784596E+02  0.53657915678E+02 -0.46185594229E+03  0.47358015491E+03  0.12699999809E+01 0.  1.
</event>
<event>
 5   0  0.2422031E-02  0.8107863E+03  0.7818609E-02  0.9544534E-01
       -2   -1    0    0    0  501  0.00000000000E+00  0.00000000000E+00  0.30147841233E+03  0.30147841234E+03  0.25500000920E-02 0. -1.
        2   -1    0    0  501    0  0.00000000000E+00  0.00000000000E+00 -0.54512557070E+03  0.54512557070E+03  0.25500000920E-02 0.  1.
    10030    2    1    2    0    0  0.00000000000E+00  0.00000000000E+00 -0.24364715837E+03  0.84660398304E+03  0.81078626427E+03 0.  0.
        4    1    3    3  502    0 -0.37053234176E+03  0.13651996495E+03 -0.21758123640E+03  0.45086042680E+03  0.12699999809E+01 0.  1.
       -4    1    3    3    0  502  0.37053234176E+03 -0.13651996495E+03 -0.26065921967E+02  0.39574355624E+03  0.12699999809E+01 0. -1.
</event>
<event>
 5   0  0.9919125E-03  0.7973887E+03  0.7818609E-02  0.9563805E-01
       -3   -1    0    0    0  501  0.00000000000E+00  0.00000000000E+00  0.10676812059E+04  0.10676812106E+04  0.10100000352E+00 0. -1.
        3   -1    0    0  501    0  0.00000000000E+00  0.00000000000E+00 -0.14888071652E+03  0.14888075077E+03  0.10100000352E+00 0.  1.
    10030    2    1    2    0    0  0.00000000000E+00  0.00000000000E+00  0.91880048934E+03  0.12165619614E+04  0.79738865475E+03 0.  0.
        1    1    3    3  502    0  0.12037643147E+03  0.22670475615E+03  0.92485004936E+03  0.95980891096E+03  0.50400001928E-02 0. -1.
       -1    1    3    3    0  502 -0.12037643147E+03 -0.22670475615E+03 -0.60495600239E+01  0.25675305045E+03  0.50400001928E-02 0.  1.
</event>
<event>
 5   0  0.2422031E-02  0.7994339E+03  0.7818609E-02  0.9560837E-01
       -2   -1    0    0    0  501  0.00000000000E+00  0.00000000000E+00  0.36324440785E+03  0.36324440785E+03  0.25500000920E-02 0. -1.
        2   -1    0    0  501    0  0.00000000000E+00  0.00000000000E+00 -0.43985160966E+03  0.43985160966E+03  0.25500000920E-02 0.  1.
    10030    2    1    2    0    0  0.00000000000E+00  0.00000000000E+00 -0.76607201812E+02  0.80309601752E+03  0.79943389344E+03 0.  0.
        4    1    3    3  502    0  0.28690120594E+03 -0.62214383366E+02  0.23421217008E+03  0.37555277256E+03  0.12699999809E+01 0. -1.
       -4    1    3    3    0  502 -0.28690120594E+03  0.62214383366E+02 -0.31081937189E+03  0.42754324496E+03  0.12699999809E+01 0.  1.
</event>
<event>
 5   0  0.1523811E-02  0.7885138E+03  0.7818609E-02  0.9576793E-01
       -1   -1    0    0    0  501  0.00000000000E+00  0.00000000000E+00  0.90632793926E+03  0.90632793928E+03  0.50400001928E-02 0. -1.
        1   -1    0    0  501    0  0.00000000000E+00  0.00000000000E+00 -0.17150358564E+03  0.17150358572E+03  0.50400001928E-02 0.  1.
    10030    2    1    2    0    0  0.00000000000E+00  0.00000000000E+00  0.73482435362E+03  0.10778315250E+04  0.78851377007E+03 0.  0.
        1    1    3    3  502    0 -0.17751734883E+03 -0.30788550221E+03  0.13410332241E+03  0.37985469947E+03  0.50400001928E-02 0.  1.
       -1    1    3    3    0  502  0.17751734883E+03  0.30788550221E+03  0.60072103121E+03  0.69797682552E+03  0.50400001928E-02 0. -1.
</event>
<event>
 5   0  0.1498375E-02  0.7567082E+03  0.7818609E-02  0.9624885E-01
        1   -1    0    0  501    0  0.00000000000E+00  0.00000000000E+00  0.68655649968E+03  0.68655649970E+03  0.50400001928E-02 0.  1.
       -1   -1    0    0    0  501  0.00000000000E+00  0.00000000000E+00 -0.20850695640E+03  0.20850695646E+03  0.50400001928E-02 0. -1.
    10030    2    1    2    0    0  0.00000000000E+00  0.00000000000E+00  0.47804954329E+03  0.89506345616E+03  0.75670815029E+03 0.  0.
        4    1    3    3  502    0  0.17511854533E+03 -0.27485526806E+03  0.11691139922E+02  0.32611381288E+03  0.12699999809E+01 0. -1.
       -4    1    3    3    0  502 -0.17511854533E+03  0.27485526806E+03  0.46635840336E+03  0.56894964328E+03  0.12699999809E+01 0.  1.
</event>
<event>
 5   0  0.2422031E-02  0.8078704E+03  0.7818609E-02  0.9548694E-01
        2   -1    0    0  501    0  0.00000000000E+00  0.00000000000E+00  0.16786148412E+04  0.16786148412E+04  0.25500000920E-02 0.  1.
       -2   -1    0    0    0  501  0.00000000000E+00  0.00000000000E+00 -0.97201357926E+02  0.97201357960E+02  0.25500000920E-02 0. -1.
    10030    2    1    2    0    0  0.00000000000E+00  0.00000000000E+00  0.15814134832E+04  0.17758161991E+04  0.80787039066E+03 0.  0.
        4    1    3    3  502    0  0.15261873433E+03  0.25761863872E+03  0.19476136333E+03  0.35720224331E+03  0.12699999809E+01 0. -1.
       -4    1    3    3    0  502 -0.15261873433E+03 -0.25761863872E+03  0.13866521199E+04  0.14186139558E+04  0.12699999809E+01 0.  1.
</event>
<event>
 5   0  0.2422031E-02  0.8028399E+03  0.7818609E-02  0.9555916E-01
        2   -1    0    0  501    0  0.00000000000E+00  0.00000000000E+00  0.76014035615E+03  0.76014035615E+03  0.25500000920E-02 0.  1.
       -2   -1    0    0    0  501  0.00000000000E+00  0.00000000000E+00 -0.21198449843E+03  0.21198449845E+03  0.25500000920E-02 0. -1.
    10030    2    1    2    0    0  0.00000000000E+00  0.00000000000E+00  0.54815585771E+03  0.97212485460E+03  0.80283988976E+03 0.  0.
        4    1    3    3  502    0 -0.33539597037E+03 -0.99386331838E+02  0.51249165507E+03  0.62049771096E+03  0.12699999809E+01 0.  1.
       -4    1    3    3    0  502  0.33539597037E+03  0.99386331838E+02  0.35664202644E+02  0.35162714364E+03  0.12699999809E+01 0. -1.
</event>
<event>
 5   0  0.2454354E-02  0.7942587E+03  0.7818609E-02  0.9568365E-01
        2   -1    0    0  501    0  0.00000000000E+00  0.00000000000E+00  0.21052033641E+04  0.21052033641E+04  0.25500000920E-02 0. -1.
       -2   -1    0    0    0  501  0.00000000000E+00  0.00000000000E+00 -0.74915199012E+02  0.74915199055E+02  0.25500000920E-02 0.  1.
    10030    2    1    2    0    0  0.00000000000E+00  0.00000000000E+00  0.20302881651E+04  0.21801185632E+04  0.79425872116E+03 0.  0.
        5    1    3    3  502    0  0.23725097514E+03 -0.79646332712E+02  0.16886690403E+03  0.30194318140E+03  0.46999998093E+01 0.  1.
       -5    1    3    3    0  502 -0.23725097514E+03  0.79646332712E+02  0.18614212611E+04  0.18781753818E+04  0.46999998093E+01 0. -1.
</event>
<event>
 5   0  0.2571778E-02  0.7954059E+03  0.7818609E-02  0.9566691E-01
       -2   -1    0    0    0  501  0.00000000000E+00  0.00000000000E+00  0.68776950645E+02  0.68776950693E+02  0.25500000920E-02 0. -1.
        2   -1    0    0  501    0  0.00000000000E+00  0.00000000000E+00 -0.22997185410E+04  0.22997185410E+04  0.25500000920E-02 0.  1.
    10030    2    1    2    0    0  0.00000000000E+00  0.00000000000E+00 -0.22309415904E+04  0.23684954917E+04  0.79540588042E+03 0.  0.
        1    1    3    3  502    0  0.24730536934E+03 -0.15149068830E+03 -0.30512478105E+03  0.42096378274E+03  0.50400001928E-02 0. -1.
       -1    1    3    3    0  502 -0.24730536934E+03  0.15149068830E+03 -0.19258168093E+04  0.19475317090E+04  0.50400001928E-02 0.  1.
</event>
<event>
 5   0  0.1509629E-02  0.7930732E+03  0.7818609E-02  0.9570098E-01
        1   -1    0    0  501    0  0.00000000000E+00  0.00000000000E+00  0.95241984072E+03  0.95241984073E+03  0.50400001928E-02 0.  1.
       -1   -1    0    0    0  501  0.00000000000E+00  0.00000000000E+00 -0.16509659105E+03  0.16509659113E+03  0.50400001928E-02 0. -1.
    10030    2    1    2    0    0  0.00000000000E+00  0.00000000000E+00  0.78732324967E+03  0.11175164319E+04  0.79307318452E+03 0.  0.
        5    1    3    3  502    0 -0.13105160255E+03  0.32182404307E+03  0.66277296697E+03  0.74835508482E+03  0.46999998093E+01 0. -1.
       -5    1    3    3    0  502  0.13105160255E+03 -0.32182404307E+03  0.12455028270E+03  0.36916134704E+03  0.46999998093E+01 0.  1.
</event>
<event>
 5   0  0.2454354E-02  0.7927793E+03  0.7818609E-02  0.9570528E-01
       -2   -1    0    0    0  501  0.00000000000E+00  0.00000000000E+00  0.66877341513E+03  0.66877341513E+03  0.25500000920E-02 0. -1.
        2   -1    0    0  501    0  0.00000000000E+00  0.00000000000E+00 -0.23494470750E+03  0.23494470751E+03  0.25500000920E-02 0.  1.
    10030    2    1    2    0    0  0.00000000000E+00  0.00000000000E+00  0.43382870763E+03  0.90371812265E+03  0.79277934990E+03 0.  0.
        5    1    3    3  502    0 -0.15974312514E+03 -0.70647015393E+02 -0.18867533974E+03  0.25715625724E+03  0.46999998093E+01 0.  1.
       -5    1    3    3    0  502  0.15974312514E+03  0.70647015393E+02  0.62250404737E+03  0.64656186541E+03  0.46999998093E+01 0. -1.
</event>
<event>
 5   0  0.9919125E-03  0.8060107E+03  0.7818609E-02  0.9551357E-01
       -4   -1    0    0    0  501  0.00000000000E+00  0.00000000000E+00  0.27599392887E+03  0.27599685084E+03  0.12699999809E+01 0. -1.
        4   -1    0    0  501    0  0.00000000000E+00  0.00000000000E+00 -0.58846026393E+03  0.58846163437E+03  0.12699999809E+01 0.  1.
    10030    2    1    2    0    0  0.00000000000E+00  0.00000000000E+00 -0.31246633506E+03  0.86445848520E+03  0.80601070843E+03 0.  0.
        1    1    3    3  502    0  0.29187061938E+03  0.22757154803E+03 -0.32728516264E+03  0.49405753272E+03  0.50400001928E-02 0.  1.
       -1    1    3    3    0  502 -0.29187061938E+03 -0.22757154803E+03  0.14818827578E+02  0.37040095249E+03  0.50400001928E-02 0. -1.
</event>
<event>
 5   0  0.2454354E-02  0.8009619E+03  0.7818609E-02  0.9558626E-01
        2   -1    0    0  501    0  0.00000000000E+00  0.00000000000E+00  0.29804262909E+03  0.29804262910E+03  0.25500000920E-02 0.  1.
       -2   -1    0    0    0  501  0.00000000000E+00  0.00000000000E+00 -0.53812768346E+03  0.53812768346E+03  0.25500000920E-02 0. -1.
    10030    2    1    2    0    0  0.00000000000E+00  0.00000000000E+00 -0.24008505437E+03  0.83617031256E+03  0.80096189565E+03 0.  0.
        5    1    3    3  502    0 -0.10615942072E+03 -0.22497965152E+02 -0.52245661534E+03  0.53362813453E+03  0.46999998093E+01 0. -1.
       -5    1    3    3    0  502  0.10615942072E+03  0.22497965152E+02  0.28237156097E+03  0.30254217803E+03  0.46999998093E+01 0.  1.
</event>
<event>
 5   0  0.1624094E-02  0.7984274E+03  0.7818609E-02  0.9562296E-01
       -1   -1    0    0    0  501  0.00000000000E+00  0.00000000000E+00  0.45647054816E+03  0.45647054819E+03  0.50400001928E-02 0.  1.
        1   -1    0    0  501    0  0.00000000000E+00  0.00000000000E+00 -0.34913883489E+03  0.34913883493E+03  0.50400001928E-02 0. -1.
    10030    2    1    2    0    0  0.00000000000E+00  0.00000000000E+00  0.10733171327E+03  0.80560938312E+03  0.79842744285E+03 0.  0.
        3    1    3    3  502    0 -0.25633959173E+03  0.28711440823E+02  0.36109865535E+03  0.44376410650E+03  0.10100000352E+00 0.  1.
       -3    1    3    3    0  502  0.25633959173E+03 -0.28711440823E+02 -0.25376694208E+03  0.36184527662E+03  0.10100000352E+00 0. -1.
</event>
<event>
 5   0  0.1471290E-02  0.7930832E+03  0.7818609E-02  0.9570083E-01
       -1   -1    0    0    0  501  0.00000000000E+00  0.00000000000E+00  0.10063158080E+04  0.10063158080E+04  0.50400001928E-02 0. -1.
        1   -1    0    0  501    0  0.00000000000E+00  0.00000000000E+00 -0.15625834340E+03  0.15625834348E+03  0.50400001928E-02 0.  1.
    10030    2    1    2    0    0  0.00000000000E+00  0.00000000000E+00  0.85005746458E+03  0.11625741515E+04  0.79308320156E+03 0.  0.
        2    1    3    3  502    0 -0.51107310051E+02 -0.16885666422E+03  0.94561788743E+03  0.96193436326E+03  0.25500000920E-02 0. -1.
       -2    1    3    3    0  502  0.51107310051E+02  0.16885666422E+03 -0.95560422850E+02  0.20063978821E+03  0.25500000920E-02 0.  1.
</event>
<event>
 5   0  0.1624094E-02  0.8118502E+03  0.7818609E-02  0.9543021E-01
        1   -1    0    0  501    0  0.00000000000E+00  0.00000000000E+00  0.40852736122E+03  0.40852736125E+03  0.50400001928E-02 0. -1.
       -1   -1    0    0    0  501  0.00000000000E+00  0.00000000000E+00 -0.40333943978E+03  0.40333943981E+03  0.50400001928E-02 0.  1.
    10030    2    1    2    0    0  0.00000000000E+00  0.00000000000E+00  0.51879214451E+01  0.81186680107E+03  0.81185022519E+03 0.  0.
        3    1    3    3  502    0 -0.29131000106E+03 -0.23796530420E+02  0.28428640902E+03  0.40773344740E+03  0.10100000352E+00 0. -1.
       -3    1    3    3    0  502  0.29131000106E+03  0.23796530420E+02 -0.27909848758E+03  0.40413335366E+03  0.10100000352E+00 0.  1.
</event>
<event>
 5   0  0.1624094E-02  0.7962221E+03  0.7818609E-02  0.9565502E-01
       -1   -1    0    0    0  501  0.00000000000E+00  0.00000000000E+00  0.44009573586E+03  0.44009573589E+03  0.50400001928E-02 0. -1.
        1   -1    0    0  501    0  0.00000000000E+00  0.00000000000E+00 -0.36013169765E+03  0.36013169769E+03  0.50400001928E-02 0.  1.
    10030    2    1    2    0    0  0.00000000000E+00  0.00000000000E+00  0.79964038211E+02  0.80022743358E+03  0.79622214114E+03 0.  0.
        3    1    3    3  502    0  0.28022824192E+00 -0.39127203255E+02 -0.35819447140E+03  0.36032527820E+03  0.10100000352E+00 0.  1.
       -3    1    3    3    0  502 -0.28022824192E+00  0.39127203255E+02  0.43815850961E+03  0.43990215538E+03  0.10100000352E+00 0. -1.
</event>
<event>
 5   0  0.2460312E-02  0.8640514E+03  0.7818609E-02  0.9471669E-01
        2   -1    0    0  501    0  0.00000000000E+00  0.00000000000E+00  0.58244424862E+03  0.58244424863E+03  0.25500000920E-02 0.  1.
       -2   -1    0    0    0  501  0.00000000000E+00  0.00000000000E+00 -0.32045333880E+03  0.32045333881E+03  0.25500000920E-02 0. -1.
    10030    2    1    2    0    0  0.00000000000E+00  0.00000000000E+00  0.26199090982E+03  0.90289758744E+03  0.86405139695E+03 0.  0.
        2    1    3    3  502    0  0.38908194427E+03 -0.16012278906E+03  0.28492900430E+02  0.42170595480E+03  0.25500000920E-02 0. -1.
       -2    1    3    3    0  502 -0.38908194427E+03  0.16012278906E+03  0.23349800939E+03  0.48119163264E+03  0.25500000920E-02 0.  1.
</event>
<event>
 5   0  0.1509629E-02  0.8032192E+03  0.7818609E-02  0.9555369E-01
       -1   -1    0    0    0  501  0.00000000000E+00  0.00000000000E+00  0.69825688526E+03  0.69825688528E+03  0.50400001928E-02 0. -1.
        1   -1    0    0  501    0  0.00000000000E+00  0.00000000000E+00 -0.23098990017E+03  0.23098990022E+03  0.50400001928E-02 0.  1.
    10030    2    1    2    0    0  0.00000000000E+00  0.00000000000E+00  0.46726698509E+03  0.92924678550E+03  0.80321924342E+03 0.  0.
        5    1    3    3  502    0 -0.50043508521E+02 -0.39518787112E+03  0.17475187796E+03  0.43501507453E+03  0.46999998093E+01 0. -1.
       -5    1    3    3    0  502  0.50043508521E+02  0.39518787112E+03  0.29251510713E+03  0.49423171096E+03  0.46999998093E+01 0.  1.
</event>
<event>
 5   0  0.1471290E-02  0.7993023E+03  0.7818609E-02  0.9561028E-01
       -1   -1    0    0    0  501  0.00000000000E+00  0.00000000000E+00  0.49716048901E+03  0.49716048904E+03  0.50400001928E-02 0.  1.
        1   -1    0    0  501    0  0.00000000000E+00  0.00000000000E+00 -0.32126653994E+03  0.32126653998E+03  0.50400001928E-02 0. -1.
    10030    2    1    2    0    0  0.00000000000E+00  0.00000000000E+00  0.17589394908E+03  0.81842702901E+03  0.79930227105E+03 0.  0.
        2    1    3    3  502    0  0.34645047392E+03 -0.17446577939E+03 -0.10556653408E+02  0.38804340220E+03  0.25500000920E-02 0. -1.
       -2    1    3    3    0  502 -0.34645047392E+03  0.17446577939E+03  0.18645060249E+03  0.43038362681E+03  0.25500000920E-02 0.  1.
</event>
<event>
 5   0  0.1523811E-02  0.7895370E+03  0.7818609E-02  0.9575287E-01
       -1   -1    0    0    0  501  0.00000000000E+00  0.00000000000E+00  0.28966699699E+03  0.28966699703E+03  0.50400001928E-02 0. -1.
        1   -1    0    0  501    0  0.00000000000E+00  0.00000000000E+00 -0.53800458838E+03  0.53800458841E+03  0.50400001928E-02 0.  1.
    10030    2    1    2    0    0  0.00000000000E+00  0.00000000000E+00 -0.24833759139E+03  0.82767158544E+03  0.78953701246E+03 0.  0.
        1    1    3    3  502    0  0.23016222888E+03 -0.14323558275E+03  0.17666056933E+03  0.32357385641E+03  0.50400001928E-02 0. -1.
       -1    1    3    3    0  502 -0.23016222888E+03  0.14323558275E+03 -0.42499816073E+03  0.50409772903E+03  0.50400001928E-02 0.  1.
</event>
<event>
 5   0  0.2571778E-02  0.7861697E+03  0.7818609E-02  0.9580254E-01
        2   -1    0    0  501    0  0.00000000000E+00  0.00000000000E+00  0.70698711054E+03  0.70698711055E+03  0.25500000920E-02 0.  1.
       -2   -1    0    0    0  501  0.00000000000E+00  0.00000000000E+00 -0.21855519646E+03  0.21855519648E+03  0.25500000920E-02 0. -1.
    10030    2    1    2    0    0  0.00000000000E+00  0.00000000000E+00  0.48843191408E+03  0.92554230702E+03  0.78616971920E+03 0.  0.
        1    1    3    3  502    0  0.24085155883E+03  0.14527280865E+02  0.60954337206E+03  0.65556360312E+03  0.50400001928E-02 0.  1.
       -1    1    3    3    0  502 -0.24085155883E+03 -0.14527280865E+02 -0.12111145798E+03  0.26997870390E+03  0.50400001928E-02 0. -1.
</event>
<event>
 5   0  0.2460312E-02  0.8034802E+03  0.7818609E-02  0.9554993E-01
        2   -1    0    0  501    0  0.00000000000E+00  0.00000000000E+00  0.89055768525E+03  0.89055768525E+03  0.25500000920E-02 0.  1.
       -2   -1    0    0    0  501  0.00000000000E+00  0.00000000000E+00 -0.18122923957E+03  0.18122923959E+03  0.25500000920E-02 0. -1.
    10030    2    1    2    0    0  0.00000000000E+00  0.00000000000E+00  0.70932844568E+03  0.10717869248E+04  0.80348016057E+03 0.  0.
        2    1    3    3  502    0  0.65243217160E+02 -0.66233817355E+01 -0.17404130361E+03  0.18598634880E+03  0.25500000920E-02 0. -1.
       -2    1    3    3    0  502 -0.65243217160E+02  0.66233817355E+01  0.88336974928E+03  0.88580057605E+03  0.25500000920E-02 0.  1.
</event>
<event>
 5   0  0.1624094E-02  0.8035134E+03  0.7818609E-02  0.9554946E-01
        1   -1    0    0  501    0  0.00000000000E+00  0.00000000000E+00  0.52991534671E+03  0.52991534673E+03  0.50400001928E-02 0. -1.
       -1   -1    0    0    0  501  0.00000000000E+00  0.00000000000E+00 -0.30459287779E+03  0.30459287783E+03  0.50400001928E-02 0.  1.
    10030    2    1    2    0    0  0.00000000000E+00  0.00000000000E+00  0.22532246892E+03  0.83450822456E+03  0.80351338624E+03 0.  0.
        3    1    3    3  502    0 -0.65634196890E+02 -0.18583693496E+03 -0.25093646147E+03  0.31908044769E+03  0.10100000352E+00 0.  1.
       -3    1    3    3    0  502  0.65634196890E+02  0.18583693496E+03  0.47625893039E+03  0.51542777688E+03  0.10100000352E+00 0. -1.
</event>
<event>
 5   0  0.2571778E-02  0.8056519E+03  0.7818609E-02  0.9551872E-01
       -2   -1    0    0    0  501  0.00000000000E+00  0.00000000000E+00  0.42173471201E+03  0.42173471202E+03  0.25500000920E-02 0. -1.
        2   -1    0    0  501    0  0.00000000000E+00  0.00000000000E+00 -0.38476494406E+03  0.38476494407E+03  0.25500000920E-02 0.  1.
    10030    2    1    2    0    0  0.00000000000E+00  0.00000000000E+00  0.36969767955E+02  0.80649965609E+03  0.80565186745E+03 0.  0.
        1    1    3    3  502    0  0.25086003946E+03 -0.10699914718E+03  0.31525790340E+03  0.41685383839E+03  0.50400001928E-02 0. -1.
       -1    1    3    3    0  502 -0.25086003946E+03  0.10699914718E+03 -0.27828813544E+03  0.38964581770E+03  0.50400001928E-02 0.  1.
</event>
<event>
 5   0  0.1523811E-02  0.8301062E+03  0.7818609E-02  0.9517434E-01
       -1   -1    0    0    0  501  0.00000000000E+00  0.00000000000E+00  0.32604599269E+03  0.32604599272E+03  0.50400001928E-02 0. -1.
        1   -1    0    0  501    0  0.00000000000E+00  0.00000000000E+00 -0.52835823224E+03  0.52835823226E+03  0.50400001928E-02 0.  1.
    10030    2    1    2    0    0  0.00000000000E+00  0.00000000000E+00 -0.20231223955E+03  0.85440422499E+03  0.83010622055E+03 0.  0.
        1    1    3    3  502    0  0.19761271722E+03  0.36109855744E+03 -0.46438676494E+02  0.41424570595E+03  0.50400001928E-02 0. -1.
       -1    1    3    3    0  502 -0.19761271722E+03 -0.36109855744E+03 -0.15587356306E+03  0.44015851904E+03  0.50400001928E-02 0.  1.
</event>
<event>
 5   0  0.1624094E-02  0.7091626E+03  0.7818609E-02  0.9701690E-01
        1   -1    0    0  501    0  0.00000000000E+00  0.00000000000E+00  0.66640634496E+03  0.66640634498E+03  0.50400001928E-02 0.  1.
       -1   -1    0    0    0  501  0.00000000000E+00  0.00000000000E+00 -0.18866551333E+03  0.18866551340E+03  0.50400001928E-02 0. -1.
    10030    2    1    2    0    0  0.00000000000E+00  0.00000000000E+00  0.47774083163E+03  0.85507185837E+03  0.70916259121E+03 0.  0.
        3    1    3    3  502    0  0.11321888617E+02  0.35439549645E+03  0.23660440227E+03  0.42626987513E+03  0.10100000352E+00 0. -1.
       -3    1    3    3    0  502 -0.11321888617E+02 -0.35439549645E+03  0.24113642936E+03  0.42880198324E+03  0.10100000352E+00 0.  1.
</event>
<event>
 5   0  0.2422031E-02  0.8077703E+03  0.7818609E-02  0.9548838E-01
       -2   -1    0    0    0  501  0.00000000000E+00  0.00000000000E+00  0.89502363911E+02  0.89502363947E+02  0.25500000920E-02 0.  1.
        2   -1    0    0  501    0  0.00000000000E+00  0.00000000000E+00 -0.18225574040E+04  0.18225574040E+04  0.25500000920E-02 0. -1.
    10030    2    1    2    0    0  0.00000000000E+00  0.00000000000E+00 -0.17330550401E+04  0.19120597680E+04  0.80777025461E+03 0.  0.
        4    1    3    3  502    0 -0.28566816208E+03  0.28288119616E+03 -0.77504920899E+03  0.87311566200E+03  0.12699999809E+01 0.  1.
       -4    1    3    3    0  502  0.28566816208E+03 -0.28288119616E+03 -0.95800583110E+03  0.10389441059E+04  0.12699999809E+01 0. -1.
</event>
<event>
 5   0  0.2454354E-02  0.7121003E+03  0.7818609E-02  0.9696760E-01
       -2   -1    0    0    0  501  0.00000000000E+00  0.00000000000E+00  0.10895779507E+03  0.10895779510E+03  0.25500000920E-02 0. -1.
        2   -1    0    0  501    0  0.00000000000E+00  0.00000000000E+00 -0.11634936289E+04  0.11634936289E+04  0.25500000920E-02 0.  1.
    10030    2    1    2    0    0  0.00000000000E+00  0.00000000000E+00 -0.10545358338E+04  0.12724514240E+04  0.71210027498E+03 0.  0.
        5    1    3    3  502    0 -0.23323199098E+03 -0.16256441653E+03 -0.91020362637E+03  0.95358118826E+03  0.46999998093E+01 0.  1.
       -5    1    3    3    0  502  0.23323199098E+03  0.16256441653E+03 -0.14433220747E+03  0.31887023576E+03  0.46999998093E+01 0. -1.
</event>
<event>
 5   0  0.9919125E-03  0.7889947E+03  0.7818609E-02  0.9576085E-01
        3   -1    0    0  501    0  0.00000000000E+00  0.00000000000E+00  0.17685285310E+03  0.17685288194E+03  0.10100000352E+00 0.  1.
       -3   -1    0    0    0  501  0.00000000000E+00  0.00000000000E+00 -0.87998667508E+03  0.87998668087E+03  0.10100000352E+00 0. -1.
    10030    2    1    2    0    0  0.00000000000E+00  0.00000000000E+00 -0.70313382197E+03  0.10568395628E+04  0.78899473378E+03 0.  0.
        4    1    3    3  502    0  0.11115111414E+03  0.15394240184E+03  0.11161633296E+03  0.22025587834E+03  0.12699999809E+01 0.  1.
       -4    1    3    3    0  502 -0.11115111414E+03 -0.15394240184E+03 -0.81475015493E+03  0.83658368447E+03  0.12699999809E+01 0. -1.
</event>
<event>
 5   0  0.2571778E-02  0.7969719E+03  0.7818609E-02  0.9564411E-01
        2   -1    0    0  501    0  0.00000000000E+00  0.00000000000E+00  0.12353889982E+04  0.12353889982E+04  0.25500000920E-02 0. -1.
       -2   -1    0    0    0  501  0.00000000000E+00  0.00000000000E+00 -0.12853526750E+03  0.12853526753E+03  0.25500000920E-02 0.  1.
    10030    2    1    2    0    0  0.00000000000E+00  0.00000000000E+00  0.11068537307E+04  0.13639242657E+04  0.79697190758E+03 0.  0.
        1    1    3    3  502    0  0.29574378937E+03  0.22227556817E+03  0.80680543326E+03  0.88758426323E+03  0.50400001928E-02 0. -1.
       -1    1    3    3    0  502 -0.29574378937E+03 -0.22227556817E+03  0.30004829742E+03  0.47634000249E+03  0.50400001928E-02 0.  1.
</event>
<event>
 5   0  0.2454354E-02  0.8098651E+03  0.7818609E-02  0.9545847E-01
        2   -1    0    0  501    0  0.00000000000E+00  0.00000000000E+00  0.37152100016E+03  0.37152100017E+03  0.25500000920E-02 0. -1.
       -2   -1    0    0    0  501  0.00000000000E+00  0.00000000000E+00 -0.44134884163E+03  0.44134884164E+03  0.25500000920E-02 0.  1.
    10030    2    1    2    0    0  0.00000000000E+00  0.00000000000E+00 -0.69827841471E+02  0.81286984181E+03  0.80986508277E+03 0.  0.
        5    1    3    3  502    0 -0.20976108722E+03  0.16714881250E+03  0.26954272583E+03  0.38028122525E+03  0.46999998093E+01 0. -1.
       -5    1    3    3    0  502  0.20976108722E+03 -0.16714881250E+03 -0.33937056730E+03  0.43258861656E+03  0.46999998093E+01 0.  1.
</event>
<event>
 5   0  0.2422031E-02  0.8013921E+03  0.7818609E-02  0.9558004E-01
        2   -1    0    0  501    0  0.00000000000E+00  0.00000000000E+00  0.13482484300E+04  0.13482484300E+04  0.25500000920E-02 0.  1.
       -2   -1    0    0    0  501  0.00000000000E+00  0.00000000000E+00 -0.11908584652E+03  0.11908584655E+03  0.25500000920E-02 0. -1.
    10030    2    1    2    0    0  0.00000000000E+00  0.00000000000E+00  0.12291625834E+04  0.14673342765E+04  0.80139205294E+03 0.  0.
        4    1    3    3  502    0 -0.27236132166E+03  0.12356532022E+02  0.11522241505E+04  0.11840420091E+04  0.12699999809E+01 0.  1.
       -4    1    3    3    0  502  0.27236132166E+03 -0.12356532022E+02  0.76938432956E+02  0.28329226743E+03  0.12699999809E+01 0. -1.
</event>
<event>
 5   0  0.1624094E-02  0.6886668E+03  0.7818609E-02  0.9736812E-01
        1   -1    0    0  501    0  0.00000000000E+00  0.00000000000E+00  0.92147274308E+03  0.92147274309E+03  0.50400001928E-02 0.  1.
       -1   -1    0    0    0  501  0.00000000000E+00  0.00000000000E+00 -0.12866957090E+03  0.12866957100E+03  0.50400001928E-02 0. -1.
    10030    2    1    2    0    0  0.00000000000E+00  0.00000000000E+00  0.79280317218E+03  0.10501423141E+04  0.68866683529E+03 0.  0.
        3    1    3    3  502    0  0.20375033204E+03 -0.18204386251E+03  0.71594308519E+03  0.76630847387E+03  0.10100000352E+00 0.  1.
       -3    1    3    3    0  502 -0.20375033204E+03  0.18204386251E+03  0.76860086984E+02  0.28383384022E+03  0.10100000352E+00 0. -1.
</event>
<event>
 5   0  0.1624094E-02  0.7982298E+03  0.7818609E-02  0.9562583E-01
        1   -1    0    0  501    0  0.00000000000E+00  0.00000000000E+00  0.12338771612E+04  0.12338771612E+04  0.50400001928E-02 0. -1.
       -1   -1    0    0    0  501  0.00000000000E+00  0.00000000000E+00 -0.12909932783E+03  0.12909932792E+03  0.50400001928E-02 0.  1.
    10030    2    1    2    0    0  0.00000000000E+00  0.00000000000E+00  0.11047778334E+04  0.13629764892E+04  0.79822982206E+03 0.  0.
        3    1    3    3  502    0  0.10461722698E+02 -0.73106318426E+02 -0.11733104705E+03  0.13863825676E+03  0.10100000352E+00 0.  1.
       -3    1    3    3    0  502 -0.10461722698E+02  0.73106318426E+02  0.12221088805E+04  0.12243382324E+04  0.10100000352E+00 0. -1.
</event>
<event>
 5   0  0.2464780E-02  0.7923715E+03  0.7818609E-02  0.9571125E-01
       -2   -1    0    0    0  501  0.00000000000E+00  0.00000000000E+00  0.67139578536E+02  0.67139578585E+02  0.25500000920E-02 0. -1.
        2   -1    0    0  501    0  0.00000000000E+00  0.00000000000E+00 -0.23378631693E+04  0.23378631693E+04  0.25500000920E-02 0.  1.
    10030    2    1    2    0    0  0.00000000000E+00  0.00000000000E+00 -0.22707235907E+04  0.24050027478E+04  0.79237149853E+03 0.  0.
        3    1    3    3  502    0 -0.19321398415E+03 -0.46141146055E+02 -0.21757855607E+04  0.21848348828E+04  0.10100000352E+00 0.  1.
       -3    1    3    3    0  502  0.19321398415E+03  0.46141146055E+02 -0.94938030053E+02  0.22016786501E+03  0.10100000352E+00 0. -1.
</event>
<event>
 5   0  0.2422031E-02  0.8078660E+03  0.7818609E-02  0.9548701E-01
       -2   -1    0    0    0  501  0.00000000000E+00  0.00000000000E+00  0.21606261841E+03  0.21606261842E+03  0.25500000920E-02 0. -1.
        2   -1    0    0  501    0  0.00000000000E+00  0.00000000000E+00 -0.75516013115E+03  0.75516013115E+03  0.25500000920E-02 0.  1.
    10030    2    1    2    0    0  0.00000000000E+00  0.00000000000E+00 -0.53909751274E+03  0.97122274957E+03  0.80786601677E+03 0.  0.
        4    1    3    3  502    0  0.24154452411E+03  0.22056995688E+03  0.15365337129E+02  0.32746384455E+03  0.12699999809E+01 0. -1.
       -4    1    3    3    0  502 -0.24154452411E+03 -0.22056995688E+03 -0.55446284987E+03  0.64375890502E+03  0.12699999809E+01 0.  1.
</event>
<event>
 5   0  0.1471290E-02  0.8312445E+03  0.7818609E-02  0.9515862E-01
       -1   -1    0    0    0  501  0.00000000000E+00  0.00000000000E+00  0.16268648513E+03  0.16268648521E+03  0.50400001928E-02 0.  1.
        1   -1    0    0  501    0  0.00000000000E+00  0.00000000000E+00 -0.10618081750E+04  0.10618081750E+04  0.50400001928E-02 0. -1.
    10030    2    1    2    0    0  0.00000000000E+00  0.00000000000E+00 -0.89912168990E+03  0.12244946603E+04  0.83124446449E+03 0.  0.
        2    1    3    3  502    0  0.29393792368E+02  0.34424578715E+03 -0.10924070858E+03  0.36235712966E+03  0.25500000920E-02 0.  1.
       -2    1    3    3    0  502 -0.29393792368E+02 -0.34424578715E+03 -0.78988098132E+03  0.86213753059E+03  0.25500000920E-02 0. -1.
</event>
<event>
 5   0  0.1523811E-02  0.7487644E+03  0.7818609E-02  0.9637291E-01
        1   -1    0    0  501    0  0.00000000000E+00  0.00000000000E+00  0.74336654760E+03  0.74336654762E+03  0.50400001928E-02 0.  1.
       -1   -1    0    0    0  501  0.00000000000E+00  0.00000000000E+00 -0.18855035013E+03  0.18855035020E+03  0.50400001928E-02 0. -1.
    10030    2    1    2    0    0  0.00000000000E+00  0.00000000000E+00  0.55481619748E+03  0.93191689782E+03  0.74876437646E+03 0.  0.
        1    1    3    3  502    0 -0.35320052640E+03  0.43939012136E+00  0.12290026862E+03  0.37397229973E+03  0.50400001928E-02 0. -1.
       -1    1    3    3    0  502  0.35320052640E+03 -0.43939012136E+00  0.43191592885E+03  0.55794459809E+03  0.50400001928E-02 0.  1.
</event>
<event>
 5   0  0.1471290E-02  0.7999735E+03  0.7818609E-02  0.9560056E-01
        1   -1    0    0  501    0  0.00000000000E+00  0.00000000000E+00  0.25251636773E+03  0.25251636778E+03  0.50400001928E-02 0. -1.
       -1   -1    0    0    0  501  0.00000000000E+00  0.00000000000E+00 -0.63358024358E+03  0.63358024360E+03  0.50400001928E-02 0.  1.
    10030    2    1    2    0    0  0.00000000000E+00  0.00000000000E+00 -0.38106387585E+03  0.88609661138E+03  0.79997345407E+03 0.  0.
        2    1    3    3  502    0 -0.11341235559E+03  0.10233119486E+03  0.21893497373E+03  0.26695797154E+03  0.25500000920E-02 0. -1.
       -2    1    3    3    0  502  0.11341235559E+03 -0.10233119486E+03 -0.59999884957E+03  0.61913863984E+03  0.25500000920E-02 0.  1.
</event>
<event>
 5   0  0.9919125E-03  0.8034510E+03  0.7818609E-02  0.9555035E-01
        3   -1    0    0  501    0  0.00000000000E+00  0.00000000000E+00  0.54436234492E+03  0.54436235429E+03  0.10100000352E+00 0. -1.
       -3   -1    0    0    0  501  0.00000000000E+00  0.00000000000E+00 -0.29646314098E+03  0.29646315818E+03  0.10100000352E+00 0.  1.
    10030    2    1    2    0    0  0.00000000000E+00  0.00000000000E+00  0.24789920395E+03  0.84082551248E+03  0.80345101102E+03 0.  0.
        4    1    3    3  502    0 -0.31023007156E+03  0.10992446147E+03 -0.11710334175E+03  0.34934351301E+03  0.12699999809E+01 0. -1.
       -4    1    3    3    0  502  0.31023007156E+03 -0.10992446147E+03  0.36500254570E+03  0.49148199947E+03  0.12699999809E+01 0.  1.
</event>
<event>
 5   0  0.2422031E-02  0.8082832E+03  0.7818609E-02  0.9548104E-01
        2   -1    0    0  501    0  0.00000000000E+00  0.00000000000E+00  0.30083644767E+03  0.30083644768E+03  0.25500000920E-02 0. -1.
       -2   -1    0    0    0  501  0.00000000000E+00  0.00000000000E+00 -0.54292096715E+03  0.54292096716E+03  0.25500000920E-02 0.  1.
    10030    2    1    2    0    0  0.00000000000E+00  0.00000000000E+00 -0.24208451948E+03  0.84375741484E+03  0.80828315616E+03 0.  0.
        4    1    3    3  502    0  0.70425525541E+02  0.31636008857E+03  0.13097700960E+03  0.34957123771E+03  0.12699999809E+01 0. -1.
       -4    1    3    3    0  502 -0.70425525541E+02 -0.31636008857E+03 -0.37306152909E+03  0.49418617713E+03  0.12699999809E+01 0.  1.
</event>
<event>
 5   0  0.2422031E-02  0.8180218E+03  0.7818609E-02  0.9534292E-01
        2   -1    0    0  501    0  0.00000000000E+00  0.00000000000E+00  0.43585453722E+03  0.43585453723E+03  0.25500000920E-02 0.  1.
       -2   -1    0    0    0  501  0.00000000000E+00  0.00000000000E+00 -0.38382048830E+03  0.38382048831E+03  0.25500000920E-02 0. -1.
    10030    2    1    2    0    0  0.00000000000E+00  0.00000000000E+00  0.52034048926E+02  0.81967502554E+03  0.81802176331E+03 0.  0.
        4    1    3    3  502    0  0.24609764210E+03 -0.28402245137E+03  0.18776037470E+03  0.42010519342E+03  0.12699999809E+01 0.  1.
       -4    1    3    3    0  502 -0.24609764210E+03  0.28402245137E+03 -0.13572632577E+03  0.39956983212E+03  0.12699999809E+01 0. -1.
</event>
<event>
 5   0  0.2454354E-02  0.6807591E+03  0.7818609E-02  0.9750714E-01
        2   -1    0    0  501    0  0.00000000000E+00  0.00000000000E+00  0.51739098462E+03  0.51739098462E+03  0.25500000920E-02 0. -1.
       -2   -1    0    0    0  501  0.00000000000E+00  0.00000000000E+00 -0.22392783125E+03  0.22392783127E+03  0.25500000920E-02 0.  1.
    10030    2    1    2    0    0  0.00000000000E+00  0.00000000000E+00  0.29346315337E+03  0.74131881589E+03  0.68075910894E+03 0.  0.
        5    1    3    3  502    0 -0.25713356064E+03  0.21574501206E+03  0.20806784711E+03  0.39494037175E+03  0.46999998093E+01 0. -1.
       -5    1    3    3    0  502  0.25713356064E+03 -0.21574501206E+03  0.85395306255E+02  0.34637844414E+03  0.46999998093E+01 0.  1.
</event>
<event>
 5   0  0.9919125E-03  0.7990341E+03  0.7818609E-02  0.9561416E-01
        3   -1    0    0  501    0  0.00000000000E+00  0.00000000000E+00  0.22947435072E+03  0.22947437295E+03  0.10100000352E+00 0. -1.
       -3   -1    0    0    0  501  0.00000000000E+00  0.00000000000E+00 -0.69556298835E+03  0.69556299568E+03  0.10100000352E+00 0.  1.
    10030    2    1    2    0    0  0.00000000000E+00  0.00000000000E+00 -0.46608863763E+03  0.92503736863E+03  0.79903411394E+03 0.  0.
        3    1    3    3  502    0  0.29922021689E+03 -0.13912874596E+02  0.73006751109E+02  0.30831202082E+03  0.10100000352E+00 0. -1.
       -3    1    3    3    0  502 -0.29922021689E+03  0.13912874596E+02 -0.53909538873E+03  0.61672534781E+03  0.10100000352E+00 0.  1.
</event>
<event>
 5   0  0.1624094E-02  0.7963207E+03  0.7818609E-02  0.9565358E-01
       -1   -1    0    0    0  501  0.00000000000E+00  0.00000000000E+00  0.21827130851E+03  0.21827130857E+03  0.50400001928E-02 0.  1.
        1   -1    0    0  501    0  0.00000000000E+00  0.00000000000E+00 -0.72630563382E+03  0.72630563384E+03  0.50400001928E-02 0. -1.
    10030    2    1    2    0    0  0.00000000000E+00  0.00000000000E+00 -0.50803432531E+03  0.94457694241E+03  0.79632074219E+03 0.  0.
        3    1    3    3  502    0 -0.17519535717E+03  0.67458812186E+02  0.16247703155E+03  0.24827988339E+03  0.10100000352E+00 0.  1.
       -3    1    3    3    0  502  0.17519535717E+03 -0.67458812186E+02 -0.67051135686E+03  0.69629705902E+03  0.10100000352E+00 0. -1.
</event>
<event>
 5   0  0.1471290E-02  0.7952259E+03  0.7818609E-02  0.9566953E-01
        1   -1    0    0  501    0  0.00000000000E+00  0.00000000000E+00  0.46251864262E+03  0.46251864265E+03  0.50400001928E-02 0.  1.
       -1   -1    0    0    0  501  0.00000000000E+00  0.00000000000E+00 -0.34181552125E+03  0.34181552129E+03  0.50400001928E-02 0. -1.
    10030    2    1    2    0    0  0.00000000000E+00  0.00000000000E+00  0.12070312137E+03  0.80433416393E+03  0.79522588223E+03 0.  0.
        2    1    3    3  502    0  0.56351135657E+01 -0.19081953058E+03  0.41313321980E+03  0.45510757527E+03  0.25500000920E-02 0.  1.
       -2    1    3    3    0  502 -0.56351135657E+01  0.19081953058E+03 -0.29243009844E+03  0.34922658867E+03  0.25500000920E-02 0. -1.
</event>
<event>
 5   0  0.2571778E-02  0.8028573E+03  0.7818609E-02  0.9555890E-01
       -2   -1    0    0    0  501  0.00000000000E+00  0.00000000000E+00  0.40806477075E+03  0.40806477075E+03  0.25500000920E-02 0.  1.
        2   -1    0    0  501    0  0.00000000000E+00  0.00000000000E+00 -0.39490048382E+03  0.39490048383E+03  0.25500000920E-02 0. -1.
    10030    2    1    2    0    0  0.00000000000E+00  0.00000000000E+00  0.13164286927E+02  0.80296525458E+03  0.80285733578E+03 0.  0.
        1    1    3    3  502    0  0.76123975328E+02 -0.24760663790E+03 -0.30012024001E+03  0.39645436716E+03  0.50400001928E-02 0.  1.
       -1    1    3    3    0  502 -0.76123975328E+02  0.24760663790E+03  0.31328452694E+03  0.40651088742E+03  0.50400001928E-02 0. -1.
</event>
<event>
 5   0  0.1471290E-02  0.7930506E+03  0.7818609E-02  0.9570131E-01
        1   -1    0    0  501    0  0.00000000000E+00  0.00000000000E+00  0.89558631102E+03  0.89558631104E+03  0.50400001928E-02 0. -1.
       -1   -1    0    0    0  501  0.00000000000E+00  0.00000000000E+00 -0.17556354194E+03  0.17556354202E+03  0.50400001928E-02 0.  1.
    10030    2    1    2    0    0  0.00000000000E+00  0.00000000000E+00  0.72002276908E+03  0.10711498531E+04  0.79305057828E+03 0.  0.
        2    1    3    3  502    0 -0.18935815664E+03  0.12641216695E+03 -0.78479844874E+02  0.24082282595E+03  0.25500000920E-02 0.  1.
       -2    1    3    3    0  502  0.18935815664E+03 -0.12641216695E+03  0.79850261395E+03  0.83032702710E+03  0.25500000920E-02 0. -1.
</event>
<event>
 5   0  0.2422031E-02  0.7935088E+03  0.7818609E-02  0.9569461E-01
       -2   -1    0    0    0  501  0.00000000000E+00  0.00000000000E+00  0.78108856946E+03  0.78108856946E+03  0.25500000920E-02 0. -1.
        2   -1    0    0  501    0  0.00000000000E+00  0.00000000000E+00 -0.20153163132E+03  0.20153163134E+03  0.25500000920E-02 0.  1.
    10030    2    1    2    0    0  0.00000000000E+00  0.00000000000E+00  0.57955693814E+03  0.98262020080E+03  0.79350879924E+03 0.  0.
        4    1    3    3  502    0 -0.27188906896E+03  0.28749761627E+03  0.32553783137E+03  0.51240124682E+03  0.12699999809E+01 0.  1.
       -4    1    3    3    0  502  0.27188906896E+03 -0.28749761627E+03  0.25401910676E+03  0.47021895398E+03  0.12699999809E+01 0. -1.
</event>
<event>
 5   0  0.9919125E-03  0.8054134E+03  0.7818609E-02  0.9552214E-01
        3   -1    0    0  501    0  0.00000000000E+00  0.00000000000E+00  0.27282340286E+03  0.27282342156E+03  0.10100000352E+00 0. -1.
       -3   -1    0    0    0  501  0.00000000000E+00  0.00000000000E+00 -0.59442364771E+03  0.59442365629E+03  0.10100000352E+00 0.  1.
    10030    2    1    2    0    0  0.00000000000E+00  0.00000000000E+00 -0.32160024485E+03  0.86724707785E+03  0.80541341965E+03 0.  0.
        2    1    3    3  502    0  0.61793952377E+02 -0.34658778076E+03 -0.37133907003E+03  0.51169745676E+03  0.25500000920E-02 0.  1.
       -2    1    3    3    0  502 -0.61793952377E+02  0.34658778076E+03  0.49738825177E+02  0.35554962109E+03  0.25500000920E-02 0. -1.
</event>
<event>
 5   0  0.2460312E-02  0.7988494E+03  0.7818609E-02  0.9561684E-01
       -2   -1    0    0    0  501  0.00000000000E+00  0.00000000000E+00  0.11517525950E+03  0.11517525953E+03  0.25500000920E-02 0.  1.
        2   -1    0    0  501    0  0.00000000000E+00  0.00000000000E+00 -0.13851940763E+04  0.13851940763E+04  0.25500000920E-02 0. -1.
    10030    2    1    2    0    0  0.00000000000E+00  0.00000000000E+00 -0.12700188168E+04  0.15003693358E+04  0.79884939061E+03 0.  0.
        2    1    3    3  502    0 -0.38389738670E+03  0.74358229569E+02 -0.48203724489E+03  0.62069819984E+03  0.25500000920E-02 0.  1.
       -2    1    3    3    0  502  0.38389738670E+03 -0.74358229569E+02 -0.78798157187E+03  0.87967113596E+03  0.25500000920E-02 0. -1.
</event>
<event>
 5   0  0.1498375E-02  0.8209024E+03  0.7818609E-02  0.9530245E-01
        1   -1    0    0  501    0  0.00000000000E+00  0.00000000000E+00  0.13487238893E+04  0.13487238893E+04  0.50400001928E-02 0.  1.
       -1   -1    0    0    0  501  0.00000000000E+00  0.00000000000E+00 -0.12491079221E+03  0.12491079231E+03  0.50400001928E-02 0. -1.
    10030    2    1    2    0    0  0.00000000000E+00  0.00000000000E+00  0.12238130971E+04  0.14736346816E+04  0.82090235611E+03 0.  0.
        4    1    3    3  502    0  0.36632451207E+03 -0.17062605391E+03  0.74087781227E+03  0.84392443028E+03  0.12699999809E+01 0. -1.
       -4    1    3    3    0  502 -0.36632451207E+03  0.17062605391E+03  0.48293528480E+03  0.62971025133E+03  0.12699999809E+01 0.  1.
</event>
<event>
 5   0  0.2422031E-02  0.7993812E+03  0.7818609E-02  0.9560913E-01
        2   -1    0    0  501    0  0.00000000000E+00  0.00000000000E+00  0.28397654459E+03  0.28397654460E+03  0.25500000920E-02 0. -1.
       -2   -1    0    0    0  501  0.00000000000E+00  0.00000000000E+00 -0.56255555212E+03  0.56255555212E+03  0.25500000920E-02 0.  1.
    10030    2    1    2    0    0  0.00000000000E+00  0.00000000000E+00 -0.27857900753E+03  0.84653209673E+03  0.79938121529E+03 0.  0.
        4    1    3    3  502    0 -0.13632331422E+03 -0.30154572746E+03 -0.37664634801E+03  0.50137606257E+03  0.12699999809E+01 0.  1.
       -4    1    3    3    0  502  0.13632331422E+03  0.30154572746E+03  0.98067340480E+02  0.34515603416E+03  0.12699999809E+01 0. -1.
</event>
<event>
 5   0  0.1624094E-02  0.8213755E+03  0.7818609E-02  0.9529582E-01
        1   -1    0    0  501    0  0.00000000000E+00  0.00000000000E+00  0.74934699198E+03  0.74934699200E+03  0.50400001928E-02 0. -1.
       -1   -1    0    0    0  501  0.00000000000E+00  0.00000000000E+00 -0.22508187788E+03  0.22508187793E+03  0.50400001928E-02 0.  1.
    10030    2    1    2    0    0  0.00000000000E+00  0.00000000000E+00  0.52426511410E+03  0.97442886993E+03  0.82137550042E+03 0.  0.
        3    1    3    3  502    0  0.25788024094E+03  0.23434054009E+03  0.42664959717E+01  0.34847657107E+03  0.10100000352E+00 0.  1.
       -3    1    3    3    0  502 -0.25788024094E+03 -0.23434054009E+03  0.51999861813E+03  0.62595229886E+03  0.10100000352E+00 0. -1.
</event>
<event>
 5   0  0.2454354E-02  0.6740481E+03  0.7818609E-02  0.9762672E-01
       -2   -1    0    0    0  501  0.00000000000E+00  0.00000000000E+00  0.82718701101E+02  0.82718701140E+02  0.25500000920E-02 0. -1.
        2   -1    0    0  501    0  0.00000000000E+00  0.00000000000E+00 -0.13731502099E+04  0.13731502099E+04  0.25500000920E-02 0.  1.
    10030    2    1    2    0    0  0.00000000000E+00  0.00000000000E+00 -0.12904315088E+04  0.14558689111E+04  0.67404807488E+03 0.  0.
        5    1    3    3  502    0  0.26903571573E+03  0.20262040668E+03 -0.66963933865E+03  0.74958267016E+03  0.46999998093E+01 0.  1.
       -5    1    3    3    0  502 -0.26903571573E+03 -0.20262040668E+03 -0.62079217018E+03  0.70628624091E+03  0.46999998093E+01 0. -1.
</event>
<event>
 5   0  0.2454354E-02  0.8436529E+03  0.7818609E-02  0.9498896E-01
       -2   -1    0    0    0  501  0.00000000000E+00  0.00000000000E+00  0.18711902241E+03  0.18711902243E+03  0.25500000920E-02 0. -1.
        2   -1    0    0  501    0  0.00000000000E+00  0.00000000000E+00 -0.95093251004E+03  0.95093251004E+03  0.25500000920E-02 0.  1.
    10030    2    1    2    0    0  0.00000000000E+00  0.00000000000E+00 -0.76381348763E+03  0.11380515325E+04  0.84365291836E+03 0.  0.
        5    1    3    3  502    0  0.81797502395E+01  0.38638587202E+03 -0.60985462325E+03  0.72201502887E+03  0.46999998093E+01 0.  1.
       -5    1    3    3    0  502 -0.81797502395E+01 -0.38638587202E+03 -0.15395886438E+03  0.41603650360E+03  0.46999998093E+01 0. -1.
</event>
<event>
 5   0  0.2571778E-02  0.8018733E+03  0.7818609E-02  0.9557309E-01
       -2   -1    0    0    0  501  0.00000000000E+00  0.00000000000E+00  0.32946701884E+03  0.32946701885E+03  0.25500000920E-02 0.  1.
        2   -1    0    0  501    0  0.00000000000E+00  0.00000000000E+00 -0.48790986404E+03  0.48790986404E+03  0.25500000920E-02 0. -1.
    10030    2    1    2    0    0  0.00000000000E+00  0.00000000000E+00 -0.15844284519E+03  0.81737688290E+03  0.80187332759E+03 0.  0.
        1    1    3    3  502    0 -0.12711803618E+03  0.28854891650E+02  0.30726435160E+03  0.33377085206E+03  0.50400001928E-02 0.  1.
       -1    1    3    3    0  502  0.12711803618E+03 -0.28854891650E+02 -0.46570719679E+03  0.48360603084E+03  0.50400001928E-02 0. -1.
</event>
<event>
 5   0  0.1471290E-02  0.8016363E+03  0.7818609E-02  0.9557652E-01
       -1   -1    0    0    0  501  0.00000000000E+00  0.00000000000E+00  0.50280134599E+03  0.50280134602E+03  0.50400001928E-02 0.  1.
        1   -1    0    0  501    0  0.00000000000E+00  0.00000000000E+00 -0.31952016772E+03  0.31952016776E+03  0.50400001928E-02 0. -1.
    10030    2    1    2    0    0  0.00000000000E+00  0.00000000000E+00  0.18328117827E+03  0.82232151378E+03  0.80163625275E+03 0.  0.
        2    1    3    3  502    0 -0.22828531494E+03 -0.32904257446E+03  0.74723544929E+02  0.40739024166E+03  0.25500000920E-02 0. -1.
       -2    1    3    3    0  502  0.22828531494E+03  0.32904257446E+03  0.10855763334E+03  0.41493127213E+03  0.25500000920E-02 0.  1.
</event>
<event>
 5   0  0.1624094E-02  0.7632756E+03  0.7818609E-02  0.9614750E-01
        1   -1    0    0  501    0  0.00000000000E+00  0.00000000000E+00  0.63295717570E+03  0.63295717572E+03  0.50400001928E-02 0.  1.
       -1   -1    0    0    0  501  0.00000000000E+00  0.00000000000E+00 -0.23010628814E+03  0.23010628819E+03  0.50400001928E-02 0. -1.
    10030    2    1    2    0    0  0.00000000000E+00  0.00000000000E+00  0.40285088756E+03  0.86306346391E+03  0.76327564165E+03 0.  0.
        3    1    3    3  502    0  0.36306042355E+03 -0.10781964039E+03  0.25457570360E+03  0.45634060203E+03  0.10100000352E+00 0. -1.
       -3    1    3    3    0  502 -0.36306042355E+03  0.10781964039E+03  0.14827518396E+03  0.40672286188E+03  0.10100000352E+00 0.  1.
</event>
<event>
 5   0  0.1523811E-02  0.7170655E+03  0.7818609E-02  0.9688485E-01
       -1   -1    0    0    0  501  0.00000000000E+00  0.00000000000E+00  0.31791054120E+03  0.31791054124E+03  0.50400001928E-02 0. -1.
        1   -1    0    0  501    0  0.00000000000E+00  0.00000000000E+00 -0.40434558930E+03  0.40434558933E+03  0.50400001928E-02 0.  1.
    10030    2    1    2    0    0  0.00000000000E+00  0.00000000000E+00 -0.86435048095E+02  0.72225613057E+03  0.71706547860E+03 0.  0.
        1    1    3    3  502    0  0.54486405371E+02 -0.20642404590E+03  0.24690582445E+03  0.32640793690E+03  0.50400001928E-02 0. -1.
       -1    1    3    3    0  502 -0.54486405371E+02  0.20642404590E+03 -0.33334087255E+03  0.39584819367E+03  0.50400001928E-02 0.  1.
</event>
<event>
 5   0  0.2422031E-02  0.7919730E+03  0.7818609E-02  0.9571709E-01
        2   -1    0    0  501    0  0.00000000000E+00  0.00000000000E+00  0.58774455020E+03  0.58774455021E+03  0.25500000920E-02 0.  1.
       -2   -1    0    0    0  501  0.00000000000E+00  0.00000000000E+00 -0.26679159253E+03  0.26679159254E+03  0.25500000920E-02 0. -1.
    10030    2    1    2    0    0  0.00000000000E+00  0.00000000000E+00  0.32095295767E+03  0.85453614275E+03  0.79197299085E+03 0.  0.
        4    1    3    3  502    0  0.21948285068E+03  0.32443518580E+03  0.97813060767E+02  0.40373248480E+03  0.12699999809E+01 0. -1.
       -4    1    3    3    0  502 -0.21948285068E+03 -0.32443518580E+03  0.22313989690E+03  0.45080365795E+03  0.12699999809E+01 0.  1.
</event>
<event>
 5   0  0.1509629E-02  0.7934895E+03  0.7818609E-02  0.9569489E-01
       -1   -1    0    0    0  501  0.00000000000E+00  0.00000000000E+00  0.10262119792E+03  0.10262119804E+03  0.50400001928E-02 0. -1.
        1   -1    0    0  501    0  0.00000000000E+00  0.00000000000E+00 -0.15338585684E+04  0.15338585684E+04  0.50400001928E-02 0.  1.
    10030    2    1    2    0    0  0.00000000000E+00  0.00000000000E+00 -0.14312373705E+04  0.16364797664E+04  0.79348951809E+03 0.  0.
        5    1    3    3  502    0 -0.32728118995E+03  0.35968341792E+02 -0.25919490662E+03  0.41905940930E+03  0.46999998093E+01 0. -1.
       -5    1    3    3    0  502  0.32728118995E+03 -0.35968341792E+02 -0.11720424638E+04  0.12174203571E+04  0.46999998093E+01 0.  1.
</event>
<event>
 5   0  0.1498375E-02  0.8027711E+03  0.7818609E-02  0.9556015E-01
        1   -1    0    0  501    0  0.00000000000E+00  0.00000000000E+00  0.75717410421E+03  0.75717410423E+03  0.50400001928E-02 0.  1.
       -1   -1    0    0    0  501  0.00000000000E+00  0.00000000000E+00 -0.21277846273E+03  0.21277846279E+03  0.50400001928E-02 0. -1.
    10030    2    1    2    0    0  0.00000000000E+00  0.00000000000E+00  0.54439564148E+03  0.96995256702E+03  0.80277105565E+03 0.  0.
        4    1    3    3  502    0 -0.32261543611E+03  0.16694040678E+03  0.47851929588E+03  0.60077628820E+03  0.12699999809E+01 0.  1.
       -4    1    3    3    0  502  0.32261543611E+03 -0.16694040678E+03  0.65876345602E+02  0.36917627882E+03  0.12699999809E+01 0. -1.
</event>
<event>
 5   0  0.1471290E-02  0.7949170E+03  0.7818609E-02  0.9567404E-01
        1   -1    0    0  501    0  0.00000000000E+00  0.00000000000E+00  0.19839510466E+03  0.19839510473E+03  0.50400001928E-02 0. -1.
       -1   -1    0    0    0  501  0.00000000000E+00  0.00000000000E+00 -0.79625589133E+03  0.79625589134E+03  0.50400001928E-02 0.  1.
    10030    2    1    2    0    0  0.00000000000E+00  0.00000000000E+00 -0.59786078666E+03  0.99465099607E+03  0.79491702948E+03 0.  0.
        2    1    3    3  502    0  0.22777277837E+01 -0.18024818324E+03  0.14430443975E+03  0.23090770222E+03  0.25500000920E-02 0. -1.
       -2    1    3    3    0  502 -0.22777277837E+01  0.18024818324E+03 -0.74216522641E+03  0.76374329385E+03  0.25500000920E-02 0.  1.
</event>
<event>
 5   0  0.2464780E-02  0.7654251E+03  0.7818609E-02  0.9611457E-01
       -2   -1    0    0    0  501  0.00000000000E+00  0.00000000000E+00  0.44767001605E+03  0.44767001606E+03  0.25500000920E-02 0.  1.
        2   -1    0    0  501    0  0.00000000000E+00  0.00000000000E+00 -0.32718047272E+03  0.32718047273E+03  0.25500000920E-02 0. -1.
    10030    2    1    2    0    0  0.00000000000E+00  0.00000000000E+00  0.12048954333E+03  0.77485048879E+03  0.76542507793E+03 0.  0.
        3    1    3    3  502    0 -0.94760286624E+02 -0.28557709453E+03  0.29966309704E+03  0.42465488432E+03  0.10100000352E+00 0.  1.
       -3    1    3    3    0  502  0.94760286624E+02  0.28557709453E+03 -0.17917355371E+03  0.35019560447E+03  0.10100000352E+00 0. -1.
</event>
<event>
 5   0  0.2422031E-02  0.8063148E+03  0.7818609E-02  0.9550921E-01
       -2   -1    0    0    0  501  0.00000000000E+00  0.00000000000E+00  0.23247704689E+03  0.23247704690E+03  0.25500000920E-02 0.  1.
        2   -1    0    0  501    0  0.00000000000E+00  0.00000000000E+00 -0.69914809122E+03  0.69914809123E+03  0.25500000920E-02 0. -1.
    10030    2    1    2    0    0  0.00000000000E+00  0.00000000000E+00 -0.46667104434E+03  0.93162513813E+03  0.80631478616E+03 0.  0.
        4    1    3    3  502    0 -0.87356907064E+02 -0.26792183445E+03 -0.56644867199E+03  0.63267610156E+03  0.12699999809E+01 0. -1.
       -4    1    3    3    0  502  0.87356907064E+02  0.26792183445E+03  0.99777627656E+02  0.29894903657E+03  0.12699999809E+01 0.  1.
</event>
<event>
 5   0  0.2571778E-02  0.8244193E+03  0.7818609E-02  0.9525329E-01
       -2   -1    0    0    0  501  0.00000000000E+00  0.00000000000E+00  0.22559801266E+03  0.22559801267E+03  0.25500000920E-02 0.  1.
        2   -1    0    0  501    0  0.00000000000E+00  0.00000000000E+00 -0.75318397040E+03  0.75318397040E+03  0.25500000920E-02 0. -1.
    10030    2    1    2    0    0  0.00000000000E+00  0.00000000000E+00 -0.52758595774E+03  0.97878198307E+03  0.82441932752E+03 0.  0.
        1    1    3    3  502    0 -0.18071489904E+03  0.17074321031E+03  0.12656411383E+03  0.27897955756E+03  0.50400001928E-02 0.  1.
       -1    1    3    3    0  502  0.18071489904E+03 -0.17074321031E+03 -0.65415007157E+03  0.69980242552E+03  0.50400001928E-02 0. -1.
</event>
<event>
 5   0  0.2464780E-02  0.8575273E+03  0.7818609E-02  0.9480289E-01
        2   -1    0    0  501    0  0.00000000000E+00  0.00000000000E+00  0.43971474173E+03  0.43971474174E+03  0.25500000920E-02 0. -1.
       -2   -1    0    0    0  501  0.00000000000E+00  0.00000000000E+00 -0.41808525815E+03  0.41808525815E+03  0.25500000920E-02 0.  1.
    10030    2    1    2    0    0  0.00000000000E+00  0.00000000000E+00  0.21629483586E+02  0.85779999989E+03  0.85752726211E+03 0.  0.
        3    1    3    3  502    0  0.41144683837E+03 -0.46794988681E+02 -0.10039601672E+03  0.42609581333E+03  0.10100000352E+00 0.  1.
       -3    1    3    3    0  502 -0.41144683837E+03  0.46794988681E+02  0.12202550031E+03  0.43170418656E+03  0.10100000352E+00 0. -1.
</event>
<event>
 5   0  0.1509629E-02  0.7944344E+03  0.7818609E-02  0.9568108E-01
       -1   -1    0    0    0  501  0.00000000000E+00  0.00000000000E+00  0.52951138854E+03  0.52951138857E+03  0.50400001928E-02 0. -1.
        1   -1    0    0  501    0  0.00000000000E+00  0.00000000000E+00 -0.29797563272E+03  0.29797563276E+03  0.50400001928E-02 0.  1.
    10030    2    1    2    0    0  0.00000000000E+00  0.00000000000E+00  0.23153575582E+03  0.82748702133E+03  0.79443436749E+03 0.  0.
        5    1    3    3  502    0 -0.43920587009E+02 -0.38850689057E+03  0.18862650288E+03  0.43412978425E+03  0.46999998093E+01 0. -1.
       -5    1    3    3    0  502  0.43920587009E+02  0.38850689057E+03  0.42909252939E+02  0.39335723709E+03  0.46999998093E+01 0.  1.
</event>
<event>
 5   0  0.1498375E-02  0.8025647E+03  0.7818609E-02  0.9556312E-01
       -1   -1    0    0    0  501  0.00000000000E+00  0.00000000000E+00  0.21576716984E+03  0.21576716990E+03  0.50400001928E-02 0. -1.
        1   -1    0    0  501    0  0.00000000000E+00  0.00000000000E+00 -0.74630231039E+03  0.74630231041E+03  0.50400001928E-02 0.  1.
    10030    2    1    2    0    0  0.00000000000E+00  0.00000000000E+00 -0.53053514055E+03  0.96206948031E+03  0.80256473233E+03 0.  0.
        4    1    3    3  502    0  0.52584015511E+02 -0.33390233817E+03 -0.60225656736E+01  0.33807356347E+03  0.12699999809E+01 0. -1.
       -4    1    3    3    0  502 -0.52584015511E+02  0.33390233817E+03 -0.52451257487E+03  0.62399591683E+03  0.12699999809E+01 0.  1.
</event>
<event>
 5   0  0.1624094E-02  0.8102923E+03  0.7818609E-02  0.9545238E-01
       -1   -1    0    0    0  501  0.00000000000E+00  0.00000000000E+00  0.22236591373E+03  0.22236591379E+03  0.50400001928E-02 0.  1.
        1   -1    0    0  501    0  0.00000000000E+00  0.00000000000E+00 -0.73816795555E+03  0.73816795557E+03  0.50400001928E-02 0. -1.
    10030    2    1    2    0    0  0.00000000000E+00  0.00000000000E+00 -0.51580204182E+03  0.96053386936E+03  0.81029227310E+03 0.  0.
        3    1    3    3  502    0 -0.26813393047E+03 -0.30335169464E+03 -0.27569516385E+03  0.48982230337E+03  0.10100000352E+00 0.  1.
       -3    1    3    3    0  502  0.26813393047E+03  0.30335169464E+03 -0.24010687797E+03  0.47071156599E+03  0.10100000352E+00 0. -1.
</event>
<event>
 5   0  0.1523811E-02  0.7939756E+03  0.7818609E-02  0.9568778E-01
       -1   -1    0    0    0  501  0.00000000000E+00  0.00000000000E+00  0.57200191616E+03  0.57200191618E+03  0.50400001928E-02 0. -1.
        1   -1    0    0  501    0  0.00000000000E+00  0.00000000000E+00 -0.27552236056E+03  0.27552236061E+03  0.50400001928E-02 0.  1.
    10030    2    1    2    0    0  0.00000000000E+00  0.00000000000E+00  0.29647955559E+03  0.84752427679E+03  0.79397561226E+03 0.  0.
        1    1    3    3  502    0  0.12747926570E+03  0.30840763175E+03 -0.81280697041E+02  0.34347166148E+03  0.50400001928E-02 0.  1.
       -1    1    3    3    0  502 -0.12747926570E+03 -0.30840763175E+03  0.37776025263E+03  0.50405261531E+03  0.50400001928E-02 0. -1.
</event>
<event>
 5   0  0.2422031E-02  0.7656788E+03  0.7818609E-02  0.9611069E-01
       -2   -1    0    0    0  501  0.00000000000E+00  0.00000000000E+00  0.98871552180E+02  0.98871552213E+02  0.25500000920E-02 0. -1.
        2   -1    0    0  501    0  0.00000000000E+00  0.00000000000E+00 -0.14823880691E+04  0.14823880691E+04  0.25500000920E-02 0.  1.
    10030    2    1    2    0    0  0.00000000000E+00  0.00000000000E+00 -0.13835165170E+04  0.15812596214E+04  0.76567880826E+03 0.  0.
        4    1    3    3  502    0 -0.32739693409E+03  0.65408235010E+02 -0.10786541059E+04  0.11291427203E+04  0.12699999809E+01 0.  1.
       -4    1    3    3    0  502  0.32739693409E+03 -0.65408235010E+02 -0.30486241102E+03  0.45211690105E+03  0.12699999809E+01 0. -1.
</event>
<event>
 5   0  0.2571778E-02  0.7823813E+03  0.7818609E-02  0.9585875E-01
       -2   -1    0    0    0  501  0.00000000000E+00  0.00000000000E+00  0.63435253199E+03  0.63435253200E+03  0.25500000920E-02 0. -1.
        2   -1    0    0  501    0  0.00000000000E+00  0.00000000000E+00 -0.24123831800E+03  0.24123831801E+03  0.25500000920E-02 0.  1.
    10030    2    1    2    0    0  0.00000000000E+00  0.00000000000E+00  0.39311421399E+03  0.87559085001E+03  0.78238133374E+03 0.  0.
        1    1    3    3  502    0 -0.38289135890E+03 -0.68997929880E+02  0.24220399835E+03  0.45828951973E+03  0.50400001928E-02 0.  1.
       -1    1    3    3    0  502  0.38289135890E+03  0.68997929880E+02  0.15091021564E+03  0.41730133028E+03  0.50400001928E-02 0. -1.
</event>
<event>
 5   0  0.2460312E-02  0.8030170E+03  0.7818609E-02  0.9555660E-01
       -2   -1    0    0    0  501  0.00000000000E+00  0.00000000000E+00  0.95854091638E+02  0.95854091672E+02  0.25500000920E-02 0. -1.
        2   -1    0    0  501    0  0.00000000000E+00  0.00000000000E+00 -0.16818175265E+04  0.16818175265E+04  0.25500000920E-02 0.  1.
    10030    2    1    2    0    0  0.00000000000E+00  0.00000000000E+00 -0.15859634349E+04  0.17776716182E+04  0.80301703926E+03 0.  0.
        2    1    3    3  502    0  0.15900056362E+03 -0.33217076365E+03 -0.43884893746E+03  0.57289352009E+03  0.25500000920E-02 0. -1.
       -2    1    3    3    0  502 -0.15900056362E+03  0.33217076365E+03 -0.11471144974E+04  0.12047780981E+04  0.25500000920E-02 0.  1.
</event>
<event>
 5   0  0.1523811E-02  0.7918874E+03  0.7818609E-02  0.9571835E-01
        1   -1    0    0  501    0  0.00000000000E+00  0.00000000000E+00  0.36574312501E+03  0.36574312504E+03  0.50400001928E-02 0.  1.
       -1   -1    0    0    0  501  0.00000000000E+00  0.00000000000E+00 -0.42863806695E+03  0.42863806698E+03  0.50400001928E-02 0. -1.
    10030    2    1    2    0    0  0.00000000000E+00  0.00000000000E+00 -0.62894941944E+02  0.79438119203E+03  0.79188743172E+03 0.  0.
        1    1    3    3  502    0  0.16781622767E+03  0.23740951116E+03  0.23818487918E+03  0.37584251882E+03  0.50400001928E-02 0.  1.
       -1    1    3    3    0  502 -0.16781622767E+03 -0.23740951116E+03 -0.30107982112E+03  0.41853867321E+03  0.50400001928E-02 0. -1.
</event>
<event>
 5   0  0.2464780E-02  0.7438417E+03  0.7818609E-02  0.9645062E-01
       -2   -1    0    0    0  501  0.00000000000E+00  0.00000000000E+00  0.16667566612E+03  0.16667566614E+03  0.25500000920E-02 0. -1.
        2   -1    0    0  501    0  0.00000000000E+00  0.00000000000E+00 -0.82990595932E+03  0.82990595932E+03  0.25500000920E-02 0.  1.
    10030    2    1    2    0    0  0.00000000000E+00  0.00000000000E+00 -0.66323029320E+03  0.99658162546E+03  0.74384172670E+03 0.  0.
        3    1    3    3  502    0 -0.21536268328E+03 -0.22004184148E+03 -0.52100334623E+02  0.31227224088E+03  0.10100000352E+00 0. -1.
       -3    1    3    3    0  502  0.21536268328E+03  0.22004184148E+03 -0.61112995857E+03  0.68430938458E+03  0.10100000352E+00 0.  1.
</event>
<event>
 5   0  0.2454354E-02  0.8045471E+03  0.7818609E-02  0.9553459E-01
        2   -1    0    0  501    0  0.00000000000E+00  0.00000000000E+00  0.15955291223E+04  0.15955291223E+04  0.25500000920E-02 0.  1.
       -2   -1    0    0    0  501  0.00000000000E+00  0.00000000000E+00 -0.10142342231E+03  0.10142342234E+03  0.25500000920E-02 0. -1.
    10030    2    1    2    0    0  0.00000000000E+00  0.00000000000E+00  0.14941057000E+04  0.16969525446E+04  0.80454713723E+03 0.  0.
        5    1    3    3  502    0 -0.16323976465E+03  0.13085405726E+03  0.14716855961E+04  0.14864893504E+04  0.46999998093E+01 0.  1.
       -5    1    3    3    0  502  0.16323976465E+03 -0.13085405726E+03  0.22420103852E+02  0.21046319422E+03  0.46999998093E+01 0. -1.
</event>
<event>
 5   0  0.2571778E-02  0.8003762E+03  0.7818609E-02  0.9559473E-01
        2   -1    0    0  501    0  0.00000000000E+00  0.00000000000E+00  0.42190187078E+03  0.42190187079E+03  0.25500000920E-02 0. -1.
       -2   -1    0    0    0  501  0.00000000000E+00  0.00000000000E+00 -0.37959185550E+03  0.37959185550E+03  0.25500000920E-02 0.  1.
    10030    2    1    2    0    0  0.00000000000E+00  0.00000000000E+00  0.42310015283E+02  0.80149372629E+03  0.80037619648E+03 0.  0.
        1    1    3    3  502    0  0.33293991025E+03  0.18647384156E+03 -0.99549745154E+02  0.39437498553E+03  0.50400001928E-02 0. -1.
       -1    1    3    3    0  502 -0.33293991025E+03 -0.18647384156E+03  0.14185976044E+03  0.40711874076E+03  0.50400001928E-02 0.  1.
</event>
<event>
 5   0  0.1523811E-02  0.7878783E+03  0.7818609E-02  0.9577730E-01
       -1   -1    0    0    0  501  0.00000000000E+00  0.00000000000E+00  0.49746223938E+03  0.49746223941E+03  0.50400001928E-02 0.  1.
        1   -1    0    0  501    0  0.00000000000E+00  0.00000000000E+00 -0.31195946637E+03  0.31195946641E+03  0.50400001928E-02 0. -1.
    10030    2    1    2    0    0  0.00000000000E+00  0.00000000000E+00  0.18550277301E+03  0.80942170582E+03  0.78787830219E+03 0.  0.
        1    1    3    3  502    0 -0.37229346993E+02  0.27609062517E+03 -0.19338915152E+03  0.33913333888E+03  0.50400001928E-02 0. -1.
       -1    1    3    3    0  502  0.37229346993E+02 -0.27609062517E+03  0.37889192453E+03  0.47028836695E+03  0.50400001928E-02 0.  1.
</event>
<event>
 5   0  0.1498375E-02  0.8272765E+03  0.7818609E-02  0.9521354E-01
       -1   -1    0    0    0  501  0.00000000000E+00  0.00000000000E+00  0.21977509336E+03  0.21977509342E+03  0.50400001928E-02 0. -1.
        1   -1    0    0  501    0  0.00000000000E+00  0.00000000000E+00 -0.77850763714E+03  0.77850763716E+03  0.50400001928E-02 0.  1.
    10030    2    1    2    0    0  0.00000000000E+00  0.00000000000E+00 -0.55873254378E+03  0.99828273058E+03  0.82727646812E+03 0.  0.
        4    1    3    3  502    0  0.36648283348E+03  0.31610742394E+02 -0.50764207944E+03  0.62690589404E+03  0.12699999809E+01 0. -1.
       -4    1    3    3    0  502 -0.36648283348E+03 -0.31610742394E+02 -0.51090464342E+02  0.37137683654E+03  0.12699999809E+01 0.  1.
</event>
<event>
 5   0  0.1624094E-02  0.8114168E+03  0.7818609E-02  0.9543637E-01
       -1   -1    0    0    0  501  0.00000000000E+00  0.00000000000E+00  0.22736915624E+03  0.22736915630E+03  0.50400001928E-02 0. -1.
        1   -1    0    0  501    0  0.00000000000E+00  0.00000000000E+00 -0.72392986372E+03  0.72392986373E+03  0.50400001928E-02 0.  1.
    10030    2    1    2    0    0  0.00000000000E+00  0.00000000000E+00 -0.49656070747E+03  0.95129902003E+03  0.81141684066E+03 0.  0.
        3    1    3    3  502    0 -0.35905849427E+03 -0.13773923497E+02 -0.27426409524E+02  0.36036778631E+03  0.10100000352E+00 0. -1.
       -3    1    3    3    0  502  0.35905849427E+03  0.13773923497E+02 -0.46913429795E+03  0.59093123372E+03  0.10100000352E+00 0.  1.
</event>
<event>
 5   0  0.2422031E-02  0.7986156E+03  0.7818609E-02  0.9562023E-01
        2   -1    0    0  501    0  0.00000000000E+00  0.00000000000E+00  0.17563334172E+03  0.17563334173E+03  0.25500000920E-02 0. -1.
       -2   -1    0    0    0  501  0.00000000000E+00  0.00000000000E+00 -0.90783849210E+03  0.90783849210E+03  0.25500000920E-02 0.  1.
    10030    2    1    2    0    0  0.00000000000E+00  0.00000000000E+00 -0.73220515038E+03  0.10834718338E+04  0.79861557239E+03 0.  0.
        4    1    3    3  502    0  0.39830543322E+02 -0.22476917546E+02  0.17206550159E+03  0.17804447125E+03  0.12699999809E+01 0. -1.
       -4    1    3    3    0  502 -0.39830543322E+02  0.22476917546E+02 -0.90427065197E+03  0.90542736259E+03  0.12699999809E+01 0.  1.
</event>
<event>
 5   0  0.2454354E-02  0.8096361E+03  0.7818609E-02  0.9546173E-01
        2   -1    0    0  501    0  0.00000000000E+00  0.00000000000E+00  0.54653830551E+03  0.54653830551E+03  0.25500000920E-02 0.  1.
       -2   -1    0    0    0  501  0.00000000000E+00  0.00000000000E+00 -0.29984663114E+03  0.29984663115E+03  0.25500000920E-02 0. -1.
    10030    2    1    2    0    0  0.00000000000E+00  0.00000000000E+00  0.24669167437E+03  0.84638493667E+03  0.80963613977E+03 0.  0.
        5    1    3    3  502    0  0.75304888720E+02  0.24580704128E+03 -0.20351790456E+03  0.32792309355E+03  0.46999998093E+01 0. -1.
       -5    1    3    3    0  502 -0.75304888720E+02 -0.24580704128E+03  0.45020957893E+03  0.51846184311E+03  0.46999998093E+01 0.  1.
</event>
<event>
 5   0  0.2460312E-02  0.7988753E+03  0.7818609E-02  0.9561646E-01
       -2   -1    0    0    0  501  0.00000000000E+00  0.00000000000E+00  0.74705661873E+03  0.74705661873E+03  0.25500000920E-02 0. -1.
        2   -1    0    0  501    0  0.00000000000E+00  0.00000000000E+00 -0.21357209369E+03  0.21357209370E+03  0.25500000920E-02 0.  1.
    10030    2    1    2    0    0  0.00000000000E+00  0.00000000000E+00  0.53348452504E+03  0.96062871243E+03  0.79887532488E+03 0.  0.
        2    1    3    3  502    0 -0.12516555212E+03 -0.84159956114E+02  0.71149783931E+03  0.72730907392E+03  0.25500000920E-02 0. -1.
       -2    1    3    3    0  502  0.12516555212E+03  0.84159956114E+02 -0.17801331428E+03  0.23331963851E+03  0.25500000920E-02 0.  1.
</event>
<event>
 5   0  0.2464780E-02  0.7930114E+03  0.7818609E-02  0.9570188E-01
        2   -1    0    0  501    0  0.00000000000E+00  0.00000000000E+00  0.41411343167E+03  0.41411343168E+03  0.25500000920E-02 0. -1.
       -2   -1    0    0    0  501  0.00000000000E+00  0.00000000000E+00 -0.37964661831E+03  0.37964661831E+03  0.25500000920E-02 0.  1.
    10030    2    1    2    0    0  0.00000000000E+00  0.00000000000E+00  0.34466813367E+02  0.79376005000E+03  0.79301138437E+03 0.  0.
        3    1    3    3  502    0 -0.45326809718E+02  0.19496752903E+03 -0.32536139578E+03  0.38200380250E+03  0.10100000352E+00 0.  1.
       -3    1    3    3    0  502  0.45326809718E+02 -0.19496752903E+03  0.35982820915E+03  0.41175624750E+03  0.10100000352E+00 0. -1.
</event>
<event>
 5   0  0.2460312E-02  0.8264376E+03  0.7818609E-02  0.9522519E-01
       -2   -1    0    0    0  501  0.00000000000E+00  0.00000000000E+00  0.18750382756E+03  0.18750382757E+03  0.25500000920E-02 0. -1.
        2   -1    0    0  501    0  0.00000000000E+00  0.00000000000E+00 -0.91064679234E+03  0.91064679234E+03  0.25500000920E-02 0.  1.
    10030    2    1    2    0    0  0.00000000000E+00  0.00000000000E+00 -0.72314296478E+03  0.10981506199E+04  0.82643755754E+03 0.  0.
        2    1    3    3  502    0 -0.18013488584E+03 -0.35900811205E+03 -0.49049947144E+03  0.63397565655E+03  0.25500000920E-02 0. -1.
       -2    1    3    3    0  502  0.18013488584E+03  0.35900811205E+03 -0.23264349334E+03  0.46417496337E+03  0.25500000920E-02 0.  1.
</event>
<event>
 5   0  0.2464780E-02  0.7960447E+03  0.7818609E-02  0.9565760E-01
       -2   -1    0    0    0  501  0.00000000000E+00  0.00000000000E+00  0.72648249650E+03  0.72648249650E+03  0.25500000920E-02 0.  1.
        2   -1    0    0  501    0  0.00000000000E+00  0.00000000000E+00 -0.21806689488E+03  0.21806689490E+03  0.25500000920E-02 0. -1.
    10030    2    1    2    0    0  0.00000000000E+00  0.00000000000E+00  0.50841560162E+03  0.94454939140E+03  0.79604467766E+03 0.  0.
        3    1    3    3  502    0  0.39355909305E+03 -0.58604702502E+02  0.24243152846E+03  0.46593596885E+03  0.10100000352E+00 0.  1.
       -3    1    3    3    0  502 -0.39355909305E+03  0.58604702502E+02  0.26598407316E+03  0.47861342255E+03  0.10100000352E+00 0. -1.
</event>
<event>
 5   0  0.2464780E-02  0.7995403E+03  0.7818609E-02  0.9560683E-01
        2   -1    0    0  501    0  0.00000000000E+00  0.00000000000E+00  0.10374879513E+04  0.10374879513E+04  0.25500000920E-02 0.  1.
       -2   -1    0    0    0  501  0.00000000000E+00  0.00000000000E+00 -0.15404148996E+03  0.15404148998E+03  0.25500000920E-02 0. -1.
    10030    2    1    2    0    0  0.00000000000E+00  0.00000000000E+00  0.88344646136E+03  0.11915294413E+04  0.79954034256E+03 0.  0.
        3    1    3    3  502    0 -0.30477563634E+03 -0.25738838798E+03  0.48056205463E+03  0.62456134152E+03  0.10100000352E+00 0.  1.
       -3    1    3    3    0  502  0.30477563634E+03  0.25738838798E+03  0.40288440672E+03  0.56696809977E+03  0.10100000352E+00 0. -1.
</event>
<event>
 5   0  0.2422031E-02  0.8005793E+03  0.7818609E-02  0.9559179E-01
       -2   -1    0    0    0  501  0.00000000000E+00  0.00000000000E+00  0.64508201559E+03  0.64508201559E+03  0.25500000920E-02 0. -1.
        2   -1    0    0  501    0  0.00000000000E+00  0.00000000000E+00 -0.24838980560E+03  0.24838980562E+03  0.25500000920E-02 0.  1.
    10030    2    1    2    0    0  0.00000000000E+00  0.00000000000E+00  0.39669220999E+03  0.89347182121E+03  0.80057928142E+03 0.  0.
        4    1    3    3  502    0  0.25229450068E+03 -0.44040703398E+02  0.54167431177E+03  0.59917006898E+03  0.12699999809E+01 0. -1.
       -4    1    3    3    0  502 -0.25229450068E+03  0.44040703398E+02 -0.14498210179E+03  0.29430175223E+03  0.12699999809E+01 0.  1.
</event>
<event>
 5   0  0.1624094E-02  0.7866591E+03  0.7818609E-02  0.9579531E-01
        1   -1    0    0  501    0  0.00000000000E+00  0.00000000000E+00  0.46415197528E+03  0.46415197531E+03  0.50400001928E-02 0. -1.
       -1   -1    0    0    0  501  0.00000000000E+00  0.00000000000E+00 -0.33331354540E+03  0.33331354544E+03  0.50400001928E-02 0.  1.
    10030    2    1    2    0    0  0.00000000000E+00  0.00000000000E+00  0.13083842988E+03  0.79746552075E+03  0.78665911426E+03 0.  0.
        3    1    3    3  502    0 -0.16892660858E+03  0.32160804534E+03  0.21828927696E+03  0.42381381826E+03  0.10100000352E+00 0. -1.
       -3    1    3    3    0  502  0.16892660858E+03 -0.32160804534E+03 -0.87450847085E+02  0.37365170248E+03  0.10100000352E+00 0.  1.
</event>
<event>
 5   0  0.1471290E-02  0.8013981E+03  0.7818609E-02  0.9557996E-01
       -1   -1    0    0    0  501  0.00000000000E+00  0.00000000000E+00  0.14899872173E+03  0.14899872181E+03  0.50400001928E-02 0. -1.
        1   -1    0    0  501    0  0.00000000000E+00  0.00000000000E+00 -0.10775911945E+04  0.10775911945E+04  0.50400001928E-02 0.  1.
    10030    2    1    2    0    0  0.00000000000E+00  0.00000000000E+00 -0.92859247278E+03  0.12265899163E+04  0.80139805486E+03 0.  0.
        2    1    3    3  502    0 -0.31569272822E+03 -0.10550589369E+03 -0.80573974669E+03  0.87178548488E+03  0.25500000920E-02 0.  1.
       -2    1    3    3    0  502  0.31569272822E+03  0.10550589369E+03 -0.12285272609E+03  0.35480443144E+03  0.25500000920E-02 0. -1.
</event>
<event>
 5   0  0.1471290E-02  0.8018074E+03  0.7818609E-02  0.9557405E-01
        1   -1    0    0  501    0  0.00000000000E+00  0.00000000000E+00  0.13558220905E+04  0.13558220906E+04  0.50400001928E-02 0. -1.
       -1   -1    0    0    0  501  0.00000000000E+00  0.00000000000E+00 -0.11854340960E+03  0.11854340971E+03  0.50400001928E-02 0.  1.
    10030    2    1    2    0    0  0.00000000000E+00  0.00000000000E+00  0.12372786809E+04  0.14743655003E+04  0.80180739211E+03 0.  0.
        2    1    3    3  502    0  0.33014967774E+03 -0.74652305065E+02  0.22360909045E+03  0.40567573467E+03  0.25500000920E-02 0.  1.
       -2    1    3    3    0  502 -0.33014967774E+03  0.74652305065E+02  0.10136695905E+04  0.10686897656E+04  0.25500000920E-02 0. -1.
</event>
<event>
 5   0  0.1624094E-02  0.8003296E+03  0.7818609E-02  0.9559540E-01
        1   -1    0    0  501    0  0.00000000000E+00  0.00000000000E+00  0.77584527950E+03  0.77584527952E+03  0.50400001928E-02 0.  1.
       -1   -1    0    0    0  501  0.00000000000E+00  0.00000000000E+00 -0.20639665887E+03  0.20639665893E+03  0.50400001928E-02 0. -1.
    10030    2    1    2    0    0  0.00000000000E+00  0.00000000000E+00  0.56944862064E+03  0.98224193845E+03  0.80032961591E+03 0.  0.
        3    1    3    3  502    0 -0.97824854676E+02  0.27887316130E+03 -0.46400082903E+02  0.29915367318E+03  0.10100000352E+00 0. -1.
       -3    1    3    3    0  502  0.97824854676E+02 -0.27887316130E+03  0.61584870354E+03  0.68308826526E+03  0.10100000352E+00 0.  1.
</event>
<event>
 5   0  0.2571778E-02  0.8081974E+03  0.7818609E-02  0.9548227E-01
       -2   -1    0    0    0  501  0.00000000000E+00  0.00000000000E+00  0.20621959505E+03  0.20621959507E+03  0.25500000920E-02 0. -1.
        2   -1    0    0  501    0  0.00000000000E+00  0.00000000000E+00 -0.79185370640E+03  0.79185370640E+03  0.25500000920E-02 0.  1.
    10030    2    1    2    0    0  0.00000000000E+00  0.00000000000E+00 -0.58563411135E+03  0.99807330147E+03  0.80819737857E+03 0.  0.
        1    1    3    3  502    0  0.36712774054E+03 -0.10516154754E+03 -0.12966492242E+03  0.40330474965E+03  0.50400001928E-02 0.  1.
       -1    1    3    3    0  502 -0.36712774054E+03  0.10516154754E+03 -0.45596918893E+03  0.59476855182E+03  0.50400001928E-02 0. -1.
</event>
<event>
 5   0  0.1624094E-02  0.8017648E+03  0.7818609E-02  0.9557466E-01
       -1   -1    0    0    0  501  0.00000000000E+00  0.00000000000E+00  0.15288795609E+03  0.15288795617E+03  0.50400001928E-02 0.  1.
        1   -1    0    0  501    0  0.00000000000E+00  0.00000000000E+00 -0.10511403346E+04  0.10511403346E+04  0.50400001928E-02 0. -1.
    10030    2    1    2    0    0  0.00000000000E+00  0.00000000000E+00 -0.89825237854E+03  0.12040282908E+04  0.80176479688E+03 0.  0.
        3    1    3    3  502    0 -0.21119690124E+03  0.31510790466E+03 -0.25442529832E+03  0.45675963624E+03  0.10100000352E+00 0. -1.
       -3    1    3    3    0  502  0.21119690124E+03 -0.31510790466E+03 -0.64382708022E+03  0.74726865457E+03  0.10100000352E+00 0.  1.
</event>
<event>
 5   0  0.2464780E-02  0.8027111E+03  0.7818609E-02  0.9556101E-01
        2   -1    0    0  501    0  0.00000000000E+00  0.00000000000E+00  0.43923364662E+03  0.43923364663E+03  0.25500000920E-02 0.  1.
       -2   -1    0    0    0  501  0.00000000000E+00  0.00000000000E+00 -0.36674394561E+03  0.36674394562E+03  0.25500000920E-02 0. -1.
    10030    2    1    2    0    0  0.00000000000E+00  0.00000000000E+00  0.72489701012E+02  0.80597759224E+03  0.80271110771E+03 0.  0.
        3    1    3    3  502    0  0.25411812120E+03  0.24587634303E+03  0.22689927822E+03  0.42013627341E+03  0.10100000352E+00 0.  1.
       -3    1    3    3    0  502 -0.25411812120E+03 -0.24587634303E+03 -0.15440957720E+03  0.38584131883E+03  0.10100000352E+00 0. -1.
</event>
<event>
 5   0  0.1523811E-02  0.7943541E+03  0.7818609E-02  0.9568226E-01
       -1   -1    0    0    0  501  0.00000000000E+00  0.00000000000E+00  0.14274503250E+03  0.14274503259E+03  0.50400001928E-02 0.  1.
        1   -1    0    0  501    0  0.00000000000E+00  0.00000000000E+00 -0.11051144273E+04  0.11051144273E+04  0.50400001928E-02 0. -1.
    10030    2    1    2    0    0  0.00000000000E+00  0.00000000000E+00 -0.96236939477E+03  0.12478594599E+04  0.79435406438E+03 0.  0.
        1    1    3    3  502    0  0.17868240965E+03  0.20694731195E+03 -0.93374611079E+03  0.97295241039E+03  0.50400001928E-02 0. -1.
       -1    1    3    3    0  502 -0.17868240965E+03 -0.20694731195E+03 -0.28623283981E+02  0.27490704948E+03  0.50400001928E-02 0.  1.
</event>
<event>
 5   0  0.2422031E-02  0.7961839E+03  0.7818609E-02  0.9565557E-01
        2   -1    0    0  501    0  0.00000000000E+00  0.00000000000E+00  0.18193492588E+03  0.18193492589E+03  0.25500000920E-02 0. -1.
       -2   -1    0    0    0  501  0.00000000000E+00  0.00000000000E+00 -0.87106529452E+03  0.87106529452E+03  0.25500000920E-02 0.  1.
    10030    2    1    2    0    0  0.00000000000E+00  0.00000000000E+00 -0.68913036864E+03  0.10530002204E+04  0.79618389786E+03 0.  0.
        4    1    3    3  502    0 -0.10516122862E+03 -0.11617539458E+03  0.13942634503E+03  0.20975443953E+03  0.12699999809E+01 0. -1.
       -4    1    3    3    0  502  0.10516122862E+03  0.11617539458E+03 -0.82855671367E+03  0.84324578089E+03  0.12699999809E+01 0.  1.
</event>
<event>
 5   0  0.2422031E-02  0.8019824E+03  0.7818609E-02  0.9557152E-01
        2   -1    0    0  501    0  0.00000000000E+00  0.00000000000E+00  0.10342900395E+04  0.10342900396E+04  0.25500000920E-02 0.  1.
       -2   -1    0    0    0  501  0.00000000000E+00  0.00000000000E+00 -0.15546311047E+03  0.15546311049E+03  0.25500000920E-02 0. -1.
    10030    2    1    2    0    0  0.00000000000E+00  0.00000000000E+00  0.87882692908E+03  0.11897531500E+04  0.80198241050E+03 0.  0.
        4    1    3    3  502    0  0.55246419144E+02 -0.28359503747E+03  0.26916124384E+02  0.29017994892E+03  0.12699999809E+01 0. -1.
       -4    1    3    3    0  502 -0.55246419144E+02  0.28359503747E+03  0.85191080470E+03  0.89957320112E+03  0.12699999809E+01 0.  1.
</event>
<event>
 5   0  0.1509629E-02  0.7993687E+03  0.7818609E-02  0.9560931E-01
        1   -1    0    0  501    0  0.00000000000E+00  0.00000000000E+00  0.78992776186E+03  0.78992776188E+03  0.50400001928E-02 0. -1.
       -1   -1    0    0    0  501  0.00000000000E+00  0.00000000000E+00 -0.20223062159E+03  0.20223062165E+03  0.50400001928E-02 0.  1.
    10030    2    1    2    0    0  0.00000000000E+00  0.00000000000E+00  0.58769714027E+03  0.99215838353E+03  0.79936870674E+03 0.  0.
        5    1    3    3  502    0 -0.32467550674E+01 -0.95762747457E+02 -0.18772898127E+03  0.21082055314E+03  0.46999998093E+01 0.  1.
       -5    1    3    3    0  502  0.32467550674E+01  0.95762747457E+02  0.77542612154E+03  0.78133783038E+03  0.46999998093E+01 0. -1.
</event>
<event>
 5   0  0.1624094E-02  0.7799545E+03  0.7818609E-02  0.9589494E-01
       -1   -1    0    0    0  501  0.00000000000E+00  0.00000000000E+00  0.28143939004E+03  0.28143939009E+03  0.50400001928E-02 0.  1.
        1   -1    0    0  501    0  0.00000000000E+00  0.00000000000E+00 -0.54037297301E+03  0.54037297303E+03  0.50400001928E-02 0. -1.
    10030    2    1    2    0    0  0.00000000000E+00  0.00000000000E+00 -0.25893358297E+03  0.82181236312E+03  0.77995446007E+03 0.  0.
        3    1    3    3  502    0 -0.35952573539E+02 -0.88846503489E+02 -0.52776960199E+03  0.53640194976E+03  0.10100000352E+00 0. -1.
       -3    1    3    3    0  502  0.35952573539E+02  0.88846503489E+02  0.26883601902E+03  0.28541041335E+03  0.10100000352E+00 0.  1.
</event>
<event>
 5   0  0.1471290E-02  0.8023063E+03  0.7818609E-02  0.9556685E-01
       -1   -1    0    0    0  501  0.00000000000E+00  0.00000000000E+00  0.16093478236E+03  0.16093478244E+03  0.50400001928E-02 0. -1.
        1   -1    0    0  501    0  0.00000000000E+00  0.00000000000E+00 -0.99993215334E+03  0.99993215335E+03  0.50400001928E-02 0.  1.
    10030    2    1    2    0    0  0.00000000000E+00  0.00000000000E+00 -0.83899737098E+03  0.11608669358E+04  0.80230633433E+03 0.  0.
        2    1    3    3  502    0  0.10675874925E+03 -0.94115154800E+02 -0.96217524950E+03  0.97264397580E+03  0.25500000920E-02 0.  1.
       -2    1    3    3    0  502 -0.10675874925E+03  0.94115154800E+02  0.12317787852E+03  0.18822295999E+03  0.25500000920E-02 0. -1.
</event>
<event>
 5   0  0.2422031E-02  0.7750351E+03  0.7818609E-02  0.9596873E-01
        2   -1    0    0  501    0  0.00000000000E+00  0.00000000000E+00  0.71045934462E+03  0.71045934462E+03  0.25500000920E-02 0. -1.
       -2   -1    0    0    0  501  0.00000000000E+00  0.00000000000E+00 -0.21137009503E+03  0.21137009505E+03  0.25500000920E-02 0.  1.
    10030    2    1    2    0    0  0.00000000000E+00  0.00000000000E+00  0.49908924959E+03  0.92182943967E+03  0.77503511971E+03 0.  0.
        4    1    3    3  502    0 -0.24100335179E+03  0.23321731769E+03  0.48047064489E+03  0.58594077034E+03  0.12699999809E+01 0. -1.
       -4    1    3    3    0  502  0.24100335179E+03 -0.23321731769E+03  0.18618604696E+02  0.33588866933E+03  0.12699999809E+01 0.  1.
</event>
<event>
 5   0  0.1624094E-02  0.7975475E+03  0.7818609E-02  0.9563574E-01
       -1   -1    0    0    0  501  0.00000000000E+00  0.00000000000E+00  0.77783889606E+03  0.77783889608E+03  0.50400001928E-02 0. -1.
        1   -1    0    0  501    0  0.00000000000E+00  0.00000000000E+00 -0.20443889178E+03  0.20443889185E+03  0.50400001928E-02 0.  1.
    10030    2    1    2    0    0  0.00000000000E+00  0.00000000000E+00  0.57340000428E+03  0.98227778792E+03  0.79754754575E+03 0.  0.
        3    1    3    3  502    0  0.22973150577E+02 -0.32311000663E+03  0.57314876355E+03  0.65835200112E+03  0.10100000352E+00 0. -1.
       -3    1    3    3    0  502 -0.22973150577E+02  0.32311000663E+03  0.25124073045E+00  0.32392578680E+03  0.10100000352E+00 0.  1.
</event>
<event>
 5   0  0.2460312E-02  0.7980965E+03  0.7818609E-02  0.9562776E-01
        2   -1    0    0  501    0  0.00000000000E+00  0.00000000000E+00  0.91978227281E+03  0.91978227282E+03  0.25500000920E-02 0. -1.
       -2   -1    0    0    0  501  0.00000000000E+00  0.00000000000E+00 -0.17312739876E+03  0.17312739878E+03  0.25500000920E-02 0.  1.
    10030    2    1    2    0    0  0.00000000000E+00  0.00000000000E+00  0.74665487406E+03  0.10929096716E+04  0.79809651629E+03 0.  0.
        2    1    3    3  502    0 -0.30936343279E+03  0.15934462685E+03  0.10588109084E+03  0.36374063432E+03  0.25500000920E-02 0.  1.
       -2    1    3    3    0  502  0.30936343279E+03 -0.15934462685E+03  0.64077378322E+03  0.72916903727E+03  0.25500000920E-02 0. -1.
</event>
<event>
 5   0  0.2422031E-02  0.8281394E+03  0.7818609E-02  0.9520157E-01
        2   -1    0    0  501    0  0.00000000000E+00  0.00000000000E+00  0.86036902472E+03  0.86036902473E+03  0.25500000920E-02 0. -1.
       -2   -1    0    0    0  501  0.00000000000E+00  0.00000000000E+00 -0.19927925468E+03  0.19927925470E+03  0.25500000920E-02 0.  1.
    10030    2    1    2    0    0  0.00000000000E+00  0.00000000000E+00  0.66108977004E+03  0.10596482794E+04  0.82813935544E+03 0.  0.
        4    1    3    3  502    0 -0.17361391893E+03 -0.35747394779E+03  0.18174947971E+03  0.43699416755E+03  0.12699999809E+01 0.  1.
       -4    1    3    3    0  502  0.17361391893E+03  0.35747394779E+03  0.47934029033E+03  0.62265411187E+03  0.12699999809E+01 0. -1.
</event>
<event>
 5   0  0.1509629E-02  0.7949986E+03  0.7818609E-02  0.9567285E-01
        1   -1    0    0  501    0  0.00000000000E+00  0.00000000000E+00  0.39094199004E+03  0.39094199007E+03  0.50400001928E-02 0.  1.
       -1   -1    0    0    0  501  0.00000000000E+00  0.00000000000E+00 -0.40416658373E+03  0.40416658376E+03  0.50400001928E-02 0. -1.
    10030    2    1    2    0    0  0.00000000000E+00  0.00000000000E+00 -0.13224593691E+02  0.79510857384E+03  0.79499858762E+03 0.  0.
        5    1    3    3  502    0 -0.38592861038E+03  0.43541166010E+01 -0.10161884894E+03  0.39913447746E+03  0.46999998093E+01 0. -1.
       -5    1    3    3    0  502  0.38592861038E+03 -0.43541166010E+01  0.88394255247E+02  0.39597409638E+03  0.46999998093E+01 0.  1.
</event>
<event>
 5   0  0.9919125E-03  0.7967068E+03  0.7818609E-02  0.9564796E-01
       -4   -1    0    0    0  501  0.00000000000E+00  0.00000000000E+00  0.11505950378E+04  0.11505957387E+04  0.12699999809E+01 0. -1.
        4   -1    0    0  501    0  0.00000000000E+00  0.00000000000E+00 -0.13791229528E+03  0.13791814271E+03  0.12699999809E+01 0.  1.
    10030    2    1    2    0    0  0.00000000000E+00  0.00000000000E+00  0.10126827426E+04  0.12885138814E+04  0.79670677517E+03 0.  0.
        4    1    3    3  502    0 -0.22277198848E+03 -0.72949578764E+02  0.10272395588E+04  0.10536468687E+04  0.12699999809E+01 0. -1.
       -4    1    3    3    0  502  0.22277198848E+03  0.72949578764E+02 -0.14556816190E+02  0.23486701278E+03  0.12699999809E+01 0.  1.
</event>
<event>
 5   0  0.2460312E-02  0.8102680E+03  0.7818609E-02  0.9545272E-01
        2   -1    0    0  501    0  0.00000000000E+00  0.00000000000E+00  0.72866905037E+03  0.72866905037E+03  0.25500000920E-02 0.  1.
       -2   -1    0    0    0  501  0.00000000000E+00  0.00000000000E+00 -0.22525114950E+03  0.22525114951E+03  0.25500000920E-02 0. -1.
    10030    2    1    2    0    0  0.00000000000E+00  0.00000000000E+00  0.50341790087E+03  0.95392019989E+03  0.81026795866E+03 0.  0.
        2    1    3    3  502    0  0.23777404428E+03  0.24425977309E+03  0.50946339302E+03  0.61298636340E+03  0.25500000920E-02 0.  1.
       -2    1    3    3    0  502 -0.23777404428E+03 -0.24425977309E+03 -0.60454921476E+01  0.34093383649E+03  0.25500000920E-02 0. -1.
</event>
<event>
 5   0  0.2464780E-02  0.7997649E+03  0.7818609E-02  0.9560357E-01
       -2   -1    0    0    0  501  0.00000000000E+00  0.00000000000E+00  0.43872670610E+03  0.43872670611E+03  0.25500000920E-02 0.  1.
        2   -1    0    0  501    0  0.00000000000E+00  0.00000000000E+00 -0.36447744496E+03  0.36447744497E+03  0.25500000920E-02 0. -1.
    10030    2    1    2    0    0  0.00000000000E+00  0.00000000000E+00  0.74249261138E+02  0.80320415107E+03  0.79976493767E+03 0.  0.
        3    1    3    3  502    0  0.26689000328E+03  0.22581838210E+03 -0.15782804126E+03  0.38358039099E+03  0.10100000352E+00 0. -1.
       -3    1    3    3    0  502 -0.26689000328E+03 -0.22581838210E+03  0.23207730240E+03  0.41962376009E+03  0.10100000352E+00 0.  1.
</event>
<event>
 5   0  0.2454354E-02  0.8022441E+03  0.7818609E-02  0.9556775E-01
        2   -1    0    0  501    0  0.00000000000E+00  0.00000000000E+00  0.67539011560E+03  0.67539011560E+03  0.25500000920E-02 0.  1.
       -2   -1    0    0    0  501  0.00000000000E+00  0.00000000000E+00 -0.23823106214E+03  0.23823106215E+03  0.25500000920E-02 0. -1.
    10030    2    1    2    0    0  0.00000000000E+00  0.00000000000E+00  0.43715905346E+03  0.91362117775E+03  0.80224411398E+03 0.  0.
        5    1    3    3  502    0  0.11214602959E+03 -0.35063900372E+03  0.39990921526E+03  0.54357512207E+03  0.46999998093E+01 0.  1.
       -5    1    3    3    0  502 -0.11214602959E+03  0.35063900372E+03  0.37249838197E+02  0.37004605568E+03  0.46999998093E+01 0. -1.
</event>
<event>
 5   0  0.1471290E-02  0.7899240E+03  0.7818609E-02  0.9574717E-01
       -1   -1    0    0    0  501  0.00000000000E+00  0.00000000000E+00  0.10969349684E+03  0.10969349695E+03  0.50400001928E-02 0.  1.
        1   -1    0    0  501    0  0.00000000000E+00  0.00000000000E+00 -0.14220985826E+04  0.14220985826E+04  0.50400001928E-02 0. -1.
    10030    2    1    2    0    0  0.00000000000E+00  0.00000000000E+00 -0.13124050857E+04  0.15317920795E+04  0.78992396207E+03 0.  0.
        2    1    3    3  502    0 -0.30139541525E+03  0.23262897790E+03 -0.85994887492E+03  0.94046132572E+03  0.25500000920E-02 0. -1.
       -2    1    3    3    0  502  0.30139541525E+03 -0.23262897790E+03 -0.45245621081E+03  0.59133075381E+03  0.25500000920E-02 0.  1.
</event>
<event>
 5   0  0.2460312E-02  0.7997996E+03  0.7818609E-02  0.9560307E-01
        2   -1    0    0  501    0  0.00000000000E+00  0.00000000000E+00  0.50668996418E+03  0.50668996418E+03  0.25500000920E-02 0. -1.
       -2   -1    0    0    0  501  0.00000000000E+00  0.00000000000E+00 -0.31561673984E+03  0.31561673985E+03  0.25500000920E-02 0.  1.
    10030    2    1    2    0    0  0.00000000000E+00  0.00000000000E+00  0.19107322434E+03  0.82230670403E+03  0.79979956141E+03 0.  0.
        2    1    3    3  502    0 -0.14171810341E+03  0.26708021860E+02  0.47902423245E+03  0.50026148617E+03  0.25500000920E-02 0. -1.
       -2    1    3    3    0  502  0.14171810341E+03 -0.26708021860E+02 -0.28795100811E+03  0.32204521786E+03  0.25500000920E-02 0.  1.
</event>
<event>
 5   0  0.9919125E-03  0.8100107E+03  0.7818609E-02  0.9545639E-01
        4   -1    0    0  501    0  0.00000000000E+00  0.00000000000E+00  0.65414281647E+03  0.65414404931E+03  0.12699999809E+01 0. -1.
       -4   -1    0    0    0  501  0.00000000000E+00  0.00000000000E+00 -0.25075154509E+03  0.25075476120E+03  0.12699999809E+01 0.  1.
    10030    2    1    2    0    0  0.00000000000E+00  0.00000000000E+00  0.40339127139E+03  0.90489881050E+03  0.81001070327E+03 0.  0.
        3    1    3    3  502    0  0.22093992445E+02 -0.57152984987E+02  0.64893679894E+03  0.65182327929E+03  0.10100000352E+00 0. -1.
       -3    1    3    3    0  502 -0.22093992445E+02  0.57152984987E+02 -0.24554552756E+03  0.25307553122E+03  0.10100000352E+00 0.  1.
</event>
<event>
 5   0  0.2454354E-02  0.8254263E+03  0.7818609E-02  0.9523926E-01
        2   -1    0    0  501    0  0.00000000000E+00  0.00000000000E+00  0.20724928102E+03  0.20724928104E+03  0.25500000920E-02 0. -1.
       -2   -1    0    0    0  501  0.00000000000E+00  0.00000000000E+00 -0.82187093050E+03  0.82187093050E+03  0.25500000920E-02 0.  1.
    10030    2    1    2    0    0  0.00000000000E+00  0.00000000000E+00 -0.61462164947E+03  0.10291202115E+04  0.82542633699E+03 0.  0.
        5    1    3    3  502    0  0.38362586175E+03  0.10914304777E+02 -0.11813715711E+03  0.40157988214E+03  0.46999998093E+01 0. -1.
       -5    1    3    3    0  502 -0.38362586175E+03 -0.10914304777E+02 -0.49648449237E+03  0.62754032939E+03  0.46999998093E+01 0.  1.
</event>
<event>
 5   0  0.1498375E-02  0.8076818E+03  0.7818609E-02  0.9548964E-01
        1   -1    0    0  501    0  0.00000000000E+00  0.00000000000E+00  0.71820710595E+03  0.71820710597E+03  0.50400001928E-02 0. -1.
       -1   -1    0    0    0  501  0.00000000000E+00  0.00000000000E+00 -0.22707584578E+03  0.22707584584E+03  0.50400001928E-02 0.  1.
    10030    2    1    2    0    0  0.00000000000E+00  0.00000000000E+00  0.49113126017E+03  0.94528295181E+03  0.80768183356E+03 0.  0.
        4    1    3    3  502    0  0.39371714546E+02 -0.38792401856E+03  0.36859713828E+03  0.53656373278E+03  0.12699999809E+01 0. -1.
       -4    1    3    3    0  502 -0.39371714546E+02  0.38792401856E+03  0.12253412188E+03  0.40871921903E+03  0.12699999809E+01 0.  1.
</event>
<event>
 5   0  0.1471290E-02  0.7999059E+03  0.7818609E-02  0.9560153E-01
       -1   -1    0    0    0  501  0.00000000000E+00  0.00000000000E+00  0.13176016640E+03  0.13176016649E+03  0.50400001928E-02 0.  1.
        1   -1    0    0  501    0  0.00000000000E+00  0.00000000000E+00 -0.12140420332E+04  0.12140420332E+04  0.50400001928E-02 0. -1.
    10030    2    1    2    0    0  0.00000000000E+00  0.00000000000E+00 -0.10822818668E+04  0.13458021997E+04  0.79990594542E+03 0.  0.
        2    1    3    3  502    0 -0.26306953441E+03  0.17104147747E+03 -0.95838057498E+03  0.10084414180E+04  0.25500000920E-02 0. -1.
       -2    1    3    3    0  502  0.26306953441E+03 -0.17104147747E+03 -0.12390129184E+03  0.33736078177E+03  0.25500000920E-02 0.  1.
</event>
<event>
 5   0  0.1523811E-02  0.8016742E+03  0.7818609E-02  0.9557597E-01
       -1   -1    0    0    0  501  0.00000000000E+00  0.00000000000E+00  0.42550470987E+03  0.42550470990E+03  0.50400001928E-02 0. -1.
        1   -1    0    0  501    0  0.00000000000E+00  0.00000000000E+00 -0.37759955911E+03  0.37759955915E+03  0.50400001928E-02 0.  1.
    10030    2    1    2    0    0  0.00000000000E+00  0.00000000000E+00  0.47905150759E+02  0.80310426905E+03  0.80167422529E+03 0.  0.
        1    1    3    3  502    0 -0.16888088697E+03  0.27511276750E+03  0.26199505080E+03  0.41575136259E+03  0.50400001928E-02 0. -1.
       -1    1    3    3    0  502  0.16888088697E+03 -0.27511276750E+03 -0.21408990004E+03  0.38735290647E+03  0.50400001928E-02 0.  1.
</event>
<event>
 5   0  0.2454354E-02  0.7797024E+03  0.7818609E-02  0.9589871E-01
        2   -1    0    0  501    0  0.00000000000E+00  0.00000000000E+00  0.27547033177E+03  0.27547033178E+03  0.25500000920E-02 0. -1.
       -2   -1    0    0    0  501  0.00000000000E+00  0.00000000000E+00 -0.55172532238E+03  0.55172532239E+03  0.25500000920E-02 0.  1.
    10030    2    1    2    0    0  0.00000000000E+00  0.00000000000E+00 -0.27625499061E+03  0.82719565417E+03  0.77970239863E+03 0.  0.
        5    1    3    3  502    0  0.72630447957E+02  0.11178668096E+03  0.25050591694E+03  0.28380759050E+03  0.46999998093E+01 0. -1.
       -5    1    3    3    0  502 -0.72630447957E+02 -0.11178668096E+03 -0.52676090755E+03  0.54338806366E+03  0.46999998093E+01 0.  1.
</event>
<event>
 5   0  0.1509629E-02  0.8199372E+03  0.7818609E-02  0.9531599E-01
        1   -1    0    0  501    0  0.00000000000E+00  0.00000000000E+00  0.50420384104E+03  0.50420384106E+03  0.50400001928E-02 0. -1.
       -1   -1    0    0    0  501  0.00000000000E+00  0.00000000000E+00 -0.33334584877E+03  0.33334584881E+03  0.50400001928E-02 0.  1.
    10030    2    1    2    0    0  0.00000000000E+00  0.00000000000E+00  0.17085799226E+03  0.83754968988E+03  0.81993721070E+03 0.  0.
        5    1    3    3  502    0  0.35503855695E+03 -0.12720867965E+03  0.24955942963E+03  0.45225703313E+03  0.46999998093E+01 0. -1.
       -5    1    3    3    0  502 -0.35503855695E+03  0.12720867965E+03 -0.78701437370E+02  0.38529265674E+03  0.46999998093E+01 0.  1.
</event>
<event>
 5   0  0.1624094E-02  0.7893053E+03  0.7818609E-02  0.9575628E-01
       -1   -1    0    0    0  501  0.00000000000E+00  0.00000000000E+00  0.45033795758E+03  0.45033795761E+03  0.50400001928E-02 0. -1.
        1   -1    0    0  501    0  0.00000000000E+00  0.00000000000E+00 -0.34585296690E+03  0.34585296694E+03  0.50400001928E-02 0.  1.
    10030    2    1    2    0    0  0.00000000000E+00  0.00000000000E+00  0.10448499069E+03  0.79619092455E+03  0.78930531169E+03 0.  0.
        3    1    3    3  502    0  0.19493510688E+01 -0.26096120476E+03  0.35087607474E+03  0.43728546784E+03  0.10100000352E+00 0. -1.
       -3    1    3    3    0  502 -0.19493510688E+01  0.26096120476E+03 -0.24639108405E+03  0.35890545671E+03  0.10100000352E+00 0.  1.
</event>
<event>
 5   0  0.2571778E-02  0.7986870E+03  0.7818609E-02  0.9561920E-01
        2   -1    0    0  501    0  0.00000000000E+00  0.00000000000E+00  0.81948586832E+03  0.81948586832E+03  0.25500000920E-02 0. -1.
       -2   -1    0    0    0  501  0.00000000000E+00  0.00000000000E+00 -0.19460402052E+03  0.19460402053E+03  0.25500000920E-02 0.  1.
    10030    2    1    2    0    0  0.00000000000E+00  0.00000000000E+00  0.62488184780E+03  0.10140898889E+04  0.79868703443E+03 0.  0.
        1    1    3    3  502    0 -0.90944142770E+02  0.18633172817E+03 -0.12090490820E+03  0.24001738871E+03  0.50400001928E-02 0.  1.
       -1    1    3    3    0  502  0.90944142770E+02 -0.18633172817E+03  0.74578675601E+03  0.77407250015E+03  0.50400001928E-02 0. -1.
</event>
<event>
 5   0  0.1523811E-02  0.7963018E+03  0.7818609E-02  0.9565386E-01
       -1   -1    0    0    0  501  0.00000000000E+00  0.00000000000E+00  0.67273771452E+03  0.67273771453E+03  0.50400001928E-02 0.  1.
        1   -1    0    0  501    0  0.00000000000E+00  0.00000000000E+00 -0.23564032615E+03  0.23564032621E+03  0.50400001928E-02 0. -1.
    10030    2    1    2    0    0  0.00000000000E+00  0.00000000000E+00  0.43709738836E+03  0.90837804074E+03  0.79630178826E+03 0.  0.
        1    1    3    3  502    0 -0.24649553776E+03  0.11976974856E+03  0.54802348041E+03  0.61272716433E+03  0.50400001928E-02 0.  1.
       -1    1    3    3    0  502  0.24649553776E+03 -0.11976974856E+03 -0.11092609204E+03  0.29565087642E+03  0.50400001928E-02 0. -1.
</event>
<event>
 5   0  0.2464780E-02  0.8005708E+03  0.7818609E-02  0.9559191E-01
       -2   -1    0    0    0  501  0.00000000000E+00  0.00000000000E+00  0.17788188172E+03  0.17788188174E+03  0.25500000920E-02 0.  1.
        2   -1    0    0  501    0  0.00000000000E+00  0.00000000000E+00 -0.90075720452E+03  0.90075720452E+03  0.25500000920E-02 0. -1.
    10030    2    1    2    0    0  0.00000000000E+00  0.00000000000E+00 -0.72287532280E+03  0.10786390863E+04  0.80057076271E+03 0.  0.
        3    1    3    3  502    0  0.12712770962E+03 -0.30959620692E+03 -0.65583952284E+02  0.34104622984E+03  0.10100000352E+00 0.  1.
       -3    1    3    3    0  502 -0.12712770962E+03  0.30959620692E+03 -0.65729137051E+03  0.73759285642E+03  0.10100000352E+00 0. -1.
</event>
<event>
 5   0  0.1523811E-02  0.8085679E+03  0.7818609E-02  0.9547698E-01
       -1   -1    0    0    0  501  0.00000000000E+00  0.00000000000E+00  0.24569522479E+03  0.24569522484E+03  0.50400001928E-02 0.  1.
        1   -1    0    0  501    0  0.00000000000E+00  0.00000000000E+00 -0.66523679820E+03  0.66523679822E+03  0.50400001928E-02 0. -1.
    10030    2    1    2    0    0  0.00000000000E+00  0.00000000000E+00 -0.41954157341E+03  0.91093202306E+03  0.80856788138E+03 0.  0.
        1    1    3    3  502    0 -0.28436529798E+03  0.28727879365E+03 -0.20158631576E+03  0.45169654714E+03  0.50400001928E-02 0.  1.
       -1    1    3    3    0  502  0.28436529798E+03 -0.28727879365E+03 -0.21795525765E+03  0.45923547591E+03  0.50400001928E-02 0. -1.
</event>
<event>
 5   0  0.1498375E-02  0.7858102E+03  0.7818609E-02  0.9580786E-01
        1   -1    0    0  501    0  0.00000000000E+00  0.00000000000E+00  0.32553994501E+03  0.32553994505E+03  0.50400001928E-02 0. -1.
       -1   -1    0    0    0  501  0.00000000000E+00  0.00000000000E+00 -0.47421036463E+03  0.47421036466E+03  0.50400001928E-02 0.  1.
    10030    2    1    2    0    0  0.00000000000E+00  0.00000000000E+00 -0.14867041962E+03  0.79975030970E+03  0.78581019604E+03 0.  0.
        4    1    3    3  502    0 -0.91164773670E+02 -0.86465334380E+02  0.30453957772E+03  0.32944383027E+03  0.12699999809E+01 0. -1.
       -4    1    3    3    0  502  0.91164773670E+02  0.86465334380E+02 -0.45320999734E+03  0.47030647943E+03  0.12699999809E+01 0.  1.
</event>
<event>
 5   0  0.2571778E-02  0.7632741E+03  0.7818609E-02  0.9614753E-01
        2   -1    0    0  501    0  0.00000000000E+00  0.00000000000E+00  0.27932421959E+03  0.27932421960E+03  0.25500000920E-02 0.  1.
       -2   -1    0    0    0  501  0.00000000000E+00  0.00000000000E+00 -0.52142567358E+03  0.52142567359E+03  0.25500000920E-02 0. -1.
    10030    2    1    2    0    0  0.00000000000E+00  0.00000000000E+00 -0.24210145399E+03  0.80074989319E+03  0.76327405132E+03 0.  0.
        1    1    3    3  502    0 -0.10122520813E+03 -0.17408669604E+03  0.21904843086E+03  0.29754820716E+03  0.50400001928E-02 0.  1.
       -1    1    3    3    0  502  0.10122520813E+03  0.17408669604E+03 -0.46114988485E+03  0.50320168603E+03  0.50400001928E-02 0. -1.
</event>
<event>
 5   0  0.1523811E-02  0.7683238E+03  0.7818609E-02  0.9607034E-01
        1   -1    0    0  501    0  0.00000000000E+00  0.00000000000E+00  0.85974267038E+03  0.85974267039E+03  0.50400001928E-02 0. -1.
       -1   -1    0    0    0  501  0.00000000000E+00  0.00000000000E+00 -0.17165642213E+03  0.17165642220E+03  0.50400001928E-02 0.  1.
    10030    2    1    2    0    0  0.00000000000E+00  0.00000000000E+00  0.68808624825E+03  0.10313990926E+04  0.76832376195E+03 0.  0.
        1    1    3    3  502    0  0.31231059891E+01 -0.32356442511E+03  0.66076307921E+02  0.33025712631E+03  0.50400001928E-02 0.  1.
       -1    1    3    3    0  502 -0.31231059891E+01  0.32356442511E+03  0.62200994033E+03  0.70114196628E+03  0.50400001928E-02 0. -1.
</event>
<event>
 5   0  0.1523811E-02  0.8163114E+03  0.7818609E-02  0.9536703E-01
        1   -1    0    0  501    0  0.00000000000E+00  0.00000000000E+00  0.54206396094E+03  0.54206396097E+03  0.50400001928E-02 0. -1.
       -1   -1    0    0    0  501  0.00000000000E+00  0.00000000000E+00 -0.30732734427E+03  0.30732734431E+03  0.50400001928E-02 0.  1.
    10030    2    1    2    0    0  0.00000000000E+00  0.00000000000E+00  0.23473661667E+03  0.84939130528E+03  0.81631140521E+03 0.  0.
        1    1    3    3  502    0 -0.75444289604E+02 -0.21583891455E+03 -0.23443456108E+03  0.32747189394E+03  0.50400001928E-02 0.  1.
       -1    1    3    3    0  502  0.75444289604E+02  0.21583891455E+03  0.46917117776E+03  0.52191941134E+03  0.50400001928E-02 0. -1.
</event>
<event>
 5   0  0.2464780E-02  0.7982629E+03  0.7818609E-02  0.9562535E-01
        2   -1    0    0  501    0  0.00000000000E+00  0.00000000000E+00  0.33155484377E+03  0.33155484378E+03  0.25500000920E-02 0.  1.
       -2   -1    0    0    0  501  0.00000000000E+00  0.00000000000E+00 -0.48048129479E+03  0.48048129479E+03  0.25500000920E-02 0. -1.
    10030    2    1    2    0    0  0.00000000000E+00  0.00000000000E+00 -0.14892645101E+03  0.81203613857E+03  0.79826286556E+03 0.  0.
        3    1    3    3  502    0 -0.50251322804E+02  0.18270098826E+02 -0.47682147449E+03  0.47981008815E+03  0.10100000352E+00 0. -1.
       -3    1    3    3    0  502  0.50251322804E+02 -0.18270098826E+02  0.32789502348E+03  0.33222605042E+03  0.10100000352E+00 0.  1.
</event>
<event>
 5   0  0.2454354E-02  0.7933959E+03  0.7818609E-02  0.9569626E-01
        2   -1    0    0  501    0  0.00000000000E+00  0.00000000000E+00  0.78652296178E+03  0.78652296178E+03  0.25500000920E-02 0. -1.
       -2   -1    0    0    0  501  0.00000000000E+00  0.00000000000E+00 -0.20008222353E+03  0.20008222355E+03  0.25500000920E-02 0.  1.
    10030    2    1    2    0    0  0.00000000000E+00  0.00000000000E+00  0.58644073825E+03  0.98660518533E+03  0.79339589881E+03 0.  0.
        5    1    3    3  502    0  0.68335251409E+02 -0.20130553713E+03 -0.12322683380E+03  0.24576527100E+03  0.46999998093E+01 0.  1.
       -5    1    3    3    0  502 -0.68335251409E+02  0.20130553713E+03  0.70966757204E+03  0.74083991433E+03  0.46999998093E+01 0. -1.
</event>
<event>
 5   0  0.2460312E-02  0.8070430E+03  0.7818609E-02  0.9549878E-01
        2   -1    0    0  501    0  0.00000000000E+00  0.00000000000E+00  0.68035732062E+03  0.68035732063E+03  0.25500000920E-02 0.  1.
       -2   -1    0    0    0  501  0.00000000000E+00  0.00000000000E+00 -0.23932953449E+03  0.23932953451E+03  0.25500000920E-02 0. -1.
    10030    2    1    2    0    0  0.00000000000E+00  0.00000000000E+00  0.44102778613E+03  0.91968685513E+03  0.80704299970E+03 0.  0.
        2    1    3    3  502    0  0.24681269915E+03  0.15556854956E+03 -0.97163275203E+02  0.30750412051E+03  0.25500000920E-02 0. -1.
       -2    1    3    3    0  502 -0.24681269915E+03 -0.15556854956E+03  0.53819106133E+03  0.61218273463E+03  0.25500000920E-02 0.  1.
</event>
<event>
 5   0  0.2460312E-02  0.7712904E+03  0.7818609E-02  0.9602529E-01
       -2   -1    0    0    0  501  0.00000000000E+00  0.00000000000E+00  0.15366308372E+03  0.15366308374E+03  0.25500000920E-02 0. -1.
        2   -1    0    0  501    0  0.00000000000E+00  0.00000000000E+00 -0.96784608658E+03  0.96784608658E+03  0.25500000920E-02 0.  1.
    10030    2    1    2    0    0  0.00000000000E+00  0.00000000000E+00 -0.81418300286E+03  0.11215091703E+04  0.77129038434E+03 0.  0.
        2    1    3    3  502    0  0.78365282317E+02 -0.15727911510E+03  0.92068001859E+02  0.19837931972E+03  0.25500000920E-02 0. -1.
       -2    1    3    3    0  502 -0.78365282317E+02  0.15727911510E+03 -0.90625100472E+03  0.92312985061E+03  0.25500000920E-02 0.  1.
</event>
<event>
 5   0  0.2464780E-02  0.8678407E+03  0.7818609E-02  0.9466700E-01
        2   -1    0    0  501    0  0.00000000000E+00  0.00000000000E+00  0.14309153400E+04  0.14309153400E+04  0.25500000920E-02 0.  1.
       -2   -1    0    0    0  501  0.00000000000E+00  0.00000000000E+00 -0.13158492584E+03  0.13158492586E+03  0.25500000920E-02 0. -1.
    10030    2    1    2    0    0  0.00000000000E+00  0.00000000000E+00  0.12993304142E+04  0.15625002659E+04  0.86784074327E+03 0.  0.
        3    1    3    3  502    0 -0.22885257060E+03 -0.34800838488E+03  0.86872511943E+03  0.96341407419E+03  0.10100000352E+00 0.  1.
       -3    1    3    3    0  502  0.22885257060E+03  0.34800838488E+03  0.43060529477E+03  0.59908619171E+03  0.10100000352E+00 0. -1.
</event>
<event>
 5   0  0.1471290E-02  0.8036606E+03  0.7818609E-02  0.9554734E-01
        1   -1    0    0  501    0  0.00000000000E+00  0.00000000000E+00  0.67096000048E+03  0.67096000050E+03  0.50400001928E-02 0.  1.
       -1   -1    0    0    0  501  0.00000000000E+00  0.00000000000E+00 -0.24065157791E+03  0.24065157796E+03  0.50400001928E-02 0. -1.
    10030    2    1    2    0    0  0.00000000000E+00  0.00000000000E+00  0.43030842257E+03  0.91161157846E+03  0.80366058224E+03 0.  0.
        2    1    3    3  502    0  0.25542843817E+03 -0.28243409640E+03  0.69647010739E+02  0.38712196004E+03  0.25500000920E-02 0. -1.
       -2    1    3    3    0  502 -0.25542843817E+03  0.28243409640E+03  0.36066141183E+03  0.52448961842E+03  0.25500000920E-02 0.  1.
</event>
<event>
 5   0  0.2571778E-02  0.7925343E+03  0.7818609E-02  0.9570887E-01
        2   -1    0    0  501    0  0.00000000000E+00  0.00000000000E+00  0.11990305349E+04  0.11990305349E+04  0.25500000920E-02 0.  1.
       -2   -1    0    0    0  501  0.00000000000E+00  0.00000000000E+00 -0.13096217468E+03  0.13096217471E+03  0.25500000920E-02 0. -1.
    10030    2    1    2    0    0  0.00000000000E+00  0.00000000000E+00  0.10680683602E+04  0.13299927096E+04  0.79253428035E+03 0.  0.
        1    1    3    3  502    0 -0.30379287593E+03 -0.18811828661E+03  0.24654057284E+03  0.43412078423E+03  0.50400001928E-02 0. -1.
       -1    1    3    3    0  502  0.30379287593E+03  0.18811828661E+03  0.82152778739E+03  0.89587192539E+03  0.50400001928E-02 0.  1.
</event>
<event>
 5   0  0.1523811E-02  0.7898934E+03  0.7818609E-02  0.9574762E-01
        1   -1    0    0  501    0  0.00000000000E+00  0.00000000000E+00  0.48968601077E+03  0.48968601080E+03  0.50400001928E-02 0.  1.
       -1   -1    0    0    0  501  0.00000000000E+00  0.00000000000E+00 -0.31853655487E+03  0.31853655491E+03  0.50400001928E-02 0. -1.
    10030    2    1    2    0    0  0.00000000000E+00  0.00000000000E+00  0.17114945590E+03  0.80822256571E+03  0.78989339753E+03 0.  0.
        1    1    3    3  502    0 -0.35657843071E+03 -0.16199623618E+03  0.13766716954E+03  0.41514239410E+03  0.50400001928E-02 0.  1.
       -1    1    3    3    0  502  0.35657843071E+03  0.16199623618E+03  0.33482286365E+02  0.39308017161E+03  0.50400001928E-02 0. -1.
</event>
<event>
 5   0  0.1624094E-02  0.7987100E+03  0.7818609E-02  0.9561886E-01
       -1   -1    0    0    0  501  0.00000000000E+00  0.00000000000E+00  0.37621619717E+03  0.37621619720E+03  0.50400001928E-02 0. -1.
        1   -1    0    0  501    0  0.00000000000E+00  0.00000000000E+00 -0.42391697961E+03  0.42391697964E+03  0.50400001928E-02 0.  1.
    10030    2    1    2    0    0  0.00000000000E+00  0.00000000000E+00 -0.47700782437E+02  0.80013317684E+03  0.79871004503E+03 0.  0.
        3    1    3    3  502    0  0.28021768210E+03  0.16301650498E+03  0.20977769421E+03  0.38613860393E+03  0.10100000352E+00 0. -1.
       -3    1    3    3    0  502 -0.28021768210E+03 -0.16301650498E+03 -0.25747847664E+03  0.41399457290E+03  0.10100000352E+00 0.  1.
</event>
<event>
 5   0  0.1498375E-02  0.7904420E+03  0.7818609E-02  0.9573956E-01
       -1   -1    0    0    0  501  0.00000000000E+00  0.00000000000E+00  0.58728669053E+02  0.58728669269E+02  0.50400001928E-02 0. -1.
        1   -1    0    0  501    0  0.00000000000E+00  0.00000000000E+00 -0.26596831392E+04  0.26596831392E+04  0.50400001928E-02 0.  1.
    10030    2    1    2    0    0  0.00000000000E+00  0.00000000000E+00 -0.26009544701E+04  0.27184118085E+04  0.79044203119E+03 0.  0.
        4    1    3    3  502    0  0.18662891579E+03  0.33802248875E+03 -0.15904342979E+04  0.16366344809E+04  0.12699999809E+01 0.  1.
       -4    1    3    3    0  502 -0.18662891579E+03 -0.33802248875E+03 -0.10105201722E+04  0.10817773276E+04  0.12699999809E+01 0. -1.
</event>
<event>
 5   0  0.2422031E-02  0.7725700E+03  0.7818609E-02  0.9600592E-01
       -2   -1    0    0    0  501  0.00000000000E+00  0.00000000000E+00  0.10303215655E+03  0.10303215659E+03  0.25500000920E-02 0.  1.
        2   -1    0    0  501    0  0.00000000000E+00  0.00000000000E+00 -0.14482478459E+04  0.14482478459E+04  0.25500000920E-02 0. -1.
    10030    2    1    2    0    0  0.00000000000E+00  0.00000000000E+00 -0.13452156894E+04  0.15512800025E+04  0.77256999377E+03 0.  0.
        4    1    3    3  502    0 -0.18817391037E+03  0.30225313192E+03 -0.97345246156E+03  0.10365219169E+04  0.12699999809E+01 0. -1.
       -4    1    3    3    0  502  0.18817391037E+03 -0.30225313192E+03 -0.37176322783E+03  0.51475808567E+03  0.12699999809E+01 0.  1.
</event>
<event>
 5   0  0.1624094E-02  0.7968024E+03  0.7818609E-02  0.9564657E-01
       -1   -1    0    0    0  501  0.00000000000E+00  0.00000000000E+00  0.38650266884E+03  0.38650266888E+03  0.50400001928E-02 0. -1.
        1   -1    0    0  501    0  0.00000000000E+00  0.00000000000E+00 -0.41066607930E+03  0.41066607933E+03  0.50400001928E-02 0.  1.
    10030    2    1    2    0    0  0.00000000000E+00  0.00000000000E+00 -0.24163410460E+02  0.79716874821E+03  0.79680244899E+03 0.  0.
        3    1    3    3  502    0 -0.25970850063E+03 -0.19893870871E+03  0.21539566504E+03  0.39168918525E+03  0.10100000352E+00 0. -1.
       -3    1    3    3    0  502  0.25970850063E+03  0.19893870871E+03 -0.23955907550E+03  0.40547956296E+03  0.10100000352E+00 0.  1.
</event>
<event>
 5   0  0.2454354E-02  0.8116781E+03  0.7818609E-02  0.9543266E-01
        2   -1    0    0  501    0  0.00000000000E+00  0.00000000000E+00  0.46989811788E+03  0.46989811789E+03  0.25500000920E-02 0. -1.
       -2   -1    0    0    0  501  0.00000000000E+00  0.00000000000E+00 -0.35051285737E+03  0.35051285738E+03  0.25500000920E-02 0.  1.
    10030    2    1    2    0    0  0.00000000000E+00  0.00000000000E+00  0.11938526051E+03  0.82041097527E+03  0.81167809378E+03 0.  0.
        5    1    3    3  502    0  0.18575103843E+03  0.31466303780E+03 -0.11874847420E+03  0.38423894357E+03  0.46999998093E+01 0.  1.
       -5    1    3    3    0  502 -0.18575103843E+03 -0.31466303780E+03  0.23813373471E+03  0.43617203170E+03  0.46999998093E+01 0. -1.
</event>
<event>
 5   0  0.1624094E-02  0.7898056E+03  0.7818609E-02  0.9574891E-01
       -1   -1    0    0    0  501  0.00000000000E+00  0.00000000000E+00  0.20974475907E+03  0.20974475913E+03  0.50400001928E-02 0.  1.
        1   -1    0    0  501    0  0.00000000000E+00  0.00000000000E+00 -0.74351434211E+03  0.74351434213E+03  0.50400001928E-02 0. -1.
    10030    2    1    2    0    0  0.00000000000E+00  0.00000000000E+00 -0.53376958304E+03  0.95325910125E+03  0.78980563833E+03 0.  0.
        3    1    3    3  502    0 -0.25714214143E+03  0.27504884732E+03 -0.12318994608E+03  0.39616880534E+03  0.10100000352E+00 0. -1.
       -3    1    3    3    0  502  0.25714214143E+03 -0.27504884732E+03 -0.41057963696E+03  0.55709029591E+03  0.10100000352E+00 0.  1.
</event>
<event>
 5   0  0.2571778E-02  0.7966070E+03  0.7818609E-02  0.9564941E-01
       -2   -1    0    0    0  501  0.00000000000E+00  0.00000000000E+00  0.85551390927E+02  0.85551390965E+02  0.25500000920E-02 0.  1.
        2   -1    0    0  501    0  0.00000000000E+00  0.00000000000E+00 -0.18543903887E+04  0.18543903887E+04  0.25500000920E-02 0. -1.
    10030    2    1    2    0    0  0.00000000000E+00  0.00000000000E+00 -0.17688389977E+04  0.19399417796E+04  0.79660699749E+03 0.  0.
        1    1    3    3  502    0  0.26820580276E+03 -0.12042873857E+02 -0.16009241123E+04  0.16232798271E+04  0.50400001928E-02 0. -1.
       -1    1    3    3    0  502 -0.26820580276E+03  0.12042873857E+02 -0.16791488540E+03  0.31666195257E+03  0.50400001928E-02 0.  1.
</event>
<event>
 5   0  0.1624094E-02  0.7993265E+03  0.7818609E-02  0.9560993E-01
       -1   -1    0    0    0  501  0.00000000000E+00  0.00000000000E+00  0.66855982117E+03  0.66855982119E+03  0.50400001928E-02 0.  1.
        1   -1    0    0  501    0  0.00000000000E+00  0.00000000000E+00 -0.23891759563E+03  0.23891759568E+03  0.50400001928E-02 0. -1.
    10030    2    1    2    0    0  0.00000000000E+00  0.00000000000E+00  0.42964222554E+03  0.90747741687E+03  0.79932647908E+03 0.  0.
        3    1    3    3  502    0 -0.58399454522E+02  0.36954617345E+03  0.55248188801E+02  0.37818942763E+03  0.10100000352E+00 0. -1.
       -3    1    3    3    0  502  0.58399454522E+02 -0.36954617345E+03  0.37439403674E+03  0.52928798924E+03  0.10100000352E+00 0.  1.
</event>
<event>
 5   0  0.2454354E-02  0.7967139E+03  0.7818609E-02  0.9564786E-01
       -2   -1    0    0    0  501  0.00000000000E+00  0.00000000000E+00  0.12688802966E+03  0.12688802969E+03  0.25500000920E-02 0.  1.
        2   -1    0    0  501    0  0.00000000000E+00  0.00000000000E+00 -0.12506166146E+04  0.12506166146E+04  0.25500000920E-02 0. -1.
    10030    2    1    2    0    0  0.00000000000E+00  0.00000000000E+00 -0.11237285850E+04  0.13775046443E+04  0.79671394645E+03 0.  0.
        5    1    3    3  502    0 -0.30934094185E+03 -0.93270116643E+02 -0.96466552335E+03  0.10173459563E+04  0.46999998093E+01 0.  1.
       -5    1    3    3    0  502  0.30934094185E+03  0.93270116643E+02 -0.15906306163E+03  0.36015868799E+03  0.46999998093E+01 0. -1.
</event>
<event>
 5   0  0.2464780E-02  0.7878766E+03  0.7818609E-02  0.9577733E-01
        2   -1    0    0  501    0  0.00000000000E+00  0.00000000000E+00  0.13755850550E+04  0.13755850550E+04  0.25500000920E-02 0.  1.
       -2   -1    0    0    0  501  0.00000000000E+00  0.00000000000E+00 -0.11281555060E+03  0.11281555063E+03  0.25500000920E-02 0. -1.
    10030    2    1    2    0    0  0.00000000000E+00  0.00000000000E+00  0.12627695044E+04  0.14884006056E+04  0.78787660301E+03 0.  0.
        3    1    3    3  502    0  0.82425193697E+02 -0.18874508952E+02 -0.95469086186E+02  0.12753241259E+03  0.10100000352E+00 0. -1.
       -3    1    3    3    0  502 -0.82425193697E+02  0.18874508952E+02  0.13582385906E+04  0.13608681930E+04  0.10100000352E+00 0.  1.
</event>
<event>
 5   0  0.9919125E-03  0.8063392E+03  0.7818609E-02  0.9550886E-01
       -3   -1    0    0    0  501  0.00000000000E+00  0.00000000000E+00  0.56850567235E+03  0.56850568132E+03  0.10100000352E+00 0.  1.
        3   -1    0    0  501    0  0.00000000000E+00  0.00000000000E+00 -0.28591749689E+03  0.28591751473E+03  0.10100000352E+00 0. -1.
    10030    2    1    2    0    0  0.00000000000E+00  0.00000000000E+00  0.28258817546E+03  0.85442319606E+03  0.80633920967E+03 0.  0.
        3    1    3    3  502    0  0.39526418490E+02  0.39324124997E+03  0.56890510567E+02  0.39929632960E+03  0.10100000352E+00 0.  1.
       -3    1    3    3    0  502 -0.39526418490E+02 -0.39324124997E+03  0.22569766489E+03  0.45512686646E+03  0.10100000352E+00 0. -1.
</event>
<event>
 5   0  0.2464780E-02  0.7932556E+03  0.7818609E-02  0.9569831E-01
       -2   -1    0    0    0  501  0.00000000000E+00  0.00000000000E+00  0.20458196777E+03  0.20458196778E+03  0.25500000920E-02 0.  1.
        2   -1    0    0  501    0  0.00000000000E+00  0.00000000000E+00 -0.76895147716E+03  0.76895147717E+03  0.25500000920E-02 0. -1.
    10030    2    1    2    0    0  0.00000000000E+00  0.00000000000E+00 -0.56436950940E+03  0.97353344495E+03  0.79325558636E+03 0.  0.
        3    1    3    3  502    0  0.25796716124E+03 -0.14679361988E+03 -0.60506970482E+03  0.67394716485E+03  0.10100000352E+00 0. -1.
       -3    1    3    3    0  502 -0.25796716124E+03  0.14679361988E+03  0.40700195424E+02  0.29958628010E+03  0.10100000352E+00 0.  1.
</event>
<event>
 5   0  0.1498375E-02  0.8564540E+03  0.7818609E-02  0.9481715E-01
       -1   -1    0    0    0  501  0.00000000000E+00  0.00000000000E+00  0.51976561137E+03  0.51976561139E+03  0.50400001928E-02 0.  1.
        1   -1    0    0  501    0  0.00000000000E+00  0.00000000000E+00 -0.35280969175E+03  0.35280969178E+03  0.50400001928E-02 0. -1.
    10030    2    1    2    0    0  0.00000000000E+00  0.00000000000E+00  0.16695591962E+03  0.87257530318E+03  0.85645395709E+03 0.  0.
        4    1    3    3  502    0  0.34920185572E+03  0.24783985716E+03  0.86732046764E+02  0.43691027874E+03  0.12699999809E+01 0. -1.
       -4    1    3    3    0  502 -0.34920185572E+03 -0.24783985716E+03  0.80223872859E+02  0.43566502443E+03  0.12699999809E+01 0.  1.
</event>
<event>
 5   0  0.1498375E-02  0.8202446E+03  0.7818609E-02  0.9531167E-01
        1   -1    0    0  501    0  0.00000000000E+00  0.00000000000E+00  0.49722881541E+03  0.49722881544E+03  0.50400001928E-02 0. -1.
       -1   -1    0    0    0  501  0.00000000000E+00  0.00000000000E+00 -0.33827547196E+03  0.33827547200E+03  0.50400001928E-02 0.  1.
    10030    2    1    2    0    0  0.00000000000E+00  0.00000000000E+00  0.15895334345E+03  0.83550428743E+03  0.82024462749E+03 0.  0.
        4    1    3    3  502    0 -0.14034217415E+03  0.16841660784E+03 -0.27358177588E+03  0.35058334336E+03  0.12699999809E+01 0.  1.
       -4    1    3    3    0  502  0.14034217415E+03 -0.16841660784E+03  0.43253511934E+03  0.48492094408E+03  0.12699999809E+01 0. -1.
</event>
<event>
 5   0  0.1523811E-02  0.7947830E+03  0.7818609E-02  0.9567599E-01
        1   -1    0    0  501    0  0.00000000000E+00  0.00000000000E+00  0.50384741948E+03  0.50384741951E+03  0.50400001928E-02 0. -1.
       -1   -1    0    0    0  501  0.00000000000E+00  0.00000000000E+00 -0.31342819260E+03  0.31342819264E+03  0.50400001928E-02 0.  1.
    10030    2    1    2    0    0  0.00000000000E+00  0.00000000000E+00  0.19041922688E+03  0.81727561215E+03  0.79478295418E+03 0.  0.
        1    1    3    3  502    0  0.92339094709E+02 -0.22351748646E+03 -0.22904500015E+03  0.33308885794E+03  0.50400001928E-02 0.  1.
       -1    1    3    3    0  502 -0.92339094709E+02  0.22351748646E+03  0.41946422703E+03  0.48418675421E+03  0.50400001928E-02 0. -1.
</event>
<event>
 5   0  0.1509629E-02  0.7997228E+03  0.7818609E-02  0.9560418E-01
        1   -1    0    0  501    0  0.00000000000E+00  0.00000000000E+00  0.28187026787E+03  0.28187026791E+03  0.50400001928E-02 0.  1.
       -1   -1    0    0    0  501  0.00000000000E+00  0.00000000000E+00 -0.56724376085E+03  0.56724376087E+03  0.50400001928E-02 0. -1.
    10030    2    1    2    0    0  0.00000000000E+00  0.00000000000E+00 -0.28537349298E+03  0.84911402879E+03  0.79972282910E+03 0.  0.
        5    1    3    3  502    0  0.31123891642E+02 -0.38852841850E+03 -0.23732070815E+03  0.45636195846E+03  0.46999998093E+01 0.  1.
       -5    1    3    3    0  502 -0.31123891642E+02  0.38852841850E+03 -0.48052784830E+02  0.39275207032E+03  0.46999998093E+01 0. -1.
</event>
<event>
 5   0  0.1624094E-02  0.7973453E+03  0.7818609E-02  0.9563868E-01
        1   -1    0    0  501    0  0.00000000000E+00  0.00000000000E+00  0.21896094827E+04  0.21896094827E+04  0.50400001928E-02 0.  1.
       -1   -1    0    0    0  501  0.00000000000E+00  0.00000000000E+00 -0.72588227040E+02  0.72588227215E+02  0.50400001928E-02 0. -1.
    10030    2    1    2    0    0  0.00000000000E+00  0.00000000000E+00  0.21170212556E+04  0.22621977099E+04  0.79734527141E+03 0.  0.
        3    1    3    3  502    0 -0.23199744703E+03 -0.14757223867E+03  0.18775589528E+04  0.18975847840E+04  0.10100000352E+00 0.  1.
       -3    1    3    3    0  502  0.23199744703E+03  0.14757223867E+03  0.23946230288E+03  0.36461292593E+03  0.10100000352E+00 0. -1.
</event>
<event>
 5   0  0.1471290E-02  0.8061880E+03  0.7818609E-02  0.9551103E-01
        1   -1    0    0  501    0  0.00000000000E+00  0.00000000000E+00  0.64572845295E+03  0.64572845297E+03  0.50400001928E-02 0.  1.
       -1   -1    0    0    0  501  0.00000000000E+00  0.00000000000E+00 -0.25163019727E+03  0.25163019732E+03  0.50400001928E-02 0. -1.
    10030    2    1    2    0    0  0.00000000000E+00  0.00000000000E+00  0.39409825568E+03  0.89735865029E+03  0.80618801288E+03 0.  0.
        2    1    3    3  502    0  0.21917960895E+03 -0.30701553918E+03  0.35519600291E+03  0.51813361478E+03  0.25500000920E-02 0.  1.
       -2    1    3    3    0  502 -0.21917960895E+03  0.30701553918E+03  0.38902252775E+02  0.37922503551E+03  0.25500000920E-02 0. -1.
</event>
<event>
 5   0  0.1471290E-02  0.8084470E+03  0.7818609E-02  0.9547870E-01
       -1   -1    0    0    0  501  0.00000000000E+00  0.00000000000E+00  0.31675543601E+03  0.31675543605E+03  0.50400001928E-02 0.  1.
        1   -1    0    0  501    0  0.00000000000E+00  0.00000000000E+00 -0.51584472704E+03  0.51584472706E+03  0.50400001928E-02 0. -1.
    10030    2    1    2    0    0  0.00000000000E+00  0.00000000000E+00 -0.19908929102E+03  0.83260016312E+03  0.80844695919E+03 0.  0.
        2    1    3    3  502    0 -0.10557691418E+03  0.93185095695E+02 -0.48976667228E+03  0.50960900713E+03  0.25500000920E-02 0. -1.
       -2    1    3    3    0  502  0.10557691418E+03 -0.93185095695E+02  0.29067738125E+03  0.32299115599E+03  0.25500000920E-02 0.  1.
</event>
<event>
 5   0  0.2460312E-02  0.8039690E+03  0.7818609E-02  0.9554290E-01
       -2   -1    0    0    0  501  0.00000000000E+00  0.00000000000E+00  0.40121267116E+03  0.40121267117E+03  0.25500000920E-02 0. -1.
        2   -1    0    0  501    0  0.00000000000E+00  0.00000000000E+00 -0.40275784967E+03  0.40275784968E+03  0.25500000920E-02 0.  1.
    10030    2    1    2    0    0  0.00000000000E+00  0.00000000000E+00 -0.15451785118E+01  0.80397052085E+03  0.80396903599E+03 0.  0.
        2    1    3    3  502    0 -0.45668688615E+02 -0.27800787989E+03 -0.28750913383E+03  0.40253634922E+03  0.25500000920E-02 0.  1.
       -2    1    3    3    0  502  0.45668688615E+02  0.27800787989E+03  0.28596395532E+03  0.40143417163E+03  0.25500000920E-02 0. -1.
</event>
<event>
 5   0  0.1624094E-02  0.8069322E+03  0.7818609E-02  0.9550037E-01
       -1   -1    0    0    0  501  0.00000000000E+00  0.00000000000E+00  0.17839918968E+03  0.17839918975E+03  0.50400001928E-02 0. -1.
        1   -1    0    0  501    0  0.00000000000E+00  0.00000000000E+00 -0.91247545285E+03  0.91247545286E+03  0.50400001928E-02 0.  1.
    10030    2    1    2    0    0  0.00000000000E+00  0.00000000000E+00 -0.73407626317E+03  0.10908746426E+04  0.80693216924E+03 0.  0.
        3    1    3    3  502    0  0.29989283289E+03  0.16874299188E+03 -0.65181638218E+03  0.73707158052E+03  0.10100000352E+00 0.  1.
       -3    1    3    3    0  502 -0.29989283289E+03 -0.16874299188E+03 -0.82259880989E+02  0.35380306210E+03  0.10100000352E+00 0. -1.
</event>
<event>
 5   0  0.1523811E-02  0.7970967E+03  0.7818609E-02  0.9564229E-01
       -1   -1    0    0    0  501  0.00000000000E+00  0.00000000000E+00  0.23747462631E+03  0.23747462636E+03  0.50400001928E-02 0.  1.
        1   -1    0    0  501    0  0.00000000000E+00  0.00000000000E+00 -0.66887484376E+03  0.66887484378E+03  0.50400001928E-02 0. -1.
    10030    2    1    2    0    0  0.00000000000E+00  0.00000000000E+00 -0.43140021745E+03  0.90634947014E+03  0.79709674094E+03 0.  0.
        1    1    3    3  502    0  0.80132412227E+02 -0.43183179241E+02 -0.65689652265E+03  0.66317345540E+03  0.50400001928E-02 0. -1.
       -1    1    3    3    0  502 -0.80132412227E+02  0.43183179241E+02  0.22549630520E+03  0.24317601474E+03  0.50400001928E-02 0.  1.
</event>
<event>
 5   0  0.2460312E-02  0.8029632E+03  0.7818609E-02  0.9555738E-01
        2   -1    0    0  501    0  0.00000000000E+00  0.00000000000E+00  0.41136068793E+03  0.41136068794E+03  0.25500000920E-02 0.  1.
       -2   -1    0    0    0  501  0.00000000000E+00  0.00000000000E+00 -0.39183974494E+03  0.39183974495E+03  0.25500000920E-02 0. -1.
    10030    2    1    2    0    0  0.00000000000E+00  0.00000000000E+00  0.19520942988E+02  0.80320043289E+03  0.80296317984E+03 0.  0.
        2    1    3    3  502    0 -0.33644163995E+03  0.75265134703E+02 -0.19604202505E+03  0.39659840290E+03  0.25500000920E-02 0. -1.
       -2    1    3    3    0  502  0.33644163995E+03 -0.75265134703E+02  0.21556296804E+03  0.40660202999E+03  0.25500000920E-02 0.  1.
</event>
<event>
 5   0  0.1471290E-02  0.7934482E+03  0.7818609E-02  0.9569549E-01
        1   -1    0    0  501    0  0.00000000000E+00  0.00000000000E+00  0.46914005374E+03  0.46914005377E+03  0.50400001928E-02 0. -1.
       -1   -1    0    0    0  501  0.00000000000E+00  0.00000000000E+00 -0.33548616031E+03  0.33548616035E+03  0.50400001928E-02 0.  1.
    10030    2    1    2    0    0  0.00000000000E+00  0.00000000000E+00  0.13365389343E+03  0.80462621412E+03  0.79344815912E+03 0.  0.
        2    1    3    3  502    0  0.26402878193E+03 -0.25740919904E+03  0.21524211071E+03  0.42696587646E+03  0.25500000920E-02 0. -1.
       -2    1    3    3    0  502 -0.26402878193E+03  0.25740919904E+03 -0.81588217280E+02  0.37766033766E+03  0.25500000920E-02 0.  1.
</event>
<event>
 5   0  0.1624094E-02  0.7991644E+03  0.7818609E-02  0.9561227E-01
       -1   -1    0    0    0  501  0.00000000000E+00  0.00000000000E+00  0.36693397827E+03  0.36693397831E+03  0.50400001928E-02 0. -1.
        1   -1    0    0  501    0  0.00000000000E+00  0.00000000000E+00 -0.43513535637E+03  0.43513535640E+03  0.50400001928E-02 0.  1.
    10030    2    1    2    0    0  0.00000000000E+00  0.00000000000E+00 -0.68201378097E+02  0.80206933471E+03  0.79916443221E+03 0.  0.
        3    1    3    3  502    0 -0.25055965069E+03  0.58980400318E+02 -0.34083738530E+03  0.42711703267E+03  0.10100000352E+00 0.  1.
       -3    1    3    3    0  502  0.25055965069E+03 -0.58980400318E+02  0.27263600720E+03  0.37495230204E+03  0.10100000352E+00 0. -1.
</event>
<event>
 5   0  0.2571778E-02  0.8335905E+03  0.7818609E-02  0.9512630E-01
        2   -1    0    0  501    0  0.00000000000E+00  0.00000000000E+00  0.12103700107E+04  0.12103700107E+04  0.25500000920E-02 0.  1.
       -2   -1    0    0    0  501  0.00000000000E+00  0.00000000000E+00 -0.14352493433E+03  0.14352493435E+03  0.25500000920E-02 0. -1.
    10030    2    1    2    0    0  0.00000000000E+00  0.00000000000E+00  0.10668450764E+04  0.13538949450E+04  0.83359049014E+03 0.  0.
        1    1    3    3  502    0 -0.14021438706E+03  0.26884570516E+03  0.68954033953E+02  0.31095457280E+03  0.50400001928E-02 0. -1.
       -1    1    3    3    0  502  0.14021438706E+03 -0.26884570516E+03  0.99789104241E+03  0.10429403722E+04  0.50400001928E-02 0.  1.
</event>
<event>
 5   0  0.2460312E-02  0.8085400E+03  0.7818609E-02  0.9547737E-01
        2   -1    0    0  501    0  0.00000000000E+00  0.00000000000E+00  0.10621168360E+04  0.10621168360E+04  0.25500000920E-02 0. -1.
       -2   -1    0    0    0  501  0.00000000000E+00  0.00000000000E+00 -0.15387595831E+03  0.15387595833E+03  0.25500000920E-02 0.  1.
    10030    2    1    2    0    0  0.00000000000E+00  0.00000000000E+00  0.90824087772E+03  0.12159927944E+04  0.80854003240E+03 0.  0.
        2    1    3    3  502    0 -0.30701261183E+03 -0.26992191639E+02  0.60649387376E+02  0.31410773698E+03  0.25500000920E-02 0.  1.
       -2    1    3    3    0  502  0.30701261183E+03  0.26992191639E+02  0.84759149035E+03  0.90188505739E+03  0.25500000920E-02 0. -1.
</event>
<event>
 5   0  0.2422031E-02  0.8069648E+03  0.7818609E-02  0.9549990E-01
       -2   -1    0    0    0  501  0.00000000000E+00  0.00000000000E+00  0.27677621430E+03  0.27677621431E+03  0.25500000920E-02 0. -1.
        2   -1    0    0  501    0  0.00000000000E+00  0.00000000000E+00 -0.58819374551E+03  0.58819374551E+03  0.25500000920E-02 0.  1.
    10030    2    1    2    0    0  0.00000000000E+00  0.00000000000E+00 -0.31141753121E+03  0.86496995982E+03  0.80696477782E+03 0.  0.
        4    1    3    3  502    0  0.19810219865E+03 -0.86080290740E+02  0.20958422141E+03  0.30096753368E+03  0.12699999809E+01 0. -1.
       -4    1    3    3    0  502 -0.19810219865E+03  0.86080290740E+02 -0.52100175262E+03  0.56400242614E+03  0.12699999809E+01 0.  1.
</event>
<event>
 5   0  0.2454354E-02  0.8081392E+03  0.7818609E-02  0.9548310E-01
       -2   -1    0    0    0  501  0.00000000000E+00  0.00000000000E+00  0.15123392773E+03  0.15123392775E+03  0.25500000920E-02 0. -1.
        2   -1    0    0  501    0  0.00000000000E+00  0.00000000000E+00 -0.10796006756E+04  0.10796006756E+04  0.25500000920E-02 0.  1.
    10030    2    1    2    0    0  0.00000000000E+00  0.00000000000E+00 -0.92836674789E+03  0.12308346034E+04  0.80813922208E+03 0.  0.
        5    1    3    3  502    0  0.22519728525E+03 -0.18254280451E+03 -0.35520603446E+02  0.29209501199E+03  0.46999998093E+01 0. -1.
       -5    1    3    3    0  502 -0.22519728525E+03  0.18254280451E+03 -0.89284614445E+03  0.93873959138E+03  0.46999998093E+01 0.  1.
</event>
<event>
 5   0  0.2422031E-02  0.7981229E+03  0.7818609E-02  0.9562738E-01
       -2   -1    0    0    0  501  0.00000000000E+00  0.00000000000E+00  0.60406301006E+03  0.60406301006E+03  0.25500000920E-02 0. -1.
        2   -1    0    0  501    0  0.00000000000E+00  0.00000000000E+00 -0.26363153236E+03  0.26363153237E+03  0.25500000920E-02 0.  1.
    10030    2    1    2    0    0  0.00000000000E+00  0.00000000000E+00  0.34043147770E+03  0.86769454244E+03  0.79812294038E+03 0.  0.
        4    1    3    3  502    0 -0.25292457255E+02 -0.21492955683E+03  0.53472394824E+03  0.57685850649E+03  0.12699999809E+01 0. -1.
       -4    1    3    3    0  502  0.25292457255E+02  0.21492955683E+03 -0.19429247054E+03  0.29083603594E+03  0.12699999809E+01 0.  1.
</event>
<event>
 5   0  0.2571778E-02  0.7957382E+03  0.7818609E-02  0.9566206E-01
        2   -1    0    0  501    0  0.00000000000E+00  0.00000000000E+00  0.11441952285E+04  0.11441952285E+04  0.25500000920E-02 0. -1.
       -2   -1    0    0    0  501  0.00000000000E+00  0.00000000000E+00 -0.13835037005E+03  0.13835037007E+03  0.25500000920E-02 0.  1.
    10030    2    1    2    0    0  0.00000000000E+00  0.00000000000E+00  0.10058448584E+04  0.12825455986E+04  0.79573823154E+03 0.  0.
        1    1    3    3  502    0 -0.11662744048E+02  0.13026787722E+03 -0.10271241751E+03  0.16629966978E+03  0.50400001928E-02 0.  1.
       -1    1    3    3    0  502  0.11662744048E+02 -0.13026787722E+03  0.11085572759E+04  0.11162459288E+04  0.50400001928E-02 0. -1.
</event>
<event>
 5   0  0.1471290E-02  0.7955768E+03  0.7818609E-02  0.9566442E-01
       -1   -1    0    0    0  501  0.00000000000E+00  0.00000000000E+00  0.16819266465E+03  0.16819266472E+03  0.50400001928E-02 0.  1.
        1   -1    0    0  501    0  0.00000000000E+00  0.00000000000E+00 -0.94079980796E+03  0.94079980798E+03  0.50400001928E-02 0. -1.
    10030    2    1    2    0    0  0.00000000000E+00  0.00000000000E+00 -0.77260714331E+03  0.11089924727E+04  0.79557683891E+03 0.  0.
        2    1    3    3  502    0  0.90206563290E+02  0.23674333970E+03 -0.81379573844E+03  0.85231926933E+03  0.25500000920E-02 0. -1.
       -2    1    3    3    0  502 -0.90206563290E+02 -0.23674333970E+03  0.41188595129E+02  0.25667320337E+03  0.25500000920E-02 0.  1.
</event>
<event>
 5   0  0.2460312E-02  0.8000820E+03  0.7818609E-02  0.9559898E-01
       -2   -1    0    0    0  501  0.00000000000E+00  0.00000000000E+00  0.91529565907E+02  0.91529565942E+02  0.25500000920E-02 0.  1.
        2   -1    0    0  501    0  0.00000000000E+00  0.00000000000E+00 -0.17484274725E+04  0.17484274725E+04  0.25500000920E-02 0. -1.
    10030    2    1    2    0    0  0.00000000000E+00  0.00000000000E+00 -0.16568979066E+04  0.18399570385E+04  0.80008201483E+03 0.  0.
        2    1    3    3  502    0 -0.22003271515E+03  0.26568837102E+03 -0.12942643988E+04  0.13394495288E+04  0.25500000920E-02 0. -1.
       -2    1    3    3    0  502  0.22003271515E+03 -0.26568837102E+03 -0.36263350784E+03  0.50050750968E+03  0.25500000920E-02 0.  1.
</event>
<event>
 5   0  0.2464780E-02  0.8017955E+03  0.7818609E-02  0.9557422E-01
        2   -1    0    0  501    0  0.00000000000E+00  0.00000000000E+00  0.42272600209E+03  0.42272600210E+03  0.25500000920E-02 0. -1.
       -2   -1    0    0    0  501  0.00000000000E+00  0.00000000000E+00 -0.38019661262E+03  0.38019661263E+03  0.25500000920E-02 0.  1.
    10030    2    1    2    0    0  0.00000000000E+00  0.00000000000E+00  0.42529389471E+02  0.80292261472E+03  0.80179547034E+03 0.  0.
        3    1    3    3  502    0  0.56906470879E+02 -0.31905629500E+03  0.25757039866E+03  0.41397800216E+03  0.10100000352E+00 0. -1.
       -3    1    3    3    0  502 -0.56906470879E+02  0.31905629500E+03 -0.21504100919E+03  0.38894461256E+03  0.10100000352E+00 0.  1.
</event>
<event>
 5   0  0.2454354E-02  0.8267787E+03  0.7818609E-02  0.9522045E-01
       -2   -1    0    0    0  501  0.00000000000E+00  0.00000000000E+00  0.25889949443E+03  0.25889949444E+03  0.25500000920E-02 0. -1.
        2   -1    0    0  501    0  0.00000000000E+00  0.00000000000E+00 -0.66006601696E+03  0.66006601697E+03  0.25500000920E-02 0.  1.
    10030    2    1    2    0    0  0.00000000000E+00  0.00000000000E+00 -0.40116652253E+03  0.91896551141E+03  0.82677870821E+03 0.  0.
        5    1    3    3  502    0 -0.14300871987E+03 -0.17956027040E+03 -0.58267993333E+03  0.62628378502E+03  0.46999998093E+01 0.  1.
       -5    1    3    3    0  502  0.14300871987E+03  0.17956027040E+03  0.18151341080E+03  0.29268172639E+03  0.46999998093E+01 0. -1.
</event>
<event>
 5   0  0.2571778E-02  0.8000661E+03  0.7818609E-02  0.9559921E-01
       -2   -1    0    0    0  501  0.00000000000E+00  0.00000000000E+00  0.38127129145E+03  0.38127129146E+03  0.25500000920E-02 0.  1.
        2   -1    0    0  501    0  0.00000000000E+00  0.00000000000E+00 -0.41971806375E+03  0.41971806375E+03  0.25500000920E-02 0. -1.
    10030    2    1    2    0    0  0.00000000000E+00  0.00000000000E+00 -0.38446772298E+02  0.80098935521E+03  0.80006611780E+03 0.  0.
        1    1    3    3  502    0 -0.39378591597E+03 -0.31593121554E+02 -0.82232290780E+02  0.40351904864E+03  0.50400001928E-02 0.  1.
       -1    1    3    3    0  502  0.39378591597E+03  0.31593121554E+02  0.43785518482E+02  0.39747030656E+03  0.50400001928E-02 0. -1.
</event>
<event>
 5   0  0.1523811E-02  0.8024191E+03  0.7818609E-02  0.9556522E-01
        1   -1    0    0  501    0  0.00000000000E+00  0.00000000000E+00  0.26183769116E+03  0.26183769120E+03  0.50400001928E-02 0. -1.
       -1   -1    0    0    0  501  0.00000000000E+00  0.00000000000E+00 -0.61476673056E+03  0.61476673058E+03  0.50400001928E-02 0.  1.
    10030    2    1    2    0    0  0.00000000000E+00  0.00000000000E+00 -0.35292903940E+03  0.87660442178E+03  0.80241909588E+03 0.  0.
        1    1    3    3  502    0 -0.13315645966E+03 -0.36586369709E+03 -0.70647612775E+02  0.39569934649E+03  0.50400001928E-02 0. -1.
       -1    1    3    3    0  502  0.13315645966E+03  0.36586369709E+03 -0.28228142662E+03  0.48090507529E+03  0.50400001928E-02 0.  1.
</event>
<event>
 5   0  0.2460312E-02  0.8245070E+03  0.7818609E-02  0.9525206E-01
       -2   -1    0    0    0  501  0.00000000000E+00  0.00000000000E+00  0.21172786029E+03  0.21172786030E+03  0.25500000920E-02 0. -1.
        2   -1    0    0  501    0  0.00000000000E+00  0.00000000000E+00 -0.80269526908E+03  0.80269526908E+03  0.25500000920E-02 0.  1.
    10030    2    1    2    0    0  0.00000000000E+00  0.00000000000E+00 -0.59096740879E+03  0.10144231294E+04  0.82450700857E+03 0.  0.
        2    1    3    3  502    0 -0.22757544961E+01  0.36603898573E+03 -0.62162527448E+02  0.37128681361E+03  0.25500000920E-02 0. -1.
       -2    1    3    3    0  502  0.22757544961E+01 -0.36603898573E+03 -0.52880488134E+03  0.64313631578E+03  0.25500000920E-02 0.  1.
</event>
<event>
 5   0  0.1624094E-02  0.8104380E+03  0.7818609E-02  0.9545030E-01
        1   -1    0    0  501    0  0.00000000000E+00  0.00000000000E+00  0.69328702470E+03  0.69328702471E+03  0.50400001928E-02 0. -1.
       -1   -1    0    0    0  501  0.00000000000E+00  0.00000000000E+00 -0.23684623283E+03  0.23684623288E+03  0.50400001928E-02 0.  1.
    10030    2    1    2    0    0  0.00000000000E+00  0.00000000000E+00  0.45644079187E+03  0.93013325759E+03  0.81043795592E+03 0.  0.
        3    1    3    3  502    0 -0.27862818663E+03  0.23740967192E+03  0.42768582385E+03  0.56294954732E+03  0.10100000352E+00 0. -1.
       -3    1    3    3    0  502  0.27862818663E+03 -0.23740967192E+03  0.28754968016E+02  0.36718371027E+03  0.10100000352E+00 0.  1.
</event>
<event>
 5   0  0.2454354E-02  0.9110373E+03  0.7818609E-02  0.9411888E-01
       -2   -1    0    0    0  501  0.00000000000E+00  0.00000000000E+00  0.36606176086E+03  0.36606176087E+03  0.25500000920E-02 0. -1.
        2   -1    0    0  501    0  0.00000000000E+00  0.00000000000E+00 -0.56683673131E+03  0.56683673131E+03  0.25500000920E-02 0.  1.
    10030    2    1    2    0    0  0.00000000000E+00  0.00000000000E+00 -0.20077497045E+03  0.93289849219E+03  0.91103732523E+03 0.  0.
        5    1    3    3  502    0  0.40376569557E+03  0.44642140619E+02 -0.31137911315E+03  0.51185808555E+03  0.46999998093E+01 0.  1.
       -5    1    3    3    0  502 -0.40376569557E+03 -0.44642140619E+02  0.11060414270E+03  0.42104040664E+03  0.46999998093E+01 0. -1.
</event>
<event>
 5   0  0.1471290E-02  0.8303005E+03  0.7818609E-02  0.9517165E-01
       -1   -1    0    0    0  501  0.00000000000E+00  0.00000000000E+00  0.42763745725E+03  0.42763745728E+03  0.50400001928E-02 0.  1.
        1   -1    0    0  501    0  0.00000000000E+00  0.00000000000E+00 -0.40302770570E+03  0.40302770573E+03  0.50400001928E-02 0. -1.
    10030    2    1    2    0    0  0.00000000000E+00  0.00000000000E+00  0.24609751551E+02  0.83066516300E+03  0.83030053183E+03 0.  0.
        2    1    3    3  502    0  0.21297081979E+03 -0.35547947068E+03 -0.12756457045E+02  0.41459010041E+03  0.25500000920E-02 0. -1.
       -2    1    3    3    0  502 -0.21297081979E+03  0.35547947068E+03  0.37366208596E+02  0.41607506259E+03  0.25500000920E-02 0.  1.
</event>
<event>
 5   0  0.2422031E-02  0.7451367E+03  0.7818609E-02  0.9643011E-01
       -2   -1    0    0    0  501  0.00000000000E+00  0.00000000000E+00  0.12256423964E+03  0.12256423966E+03  0.25500000920E-02 0. -1.
        2   -1    0    0  501    0  0.00000000000E+00  0.00000000000E+00 -0.11325258246E+04  0.11325258246E+04  0.25500000920E-02 0.  1.
    10030    2    1    2    0    0  0.00000000000E+00  0.00000000000E+00 -0.10099615850E+04  0.12550900643E+04  0.74513667628E+03 0.  0.
        4    1    3    3  502    0  0.18653074507E+03  0.76123500821E+02  0.22895780444E+02  0.20276670312E+03  0.12699999809E+01 0. -1.
       -4    1    3    3    0  502 -0.18653074507E+03 -0.76123500821E+02 -0.10328573654E+04  0.10523233612E+04  0.12699999809E+01 0.  1.
</event>
<event>
 5   0  0.1523811E-02  0.8124082E+03  0.7818609E-02  0.9542228E-01
        1   -1    0    0  501    0  0.00000000000E+00  0.00000000000E+00  0.18994394684E+03  0.18994394691E+03  0.50400001928E-02 0. -1.
       -1   -1    0    0    0  501  0.00000000000E+00  0.00000000000E+00 -0.86868667888E+03  0.86868667889E+03  0.50400001928E-02 0.  1.
    10030    2    1    2    0    0  0.00000000000E+00  0.00000000000E+00 -0.67874273204E+03  0.10586306258E+04  0.81240821364E+03 0.  0.
        1    1    3    3  502    0  0.41598591523E+02  0.26608366461E+03 -0.73562430427E+03  0.78337352295E+03  0.50400001928E-02 0.  1.
       -1    1    3    3    0  502 -0.41598591523E+02 -0.26608366461E+03  0.56881572237E+02  0.27525710286E+03  0.50400001928E-02 0. -1.
</event>
<event>
 5   0  0.2571778E-02  0.8022611E+03  0.7818609E-02  0.9556750E-01
        2   -1    0    0  501    0  0.00000000000E+00  0.00000000000E+00  0.40348765156E+03  0.40348765157E+03  0.25500000920E-02 0.  1.
       -2   -1    0    0    0  501  0.00000000000E+00  0.00000000000E+00 -0.39878723589E+03  0.39878723589E+03  0.25500000920E-02 0. -1.
    10030    2    1    2    0    0  0.00000000000E+00  0.00000000000E+00  0.47004156738E+01  0.80227488746E+03  0.80226111781E+03 0.  0.
        1    1    3    3  502    0  0.35081492608E+03 -0.17219389038E+03  0.92816543842E+02  0.40166747326E+03  0.50400001928E-02 0.  1.
       -1    1    3    3    0  502 -0.35081492608E+03  0.17219389038E+03 -0.88116128168E+02  0.40060741420E+03  0.50400001928E-02 0. -1.
</event>
<event>
 5   0  0.1498375E-02  0.7993739E+03  0.7818609E-02  0.9560924E-01
       -1   -1    0    0    0  501  0.00000000000E+00  0.00000000000E+00  0.82602321838E+03  0.82602321840E+03  0.50400001928E-02 0. -1.
        1   -1    0    0  501    0  0.00000000000E+00  0.00000000000E+00 -0.19339607491E+03  0.19339607497E+03  0.50400001928E-02 0.  1.
    10030    2    1    2    0    0  0.00000000000E+00  0.00000000000E+00  0.63262714347E+03  0.10194192934E+04  0.79937387563E+03 0.  0.
        4    1    3    3  502    0 -0.20895811350E+03 -0.17166807476E+03 -0.59003643739E+02  0.27679679182E+03  0.12699999809E+01 0. -1.
       -4    1    3    3    0  502  0.20895811350E+03  0.17166807476E+03  0.69163078721E+03  0.74262250155E+03  0.12699999809E+01 0.  1.
</event>
<event>
 5   0  0.9919125E-03  0.7883618E+03  0.7818609E-02  0.9577017E-01
        3   -1    0    0  501    0  0.00000000000E+00  0.00000000000E+00  0.96671338790E+03  0.96671339317E+03  0.10100000352E+00 0. -1.
       -3   -1    0    0    0  501  0.00000000000E+00  0.00000000000E+00 -0.16072867021E+03  0.16072870194E+03  0.10100000352E+00 0.  1.
    10030    2    1    2    0    0  0.00000000000E+00  0.00000000000E+00  0.80598471769E+03  0.11274420951E+04  0.78836179049E+03 0.  0.
        4    1    3    3  502    0 -0.17366614352E+03 -0.31778039686E+03  0.18036979468E+03  0.40457284358E+03  0.12699999809E+01 0. -1.
       -4    1    3    3    0  502  0.17366614352E+03  0.31778039686E+03  0.62561492301E+03  0.72286925154E+03  0.12699999809E+01 0.  1.
</event>
<event>
 5   0  0.2464780E-02  0.7890764E+03  0.7818609E-02  0.9575964E-01
       -2   -1    0    0    0  501  0.00000000000E+00  0.00000000000E+00  0.18120902702E+03  0.18120902704E+03  0.25500000920E-02 0. -1.
        2   -1    0    0  501    0  0.00000000000E+00  0.00000000000E+00 -0.85901020464E+03  0.85901020465E+03  0.25500000920E-02 0.  1.
    10030    2    1    2    0    0  0.00000000000E+00  0.00000000000E+00 -0.67780117763E+03  0.10402192317E+04  0.78907643076E+03 0.  0.
        3    1    3    3  502    0  0.24758484226E+03 -0.16907237265E+02 -0.74323982422E+03  0.78357485622E+03  0.10100000352E+00 0.  1.
       -3    1    3    3    0  502 -0.24758484226E+03  0.16907237265E+02  0.65438646598E+02  0.25664437547E+03  0.10100000352E+00 0. -1.
</event>
<event>
 5   0  0.1624094E-02  0.7996437E+03  0.7818609E-02  0.9560533E-01
        1   -1    0    0  501    0  0.00000000000E+00  0.00000000000E+00  0.23769295938E+03  0.23769295944E+03  0.50400001928E-02 0. -1.
       -1   -1    0    0    0  501  0.00000000000E+00  0.00000000000E+00 -0.67253792177E+03  0.67253792179E+03  0.50400001928E-02 0.  1.
    10030    2    1    2    0    0  0.00000000000E+00  0.00000000000E+00 -0.43484496239E+03  0.91023088122E+03  0.79964374306E+03 0.  0.
        3    1    3    3  502    0  0.17052119332E+02  0.24687621671E+03 -0.57488873581E+03  0.62588793718E+03  0.10100000352E+00 0.  1.
       -3    1    3    3    0  502 -0.17052119332E+02 -0.24687621671E+03  0.14004377342E+03  0.28434294404E+03  0.10100000352E+00 0. -1.
</event>
<event>
 5   0  0.2571778E-02  0.8087473E+03  0.7818609E-02  0.9547441E-01
       -2   -1    0    0    0  501  0.00000000000E+00  0.00000000000E+00  0.13225376594E+03  0.13225376597E+03  0.25500000920E-02 0.  1.
        2   -1    0    0  501    0  0.00000000000E+00  0.00000000000E+00 -0.12363960448E+04  0.12363960448E+04  0.25500000920E-02 0. -1.
    10030    2    1    2    0    0  0.00000000000E+00  0.00000000000E+00 -0.11041422789E+04  0.13686498108E+04  0.80874726123E+03 0.  0.
        1    1    3    3  502    0  0.20203684698E+03  0.32205852161E+03 -0.31894096150E+03  0.49624985221E+03  0.50400001928E-02 0.  1.
       -1    1    3    3    0  502 -0.20203684698E+03 -0.32205852161E+03 -0.78520131735E+03  0.87239995855E+03  0.50400001928E-02 0. -1.
</event>
<event>
 5   0  0.1498375E-02  0.8135107E+03  0.7818609E-02  0.9540664E-01
        1   -1    0    0  501    0  0.00000000000E+00  0.00000000000E+00  0.25149314295E+03  0.25149314300E+03  0.50400001928E-02 0.  1.
       -1   -1    0    0    0  501  0.00000000000E+00  0.00000000000E+00 -0.65787055949E+03  0.65787055951E+03  0.50400001928E-02 0. -1.
    10030    2    1    2    0    0  0.00000000000E+00  0.00000000000E+00 -0.40637741654E+03  0.90936370250E+03  0.81351074901E+03 0.  0.
        4    1    3    3  502    0  0.10519085230E+03 -0.49081214828E+02 -0.63896069719E+03  0.64942010017E+03  0.12699999809E+01 0. -1.
       -4    1    3    3    0  502 -0.10519085230E+03  0.49081214828E+02  0.23258328065E+03  0.25994360233E+03  0.12699999809E+01 0.  1.
</event>
<event>
 5   0  0.2464780E-02  0.7165155E+03  0.7818609E-02  0.9689398E-01
        2   -1    0    0  501    0  0.00000000000E+00  0.00000000000E+00  0.27653810396E+03  0.27653810398E+03  0.25500000920E-02 0. -1.
       -2   -1    0    0    0  501  0.00000000000E+00  0.00000000000E+00 -0.46412632252E+03  0.46412632252E+03  0.25500000920E-02 0.  1.
    10030    2    1    2    0    0  0.00000000000E+00  0.00000000000E+00 -0.18758821855E+03  0.74066442650E+03  0.71651549386E+03 0.  0.
        3    1    3    3  502    0 -0.12806997971E+03 -0.28304435097E+03  0.90635994753E+02  0.32362156613E+03  0.10100000352E+00 0. -1.
       -3    1    3    3    0  502  0.12806997971E+03  0.28304435097E+03 -0.27822421331E+03  0.41704286037E+03  0.10100000352E+00 0.  1.
</event>
<event>
 5   0  0.1498375E-02  0.8124554E+03  0.7818609E-02  0.9542161E-01
        1   -1    0    0  501    0  0.00000000000E+00  0.00000000000E+00  0.15976228895E+04  0.15976228895E+04  0.50400001928E-02 0.  1.
       -1   -1    0    0    0  501  0.00000000000E+00  0.00000000000E+00 -0.10329155695E+03  0.10329155707E+03  0.50400001928E-02 0. -1.
    10030    2    1    2    0    0  0.00000000000E+00  0.00000000000E+00  0.14943313325E+04  0.17009144465E+04  0.81245542839E+03 0.  0.
        4    1    3    3  502    0  0.99450457873E+02  0.17339841260E+03  0.68013044301E+01  0.20001318383E+03  0.12699999809E+01 0. -1.
       -4    1    3    3    0  502 -0.99450457873E+02 -0.17339841260E+03  0.14875300281E+04  0.15009012627E+04  0.12699999809E+01 0.  1.
</event>
<event>
 5   0  0.1509629E-02  0.8050395E+03  0.7818609E-02  0.9552751E-01
       -1   -1    0    0    0  501  0.00000000000E+00  0.00000000000E+00  0.21676940350E+03  0.21676940356E+03  0.50400001928E-02 0. -1.
        1   -1    0    0  501    0  0.00000000000E+00  0.00000000000E+00 -0.74744011692E+03  0.74744011693E+03  0.50400001928E-02 0.  1.
    10030    2    1    2    0    0  0.00000000000E+00  0.00000000000E+00 -0.53067071341E+03  0.96420952049E+03  0.80503949800E+03 0.  0.
        5    1    3    3  502    0  0.72713188731E+02  0.38763311598E+03 -0.16911895265E+03  0.42915026571E+03  0.46999998093E+01 0. -1.
       -5    1    3    3    0  502 -0.72713188731E+02 -0.38763311598E+03 -0.36155176077E+03  0.53505925478E+03  0.46999998093E+01 0.  1.
</event>
<event>
 5   0  0.1498375E-02  0.7976687E+03  0.7818609E-02  0.9563398E-01
        1   -1    0    0  501    0  0.00000000000E+00  0.00000000000E+00  0.16812664166E+03  0.16812664173E+03  0.50400001928E-02 0. -1.
       -1   -1    0    0    0  501  0.00000000000E+00  0.00000000000E+00 -0.94612502769E+03  0.94612502770E+03  0.50400001928E-02 0.  1.
    10030    2    1    2    0    0  0.00000000000E+00  0.00000000000E+00 -0.77799838603E+03  0.11142516694E+04  0.79766866190E+03 0.  0.
        4    1    3    3  502    0  0.12931036215E+03  0.12597820399E+03 -0.88577910066E+03  0.90398999204E+03  0.12699999809E+01 0.  1.
       -4    1    3    3    0  502 -0.12931036215E+03 -0.12597820399E+03  0.10778071462E+03  0.21026167740E+03  0.12699999809E+01 0. -1.
</event>
<event>
 5   0  0.1624094E-02  0.8020433E+03  0.7818609E-02  0.9557064E-01
       -1   -1    0    0    0  501  0.00000000000E+00  0.00000000000E+00  0.88953190421E+03  0.88953190423E+03  0.50400001928E-02 0.  1.
        1   -1    0    0  501    0  0.00000000000E+00  0.00000000000E+00 -0.18078985734E+03  0.18078985741E+03  0.50400001928E-02 0. -1.
    10030    2    1    2    0    0  0.00000000000E+00  0.00000000000E+00  0.70874204687E+03  0.10703217616E+04  0.80204325595E+03 0.  0.
        3    1    3    3  502    0  0.38398707859E+03 -0.29997474331E+02  0.20533482320E+03  0.43647259342E+03  0.10100000352E+00 0. -1.
       -3    1    3    3    0  502 -0.38398707859E+03  0.29997474331E+02  0.50340722367E+03  0.63384916821E+03  0.10100000352E+00 0.  1.
</event>
<event>
 5   0  0.2460312E-02  0.7763915E+03  0.7818609E-02  0.9594832E-01
       -2   -1    0    0    0  501  0.00000000000E+00  0.00000000000E+00  0.89375637699E+02  0.89375637736E+02  0.25500000920E-02 0. -1.
        2   -1    0    0  501    0  0.00000000000E+00  0.00000000000E+00 -0.16860963034E+04  0.16860963034E+04  0.25500000920E-02 0.  1.
    10030    2    1    2    0    0  0.00000000000E+00  0.00000000000E+00 -0.15967206657E+04  0.17754719411E+04  0.77639147953E+03 0.  0.
        2    1    3    3  502    0 -0.78086939514E+02  0.14549872351E+03  0.50561724087E+01  0.16520597311E+03  0.25500000920E-02 0. -1.
       -2    1    3    3    0  502  0.78086939514E+02 -0.14549872351E+03 -0.16017768381E+04  0.16102659680E+04  0.25500000920E-02 0.  1.
</event>
<event>
 5   0  0.2422031E-02  0.7990694E+03  0.7818609E-02  0.9561365E-01
       -2   -1    0    0    0  501  0.00000000000E+00  0.00000000000E+00  0.13772362130E+03  0.13772362133E+03  0.25500000920E-02 0.  1.
        2   -1    0    0  501    0  0.00000000000E+00  0.00000000000E+00 -0.11590458278E+04  0.11590458278E+04  0.25500000920E-02 0. -1.
    10030    2    1    2    0    0  0.00000000000E+00  0.00000000000E+00 -0.10213222065E+04  0.12967694491E+04  0.79906943046E+03 0.  0.
        4    1    3    3  502    0  0.17364718071E+03  0.17448037696E+03 -0.10213551945E+04  0.10506021091E+04  0.12699999809E+01 0. -1.
       -4    1    3    3    0  502 -0.17364718071E+03 -0.17448037696E+03  0.32988035515E-01  0.24616734004E+03  0.12699999809E+01 0.  1.
</event>
<event>
 5   0  0.2454354E-02  0.7841637E+03  0.7818609E-02  0.9583227E-01
       -2   -1    0    0    0  501  0.00000000000E+00  0.00000000000E+00  0.20129828894E+03  0.20129828896E+03  0.25500000920E-02 0.  1.
        2   -1    0    0  501    0  0.00000000000E+00  0.00000000000E+00 -0.76368354654E+03  0.76368354654E+03  0.25500000920E-02 0. -1.
    10030    2    1    2    0    0  0.00000000000E+00  0.00000000000E+00 -0.56238525760E+03  0.96498183550E+03  0.78416373601E+03 0.  0.
        5    1    3    3  502    0  0.29471822278E+03  0.25742797130E+03 -0.25160449217E+03  0.46524714048E+03  0.46999998093E+01 0. -1.
       -5    1    3    3    0  502 -0.29471822278E+03 -0.25742797130E+03 -0.31078076543E+03  0.49973469502E+03  0.46999998093E+01 0.  1.
</event>
<event>
 5   0  0.2454354E-02  0.8043862E+03  0.7818609E-02  0.9553690E-01
        2   -1    0    0  501    0  0.00000000000E+00  0.00000000000E+00  0.55980958045E+03  0.55980958046E+03  0.25500000920E-02 0. -1.
       -2   -1    0    0    0  501  0.00000000000E+00  0.00000000000E+00 -0.28895416127E+03  0.28895416128E+03  0.25500000920E-02 0.  1.
    10030    2    1    2    0    0  0.00000000000E+00  0.00000000000E+00  0.27085541919E+03  0.84876374174E+03  0.80438624503E+03 0.  0.
        5    1    3    3  502    0 -0.13901938238E+03  0.21993980712E+03  0.45900071493E+03  0.52763970069E+03  0.46999998093E+01 0. -1.
       -5    1    3    3    0  502  0.13901938238E+03 -0.21993980712E+03 -0.18814529575E+03  0.32112404105E+03  0.46999998093E+01 0.  1.
</event>
<event>
 5   0  0.1471290E-02  0.8320697E+03  0.7818609E-02  0.9514723E-01
       -1   -1    0    0    0  501  0.00000000000E+00  0.00000000000E+00  0.10366952657E+03  0.10366952669E+03  0.50400001928E-02 0.  1.
        1   -1    0    0  501    0  0.00000000000E+00  0.00000000000E+00 -0.16695842612E+04  0.16695842612E+04  0.50400001928E-02 0. -1.
    10030    2    1    2    0    0  0.00000000000E+00  0.00000000000E+00 -0.15659147346E+04  0.17732537879E+04  0.83206973277E+03 0.  0.
        2    1    3    3  502    0  0.22455307200E+03 -0.34061324533E+03 -0.95666188446E+03  0.10400208778E+04  0.25500000920E-02 0.  1.
       -2    1    3    3    0  502 -0.22455307200E+03  0.34061324533E+03 -0.60925285018E+03  0.73323291013E+03  0.25500000920E-02 0. -1.
</event>
<event>
 5   0  0.1498375E-02  0.8022877E+03  0.7818609E-02  0.9556712E-01
        1   -1    0    0  501    0  0.00000000000E+00  0.00000000000E+00  0.19767521475E+03  0.19767521482E+03  0.50400001928E-02 0. -1.
       -1   -1    0    0    0  501  0.00000000000E+00  0.00000000000E+00 -0.81404429120E+03  0.81404429122E+03  0.50400001928E-02 0.  1.
    10030    2    1    2    0    0  0.00000000000E+00  0.00000000000E+00 -0.61636907645E+03  0.10117195060E+04  0.80228767938E+03 0.  0.
        4    1    3    3  502    0  0.13024896892E+03 -0.36060644038E+03 -0.15944038590E+03  0.41524047045E+03  0.12699999809E+01 0. -1.
       -4    1    3    3    0  502 -0.13024896892E+03  0.36060644038E+03 -0.45692869055E+03  0.59647903558E+03  0.12699999809E+01 0.  1.
</event>
<event>
 5   0  0.2464780E-02  0.7988490E+03  0.7818609E-02  0.9561685E-01
        2   -1    0    0  501    0  0.00000000000E+00  0.00000000000E+00  0.78286118588E+03  0.78286118589E+03  0.25500000920E-02 0. -1.
       -2   -1    0    0    0  501  0.00000000000E+00  0.00000000000E+00 -0.20379081807E+03  0.20379081809E+03  0.25500000920E-02 0.  1.
    10030    2    1    2    0    0  0.00000000000E+00  0.00000000000E+00  0.57907036781E+03  0.98665200398E+03  0.79884897576E+03 0.  0.
        3    1    3    3  502    0  0.26832492852E+03  0.19548641210E+03  0.15225979746E+02  0.33233273273E+03  0.10100000352E+00 0.  1.
       -3    1    3    3    0  502 -0.26832492852E+03 -0.19548641210E+03  0.56384438806E+03  0.65431927125E+03  0.10100000352E+00 0. -1.
</event>
<event>
 5   0  0.2571778E-02  0.8164970E+03  0.7818609E-02  0.9536441E-01
       -2   -1    0    0    0  501  0.00000000000E+00  0.00000000000E+00  0.84020915350E+02  0.84020915389E+02  0.25500000920E-02 0. -1.
        2   -1    0    0  501    0  0.00000000000E+00  0.00000000000E+00 -0.19836353158E+04  0.19836353158E+04  0.25500000920E-02 0.  1.
    10030    2    1    2    0    0  0.00000000000E+00  0.00000000000E+00 -0.18996144005E+04  0.20676562312E+04  0.81649704225E+03 0.  0.
        1    1    3    3  502    0  0.12556169517E+03 -0.15454868401E+03 -0.47295944819E+02  0.20466543784E+03  0.50400001928E-02 0. -1.
       -1    1    3    3    0  502 -0.12556169517E+03  0.15454868401E+03 -0.18523184557E+04  0.18629907934E+04  0.50400001928E-02 0.  1.
</event>
<event>
 5   0  0.9919125E-03  0.5985415E+03  0.7818609E-02  0.9908437E-01
       -3   -1    0    0    0  501  0.00000000000E+00  0.00000000000E+00  0.59663673608E+03  0.59663674463E+03  0.10100000352E+00 0. -1.
        3   -1    0    0  501    0  0.00000000000E+00  0.00000000000E+00 -0.15011305012E+03  0.15011308410E+03  0.10100000352E+00 0.  1.
    10030    2    1    2    0    0  0.00000000000E+00  0.00000000000E+00  0.44652368596E+03  0.74674982873E+03  0.59854148109E+03 0.  0.
        4    1    3    3  502    0 -0.17067331098E+01 -0.23714761436E+03 -0.44731932190E+01  0.23719933873E+03  0.12699999809E+01 0. -1.
       -4    1    3    3    0  502  0.17067331098E+01  0.23714761436E+03  0.45099687918E+03  0.50955049000E+03  0.12699999809E+01 0.  1.
</event>
<event>
 5   0  0.2454354E-02  0.7763356E+03  0.7818609E-02  0.9594916E-01
        2   -1    0    0  501    0  0.00000000000E+00  0.00000000000E+00  0.70237244589E+03  0.70237244590E+03  0.25500000920E-02 0.  1.
       -2   -1    0    0    0  501  0.00000000000E+00  0.00000000000E+00 -0.21452185045E+03  0.21452185047E+03  0.25500000920E-02 0. -1.
    10030    2    1    2    0    0  0.00000000000E+00  0.00000000000E+00  0.48785059544E+03  0.91689429637E+03  0.77633558932E+03 0.  0.
        5    1    3    3  502    0  0.24724215894E+03 -0.16619009105E+02  0.59675671233E+03  0.64617763837E+03  0.46999998093E+01 0.  1.
       -5    1    3    3    0  502 -0.24724215894E+03  0.16619009105E+02 -0.10890611689E+03  0.27071665800E+03  0.46999998093E+01 0. -1.
</event>
<event>
 5   0  0.1624094E-02  0.7721897E+03  0.7818609E-02  0.9601167E-01
       -1   -1    0    0    0  501  0.00000000000E+00  0.00000000000E+00  0.15765167183E+03  0.15765167191E+03  0.50400001928E-02 0. -1.
        1   -1    0    0  501    0  0.00000000000E+00  0.00000000000E+00 -0.94556076315E+03  0.94556076316E+03  0.50400001928E-02 0.  1.
    10030    2    1    2    0    0  0.00000000000E+00  0.00000000000E+00 -0.78790909131E+03  0.11032124351E+04  0.77218970514E+03 0.  0.
        3    1    3    3  502    0 -0.31590657236E+03  0.49095376177E+02 -0.84679330295E+02  0.33072332485E+03  0.10100000352E+00 0. -1.
       -3    1    3    3    0  502  0.31590657236E+03 -0.49095376177E+02 -0.70322976102E+03  0.77248911022E+03  0.10100000352E+00 0.  1.
</event>
<event>
 5   0  0.9919125E-03  0.7874553E+03  0.7818609E-02  0.9578355E-01
       -3   -1    0    0    0  501  0.00000000000E+00  0.00000000000E+00  0.29803984895E+03  0.29803986607E+03  0.10100000352E+00 0.  1.
        3   -1    0    0  501    0  0.00000000000E+00  0.00000000000E+00 -0.52013668560E+03  0.52013669541E+03  0.10100000352E+00 0. -1.
    10030    2    1    2    0    0  0.00000000000E+00  0.00000000000E+00 -0.22209683665E+03  0.81817656148E+03  0.78745531994E+03 0.  0.
        4    1    3    3  502    0  0.55513930609E+01  0.25169234789E+03  0.20348272682E+03  0.32370772151E+03  0.12699999809E+01 0.  1.
       -4    1    3    3    0  502 -0.55513930609E+01 -0.25169234789E+03 -0.42557956347E+03  0.49446883997E+03  0.12699999809E+01 0. -1.
</event>
<event>
 5   0  0.2460312E-02  0.7864753E+03  0.7818609E-02  0.9579803E-01
       -2   -1    0    0    0  501  0.00000000000E+00  0.00000000000E+00  0.95297683316E+02  0.95297683350E+02  0.25500000920E-02 0.  1.
        2   -1    0    0  501    0  0.00000000000E+00  0.00000000000E+00 -0.16226612035E+04  0.16226612035E+04  0.25500000920E-02 0. -1.
    10030    2    1    2    0    0  0.00000000000E+00  0.00000000000E+00 -0.15273635202E+04  0.17179588869E+04  0.78647531057E+03 0.  0.
        2    1    3    3  502    0 -0.24498698928E+03 -0.30758008469E+03 -0.77115990011E+03  0.86562793679E+03  0.25500000920E-02 0.  1.
       -2    1    3    3    0  502  0.24498698928E+03  0.30758008469E+03 -0.75620362008E+03  0.85233095007E+03  0.25500000920E-02 0. -1.
</event>
<event>
 5   0  0.1523811E-02  0.7993561E+03  0.7818609E-02  0.9560950E-01
        1   -1    0    0  501    0  0.00000000000E+00  0.00000000000E+00  0.94100261765E+03  0.94100261766E+03  0.50400001928E-02 0. -1.
       -1   -1    0    0    0  501  0.00000000000E+00  0.00000000000E+00 -0.16975781882E+03  0.16975781889E+03  0.50400001928E-02 0.  1.
    10030    2    1    2    0    0  0.00000000000E+00  0.00000000000E+00  0.77124479883E+03  0.11107604366E+04  0.79935612069E+03 0.  0.
        1    1    3    3  502    0 -0.13898391851E+03 -0.17230925864E+03  0.84802856371E+03  0.87644706350E+03  0.50400001928E-02 0. -1.
       -1    1    3    3    0  502  0.13898391851E+03  0.17230925864E+03 -0.76783764885E+02  0.23431337305E+03  0.50400001928E-02 0.  1.
</event>
<event>
 5   0  0.2464780E-02  0.7804058E+03  0.7818609E-02  0.9588820E-01
        2   -1    0    0  501    0  0.00000000000E+00  0.00000000000E+00  0.98173558659E+03  0.98173558659E+03  0.25500000920E-02 0. -1.
       -2   -1    0    0    0  501  0.00000000000E+00  0.00000000000E+00 -0.15509093692E+03  0.15509093694E+03  0.25500000920E-02 0.  1.
    10030    2    1    2    0    0  0.00000000000E+00  0.00000000000E+00  0.82664464967E+03  0.11368265235E+04  0.78040577124E+03 0.  0.
        3    1    3    3  502    0  0.30357986991E+03  0.19539954535E+03  0.62897752727E+03  0.72522717803E+03  0.10100000352E+00 0. -1.
       -3    1    3    3    0  502 -0.30357986991E+03 -0.19539954535E+03  0.19766712240E+03  0.41159934551E+03  0.10100000352E+00 0.  1.
</event>
<event>
 5   0  0.2460312E-02  0.8005440E+03  0.7818609E-02  0.9559230E-01
       -2   -1    0    0    0  501  0.00000000000E+00  0.00000000000E+00  0.27360400449E+03  0.27360400451E+03  0.25500000920E-02 0. -1.
        2   -1    0    0  501    0  0.00000000000E+00  0.00000000000E+00 -0.58558238770E+03  0.58558238771E+03  0.25500000920E-02 0.  1.
    10030    2    1    2    0    0  0.00000000000E+00  0.00000000000E+00 -0.31197838321E+03  0.85918639221E+03  0.80054403063E+03 0.  0.
        2    1    3    3  502    0 -0.30959381039E+03  0.14363514204E+03  0.68467801052E+02  0.34809082328E+03  0.25500000920E-02 0. -1.
       -2    1    3    3    0  502  0.30959381039E+03 -0.14363514204E+03 -0.38044618426E+03  0.51109556894E+03  0.25500000920E-02 0.  1.
</event>
<event>
 5   0  0.1523811E-02  0.8048784E+03  0.7818609E-02  0.9552983E-01
        1   -1    0    0  501    0  0.00000000000E+00  0.00000000000E+00  0.16665146564E+04  0.16665146564E+04  0.50400001928E-02 0. -1.
       -1   -1    0    0    0  501  0.00000000000E+00  0.00000000000E+00 -0.97183250175E+02  0.97183250306E+02  0.50400001928E-02 0.  1.
    10030    2    1    2    0    0  0.00000000000E+00  0.00000000000E+00  0.15693314062E+04  0.17636979067E+04  0.80487840298E+03 0.  0.
        1    1    3    3  502    0 -0.27707067536E+03  0.28358679669E+03  0.93596868801E+03  0.10164777496E+04  0.50400001928E-02 0.  1.
       -1    1    3    3    0  502  0.27707067536E+03 -0.28358679669E+03  0.63336271823E+03  0.74722015717E+03  0.50400001928E-02 0. -1.
</event>
<event>
 5   0  0.2454354E-02  0.7935586E+03  0.7818609E-02  0.9569388E-01
       -2   -1    0    0    0  501  0.00000000000E+00  0.00000000000E+00  0.14753410378E+03  0.14753410380E+03  0.25500000920E-02 0.  1.
        2   -1    0    0  501    0  0.00000000000E+00  0.00000000000E+00 -0.10671012648E+04  0.10671012648E+04  0.25500000920E-02 0. -1.
    10030    2    1    2    0    0  0.00000000000E+00  0.00000000000E+00 -0.91956716102E+03  0.12146353686E+04  0.79355863994E+03 0.  0.
        5    1    3    3  502    0  0.32048405101E+03 -0.12930164064E+03 -0.75808847067E+03  0.83315614418E+03  0.46999998093E+01 0. -1.
       -5    1    3    3    0  502 -0.32048405101E+03  0.12930164064E+03 -0.16147869035E+03  0.38147922442E+03  0.46999998093E+01 0.  1.
</event>
<event>
 5   0  0.2460312E-02  0.7993993E+03  0.7818609E-02  0.9560887E-01
        2   -1    0    0  501    0  0.00000000000E+00  0.00000000000E+00  0.12315093367E+04  0.12315093367E+04  0.25500000920E-02 0.  1.
       -2   -1    0    0    0  501  0.00000000000E+00  0.00000000000E+00 -0.12972685250E+03  0.12972685253E+03  0.25500000920E-02 0. -1.
    10030    2    1    2    0    0  0.00000000000E+00  0.00000000000E+00  0.11017824842E+04  0.13612361892E+04  0.79939934975E+03 0.  0.
        2    1    3    3  502    0  0.20185975396E+01  0.11707616317E+03 -0.99865807891E+02  0.15389633625E+03  0.25500000920E-02 0. -1.
       -2    1    3    3    0  502 -0.20185975396E+01 -0.11707616317E+03  0.12016482920E+04  0.12073398529E+04  0.25500000920E-02 0.  1.
</event>
<event>
 5   0  0.2454354E-02  0.7975252E+03  0.7818609E-02  0.9563606E-01
        2   -1    0    0  501    0  0.00000000000E+00  0.00000000000E+00  0.98505383489E+03  0.98505383489E+03  0.25500000920E-02 0. -1.
       -2   -1    0    0    0  501  0.00000000000E+00  0.00000000000E+00 -0.16142428118E+03  0.16142428120E+03  0.25500000920E-02 0.  1.
    10030    2    1    2    0    0  0.00000000000E+00  0.00000000000E+00  0.82362955371E+03  0.11464781161E+04  0.79752519017E+03 0.  0.
        5    1    3    3  502    0  0.12812821102E+03 -0.27971777369E+03  0.77642623781E+03  0.83517582827E+03  0.46999998093E+01 0. -1.
       -5    1    3    3    0  502 -0.12812821102E+03  0.27971777369E+03  0.47203315901E+02  0.31130228783E+03  0.46999998093E+01 0.  1.
</event>
<event>
 5   0  0.1498375E-02  0.8218864E+03  0.7818609E-02  0.9528867E-01
        1   -1    0    0  501    0  0.00000000000E+00  0.00000000000E+00  0.27823906371E+03  0.27823906375E+03  0.50400001928E-02 0. -1.
       -1   -1    0    0    0  501  0.00000000000E+00  0.00000000000E+00 -0.60693960330E+03  0.60693960332E+03  0.50400001928E-02 0.  1.
    10030    2    1    2    0    0  0.00000000000E+00  0.00000000000E+00 -0.32870053959E+03  0.88517866707E+03  0.82188638382E+03 0.  0.
        4    1    3    3  502    0  0.32251478784E+03 -0.18347271604E+03 -0.35457165433E+03  0.51322577572E+03  0.12699999809E+01 0.  1.
       -4    1    3    3    0  502 -0.32251478784E+03  0.18347271604E+03  0.25871114735E+02  0.37195289135E+03  0.12699999809E+01 0. -1.
</event>
<event>
 5   0  0.2422031E-02  0.7961856E+03  0.7818609E-02  0.9565555E-01
       -2   -1    0    0    0  501  0.00000000000E+00  0.00000000000E+00  0.16044318996E+03  0.16044318998E+03  0.25500000920E-02 0.  1.
        2   -1    0    0  501    0  0.00000000000E+00  0.00000000000E+00 -0.98775070932E+03  0.98775070932E+03  0.25500000920E-02 0. -1.
    10030    2    1    2    0    0  0.00000000000E+00  0.00000000000E+00 -0.82730751936E+03  0.11481938993E+04  0.79618559320E+03 0.  0.
        4    1    3    3  502    0 -0.33061482372E+03 -0.37598599213E+01 -0.93919607874E+02  0.34371907694E+03  0.12699999809E+01 0.  1.
       -4    1    3    3    0  502  0.33061482372E+03  0.37598599213E+01 -0.73338791148E+03  0.80447482237E+03  0.12699999809E+01 0. -1.
</event>
<event>
 5   0  0.2464780E-02  0.8001883E+03  0.7818609E-02  0.9559745E-01
       -2   -1    0    0    0  501  0.00000000000E+00  0.00000000000E+00  0.82094481264E+02  0.82094481304E+02  0.25500000920E-02 0.  1.
        2   -1    0    0  501    0  0.00000000000E+00  0.00000000000E+00 -0.19498913649E+04  0.19498913649E+04  0.25500000920E-02 0. -1.
    10030    2    1    2    0    0  0.00000000000E+00  0.00000000000E+00 -0.18677968837E+04  0.20319858462E+04  0.80018827826E+03 0.  0.
        3    1    3    3  502    0 -0.32589466230E+03  0.52801350658E+02 -0.15078218289E+04  0.15435420278E+04  0.10100000352E+00 0. -1.
       -3    1    3    3    0  502  0.32589466230E+03 -0.52801350658E+02 -0.35997505474E+03  0.48844381845E+03  0.10100000352E+00 0.  1.
</event>
<event>
 5   0  0.2454354E-02  0.7941126E+03  0.7818609E-02  0.9568578E-01
        2   -1    0    0  501    0  0.00000000000E+00  0.00000000000E+00  0.61475905625E+03  0.61475905626E+03  0.25500000920E-02 0.  1.
       -2   -1    0    0    0  501  0.00000000000E+00  0.00000000000E+00 -0.25644795741E+03  0.25644795742E+03  0.25500000920E-02 0. -1.
    10030    2    1    2    0    0  0.00000000000E+00  0.00000000000E+00  0.35831109885E+03  0.87120701368E+03  0.79411259726E+03 0.  0.
        5    1    3    3  502    0 -0.13122423292E+03  0.26440999311E+02  0.58922479820E+03  0.60425729501E+03  0.46999998093E+01 0.  1.
       -5    1    3    3    0  502  0.13122423292E+03 -0.26440999311E+02 -0.23091369936E+03  0.26694971867E+03  0.46999998093E+01 0. -1.
</event>
<event>
 5   0  0.2464780E-02  0.8020498E+03  0.7818609E-02  0.9557055E-01
        2   -1    0    0  501    0  0.00000000000E+00  0.00000000000E+00  0.70517018426E+03  0.70517018427E+03  0.25500000920E-02 0. -1.
       -2   -1    0    0    0  501  0.00000000000E+00  0.00000000000E+00 -0.22805980165E+03  0.22805980167E+03  0.25500000920E-02 0.  1.
    10030    2    1    2    0    0  0.00000000000E+00  0.00000000000E+00  0.47711038261E+03  0.93322998593E+03  0.80204980484E+03 0.  0.
        3    1    3    3  502    0 -0.28492486746E+02  0.22853293272E+03 -0.14344197568E+03  0.27132035258E+03  0.10100000352E+00 0.  1.
       -3    1    3    3    0  502  0.28492486746E+02 -0.22853293272E+03  0.62055235829E+03  0.66190963335E+03  0.10100000352E+00 0. -1.
</event>
<event>
 5   0  0.1624094E-02  0.7341545E+03  0.7818609E-02  0.9660543E-01
        1   -1    0    0  501    0  0.00000000000E+00  0.00000000000E+00  0.58608351707E+03  0.58608351710E+03  0.50400001928E-02 0.  1.
       -1   -1    0    0    0  501  0.00000000000E+00  0.00000000000E+00 -0.22990872781E+03  0.22990872786E+03  0.50400001928E-02 0. -1.
    10030    2    1    2    0    0  0.00000000000E+00  0.00000000000E+00  0.35617478927E+03  0.81599224496E+03  0.73415452278E+03 0.  0.
        3    1    3    3  502    0  0.12469082387E+03 -0.22053386671E+03  0.47333487653E+03  0.53686954045E+03  0.10100000352E+00 0.  1.
       -3    1    3    3    0  502 -0.12469082387E+03  0.22053386671E+03 -0.11716008726E+03  0.27912270451E+03  0.10100000352E+00 0. -1.
</event>
<event>
 5   0  0.1624094E-02  0.8188579E+03  0.7818609E-02  0.9533115E-01
       -1   -1    0    0    0  501  0.00000000000E+00  0.00000000000E+00  0.36332704771E+03  0.36332704774E+03  0.50400001928E-02 0.  1.
        1   -1    0    0  501    0  0.00000000000E+00  0.00000000000E+00 -0.46138067943E+03  0.46138067946E+03  0.50400001928E-02 0. -1.
    10030    2    1    2    0    0  0.00000000000E+00  0.00000000000E+00 -0.98053631722E+02  0.82470772720E+03  0.81885793677E+03 0.  0.
        3    1    3    3  502    0 -0.60260578563E+02 -0.20901391773E+03  0.30031408038E+03  0.37081897499E+03  0.10100000352E+00 0.  1.
       -3    1    3    3    0  502  0.60260578563E+02  0.20901391773E+03 -0.39836771210E+03  0.45388875221E+03  0.10100000352E+00 0. -1.
</event>
<event>
 5   0  0.2422031E-02  0.8573870E+03  0.7818609E-02  0.9480476E-01
       -2   -1    0    0    0  501  0.00000000000E+00  0.00000000000E+00  0.17267611298E+03  0.17267611300E+03  0.25500000920E-02 0. -1.
        2   -1    0    0  501    0  0.00000000000E+00  0.00000000000E+00 -0.10642938655E+04  0.10642938655E+04  0.25500000920E-02 0.  1.
    10030    2    1    2    0    0  0.00000000000E+00  0.00000000000E+00 -0.89161775256E+03  0.12369699785E+04  0.85738702530E+03 0.  0.
        4    1    3    3  502    0 -0.25478382382E+03  0.34445136544E+03 -0.42465567600E+03  0.60323759506E+03  0.12699999809E+01 0. -1.
       -4    1    3    3    0  502  0.25478382382E+03 -0.34445136544E+03 -0.46696207655E+03  0.63373238348E+03  0.12699999809E+01 0.  1.
</event>
<event>
 5   0  0.1509629E-02  0.8049102E+03  0.7818609E-02  0.9552937E-01
       -1   -1    0    0    0  501  0.00000000000E+00  0.00000000000E+00  0.71631971204E+03  0.71631971206E+03  0.50400001928E-02 0.  1.
        1   -1    0    0  501    0  0.00000000000E+00  0.00000000000E+00 -0.22611427621E+03  0.22611427626E+03  0.50400001928E-02 0. -1.
    10030    2    1    2    0    0  0.00000000000E+00  0.00000000000E+00  0.49020543583E+03  0.94243398832E+03  0.80491021426E+03 0.  0.
        5    1    3    3  502    0 -0.29476902142E+03 -0.96129714058E+02  0.54548680060E+03  0.62746126378E+03  0.46999998093E+01 0.  1.
       -5    1    3    3    0  502  0.29476902142E+03  0.96129714058E+02 -0.55281364771E+02  0.31497272454E+03  0.46999998093E+01 0. -1.
</event>
<event>
 5   0  0.9919125E-03  0.7796453E+03  0.7818609E-02  0.9589956E-01
       -3   -1    0    0    0  501  0.00000000000E+00  0.00000000000E+00  0.69499775039E+03  0.69499775773E+03  0.10100000352E+00 0.  1.
        3   -1    0    0  501    0  0.00000000000E+00  0.00000000000E+00 -0.21865060526E+03  0.21865062859E+03  0.10100000352E+00 0. -1.
    10030    2    1    2    0    0  0.00000000000E+00  0.00000000000E+00  0.47634714513E+03  0.91364838632E+03  0.77964528547E+03 0.  0.
        2    1    3    3  502    0 -0.10426758410E+03 -0.15779747970E+03  0.63762709861E+03  0.66508652864E+03  0.25500000920E-02 0.  1.
       -2    1    3    3    0  502  0.10426758410E+03  0.15779747970E+03 -0.16127995348E+03  0.24856185768E+03  0.25500000920E-02 0. -1.
</event>
<event>
 5   0  0.1624094E-02  0.7930835E+03  0.7818609E-02  0.9570083E-01
       -1   -1    0    0    0  501  0.00000000000E+00  0.00000000000E+00  0.30100470301E+03  0.30100470305E+03  0.50400001928E-02 0. -1.
        1   -1    0    0  501    0  0.00000000000E+00  0.00000000000E+00 -0.52240164739E+03  0.52240164741E+03  0.50400001928E-02 0.  1.
    10030    2    1    2    0    0  0.00000000000E+00  0.00000000000E+00 -0.22139694438E+03  0.82340635046E+03  0.79308348300E+03 0.  0.
        3    1    3    3  502    0  0.29833468685E+03  0.15178330085E+03  0.11004189209E+03  0.35235065490E+03  0.10100000352E+00 0. -1.
       -3    1    3    3    0  502 -0.29833468685E+03 -0.15178330085E+03 -0.33143883647E+03  0.47105569556E+03  0.10100000352E+00 0.  1.
</event>
<event>
 5   0  0.1509629E-02  0.7911031E+03  0.7818609E-02  0.9572985E-01
       -1   -1    0    0    0  501  0.00000000000E+00  0.00000000000E+00  0.28974963508E+03  0.28974963512E+03  0.50400001928E-02 0. -1.
        1   -1    0    0  501    0  0.00000000000E+00  0.00000000000E+00 -0.53998695771E+03  0.53998695773E+03  0.50400001928E-02 0.  1.
    10030    2    1    2    0    0  0.00000000000E+00  0.00000000000E+00 -0.25023732263E+03  0.82973659285E+03  0.79110308803E+03 0.  0.
        5    1    3    3  502    0  0.34489883230E+03  0.19177188244E+03 -0.15301204379E+03  0.42328056293E+03  0.46999998093E+01 0. -1.
       -5    1    3    3    0  502 -0.34489883230E+03 -0.19177188244E+03 -0.97225278835E+02  0.40645602992E+03  0.46999998093E+01 0.  1.
</event>
<event>
 5   0  0.1523811E-02  0.8062333E+03  0.7818609E-02  0.9551038E-01
       -1   -1    0    0    0  501  0.00000000000E+00  0.00000000000E+00  0.29345374113E+03  0.29345374118E+03  0.50400001928E-02 0.  1.
        1   -1    0    0  501    0  0.00000000000E+00  0.00000000000E+00 -0.55376029383E+03  0.55376029385E+03  0.50400001928E-02 0. -1.
    10030    2    1    2    0    0  0.00000000000E+00  0.00000000000E+00 -0.26030655270E+03  0.84721403503E+03  0.80623329116E+03 0.  0.
        1    1    3    3  502    0  0.13402283489E+03 -0.17471417330E+03  0.22467241869E+03  0.31458680578E+03  0.50400001928E-02 0.  1.
       -1    1    3    3    0  502 -0.13402283489E+03  0.17471417330E+03 -0.48497897139E+03  0.53262722925E+03  0.50400001928E-02 0. -1.
</event>
<event>
 5   0  0.2571778E-02  0.8226547E+03  0.7818609E-02  0.9527792E-01
       -2   -1    0    0    0  501  0.00000000000E+00  0.00000000000E+00  0.27816438073E+03  0.27816438074E+03  0.25500000920E-02 0.  1.
        2   -1    0    0  501    0  0.00000000000E+00  0.00000000000E+00 -0.60823813763E+03  0.60823813763E+03  0.25500000920E-02 0. -1.
    10030    2    1    2    0    0  0.00000000000E+00  0.00000000000E+00 -0.33007375690E+03  0.88640251837E+03  0.82265469037E+03 0.  0.
        1    1    3    3  502    0 -0.13578155036E+03  0.15584726678E+03 -0.54821340364E+03  0.58588645311E+03  0.50400001928E-02 0. -1.
       -1    1    3    3    0  502  0.13578155036E+03 -0.15584726678E+03  0.21813964674E+03  0.30051606527E+03  0.50400001928E-02 0.  1.
</event>
<event>
 5   0  0.1471290E-02  0.7661482E+03  0.7818609E-02  0.9610352E-01
        1   -1    0    0  501    0  0.00000000000E+00  0.00000000000E+00  0.24405623108E+03  0.24405623113E+03  0.50400001928E-02 0.  1.
       -1   -1    0    0    0  501  0.00000000000E+00  0.00000000000E+00 -0.60127851469E+03  0.60127851471E+03  0.50400001928E-02 0. -1.
    10030    2    1    2    0    0  0.00000000000E+00  0.00000000000E+00 -0.35722228361E+03  0.84533474584E+03  0.76614820539E+03 0.  0.
        2    1    3    3  502    0 -0.27648984783E+03  0.15943376323E+03 -0.41235617488E+03  0.52144354994E+03  0.25500000920E-02 0.  1.
       -2    1    3    3    0  502  0.27648984783E+03 -0.15943376323E+03  0.55133891268E+02  0.32389119590E+03  0.25500000920E-02 0. -1.
</event>
<event>
 5   0  0.1624094E-02  0.7896907E+03  0.7818609E-02  0.9575060E-01
        1   -1    0    0  501    0  0.00000000000E+00  0.00000000000E+00  0.72333931966E+03  0.72333931968E+03  0.50400001928E-02 0. -1.
       -1   -1    0    0    0  501  0.00000000000E+00  0.00000000000E+00 -0.21553213048E+03  0.21553213053E+03  0.50400001928E-02 0.  1.
    10030    2    1    2    0    0  0.00000000000E+00  0.00000000000E+00  0.50780718918E+03  0.93887145021E+03  0.78969073607E+03 0.  0.
        3    1    3    3  502    0 -0.27179373900E+03  0.25786403265E+03  0.10570813818E+03  0.38928128207E+03  0.10100000352E+00 0.  1.
       -3    1    3    3    0  502  0.27179373900E+03 -0.25786403265E+03  0.40209905100E+03  0.54959016813E+03  0.10100000352E+00 0. -1.
</event>
<event>
 5   0  0.1471290E-02  0.8073889E+03  0.7818609E-02  0.9549383E-01
       -1   -1    0    0    0  501  0.00000000000E+00  0.00000000000E+00  0.12355032499E+03  0.12355032509E+03  0.50400001928E-02 0.  1.
        1   -1    0    0  501    0  0.00000000000E+00  0.00000000000E+00 -0.13190512458E+04  0.13190512458E+04  0.50400001928E-02 0. -1.
    10030    2    1    2    0    0  0.00000000000E+00  0.00000000000E+00 -0.11955009208E+04  0.14426015709E+04  0.80738890300E+03 0.  0.
        2    1    3    3  502    0 -0.29154588569E+03 -0.25887794657E+03 -0.41076037496E+03  0.56633989823E+03  0.25500000920E-02 0.  1.
       -2    1    3    3    0  502  0.29154588569E+03  0.25887794657E+03 -0.78474054582E+03  0.87626167264E+03  0.25500000920E-02 0. -1.
</event>
<event>
 5   0  0.1624094E-02  0.8032925E+03  0.7818609E-02  0.9555264E-01
        1   -1    0    0  501    0  0.00000000000E+00  0.00000000000E+00  0.71461300632E+03  0.71461300634E+03  0.50400001928E-02 0. -1.
       -1   -1    0    0    0  501  0.00000000000E+00  0.00000000000E+00 -0.22574416797E+03  0.22574416802E+03  0.50400001928E-02 0.  1.
    10030    2    1    2    0    0  0.00000000000E+00  0.00000000000E+00  0.48886883835E+03  0.94035717436E+03  0.80329252098E+03 0.  0.
        3    1    3    3  502    0 -0.33245718370E+03  0.36071996602E+02  0.50485847272E+03  0.60556672267E+03  0.10100000352E+00 0. -1.
       -3    1    3    3    0  502  0.33245718370E+03 -0.36071996602E+02 -0.15989634363E+02  0.33479045169E+03  0.10100000352E+00 0.  1.
</event>
<event>
 5   0  0.2454354E-02  0.7967715E+03  0.7818609E-02  0.9564702E-01
        2   -1    0    0  501    0  0.00000000000E+00  0.00000000000E+00  0.11000701302E+04  0.11000701302E+04  0.25500000920E-02 0.  1.
       -2   -1    0    0    0  501  0.00000000000E+00  0.00000000000E+00 -0.14427371117E+03  0.14427371119E+03  0.25500000920E-02 0. -1.
    10030    2    1    2    0    0  0.00000000000E+00  0.00000000000E+00  0.95579641901E+03  0.12443438414E+04  0.79677148604E+03 0.  0.
        5    1    3    3  502    0  0.33563461247E+03  0.17553306358E+03  0.28518612242E+03  0.47414730192E+03  0.46999998093E+01 0.  1.
       -5    1    3    3    0  502 -0.33563461247E+03 -0.17553306358E+03  0.67061029658E+03  0.77019653945E+03  0.46999998093E+01 0. -1.
</event>
<event>
 5   0  0.2571778E-02  0.7956096E+03  0.7818609E-02  0.9566394E-01
        2   -1    0    0  501    0  0.00000000000E+00  0.00000000000E+00  0.88895012869E+03  0.88895012869E+03  0.25500000920E-02 0. -1.
       -2   -1    0    0    0  501  0.00000000000E+00  0.00000000000E+00 -0.17801748476E+03  0.17801748477E+03  0.25500000920E-02 0.  1.
    10030    2    1    2    0    0  0.00000000000E+00  0.00000000000E+00  0.71093264393E+03  0.10669676135E+04  0.79560961783E+03 0.  0.
        1    1    3    3  502    0  0.36486993387E+03  0.14692377061E+03  0.43516694966E+03  0.58658924054E+03  0.50400001928E-02 0.  1.
       -1    1    3    3    0  502 -0.36486993387E+03 -0.14692377061E+03  0.27576569427E+03  0.48037837292E+03  0.50400001928E-02 0. -1.
</event>
<event>
 5   0  0.1523811E-02  0.7981882E+03  0.7818609E-02  0.9562643E-01
        1   -1    0    0  501    0  0.00000000000E+00  0.00000000000E+00  0.10553537193E+04  0.10553537193E+04  0.50400001928E-02 0.  1.
       -1   -1    0    0    0  501  0.00000000000E+00  0.00000000000E+00 -0.15092201037E+03  0.15092201045E+03  0.50400001928E-02 0. -1.
    10030    2    1    2    0    0  0.00000000000E+00  0.00000000000E+00  0.90443170894E+03  0.12062757298E+04  0.79818821095E+03 0.  0.
        1    1    3    3  502    0  0.14334454961E+03  0.28257098951E+03  0.85497323718E+02  0.32818259614E+03  0.50400001928E-02 0. -1.
       -1    1    3    3    0  502 -0.14334454961E+03 -0.28257098951E+03  0.81893438522E+03  0.87809313364E+03  0.50400001928E-02 0.  1.
</event>
<event>
 5   0  0.2460312E-02  0.8002563E+03  0.7818609E-02  0.9559646E-01
       -2   -1    0    0    0  501  0.00000000000E+00  0.00000000000E+00  0.24543461185E+03  0.24543461186E+03  0.25500000920E-02 0.  1.
        2   -1    0    0  501    0  0.00000000000E+00  0.00000000000E+00 -0.65232250375E+03  0.65232250375E+03  0.25500000920E-02 0. -1.
    10030    2    1    2    0    0  0.00000000000E+00  0.00000000000E+00 -0.40688789190E+03  0.89775711561E+03  0.80025626024E+03 0.  0.
        2    1    3    3  502    0  0.25790420166E+03 -0.97909162558E+02  0.12169868431E+03  0.30151509269E+03  0.25500000920E-02 0.  1.
       -2    1    3    3    0  502 -0.25790420166E+03  0.97909162558E+02 -0.52858657621E+03  0.59624202293E+03  0.25500000920E-02 0. -1.
</event>
<event>
 5   0  0.2454354E-02  0.7804526E+03  0.7818609E-02  0.9588750E-01
       -2   -1    0    0    0  501  0.00000000000E+00  0.00000000000E+00  0.33162421175E+03  0.33162421176E+03  0.25500000920E-02 0.  1.
        2   -1    0    0  501    0  0.00000000000E+00  0.00000000000E+00 -0.45918406136E+03  0.45918406137E+03  0.25500000920E-02 0. -1.
    10030    2    1    2    0    0  0.00000000000E+00  0.00000000000E+00 -0.12755984961E+03  0.79080827313E+03  0.78045256718E+03 0.  0.
        5    1    3    3  502    0  0.18745854567E+03 -0.30453580894E+03 -0.22196575455E+03  0.42092000601E+03  0.46999998093E+01 0.  1.
       -5    1    3    3    0  502 -0.18745854567E+03  0.30453580894E+03  0.94405904941E+02  0.36988826712E+03  0.46999998093E+01 0. -1.
</event>
<event>
 5   0  0.1471290E-02  0.8005300E+03  0.7818609E-02  0.9559250E-01
       -1   -1    0    0    0  501  0.00000000000E+00  0.00000000000E+00  0.19233253651E+03  0.19233253657E+03  0.50400001928E-02 0. -1.
        1   -1    0    0  501    0  0.00000000000E+00  0.00000000000E+00 -0.83299512322E+03  0.83299512323E+03  0.50400001928E-02 0.  1.
    10030    2    1    2    0    0  0.00000000000E+00  0.00000000000E+00 -0.64066258671E+03  0.10253276598E+04  0.80052998692E+03 0.  0.
        2    1    3    3  502    0  0.11437193881E+03  0.24932484899E+03 -0.69367891645E+03  0.74594521236E+03  0.25500000920E-02 0.  1.
       -2    1    3    3    0  502 -0.11437193881E+03 -0.24932484899E+03  0.53016329738E+02  0.27938244744E+03  0.25500000920E-02 0. -1.
</event>
<event>
 5   0  0.2460312E-02  0.8051402E+03  0.7818609E-02  0.9552606E-01
        2   -1    0    0  501    0  0.00000000000E+00  0.00000000000E+00  0.58153552976E+03  0.58153552977E+03  0.25500000920E-02 0. -1.
       -2   -1    0    0    0  501  0.00000000000E+00  0.00000000000E+00 -0.27868065925E+03  0.27868065927E+03  0.25500000920E-02 0.  1.
    10030    2    1    2    0    0  0.00000000000E+00  0.00000000000E+00  0.30285487051E+03  0.86021618904E+03  0.80514024821E+03 0.  0.
        2    1    3    3  502    0 -0.13080392221E+03 -0.28784058662E+03  0.41767447993E+03  0.52384524486E+03  0.25500000920E-02 0. -1.
       -2    1    3    3    0  502  0.13080392221E+03  0.28784058662E+03 -0.11481960942E+03  0.33637094417E+03  0.25500000920E-02 0.  1.
</event>
<event>
 5   0  0.2464780E-02  0.8155344E+03  0.7818609E-02  0.9537800E-01
       -2   -1    0    0    0  501  0.00000000000E+00  0.00000000000E+00  0.67610150844E+03  0.67610150844E+03  0.25500000920E-02 0. -1.
        2   -1    0    0  501    0  0.00000000000E+00  0.00000000000E+00 -0.24593064127E+03  0.24593064129E+03  0.25500000920E-02 0.  1.
    10030    2    1    2    0    0  0.00000000000E+00  0.00000000000E+00  0.43017086716E+03  0.92203214973E+03  0.81553437093E+03 0.  0.
        3    1    3    3  502    0  0.54358610902E+02  0.32028610312E+02 -0.24037871085E+03  0.24852087496E+03  0.10100000352E+00 0.  1.
       -3    1    3    3    0  502 -0.54358610902E+02 -0.32028610312E+02  0.67054957802E+03  0.67351127477E+03  0.10100000352E+00 0. -1.
</event>
<event>
 5   0  0.1509629E-02  0.7986836E+03  0.7818609E-02  0.9561925E-01
        1   -1    0    0  501    0  0.00000000000E+00  0.00000000000E+00  0.67851227182E+03  0.67851227184E+03  0.50400001928E-02 0.  1.
       -1   -1    0    0    0  501  0.00000000000E+00  0.00000000000E+00 -0.23503460179E+03  0.23503460184E+03  0.50400001928E-02 0. -1.
    10030    2    1    2    0    0  0.00000000000E+00  0.00000000000E+00  0.44347767003E+03  0.91354687368E+03  0.79868357101E+03 0.  0.
        5    1    3    3  502    0  0.27241385120E+03 -0.29187363021E+03  0.21347091261E+03  0.45275980703E+03  0.46999998093E+01 0. -1.
       -5    1    3    3    0  502 -0.27241385120E+03  0.29187363021E+03  0.23000675742E+03  0.46078706665E+03  0.46999998093E+01 0.  1.
</event>
<event>
 5   0  0.1509629E-02  0.7946875E+03  0.7818609E-02  0.9567739E-01
        1   -1    0    0  501    0  0.00000000000E+00  0.00000000000E+00  0.12347470932E+04  0.12347470933E+04  0.50400001928E-02 0.  1.
       -1   -1    0    0    0  501  0.00000000000E+00  0.00000000000E+00 -0.12786590857E+03  0.12786590867E+03  0.50400001928E-02 0. -1.
    10030    2    1    2    0    0  0.00000000000E+00  0.00000000000E+00  0.11068811847E+04  0.13626130019E+04  0.79468750840E+03 0.  0.
        5    1    3    3  502    0  0.63471655594E+02  0.71866628573E+01 -0.11895615547E+03  0.13510350147E+03  0.46999998093E+01 0. -1.
       -5    1    3    3    0  502 -0.63471655594E+02 -0.71866628573E+01  0.12258373402E+04  0.12275095005E+04  0.46999998093E+01 0.  1.
</event>
<event>
 5   0  0.2571778E-02  0.7752708E+03  0.7818609E-02  0.9596518E-01
        2   -1    0    0  501    0  0.00000000000E+00  0.00000000000E+00  0.30168737192E+03  0.30168737193E+03  0.25500000920E-02 0. -1.
       -2   -1    0    0    0  501  0.00000000000E+00  0.00000000000E+00 -0.49806925930E+03  0.49806925931E+03  0.25500000920E-02 0.  1.
    10030    2    1    2    0    0  0.00000000000E+00  0.00000000000E+00 -0.19638188738E+03  0.79975663124E+03  0.77527080657E+03 0.  0.
        1    1    3    3  502    0  0.33818200497E+03  0.89221977894E+02 -0.27060302230E+03  0.44221445649E+03  0.50400001928E-02 0.  1.
       -1    1    3    3    0  502 -0.33818200497E+03 -0.89221977894E+02  0.74221134918E+02  0.35754217475E+03  0.50400001928E-02 0. -1.
</event>
<event>
 5   0  0.1498375E-02  0.7985332E+03  0.7818609E-02  0.9562143E-01
       -1   -1    0    0    0  501  0.00000000000E+00  0.00000000000E+00  0.28915099704E+03  0.28915099709E+03  0.50400001928E-02 0. -1.
        1   -1    0    0  501    0  0.00000000000E+00  0.00000000000E+00 -0.55131682201E+03  0.55131682203E+03  0.50400001928E-02 0.  1.
    10030    2    1    2    0    0  0.00000000000E+00  0.00000000000E+00 -0.26216582497E+03  0.84046781912E+03  0.79853317726E+03 0.  0.
        4    1    3    3  502    0  0.18812111958E+03  0.30881459635E+02 -0.50031753513E+03  0.53540869347E+03  0.12699999809E+01 0.  1.
       -4    1    3    3    0  502 -0.18812111958E+03 -0.30881459635E+02  0.23815171017E+03  0.30505912564E+03  0.12699999809E+01 0. -1.
</event>
<event>
 5   0  0.1471290E-02  0.8287629E+03  0.7818609E-02  0.9519293E-01
       -1   -1    0    0    0  501  0.00000000000E+00  0.00000000000E+00  0.43435423047E+03  0.43435423050E+03  0.50400001928E-02 0. -1.
        1   -1    0    0  501    0  0.00000000000E+00  0.00000000000E+00 -0.39532703154E+03  0.39532703157E+03  0.50400001928E-02 0.  1.
    10030    2    1    2    0    0  0.00000000000E+00  0.00000000000E+00  0.39027198930E+02  0.82968126206E+03  0.82876285774E+03 0.  0.
        2    1    3    3  502    0 -0.38374374019E+02  0.36550838515E+03  0.21114933259E+03  0.42385494318E+03  0.25500000920E-02 0. -1.
       -2    1    3    3    0  502  0.38374374019E+02 -0.36550838515E+03 -0.17212213366E+03  0.40582631889E+03  0.25500000920E-02 0.  1.
</event>
<event>
 5   0  0.2422031E-02  0.7787556E+03  0.7818609E-02  0.9591287E-01
        2   -1    0    0  501    0  0.00000000000E+00  0.00000000000E+00  0.24663293231E+03  0.24663293233E+03  0.25500000920E-02 0. -1.
       -2   -1    0    0    0  501  0.00000000000E+00  0.00000000000E+00 -0.61473980642E+03  0.61473980643E+03  0.25500000920E-02 0.  1.
    10030    2    1    2    0    0  0.00000000000E+00  0.00000000000E+00 -0.36810687411E+03  0.86137273876E+03  0.77875562554E+03 0.  0.
        4    1    3    3  502    0  0.60077344996E+02 -0.38434307297E+03 -0.16539417592E+03  0.42271235072E+03  0.12699999809E+01 0. -1.
       -4    1    3    3    0  502 -0.60077344996E+02  0.38434307297E+03 -0.20271269819E+03  0.43866038804E+03  0.12699999809E+01 0.  1.
</event>
<event>
 5   0  0.2460312E-02  0.8031750E+03  0.7818609E-02  0.9555433E-01
       -2   -1    0    0    0  501  0.00000000000E+00  0.00000000000E+00  0.10194124761E+03  0.10194124764E+03  0.25500000920E-02 0.  1.
        2   -1    0    0  501    0  0.00000000000E+00  0.00000000000E+00 -0.15820145473E+04  0.15820145473E+04  0.25500000920E-02 0. -1.
    10030    2    1    2    0    0  0.00000000000E+00  0.00000000000E+00 -0.14800732997E+04  0.16839557950E+04  0.80317504124E+03 0.  0.
        2    1    3    3  502    0 -0.94357383474E+02  0.34711697247E+03 -0.36569080212E+03  0.51295542804E+03  0.25500000920E-02 0.  1.
       -2    1    3    3    0  502  0.94357383474E+02 -0.34711697247E+03 -0.11143824976E+04  0.11710003669E+04  0.25500000920E-02 0. -1.
</event>
<event>
 5   0  0.2464780E-02  0.7807859E+03  0.7818609E-02  0.9588253E-01
        2   -1    0    0  501    0  0.00000000000E+00  0.00000000000E+00  0.18829367579E+04  0.18829367579E+04  0.25500000920E-02 0. -1.
       -2   -1    0    0    0  501  0.00000000000E+00  0.00000000000E+00 -0.80940924376E+02  0.80940924417E+02  0.25500000920E-02 0.  1.
    10030    2    1    2    0    0  0.00000000000E+00  0.00000000000E+00  0.18019958336E+04  0.19638776823E+04  0.78078586506E+03 0.  0.
        3    1    3    3  502    0 -0.15548250445E+02  0.24938214862E+03  0.16554638327E+04  0.16742143577E+04  0.10100000352E+00 0. -1.
       -3    1    3    3    0  502  0.15548250445E+02 -0.24938214862E+03  0.14653200086E+03  0.28966332460E+03  0.10100000352E+00 0.  1.
</event>
<event>
 5   0  0.9919125E-03  0.7990381E+03  0.7818609E-02  0.9561410E-01
       -4   -1    0    0    0  501  0.00000000000E+00  0.00000000000E+00  0.19423780319E+03  0.19424195501E+03  0.12699999809E+01 0.  1.
        4   -1    0    0  501    0  0.00000000000E+00  0.00000000000E+00 -0.82173952624E+03  0.82174050763E+03  0.12699999809E+01 0. -1.
    10030    2    1    2    0    0  0.00000000000E+00  0.00000000000E+00 -0.62750172305E+03  0.10159824626E+04  0.79903814174E+03 0.  0.
        2    1    3    3  502    0  0.33860543173E+03  0.78663902602E+02 -0.56412421588E+03  0.66262944314E+03  0.25500000920E-02 0. -1.
       -2    1    3    3    0  502 -0.33860543173E+03 -0.78663902602E+02 -0.63377507166E+02  0.35335301950E+03  0.25500000920E-02 0.  1.
</event>
<event>
 5   0  0.2422031E-02  0.7822910E+03  0.7818609E-02  0.9586010E-01
        2   -1    0    0  501    0  0.00000000000E+00  0.00000000000E+00  0.89418217952E+03  0.89418217952E+03  0.25500000920E-02 0.  1.
       -2   -1    0    0    0  501  0.00000000000E+00  0.00000000000E+00 -0.17110026840E+03  0.17110026841E+03  0.25500000920E-02 0. -1.
    10030    2    1    2    0    0  0.00000000000E+00  0.00000000000E+00  0.72308191112E+03  0.10652824479E+04  0.78229102238E+03 0.  0.
        4    1    3    3  502    0  0.15018242102E+03 -0.20056171996E+03  0.77054917411E+03  0.81026378773E+03  0.12699999809E+01 0.  1.
       -4    1    3    3    0  502 -0.15018242102E+03  0.20056171996E+03 -0.47467262986E+02  0.25501866020E+03  0.12699999809E+01 0. -1.
</event>
<event>
 5   0  0.2464780E-02  0.8086771E+03  0.7818609E-02  0.9547542E-01
        2   -1    0    0  501    0  0.00000000000E+00  0.00000000000E+00  0.19247563086E+03  0.19247563087E+03  0.25500000920E-02 0.  1.
       -2   -1    0    0    0  501  0.00000000000E+00  0.00000000000E+00 -0.84940458085E+03  0.84940458086E+03  0.25500000920E-02 0. -1.
    10030    2    1    2    0    0  0.00000000000E+00  0.00000000000E+00 -0.65692895000E+03  0.10418802117E+04  0.80867714834E+03 0.  0.
        3    1    3    3  502    0  0.10573689848E+03 -0.29126846632E+03  0.61961420110E+01  0.30992904599E+03  0.10100000352E+00 0.  1.
       -3    1    3    3    0  502 -0.10573689848E+03  0.29126846632E+03 -0.66312509201E+03  0.73195116574E+03  0.10100000352E+00 0. -1.
</event>
<event>
 5   0  0.1624094E-02  0.7944058E+03  0.7818609E-02  0.9568150E-01
       -1   -1    0    0    0  501  0.00000000000E+00  0.00000000000E+00  0.35485919529E+03  0.35485919533E+03  0.50400001928E-02 0. -1.
        1   -1    0    0  501    0  0.00000000000E+00  0.00000000000E+00 -0.44459928925E+03  0.44459928928E+03  0.50400001928E-02 0.  1.
    10030    2    1    2    0    0  0.00000000000E+00  0.00000000000E+00 -0.89740093964E+02  0.79945848461E+03  0.79440580571E+03 0.  0.
        3    1    3    3  502    0  0.22551040623E+03  0.26106446382E+03  0.15325911663E+03  0.37748902583E+03  0.10100000352E+00 0. -1.
       -3    1    3    3    0  502 -0.22551040623E+03 -0.26106446382E+03 -0.24299921060E+03  0.42196945878E+03  0.10100000352E+00 0.  1.
</event>
<event>
 5   0  0.2464780E-02  0.7743731E+03  0.7818609E-02  0.9597870E-01
       -2   -1    0    0    0  501  0.00000000000E+00  0.00000000000E+00  0.94998731361E+03  0.94998731361E+03  0.25500000920E-02 0.  1.
        2   -1    0    0  501    0  0.00000000000E+00  0.00000000000E+00 -0.15780570129E+03  0.15780570131E+03  0.25500000920E-02 0. -1.
    10030    2    1    2    0    0  0.00000000000E+00  0.00000000000E+00  0.79218161232E+03  0.11077930149E+04  0.77437307354E+03 0.  0.
        3    1    3    3  502    0 -0.17489324538E+03  0.26174171402E+03  0.73603201200E+02  0.32328596253E+03  0.10100000352E+00 0. -1.
       -3    1    3    3    0  502  0.17489324538E+03 -0.26174171402E+03  0.71857841112E+03  0.78450705240E+03  0.10100000352E+00 0.  1.
</event>
<event>
 5   0  0.1471290E-02  0.7924488E+03  0.7818609E-02  0.9571012E-01
       -1   -1    0    0    0  501  0.00000000000E+00  0.00000000000E+00  0.33034769384E+03  0.33034769388E+03  0.50400001928E-02 0.  1.
        1   -1    0    0  501    0  0.00000000000E+00  0.00000000000E+00 -0.47523794679E+03  0.47523794682E+03  0.50400001928E-02 0. -1.
    10030    2    1    2    0    0  0.00000000000E+00  0.00000000000E+00 -0.14489025295E+03  0.80558564070E+03  0.79244876118E+03 0.  0.
        2    1    3    3  502    0 -0.13600267361E+03 -0.19249170806E+03 -0.39622783709E+03  0.46102742195E+03  0.25500000920E-02 0. -1.
       -2    1    3    3    0  502  0.13600267361E+03  0.19249170806E+03  0.25133758413E+03  0.34455821875E+03  0.25500000920E-02 0.  1.
</event>
<event>
 5   0  0.1523811E-02  0.7956234E+03  0.7818609E-02  0.9566374E-01
        1   -1    0    0  501    0  0.00000000000E+00  0.00000000000E+00  0.28394938229E+03  0.28394938233E+03  0.50400001928E-02 0. -1.
       -1   -1    0    0    0  501  0.00000000000E+00  0.00000000000E+00 -0.55733224671E+03  0.55733224673E+03  0.50400001928E-02 0.  1.
    10030    2    1    2    0    0  0.00000000000E+00  0.00000000000E+00 -0.27338286442E+03  0.84128162907E+03  0.79562339637E+03 0.  0.
        1    1    3    3  502    0  0.30430999011E+03  0.91059670609E+02  0.11654709256E+03  0.33834842767E+03  0.50400001928E-02 0. -1.
       -1    1    3    3    0  502 -0.30430999011E+03 -0.91059670609E+02 -0.38992995699E+03  0.50293320140E+03  0.50400001928E-02 0.  1.
</event>
<event>
 5   0  0.2422031E-02  0.7978264E+03  0.7818609E-02  0.9563169E-01
       -2   -1    0    0    0  501  0.00000000000E+00  0.00000000000E+00  0.52714688430E+03  0.52714688431E+03  0.25500000920E-02 0. -1.
        2   -1    0    0  501    0  0.00000000000E+00  0.00000000000E+00 -0.30187360088E+03  0.30187360089E+03  0.25500000920E-02 0.  1.
    10030    2    1    2    0    0  0.00000000000E+00  0.00000000000E+00  0.22527328342E+03  0.82902048520E+03  0.79782636749E+03 0.  0.
        4    1    3    3  502    0  0.20673307044E+03  0.11854765959E+03  0.44504761402E+03  0.50483769833E+03  0.12699999809E+01 0. -1.
       -4    1    3    3    0  502 -0.20673307044E+03 -0.11854765959E+03 -0.21977433060E+03  0.32418278687E+03  0.12699999809E+01 0.  1.
</event>
<event>
 5   0  0.2422031E-02  0.8090696E+03  0.7818609E-02  0.9546981E-01
       -2   -1    0    0    0  501  0.00000000000E+00  0.00000000000E+00  0.14819405450E+03  0.14819405452E+03  0.25500000920E-02 0. -1.
        2   -1    0    0  501    0  0.00000000000E+00  0.00000000000E+00 -0.11042845365E+04  0.11042845365E+04  0.25500000920E-02 0.  1.
    10030    2    1    2    0    0  0.00000000000E+00  0.00000000000E+00 -0.95609048204E+03  0.12524785911E+04  0.80906959604E+03 0.  0.
        4    1    3    3  502    0  0.66221201657E+02 -0.31814544107E+03 -0.10508124006E+03  0.34153396483E+03  0.12699999809E+01 0. -1.
       -4    1    3    3    0  502 -0.66221201657E+02  0.31814544107E+03 -0.85100924198E+03  0.91094462623E+03  0.12699999809E+01 0.  1.
</event>
<event>
 5   0  0.2422031E-02  0.8126930E+03  0.7818609E-02  0.9541824E-01
        2   -1    0    0  501    0  0.00000000000E+00  0.00000000000E+00  0.11521482628E+04  0.11521482628E+04  0.25500000920E-02 0. -1.
       -2   -1    0    0    0  501  0.00000000000E+00  0.00000000000E+00 -0.14331271239E+03  0.14331271241E+03  0.25500000920E-02 0.  1.
    10030    2    1    2    0    0  0.00000000000E+00  0.00000000000E+00  0.10088355504E+04  0.12954609752E+04  0.81269303586E+03 0.  0.
        4    1    3    3  502    0 -0.15456479706E+03  0.14050050819E+03  0.10600142758E+04  0.10803992536E+04  0.12699999809E+01 0. -1.
       -4    1    3    3    0  502  0.15456479706E+03 -0.14050050819E+03 -0.51178725382E+02  0.21506172166E+03  0.12699999809E+01 0.  1.
</event>
<event>
 5   0  0.9919125E-03  0.7887162E+03  0.7818609E-02  0.9576495E-01
       -3   -1    0    0    0  501  0.00000000000E+00  0.00000000000E+00  0.55450326298E+03  0.55450327218E+03  0.10100000352E+00 0. -1.
        3   -1    0    0  501    0  0.00000000000E+00  0.00000000000E+00 -0.28046420231E+03  0.28046422050E+03  0.10100000352E+00 0.  1.
    10030    2    1    2    0    0  0.00000000000E+00  0.00000000000E+00  0.27403906067E+03  0.83496749267E+03  0.78871623988E+03 0.  0.
        2    1    3    3  502    0  0.32788761174E+03  0.11879172734E+03  0.33192617184E+03  0.48145274324E+03  0.25500000920E-02 0. -1.
       -2    1    3    3    0  502 -0.32788761174E+03 -0.11879172734E+03 -0.57887111172E+02  0.35351474943E+03  0.25500000920E-02 0.  1.
</event>
<event>
 5   0  0.1523811E-02  0.7970890E+03  0.7818609E-02  0.9564240E-01
        1   -1    0    0  501    0  0.00000000000E+00  0.00000000000E+00  0.70535869456E+03  0.70535869458E+03  0.50400001928E-02 0. -1.
       -1   -1    0    0    0  501  0.00000000000E+00  0.00000000000E+00 -0.22518716486E+03  0.22518716491E+03  0.50400001928E-02 0.  1.
    10030    2    1    2    0    0  0.00000000000E+00  0.00000000000E+00  0.48017152971E+03  0.93054585949E+03  0.79708901553E+03 0.  0.
        1    1    3    3  502    0 -0.31540893689E+02  0.13818977464E+03 -0.19476671209E+03  0.24088444108E+03  0.50400001928E-02 0.  1.
       -1    1    3    3    0  502  0.31540893689E+02 -0.13818977464E+03  0.67493824180E+03  0.68966141842E+03  0.50400001928E-02 0. -1.
</event>
<event>
 5   0  0.9919125E-03  0.7866869E+03  0.7818609E-02  0.9579490E-01
        3   -1    0    0  501    0  0.00000000000E+00  0.00000000000E+00  0.26827786275E+03  0.26827788176E+03  0.10100000352E+00 0.  1.
       -3   -1    0    0    0  501  0.00000000000E+00  0.00000000000E+00 -0.57671201581E+03  0.57671202465E+03  0.10100000352E+00 0. -1.
    10030    2    1    2    0    0  0.00000000000E+00  0.00000000000E+00 -0.30843415306E+03  0.84498990641E+03  0.78668692322E+03 0.  0.
        4    1    3    3  502    0 -0.38765520618E+02 -0.26264990234E+03  0.15751557392E+03  0.30870779990E+03  0.12699999809E+01 0.  1.
       -4    1    3    3    0  502  0.38765520618E+02  0.26264990234E+03 -0.46594972699E+03  0.53628210651E+03  0.12699999809E+01 0. -1.
</event>
<event>
 5   0  0.2464780E-02  0.8212274E+03  0.7818609E-02  0.9529790E-01
        2   -1    0    0  501    0  0.00000000000E+00  0.00000000000E+00  0.10270625421E+04  0.10270625421E+04  0.25500000920E-02 0. -1.
       -2   -1    0    0    0  501  0.00000000000E+00  0.00000000000E+00 -0.16416100790E+03  0.16416100792E+03  0.25500000920E-02 0.  1.
    10030    2    1    2    0    0  0.00000000000E+00  0.00000000000E+00  0.86290153422E+03  0.11912235501E+04  0.82122742796E+03 0.  0.
        3    1    3    3  502    0 -0.27844883780E+03 -0.13354748136E+03  0.38906218161E+02  0.31125935979E+03  0.10100000352E+00 0.  1.
       -3    1    3    3    0  502  0.27844883780E+03  0.13354748136E+03  0.82399531606E+03  0.87996419026E+03  0.10100000352E+00 0. -1.
</event>
<event>
 5   0  0.9919125E-03  0.7992219E+03  0.7818609E-02  0.9561144E-01
       -3   -1    0    0    0  501  0.00000000000E+00  0.00000000000E+00  0.26167291430E+03  0.26167293379E+03  0.10100000352E+00 0.  1.
        3   -1    0    0  501    0  0.00000000000E+00  0.00000000000E+00 -0.61026140864E+03  0.61026141700E+03  0.10100000352E+00 0. -1.
    10030    2    1    2    0    0  0.00000000000E+00  0.00000000000E+00 -0.34858849433E+03  0.87193435079E+03  0.79922185512E+03 0.  0.
        3    1    3    3  502    0 -0.36644448985E+03  0.12958321972E+02 -0.34761715149E+03  0.50525951397E+03  0.10100000352E+00 0. -1.
       -3    1    3    3    0  502  0.36644448985E+03 -0.12958321972E+02 -0.97134284505E+00  0.36667483682E+03  0.10100000352E+00 0.  1.
</event>
<event>
 5   0  0.2571778E-02  0.7327910E+03  0.7818609E-02  0.9662742E-01
        2   -1    0    0  501    0  0.00000000000E+00  0.00000000000E+00  0.17838350439E+03  0.17838350440E+03  0.25500000920E-02 0.  1.
       -2   -1    0    0    0  501  0.00000000000E+00  0.00000000000E+00 -0.75256771394E+03  0.75256771394E+03  0.25500000920E-02 0. -1.
    10030    2    1    2    0    0  0.00000000000E+00  0.00000000000E+00 -0.57418420955E+03  0.93095121835E+03  0.73279101007E+03 0.  0.
        1    1    3    3  502    0  0.26291428425E+03  0.25501683205E+03 -0.29902055583E+03  0.47283273821E+03  0.50400001928E-02 0. -1.
       -1    1    3    3    0  502 -0.26291428425E+03 -0.25501683205E+03 -0.27516365373E+03  0.45811848014E+03  0.50400001928E-02 0.  1.
</event>
<event>
 5   0  0.9919125E-03  0.7931148E+03  0.7818609E-02  0.9570037E-01
        4   -1    0    0  501    0  0.00000000000E+00  0.00000000000E+00  0.19364252530E+03  0.19364668989E+03  0.12699999809E+01 0. -1.
       -4   -1    0    0    0  501  0.00000000000E+00  0.00000000000E+00 -0.81209002204E+03  0.81209101509E+03  0.12699999809E+01 0.  1.
    10030    2    1    2    0    0  0.00000000000E+00  0.00000000000E+00 -0.61844749673E+03  0.10057377050E+04  0.79311476156E+03 0.  0.
        2    1    3    3  502    0 -0.77496242098E+02 -0.24151597520E+03  0.77328549645E+02  0.26517039505E+03  0.25500000920E-02 0. -1.
       -2    1    3    3    0  502  0.77496242098E+02  0.24151597520E+03 -0.69577604638E+03  0.74056730993E+03  0.25500000920E-02 0.  1.
</event>
<event>
 5   0  0.1523811E-02  0.6447588E+03  0.7818609E-02  0.9816664E-01
        1   -1    0    0  501    0  0.00000000000E+00  0.00000000000E+00  0.10321797222E+04  0.10321797222E+04  0.50400001928E-02 0. -1.
       -1   -1    0    0    0  501  0.00000000000E+00  0.00000000000E+00 -0.10068836402E+03  0.10068836415E+03  0.50400001928E-02 0.  1.
    10030    2    1    2    0    0  0.00000000000E+00  0.00000000000E+00  0.93149135821E+03  0.11328680864E+04  0.64475883147E+03 0.  0.
        1    1    3    3  502    0 -0.31226415475E+03 -0.53292182482E+02  0.57086800515E+03  0.65287000114E+03  0.50400001928E-02 0. -1.
       -1    1    3    3    0  502  0.31226415475E+03  0.53292182482E+02  0.36062335306E+03  0.47999808526E+03  0.50400001928E-02 0.  1.
</event>
<event>
 5   0  0.9919125E-03  0.8000811E+03  0.7818609E-02  0.9559900E-01
        4   -1    0    0  501    0  0.00000000000E+00  0.00000000000E+00  0.20486860653E+03  0.20487254292E+03  0.12699999809E+01 0.  1.
       -4   -1    0    0    0  501  0.00000000000E+00  0.00000000000E+00 -0.78113481773E+03  0.78113585014E+03  0.12699999809E+01 0. -1.
    10030    2    1    2    0    0  0.00000000000E+00  0.00000000000E+00 -0.57626621120E+03  0.98600839306E+03  0.80008112402E+03 0.  0.
        5    1    3    3  502    0 -0.26279934989E+03 -0.52036429768E+02  0.77947781891E+02  0.27905059582E+03  0.46999998093E+01 0.  1.
       -5    1    3    3    0  502  0.26279934989E+03  0.52036429768E+02 -0.65421399309E+03  0.70695779724E+03  0.46999998093E+01 0. -1.
</event>
<event>
 5   0  0.2464780E-02  0.7937282E+03  0.7818609E-02  0.9569140E-01
        2   -1    0    0  501    0  0.00000000000E+00  0.00000000000E+00  0.12118273260E+04  0.12118273260E+04  0.25500000920E-02 0. -1.
       -2   -1    0    0    0  501  0.00000000000E+00  0.00000000000E+00 -0.12996993489E+03  0.12996993492E+03  0.25500000920E-02 0.  1.
    10030    2    1    2    0    0  0.00000000000E+00  0.00000000000E+00  0.10818573911E+04  0.13417972609E+04  0.79372821213E+03 0.  0.
        3    1    3    3  502    0 -0.28982872015E+03  0.12199330154E+03  0.13163902050E+03  0.34089865732E+03  0.10100000352E+00 0.  1.
       -3    1    3    3    0  502  0.28982872015E+03 -0.12199330154E+03  0.95021837062E+03  0.10008986036E+04  0.10100000352E+00 0. -1.
</event>
<event>
 5   0  0.1471290E-02  0.7975024E+03  0.7818609E-02  0.9563639E-01
        1   -1    0    0  501    0  0.00000000000E+00  0.00000000000E+00  0.15617711860E+03  0.15617711868E+03  0.50400001928E-02 0. -1.
       -1   -1    0    0    0  501  0.00000000000E+00  0.00000000000E+00 -0.10180910257E+04  0.10180910257E+04  0.50400001928E-02 0.  1.
    10030    2    1    2    0    0  0.00000000000E+00  0.00000000000E+00 -0.86191390710E+03  0.11742681444E+04  0.79750240859E+03 0.  0.
        2    1    3    3  502    0 -0.23363304077E+03 -0.24865586689E+03 -0.73482208110E+03  0.81017135765E+03  0.25500000920E-02 0.  1.
       -2    1    3    3    0  502  0.23363304077E+03  0.24865586689E+03 -0.12709182600E+03  0.36409678675E+03  0.25500000920E-02 0. -1.
</event>
<event>
 5   0  0.2460312E-02  0.8001352E+03  0.7818609E-02  0.9559821E-01
       -2   -1    0    0    0  501  0.00000000000E+00  0.00000000000E+00  0.51915298318E+03  0.51915298319E+03  0.25500000920E-02 0.  1.
        2   -1    0    0  501    0  0.00000000000E+00  0.00000000000E+00 -0.30829846488E+03  0.30829846489E+03  0.25500000920E-02 0. -1.
    10030    2    1    2    0    0  0.00000000000E+00  0.00000000000E+00  0.21085451831E+03  0.82745144808E+03  0.80013515798E+03 0.  0.
        2    1    3    3  502    0  0.23556461687E+03 -0.16202956477E+03  0.39481972589E+03  0.48746988065E+03  0.25500000920E-02 0.  1.
       -2    1    3    3    0  502 -0.23556461687E+03  0.16202956477E+03 -0.18396520759E+03  0.33998156743E+03  0.25500000920E-02 0. -1.
</event>
<event>
 5   0  0.1624094E-02  0.7843556E+03  0.7818609E-02  0.9582942E-01
       -1   -1    0    0    0  501  0.00000000000E+00  0.00000000000E+00  0.68531199279E+03  0.68531199281E+03  0.50400001928E-02 0. -1.
        1   -1    0    0  501    0  0.00000000000E+00  0.00000000000E+00 -0.22442835678E+03  0.22442835684E+03  0.50400001928E-02 0.  1.
    10030    2    1    2    0    0  0.00000000000E+00  0.00000000000E+00  0.46088363601E+03  0.90974034965E+03  0.78435564500E+03 0.  0.
        3    1    3    3  502    0  0.19821210238E+03  0.10690321868E+03  0.60283917417E+03  0.64353043115E+03  0.10100000352E+00 0. -1.
       -3    1    3    3    0  502 -0.19821210238E+03 -0.10690321868E+03 -0.14195553816E+03  0.26620991850E+03  0.10100000352E+00 0.  1.
</event>
<event>
 5   0  0.1523811E-02  0.7990093E+03  0.7818609E-02  0.9561452E-01
        1   -1    0    0  501    0  0.00000000000E+00  0.00000000000E+00  0.13503811496E+04  0.13503811496E+04  0.50400001928E-02 0.  1.
       -1   -1    0    0    0  501  0.00000000000E+00  0.00000000000E+00 -0.11819177940E+03  0.11819177951E+03  0.50400001928E-02 0. -1.
    10030    2    1    2    0    0  0.00000000000E+00  0.00000000000E+00  0.12321893702E+04  0.14685729292E+04  0.79900926411E+03 0.  0.
        1    1    3    3  502    0 -0.13452857463E+02  0.19107037814E+03  0.12604809749E+04  0.12749514332E+04  0.50400001928E-02 0.  1.
       -1    1    3    3    0  502  0.13452857463E+02 -0.19107037814E+03 -0.28291604718E+02  0.19362149596E+03  0.50400001928E-02 0. -1.
</event>
<event>
 5   0  0.2422031E-02  0.8039877E+03  0.7818609E-02  0.9554263E-01
       -2   -1    0    0    0  501  0.00000000000E+00  0.00000000000E+00  0.67346534139E+03  0.67346534139E+03  0.25500000920E-02 0.  1.
        2   -1    0    0  501    0  0.00000000000E+00  0.00000000000E+00 -0.23995154713E+03  0.23995154714E+03  0.25500000920E-02 0. -1.
    10030    2    1    2    0    0  0.00000000000E+00  0.00000000000E+00  0.43351379426E+03  0.91341688853E+03  0.80398768799E+03 0.  0.
        4    1    3    3  502    0 -0.35757959323E+03  0.71636864608E+02  0.24615422815E+02  0.36551680920E+03  0.12699999809E+01 0. -1.
       -4    1    3    3    0  502  0.35757959323E+03 -0.71636864608E+02  0.40889837144E+03  0.54790007933E+03  0.12699999809E+01 0.  1.
</event>
<event>
 5   0  0.2454354E-02  0.7804969E+03  0.7818609E-02  0.9588684E-01
       -2   -1    0    0    0  501  0.00000000000E+00  0.00000000000E+00  0.21397561436E+03  0.21397561438E+03  0.25500000920E-02 0. -1.
        2   -1    0    0  501    0  0.00000000000E+00  0.00000000000E+00 -0.71173462733E+03  0.71173462734E+03  0.25500000920E-02 0.  1.
    10030    2    1    2    0    0  0.00000000000E+00  0.00000000000E+00 -0.49775901297E+03  0.92571024172E+03  0.78049690366E+03 0.  0.
        5    1    3    3  502    0 -0.17143449587E+03 -0.34705816225E+03 -0.30737738419E+03  0.49430972140E+03  0.46999998093E+01 0.  1.
       -5    1    3    3    0  502  0.17143449587E+03  0.34705816225E+03 -0.19038162878E+03  0.43140052032E+03  0.46999998093E+01 0. -1.
</event>
<event>
 5   0  0.9919125E-03  0.8895471E+03  0.7818609E-02  0.9438743E-01
       -4   -1    0    0    0  501  0.00000000000E+00  0.00000000000E+00  0.18189040434E+03  0.18189483800E+03  0.12699999809E+01 0. -1.
        4   -1    0    0  501    0  0.00000000000E+00  0.00000000000E+00 -0.10875791130E+04  0.10875798545E+04  0.12699999809E+01 0.  1.
    10030    2    1    2    0    0  0.00000000000E+00  0.00000000000E+00 -0.90568870870E+03  0.12694746925E+04  0.88954705212E+03 0.  0.
        5    1    3    3  502    0 -0.10800591147E+03  0.26902382490E+03  0.28498260194E+02  0.29133028698E+03  0.46999998093E+01 0. -1.
       -5    1    3    3    0  502  0.10800591147E+03 -0.26902382490E+03 -0.93418696890E+03  0.97814440556E+03  0.46999998093E+01 0.  1.
</event>
<event>
 5   0  0.1471290E-02  0.8050915E+03  0.7818609E-02  0.9552677E-01
        1   -1    0    0  501    0  0.00000000000E+00  0.00000000000E+00  0.12449221059E+04  0.12449221059E+04  0.50400001928E-02 0. -1.
       -1   -1    0    0    0  501  0.00000000000E+00  0.00000000000E+00 -0.13016321945E+03  0.13016321955E+03  0.50400001928E-02 0.  1.
    10030    2    1    2    0    0  0.00000000000E+00  0.00000000000E+00  0.11147588864E+04  0.13750853254E+04  0.80509147142E+03 0.  0.
        2    1    3    3  502    0 -0.36438523032E+03 -0.10939651125E+03  0.33273619430E+03  0.50542810344E+03  0.25500000920E-02 0.  1.
       -2    1    3    3    0  502  0.36438523032E+03  0.10939651125E+03  0.78202269214E+03  0.86965722200E+03  0.25500000920E-02 0. -1.
</event>
<event>
 5   0  0.1523811E-02  0.7987551E+03  0.7818609E-02  0.9561821E-01
        1   -1    0    0  501    0  0.00000000000E+00  0.00000000000E+00  0.12037209683E+04  0.12037209683E+04  0.50400001928E-02 0. -1.
       -1   -1    0    0    0  501  0.00000000000E+00  0.00000000000E+00 -0.13250782026E+03  0.13250782036E+03  0.50400001928E-02 0.  1.
    10030    2    1    2    0    0  0.00000000000E+00  0.00000000000E+00  0.10712131481E+04  0.13362287887E+04  0.79875513592E+03 0.  0.
        1    1    3    3  502    0 -0.48789735978E+02  0.68083407899E+02 -0.11764892856E+03  0.14441973267E+03  0.50400001928E-02 0.  1.
       -1    1    3    3    0  502  0.48789735978E+02 -0.68083407899E+02  0.11888620766E+04  0.11918090560E+04  0.50400001928E-02 0. -1.
</event>
<event>
 5   0  0.1509629E-02  0.7858725E+03  0.7818609E-02  0.9580694E-01
       -1   -1    0    0    0  501  0.00000000000E+00  0.00000000000E+00  0.68759045574E+02  0.68759045759E+02  0.50400001928E-02 0. -1.
        1   -1    0    0  501    0  0.00000000000E+00  0.00000000000E+00 -0.22455065468E+04  0.22455065468E+04  0.50400001928E-02 0.  1.
    10030    2    1    2    0    0  0.00000000000E+00  0.00000000000E+00 -0.21767475012E+04  0.23142655925E+04  0.78587247619E+03 0.  0.
        5    1    3    3  502    0 -0.14217908775E+03  0.25916653123E+03 -0.18505950180E+04  0.18740614170E+04  0.46999998093E+01 0.  1.
       -5    1    3    3    0  502  0.14217908775E+03 -0.25916653123E+03 -0.32615248322E+03  0.44020417560E+03  0.46999998093E+01 0. -1.
</event>
<event>
 5   0  0.1624094E-02  0.7993366E+03  0.7818609E-02  0.9560978E-01
       -1   -1    0    0    0  501  0.00000000000E+00  0.00000000000E+00  0.15965511248E+03  0.15965511256E+03  0.50400001928E-02 0.  1.
        1   -1    0    0  501    0  0.00000000000E+00  0.00000000000E+00 -0.10004987126E+04  0.10004987126E+04  0.50400001928E-02 0. -1.
    10030    2    1    2    0    0  0.00000000000E+00  0.00000000000E+00 -0.84084360007E+03  0.11601538251E+04  0.79933656127E+03 0.  0.
        3    1    3    3  502    0  0.99761755529E+01  0.10546456793E+03  0.13890714372E+03  0.17469259843E+03  0.10100000352E+00 0.  1.
       -3    1    3    3    0  502 -0.99761755529E+01 -0.10546456793E+03 -0.97975074379E+03  0.98546122670E+03  0.10100000352E+00 0. -1.
</event>
<event>
 5   0  0.2571778E-02  0.8026609E+03  0.7818609E-02  0.9556174E-01
       -2   -1    0    0    0  501  0.00000000000E+00  0.00000000000E+00  0.22369145154E+03  0.22369145155E+03  0.25500000920E-02 0. -1.
        2   -1    0    0  501    0  0.00000000000E+00  0.00000000000E+00 -0.72003707952E+03  0.72003707953E+03  0.25500000920E-02 0.  1.
    10030    2    1    2    0    0  0.00000000000E+00  0.00000000000E+00 -0.49634562799E+03  0.94372853108E+03  0.80266092340E+03 0.  0.
        1    1    3    3  502    0  0.14625656240E+03 -0.24297421917E+03 -0.58204995533E+03  0.64746397873E+03  0.50400001928E-02 0.  1.
       -1    1    3    3    0  502 -0.14625656240E+03  0.24297421917E+03  0.85704327350E+02  0.29626455234E+03  0.50400001928E-02 0. -1.
</event>
<event>
 5   0  0.1624094E-02  0.8037207E+03  0.7818609E-02  0.9554647E-01
       -1   -1    0    0    0  501  0.00000000000E+00  0.00000000000E+00  0.25543768676E+03  0.25543768681E+03  0.50400001928E-02 0. -1.
        1   -1    0    0  501    0  0.00000000000E+00  0.00000000000E+00 -0.63221585463E+03  0.63221585465E+03  0.50400001928E-02 0.  1.
    10030    2    1    2    0    0  0.00000000000E+00  0.00000000000E+00 -0.37677816787E+03  0.88765354147E+03  0.80372073626E+03 0.  0.
        3    1    3    3  502    0 -0.10772526964E+03  0.38216622371E+03 -0.11998579340E+03  0.41479194433E+03  0.10100000352E+00 0. -1.
       -3    1    3    3    0  502  0.10772526964E+03 -0.38216622371E+03 -0.25679237447E+03  0.47286159714E+03  0.10100000352E+00 0.  1.
</event>
<event>
 5   0  0.1523811E-02  0.8076747E+03  0.7818609E-02  0.9548974E-01
        1   -1    0    0  501    0  0.00000000000E+00  0.00000000000E+00  0.53099140821E+03  0.53099140823E+03  0.50400001928E-02 0.  1.
       -1   -1    0    0    0  501  0.00000000000E+00  0.00000000000E+00 -0.30713232105E+03  0.30713232109E+03  0.50400001928E-02 0. -1.
    10030    2    1    2    0    0  0.00000000000E+00  0.00000000000E+00  0.22385908716E+03  0.83812372932E+03  0.80767474564E+03 0.  0.
        1    1    3    3  502    0 -0.80692003501E+02 -0.38955194134E+03  0.18399334575E+03  0.43830978285E+03  0.50400001928E-02 0.  1.
       -1    1    3    3    0  502  0.80692003501E+02  0.38955194134E+03  0.39865741412E+02  0.39981394648E+03  0.50400001928E-02 0. -1.
</event>
<event>
 5   0  0.1523811E-02  0.7974227E+03  0.7818609E-02  0.9563755E-01
        1   -1    0    0  501    0  0.00000000000E+00  0.00000000000E+00  0.11723617350E+04  0.11723617350E+04  0.50400001928E-02 0. -1.
       -1   -1    0    0    0  501  0.00000000000E+00  0.00000000000E+00 -0.13559871668E+03  0.13559871678E+03  0.50400001928E-02 0.  1.
    10030    2    1    2    0    0  0.00000000000E+00  0.00000000000E+00  0.10367630183E+04  0.13079604518E+04  0.79742271555E+03 0.  0.
        1    1    3    3  502    0 -0.16394521121E+03  0.28085762403E+03  0.89674534142E+03  0.95389267984E+03  0.50400001928E-02 0. -1.
       -1    1    3    3    0  502  0.16394521121E+03 -0.28085762403E+03  0.14001767686E+03  0.35406777192E+03  0.50400001928E-02 0.  1.
</event>
<event>
 5   0  0.1471290E-02  0.7783970E+03  0.7818609E-02  0.9591824E-01
       -1   -1    0    0    0  501  0.00000000000E+00  0.00000000000E+00  0.14831889329E+03  0.14831889338E+03  0.50400001928E-02 0. -1.
        1   -1    0    0  501    0  0.00000000000E+00  0.00000000000E+00 -0.10212824512E+04  0.10212824512E+04  0.50400001928E-02 0.  1.
    10030    2    1    2    0    0  0.00000000000E+00  0.00000000000E+00 -0.87296355790E+03  0.11696013446E+04  0.77839702712E+03 0.  0.
        2    1    3    3  502    0  0.13460654793E+03 -0.35459992581E+03 -0.56760649363E+03  0.68266914516E+03  0.25500000920E-02 0.  1.
       -2    1    3    3    0  502 -0.13460654793E+03  0.35459992581E+03 -0.30535706427E+03  0.48693219943E+03  0.25500000920E-02 0. -1.
</event>
<event>
 5   0  0.1624094E-02  0.8442201E+03  0.7818609E-02  0.9498128E-01
        1   -1    0    0  501    0  0.00000000000E+00  0.00000000000E+00  0.31145849975E+03  0.31145849980E+03  0.50400001928E-02 0. -1.
       -1   -1    0    0    0  501  0.00000000000E+00  0.00000000000E+00 -0.57207269089E+03  0.57207269091E+03  0.50400001928E-02 0.  1.
    10030    2    1    2    0    0  0.00000000000E+00  0.00000000000E+00 -0.26061419113E+03  0.88353119071E+03  0.84422011841E+03 0.  0.
        3    1    3    3  502    0  0.34966393785E+02  0.39773790739E+03 -0.27364753027E+03  0.48404656046E+03  0.10100000352E+00 0.  1.
       -3    1    3    3    0  502 -0.34966393785E+02 -0.39773790739E+03  0.13033339136E+02  0.39948463024E+03  0.10100000352E+00 0. -1.
</event>
<event>
 5   0  0.2571778E-02  0.8021549E+03  0.7818609E-02  0.9556903E-01
       -2   -1    0    0    0  501  0.00000000000E+00  0.00000000000E+00  0.17887781066E+03  0.17887781068E+03  0.25500000920E-02 0.  1.
        2   -1    0    0  501    0  0.00000000000E+00  0.00000000000E+00 -0.89929043034E+03  0.89929043034E+03  0.25500000920E-02 0. -1.
    10030    2    1    2    0    0  0.00000000000E+00  0.00000000000E+00 -0.72041261968E+03  0.10781682410E+04  0.80215485622E+03 0.  0.
        1    1    3    3  502    0 -0.24915116879E+03 -0.60358965956E+02 -0.77479561367E+03  0.81610523382E+03  0.50400001928E-02 0. -1.
       -1    1    3    3    0  502  0.24915116879E+03  0.60358965956E+02  0.54382993995E+02  0.26206300720E+03  0.50400001928E-02 0.  1.
</event>
<event>
 5   0  0.2464780E-02  0.7882870E+03  0.7818609E-02  0.9577128E-01
        2   -1    0    0  501    0  0.00000000000E+00  0.00000000000E+00  0.16366848629E+04  0.16366848629E+04  0.25500000920E-02 0.  1.
       -2   -1    0    0    0  501  0.00000000000E+00  0.00000000000E+00 -0.94916938484E+02  0.94916938518E+02  0.25500000920E-02 0. -1.
    10030    2    1    2    0    0  0.00000000000E+00  0.00000000000E+00  0.15417679244E+04  0.17316018014E+04  0.78828704539E+03 0.  0.
        3    1    3    3  502    0  0.12451949996E+03 -0.27488208273E+03  0.21393609063E+03  0.36991070051E+03  0.10100000352E+00 0. -1.
       -3    1    3    3    0  502 -0.12451949996E+03  0.27488208273E+03  0.13278318338E+04  0.13616911009E+04  0.10100000352E+00 0.  1.
</event>
<event>
 5   0  0.1624094E-02  0.7959041E+03  0.7818609E-02  0.9565965E-01
       -1   -1    0    0    0  501  0.00000000000E+00  0.00000000000E+00  0.36920335976E+03  0.36920335979E+03  0.50400001928E-02 0. -1.
        1   -1    0    0  501    0  0.00000000000E+00  0.00000000000E+00 -0.42893933041E+03  0.42893933044E+03  0.50400001928E-02 0.  1.
    10030    2    1    2    0    0  0.00000000000E+00  0.00000000000E+00 -0.59735970654E+02  0.79814269024E+03  0.79590411972E+03 0.  0.
        3    1    3    3  502    0  0.19274310474E+02 -0.12577976688E+03  0.34825192608E+03  0.37077144310E+03  0.10100000352E+00 0. -1.
       -3    1    3    3    0  502 -0.19274310474E+02  0.12577976688E+03 -0.40798789673E+03  0.42737124714E+03  0.10100000352E+00 0.  1.
</event>
<event>
 5   0  0.2454354E-02  0.7851757E+03  0.7818609E-02  0.9581726E-01
       -2   -1    0    0    0  501  0.00000000000E+00  0.00000000000E+00  0.85942446014E+03  0.85942446014E+03  0.25500000920E-02 0. -1.
        2   -1    0    0  501    0  0.00000000000E+00  0.00000000000E+00 -0.17933539861E+03  0.17933539863E+03  0.25500000920E-02 0.  1.
    10030    2    1    2    0    0  0.00000000000E+00  0.00000000000E+00  0.68008906152E+03  0.10387598588E+04  0.78517572084E+03 0.  0.
        5    1    3    3  502    0  0.94942811649E+02  0.23454304441E+03 -0.57018100807E+02  0.25941806218E+03  0.46999998093E+01 0.  1.
       -5    1    3    3    0  502 -0.94942811649E+02 -0.23454304441E+03  0.73710716233E+03  0.77934179660E+03  0.46999998093E+01 0. -1.
</event>
<event>
 5   0  0.1471290E-02  0.8026778E+03  0.7818609E-02  0.9556149E-01
       -1   -1    0    0    0  501  0.00000000000E+00  0.00000000000E+00  0.48412918875E+03  0.48412918877E+03  0.50400001928E-02 0. -1.
        1   -1    0    0  501    0  0.00000000000E+00  0.00000000000E+00 -0.33270642779E+03  0.33270642783E+03  0.50400001928E-02 0.  1.
    10030    2    1    2    0    0  0.00000000000E+00  0.00000000000E+00  0.15142276095E+03  0.81683561660E+03  0.80267775104E+03 0.  0.
        2    1    3    3  502    0 -0.13385427735E+03 -0.39199371069E+02 -0.30724976711E+03  0.33742551423E+03  0.25500000920E-02 0.  1.
       -2    1    3    3    0  502  0.13385427735E+03  0.39199371069E+02  0.45867252806E+03  0.47941010238E+03  0.25500000920E-02 0. -1.
</event>
<event>
 5   0  0.1471290E-02  0.7987510E+03  0.7818609E-02  0.9561827E-01
       -1   -1    0    0    0  501  0.00000000000E+00  0.00000000000E+00  0.76965947827E+03  0.76965947828E+03  0.50400001928E-02 0. -1.
        1   -1    0    0  501    0  0.00000000000E+00  0.00000000000E+00 -0.20723553252E+03  0.20723553258E+03  0.50400001928E-02 0.  1.
    10030    2    1    2    0    0  0.00000000000E+00  0.00000000000E+00  0.56242394575E+03  0.97689501086E+03  0.79875100469E+03 0.  0.
        2    1    3    3  502    0 -0.38401553554E+03 -0.66235470487E+02  0.17427060178E+03  0.42687856790E+03  0.25500000920E-02 0.  1.
       -2    1    3    3    0  502  0.38401553554E+03  0.66235470487E+02  0.38815334397E+03  0.55001644296E+03  0.25500000920E-02 0. -1.
</event>
<event>
 5   0  0.1523811E-02  0.7160244E+03  0.7818609E-02  0.9690214E-01
        1   -1    0    0  501    0  0.00000000000E+00  0.00000000000E+00  0.97551143713E+03  0.97551143715E+03  0.50400001928E-02 0. -1.
       -1   -1    0    0    0  501  0.00000000000E+00  0.00000000000E+00 -0.13139029657E+03  0.13139029667E+03  0.50400001928E-02 0.  1.
    10030    2    1    2    0    0  0.00000000000E+00  0.00000000000E+00  0.84412114056E+03  0.11069017338E+04  0.71602440487E+03 0.  0.
        1    1    3    3  502    0 -0.40750627160E+02 -0.25747866406E+03  0.42710386223E+02  0.26415914366E+03  0.50400001928E-02 0.  1.
       -1    1    3    3    0  502  0.40750627160E+02  0.25747866406E+03  0.80141075434E+03  0.84274259016E+03  0.50400001928E-02 0. -1.
</event>
<event>
 5   0  0.1624094E-02  0.8084938E+03  0.7818609E-02  0.9547803E-01
       -1   -1    0    0    0  501  0.00000000000E+00  0.00000000000E+00  0.25994240013E+03  0.25994240017E+03  0.50400001928E-02 0. -1.
        1   -1    0    0  501    0  0.00000000000E+00  0.00000000000E+00 -0.62866071599E+03  0.62866071601E+03  0.50400001928E-02 0.  1.
    10030    2    1    2    0    0  0.00000000000E+00  0.00000000000E+00 -0.36871831587E+03  0.88860311619E+03  0.80849384762E+03 0.  0.
        3    1    3    3  502    0 -0.18942490493E+03  0.35705162630E+03 -0.17675187642E+03  0.44114498124E+03  0.10100000352E+00 0. -1.
       -3    1    3    3    0  502  0.18942490493E+03 -0.35705162630E+03 -0.19196643945E+03  0.44745813495E+03  0.10100000352E+00 0.  1.
</event>
<event>
 5   0  0.2454354E-02  0.8027181E+03  0.7818609E-02  0.9556091E-01
        2   -1    0    0  501    0  0.00000000000E+00  0.00000000000E+00  0.12268744773E+04  0.12268744773E+04  0.25500000920E-02 0.  1.
       -2   -1    0    0    0  501  0.00000000000E+00  0.00000000000E+00 -0.13130037611E+03  0.13130037613E+03  0.25500000920E-02 0. -1.
    10030    2    1    2    0    0  0.00000000000E+00  0.00000000000E+00  0.10955741012E+04  0.13581748534E+04  0.80271808333E+03 0.  0.
        5    1    3    3  502    0  0.11933731682E+03 -0.19649139546E+03 -0.88086344164E+01  0.23010855202E+03  0.46999998093E+01 0. -1.
       -5    1    3    3    0  502 -0.11933731682E+03  0.19649139546E+03  0.11043827356E+04  0.11280663014E+04  0.46999998093E+01 0.  1.
</event>
<event>
 5   0  0.2422031E-02  0.8047510E+03  0.7818609E-02  0.9553166E-01
        2   -1    0    0  501    0  0.00000000000E+00  0.00000000000E+00  0.64687076990E+03  0.64687076991E+03  0.25500000920E-02 0.  1.
       -2   -1    0    0    0  501  0.00000000000E+00  0.00000000000E+00 -0.25029118102E+03  0.25029118103E+03  0.25500000920E-02 0. -1.
    10030    2    1    2    0    0  0.00000000000E+00  0.00000000000E+00  0.39657958888E+03  0.89716195094E+03  0.80475101485E+03 0.  0.
        4    1    3    3  502    0  0.16014145368E+03 -0.28428785735E+03 -0.64204108812E+02  0.33254872051E+03  0.12699999809E+01 0. -1.
       -4    1    3    3    0  502 -0.16014145368E+03  0.28428785735E+03  0.46078369769E+03  0.56461323044E+03  0.12699999809E+01 0.  1.
</event>
<event>
 5   0  0.1509629E-02  0.7860143E+03  0.7818609E-02  0.9580484E-01
        1   -1    0    0  501    0  0.00000000000E+00  0.00000000000E+00  0.87326217384E+03  0.87326217385E+03  0.50400001928E-02 0.  1.
       -1   -1    0    0    0  501  0.00000000000E+00  0.00000000000E+00 -0.17687083390E+03  0.17687083398E+03  0.50400001928E-02 0. -1.
    10030    2    1    2    0    0  0.00000000000E+00  0.00000000000E+00  0.69639133993E+03  0.10501330078E+04  0.78601427201E+03 0.  0.
        5    1    3    3  502    0  0.35045983543E+03 -0.17779069010E+03  0.34945834315E+03  0.52590384039E+03  0.46999998093E+01 0.  1.
       -5    1    3    3    0  502 -0.35045983543E+03  0.17779069010E+03  0.34693299679E+03  0.52422916744E+03  0.46999998093E+01 0. -1.
</event>
<event>
 5   0  0.1509629E-02  0.7768953E+03  0.7818609E-02  0.9594076E-01
        1   -1    0    0  501    0  0.00000000000E+00  0.00000000000E+00  0.12041660892E+04  0.12041660892E+04  0.50400001928E-02 0.  1.
       -1   -1    0    0    0  501  0.00000000000E+00  0.00000000000E+00 -0.12530794234E+03  0.12530794244E+03  0.50400001928E-02 0. -1.
    10030    2    1    2    0    0  0.00000000000E+00  0.00000000000E+00  0.10788581469E+04  0.13294740317E+04  0.77689529526E+03 0.  0.
        5    1    3    3  502    0  0.88983688319E+02 -0.17462875498E+03 -0.34435007725E+02  0.19905064332E+03  0.46999998093E+01 0. -1.
       -5    1    3    3    0  502 -0.88983688319E+02  0.17462875498E+03  0.11132931546E+04  0.11304233883E+04  0.46999998093E+01 0.  1.
</event>
<event>
 5   0  0.2571778E-02  0.7993572E+03  0.7818609E-02  0.9560948E-01
       -2   -1    0    0    0  501  0.00000000000E+00  0.00000000000E+00  0.19455940159E+03  0.19455940161E+03  0.25500000920E-02 0. -1.
        2   -1    0    0  501    0  0.00000000000E+00  0.00000000000E+00 -0.82104987259E+03  0.82104987259E+03  0.25500000920E-02 0.  1.
    10030    2    1    2    0    0  0.00000000000E+00  0.00000000000E+00 -0.62649047100E+03  0.10156092742E+04  0.79935717148E+03 0.  0.
        1    1    3    3  502    0 -0.32225203656E+03  0.12248990287E+03 -0.56318490104E+02  0.34931636625E+03  0.50400001928E-02 0. -1.
       -1    1    3    3    0  502  0.32225203656E+03 -0.12248990287E+03 -0.57017198089E+03  0.66629290796E+03  0.50400001928E-02 0.  1.
</event>
<event>
 5   0  0.2422031E-02  0.8287631E+03  0.7818609E-02  0.9519292E-01
       -2   -1    0    0    0  501  0.00000000000E+00  0.00000000000E+00  0.73835941922E+02  0.73835941966E+02  0.25500000920E-02 0. -1.
        2   -1    0    0  501    0  0.00000000000E+00  0.00000000000E+00 -0.23255889284E+04  0.23255889284E+04  0.25500000920E-02 0.  1.
    10030    2    1    2    0    0  0.00000000000E+00  0.00000000000E+00 -0.22517529865E+04  0.23994248704E+04  0.82876305203E+03 0.  0.
        4    1    3    3  502    0  0.26576880758E+03  0.23250017286E+03 -0.17536788206E+04  0.17888768566E+04  0.12699999809E+01 0.  1.
       -4    1    3    3    0  502 -0.26576880758E+03 -0.23250017286E+03 -0.49807416587E+03  0.61054801373E+03  0.12699999809E+01 0. -1.
</event>
<event>
 5   0  0.2422031E-02  0.8062003E+03  0.7818609E-02  0.9551086E-01
       -2   -1    0    0    0  501  0.00000000000E+00  0.00000000000E+00  0.32557660108E+03  0.32557660109E+03  0.25500000920E-02 0.  1.
        2   -1    0    0  501    0  0.00000000000E+00  0.00000000000E+00 -0.49908293401E+03  0.49908293402E+03  0.25500000920E-02 0. -1.
    10030    2    1    2    0    0  0.00000000000E+00  0.00000000000E+00 -0.17350633293E+03  0.82465953511E+03  0.80620028608E+03 0.  0.
        4    1    3    3  502    0  0.31224174100E+03  0.16621078609E+03  0.11097881192E+03  0.37072744683E+03  0.12699999809E+01 0.  1.
       -4    1    3    3    0  502 -0.31224174100E+03 -0.16621078609E+03 -0.28448514484E+03  0.45393208828E+03  0.12699999809E+01 0. -1.
</event>
<event>
 5   0  0.1498375E-02  0.8287720E+03  0.7818609E-02  0.9519280E-01
        1   -1    0    0  501    0  0.00000000000E+00  0.00000000000E+00  0.98937511838E+03  0.98937511839E+03  0.50400001928E-02 0.  1.
       -1   -1    0    0    0  501  0.00000000000E+00  0.00000000000E+00 -0.17355981447E+03  0.17355981454E+03  0.50400001928E-02 0. -1.
    10030    2    1    2    0    0  0.00000000000E+00  0.00000000000E+00  0.81581530391E+03  0.11629349329E+04  0.82877201216E+03 0.  0.
        4    1    3    3  502    0 -0.83417556730E+02 -0.17320451127E+03 -0.10719545106E+03  0.22011535413E+03  0.12699999809E+01 0. -1.
       -4    1    3    3    0  502  0.83417556730E+02  0.17320451127E+03  0.92301075497E+03  0.94281957881E+03  0.12699999809E+01 0.  1.
</event>
<event>
 5   0  0.1624094E-02  0.7913189E+03  0.7818609E-02  0.9572668E-01
       -1   -1    0    0    0  501  0.00000000000E+00  0.00000000000E+00  0.63705296259E+03  0.63705296261E+03  0.50400001928E-02 0. -1.
        1   -1    0    0  501    0  0.00000000000E+00  0.00000000000E+00 -0.24573531966E+03  0.24573531971E+03  0.50400001928E-02 0.  1.
    10030    2    1    2    0    0  0.00000000000E+00  0.00000000000E+00  0.39131764294E+03  0.88278828232E+03  0.79131893301E+03 0.  0.
        3    1    3    3  502    0  0.36244474615E+03 -0.15640374304E+03  0.22555329646E+03  0.45464560329E+03  0.10100000352E+00 0. -1.
       -3    1    3    3    0  502 -0.36244474615E+03  0.15640374304E+03  0.16576434648E+03  0.42814267903E+03  0.10100000352E+00 0.  1.
</event>
<event>
 5   0  0.1523811E-02  0.8227846E+03  0.7818609E-02  0.9527611E-01
        1   -1    0    0  501    0  0.00000000000E+00  0.00000000000E+00  0.88152475183E+03  0.88152475185E+03  0.50400001928E-02 0. -1.
       -1   -1    0    0    0  501  0.00000000000E+00  0.00000000000E+00 -0.19198965288E+03  0.19198965295E+03  0.50400001928E-02 0.  1.
    10030    2    1    2    0    0  0.00000000000E+00  0.00000000000E+00  0.68953509895E+03  0.10735144048E+04  0.82278461618E+03 0.  0.
        1    1    3    3  502    0  0.71480175993E+02  0.90722583383E+01  0.87322783916E+03  0.87619551502E+03  0.50400001928E-02 0. -1.
       -1    1    3    3    0  502 -0.71480175993E+02 -0.90722583383E+01 -0.18369274021E+03  0.19731888978E+03  0.50400001928E-02 0.  1.
</event>
<event>
 5   0  0.2422031E-02  0.8085487E+03  0.7818609E-02  0.9547725E-01
       -2   -1    0    0    0  501  0.00000000000E+00  0.00000000000E+00  0.21457357696E+03  0.21457357698E+03  0.25500000920E-02 0. -1.
        2   -1    0    0  501    0  0.00000000000E+00  0.00000000000E+00 -0.76168621183E+03  0.76168621184E+03  0.25500000920E-02 0.  1.
    10030    2    1    2    0    0  0.00000000000E+00  0.00000000000E+00 -0.54711263487E+03  0.97625978881E+03  0.80854866274E+03 0.  0.
        4    1    3    3  502    0 -0.40378231974E+02  0.28400453490E+03 -0.61750674979E+03  0.68088558246E+03  0.12699999809E+01 0.  1.
       -4    1    3    3    0  502  0.40378231974E+02 -0.28400453490E+03  0.70394114921E+02  0.29537420635E+03  0.12699999809E+01 0. -1.
</event>
<event>
 5   0  0.1498375E-02  0.7961164E+03  0.7818609E-02  0.9565655E-01
       -1   -1    0    0    0  501  0.00000000000E+00  0.00000000000E+00  0.13816822172E+03  0.13816822181E+03  0.50400001928E-02 0. -1.
        1   -1    0    0  501    0  0.00000000000E+00  0.00000000000E+00 -0.11467929361E+04  0.11467929361E+04  0.50400001928E-02 0.  1.
    10030    2    1    2    0    0  0.00000000000E+00  0.00000000000E+00 -0.10086247144E+04  0.12849611579E+04  0.79611642546E+03 0.  0.
        4    1    3    3  502    0 -0.33115126844E+03  0.16872302446E+03 -0.73439105076E+03  0.82307985634E+03  0.12699999809E+01 0.  1.
       -4    1    3    3    0  502  0.33115126844E+03 -0.16872302446E+03 -0.27423366361E+03  0.46188130156E+03  0.12699999809E+01 0. -1.
</event>
<event>
 5   0  0.2571778E-02  0.7857762E+03  0.7818609E-02  0.9580837E-01
        2   -1    0    0  501    0  0.00000000000E+00  0.00000000000E+00  0.43679685413E+03  0.43679685413E+03  0.25500000920E-02 0.  1.
       -2   -1    0    0    0  501  0.00000000000E+00  0.00000000000E+00 -0.35339323827E+03  0.35339323828E+03  0.25500000920E-02 0. -1.
    10030    2    1    2    0    0  0.00000000000E+00  0.00000000000E+00  0.83403615853E+02  0.79019009242E+03  0.78577618889E+03 0.  0.
        1    1    3    3  502    0  0.80026726904E+02 -0.19732765066E+02 -0.34460105087E+03  0.35432124311E+03  0.50400001928E-02 0. -1.
       -1    1    3    3    0  502 -0.80026726904E+02  0.19732765066E+02  0.42800466672E+03  0.43586884931E+03  0.50400001928E-02 0.  1.
</event>
<event>
 5   0  0.1509629E-02  0.7974431E+03  0.7818609E-02  0.9563726E-01
        1   -1    0    0  501    0  0.00000000000E+00  0.00000000000E+00  0.14613136820E+04  0.14613136820E+04  0.50400001928E-02 0. -1.
       -1   -1    0    0    0  501  0.00000000000E+00  0.00000000000E+00 -0.10879174114E+03  0.10879174126E+03  0.50400001928E-02 0.  1.
    10030    2    1    2    0    0  0.00000000000E+00  0.00000000000E+00  0.13525219409E+04  0.15701054233E+04  0.79744306358E+03 0.  0.
        5    1    3    3  502    0  0.72406535029E+02 -0.39056127828E+03  0.74377963383E+03  0.84321471293E+03  0.46999998093E+01 0.  1.
       -5    1    3    3    0  502 -0.72406535029E+02  0.39056127828E+03  0.60874230702E+03  0.72689071033E+03  0.46999998093E+01 0. -1.
</event>
<event>
 5   0  0.2464780E-02  0.7922117E+03  0.7818609E-02  0.9571359E-01
       -2   -1    0    0    0  501  0.00000000000E+00  0.00000000000E+00  0.28418316218E+03  0.28418316219E+03  0.25500000920E-02 0. -1.
        2   -1    0    0  501    0  0.00000000000E+00  0.00000000000E+00 -0.55210817715E+03  0.55210817716E+03  0.25500000920E-02 0.  1.
    10030    2    1    2    0    0  0.00000000000E+00  0.00000000000E+00 -0.26792501498E+03  0.83629133934E+03  0.79221170820E+03 0.  0.
        3    1    3    3  502    0 -0.25708598366E+03 -0.18858425685E+03 -0.38207775111E+03  0.49763505003E+03  0.10100000352E+00 0.  1.
       -3    1    3    3    0  502  0.25708598366E+03  0.18858425685E+03  0.11415273613E+03  0.33865628932E+03  0.10100000352E+00 0. -1.
</event>
<event>
 5   0  0.2571778E-02  0.7982644E+03  0.7818609E-02  0.9562533E-01
       -2   -1    0    0    0  501  0.00000000000E+00  0.00000000000E+00  0.10021001298E+03  0.10021001302E+03  0.25500000920E-02 0.  1.
        2   -1    0    0  501    0  0.00000000000E+00  0.00000000000E+00 -0.15897263068E+04  0.15897263068E+04  0.25500000920E-02 0. -1.
    10030    2    1    2    0    0  0.00000000000E+00  0.00000000000E+00 -0.14895162938E+04  0.16899363198E+04  0.79826435188E+03 0.  0.
        1    1    3    3  502    0  0.38756831746E+03 -0.71488107306E+02 -0.87842778136E+03  0.96278508364E+03  0.50400001928E-02 0. -1.
       -1    1    3    3    0  502 -0.38756831746E+03  0.71488107306E+02 -0.61108851244E+03  0.72715123616E+03  0.50400001928E-02 0.  1.
</event>
<event>
 5   0  0.1509629E-02  0.7852429E+03  0.7818609E-02  0.9581626E-01
       -1   -1    0    0    0  501  0.00000000000E+00  0.00000000000E+00  0.77908304730E+02  0.77908304893E+02  0.50400001928E-02 0.  1.
        1   -1    0    0  501    0  0.00000000000E+00  0.00000000000E+00 -0.19786287694E+04  0.19786287694E+04  0.50400001928E-02 0. -1.
    10030    2    1    2    0    0  0.00000000000E+00  0.00000000000E+00 -0.19007204647E+04  0.20565370743E+04  0.78524292621E+03 0.  0.
        5    1    3    3  502    0  0.24260435724E+03  0.85132080591E+02 -0.17333348909E+03  0.31011438815E+03  0.46999998093E+01 0.  1.
       -5    1    3    3    0  502 -0.24260435724E+03 -0.85132080591E+02 -0.17273869756E+04  0.17464226861E+04  0.46999998093E+01 0. -1.
</event>
<event>
 5   0  0.1471290E-02  0.8032608E+03  0.7818609E-02  0.9555309E-01
        1   -1    0    0  501    0  0.00000000000E+00  0.00000000000E+00  0.43164986269E+03  0.43164986271E+03  0.50400001928E-02 0.  1.
       -1   -1    0    0    0  501  0.00000000000E+00  0.00000000000E+00 -0.37369868526E+03  0.37369868530E+03  0.50400001928E-02 0. -1.
    10030    2    1    2    0    0  0.00000000000E+00  0.00000000000E+00  0.57951177422E+02  0.80534854801E+03  0.80326081992E+03 0.  0.
        2    1    3    3  502    0  0.29592487434E+03 -0.46341325762E+02  0.29723021335E+03  0.42197730918E+03  0.25500000920E-02 0.  1.
       -2    1    3    3    0  502 -0.29592487434E+03  0.46341325762E+02 -0.23927903593E+03  0.38337123884E+03  0.25500000920E-02 0. -1.
</event>
<event>
 5   0  0.2460312E-02  0.7985070E+03  0.7818609E-02  0.9562181E-01
        2   -1    0    0  501    0  0.00000000000E+00  0.00000000000E+00  0.10472525306E+04  0.10472525306E+04  0.25500000920E-02 0. -1.
       -2   -1    0    0    0  501  0.00000000000E+00  0.00000000000E+00 -0.15221101572E+03  0.15221101574E+03  0.25500000920E-02 0.  1.
    10030    2    1    2    0    0  0.00000000000E+00  0.00000000000E+00  0.89504151488E+03  0.11994635464E+04  0.79850703545E+03 0.  0.
        2    1    3    3  502    0 -0.71201989938E+02 -0.19687758437E+03 -0.63144422235E+02  0.21867264270E+03  0.25500000920E-02 0.  1.
       -2    1    3    3    0  502  0.71201989938E+02  0.19687758437E+03  0.95818593712E+03  0.98079090366E+03  0.25500000920E-02 0. -1.
</event>
<event>
 5   0  0.2460312E-02  0.8039377E+03  0.7818609E-02  0.9554335E-01
       -2   -1    0    0    0  501  0.00000000000E+00  0.00000000000E+00  0.10107466583E+03  0.10107466586E+03  0.25500000920E-02 0.  1.
        2   -1    0    0  501    0  0.00000000000E+00  0.00000000000E+00 -0.15986096590E+04  0.15986096590E+04  0.25500000920E-02 0. -1.
    10030    2    1    2    0    0  0.00000000000E+00  0.00000000000E+00 -0.14975349932E+04  0.16996843249E+04  0.80393765207E+03 0.  0.
        2    1    3    3  502    0  0.31953354030E+03 -0.23988638323E+03 -0.65584424895E+03  0.76797059782E+03  0.25500000920E-02 0.  1.
       -2    1    3    3    0  502 -0.31953354030E+03  0.23988638323E+03 -0.84169074424E+03  0.93171372705E+03  0.25500000920E-02 0. -1.
</event>
<event>
 5   0  0.1523811E-02  0.8010451E+03  0.7818609E-02  0.9558506E-01
        1   -1    0    0  501    0  0.00000000000E+00  0.00000000000E+00  0.64170575649E+03  0.64170575651E+03  0.50400001928E-02 0. -1.
       -1   -1    0    0    0  501  0.00000000000E+00  0.00000000000E+00 -0.24998731788E+03  0.24998731793E+03  0.50400001928E-02 0.  1.
    10030    2    1    2    0    0  0.00000000000E+00  0.00000000000E+00  0.39171843861E+03  0.89169307444E+03  0.80104506980E+03 0.  0.
        1    1    3    3  502    0  0.39357072480E+03 -0.71486235382E+02  0.17331655363E+03  0.43594360307E+03  0.50400001928E-02 0. -1.
       -1    1    3    3    0  502 -0.39357072480E+03  0.71486235382E+02  0.21840188499E+03  0.45574947138E+03  0.50400001928E-02 0.  1.
</event>
<event>
 5   0  0.1471290E-02  0.8017810E+03  0.7818609E-02  0.9557443E-01
        1   -1    0    0  501    0  0.00000000000E+00  0.00000000000E+00  0.64887245071E+03  0.64887245073E+03  0.50400001928E-02 0.  1.
       -1   -1    0    0    0  501  0.00000000000E+00  0.00000000000E+00 -0.24768069908E+03  0.24768069913E+03  0.50400001928E-02 0. -1.
    10030    2    1    2    0    0  0.00000000000E+00  0.00000000000E+00  0.40119175163E+03  0.89655314986E+03  0.80178097317E+03 0.  0.
        2    1    3    3  502    0  0.22768117396E+03  0.25390067964E+03 -0.35047563195E+02  0.34283028424E+03  0.25500000920E-02 0. -1.
       -2    1    3    3    0  502 -0.22768117396E+03 -0.25390067964E+03  0.43623931482E+03  0.55372286561E+03  0.25500000920E-02 0.  1.
</event>
<event>
 5   0  0.2571778E-02  0.8096934E+03  0.7818609E-02  0.9546091E-01
       -2   -1    0    0    0  501  0.00000000000E+00  0.00000000000E+00  0.10119079069E+03  0.10119079072E+03  0.25500000920E-02 0.  1.
        2   -1    0    0  501    0  0.00000000000E+00  0.00000000000E+00 -0.16197209389E+04  0.16197209389E+04  0.25500000920E-02 0. -1.
    10030    2    1    2    0    0  0.00000000000E+00  0.00000000000E+00 -0.15185301482E+04  0.17209117296E+04  0.80969338031E+03 0.  0.
        1    1    3    3  502    0 -0.28748500359E+03 -0.36398396391E+02 -0.15838404947E+03  0.33023927341E+03  0.50400001928E-02 0.  1.
       -1    1    3    3    0  502  0.28748500359E+03  0.36398396391E+02 -0.13601460987E+04  0.13906724562E+04  0.50400001928E-02 0. -1.
</event>
<event>
 5   0  0.1498375E-02  0.7983695E+03  0.7818609E-02  0.9562380E-01
       -1   -1    0    0    0  501  0.00000000000E+00  0.00000000000E+00  0.13870962172E+03  0.13870962181E+03  0.50400001928E-02 0.  1.
        1   -1    0    0  501    0  0.00000000000E+00  0.00000000000E+00 -0.11487917168E+04  0.11487917169E+04  0.50400001928E-02 0. -1.
    10030    2    1    2    0    0  0.00000000000E+00  0.00000000000E+00 -0.10100820951E+04  0.12875013387E+04  0.79836949978E+03 0.  0.
        4    1    3    3  502    0  0.29821258817E+03  0.88359065012E+02 -0.90855761548E+03  0.96032110550E+03  0.12699999809E+01 0. -1.
       -4    1    3    3    0  502 -0.29821258817E+03 -0.88359065012E+02 -0.10152447965E+03  0.32718023317E+03  0.12699999809E+01 0.  1.
</event>
<event>
 5   0  0.2571778E-02  0.8009501E+03  0.7818609E-02  0.9558643E-01
       -2   -1    0    0    0  501  0.00000000000E+00  0.00000000000E+00  0.15631922876E+03  0.15631922878E+03  0.25500000920E-02 0. -1.
        2   -1    0    0  501    0  0.00000000000E+00  0.00000000000E+00 -0.10259791391E+04  0.10259791391E+04  0.25500000920E-02 0.  1.
    10030    2    1    2    0    0  0.00000000000E+00  0.00000000000E+00 -0.86965991038E+03  0.11822983679E+04  0.80095010524E+03 0.  0.
        1    1    3    3  502    0 -0.27683789249E+02 -0.38529735846E+03 -0.59076733910E+03  0.70585161018E+03  0.50400001928E-02 0.  1.
       -1    1    3    3    0  502  0.27683789249E+02  0.38529735846E+03 -0.27889257127E+03  0.47644675774E+03  0.50400001928E-02 0. -1.
</event>
<event>
 5   0  0.1523811E-02  0.8191531E+03  0.7818609E-02  0.9532700E-01
        1   -1    0    0  501    0  0.00000000000E+00  0.00000000000E+00  0.45807542736E+03  0.45807542738E+03  0.50400001928E-02 0.  1.
       -1   -1    0    0    0  501  0.00000000000E+00  0.00000000000E+00 -0.36621249157E+03  0.36621249161E+03  0.50400001928E-02 0. -1.
    10030    2    1    2    0    0  0.00000000000E+00  0.00000000000E+00  0.91862935786E+02  0.82428791899E+03  0.81915308363E+03 0.  0.
        1    1    3    3  502    0  0.18313974887E+03  0.10246453072E+03  0.39986599456E+03  0.45158826524E+03  0.50400001928E-02 0.  1.
       -1    1    3    3    0  502 -0.18313974887E+03 -0.10246453072E+03 -0.30800305877E+03  0.37269965375E+03  0.50400001928E-02 0. -1.
</event>
<event>
 5   0  0.2422031E-02  0.8280137E+03  0.7818609E-02  0.9520331E-01
       -2   -1    0    0    0  501  0.00000000000E+00  0.00000000000E+00  0.25166269895E+03  0.25166269897E+03  0.25500000920E-02 0.  1.
        2   -1    0    0  501    0  0.00000000000E+00  0.00000000000E+00 -0.68107702416E+03  0.68107702416E+03  0.25500000920E-02 0. -1.
    10030    2    1    2    0    0  0.00000000000E+00  0.00000000000E+00 -0.42941432520E+03  0.93273972313E+03  0.82801372477E+03 0.  0.
        4    1    3    3  502    0  0.24586149498E+02  0.28161706662E+03  0.12601754164E+03  0.30950716415E+03  0.12699999809E+01 0.  1.
       -4    1    3    3    0  502 -0.24586149498E+02 -0.28161706662E+03 -0.55543186685E+03  0.62323255898E+03  0.12699999809E+01 0. -1.
</event>
<event>
 5   0  0.1509629E-02  0.8015140E+03  0.7818609E-02  0.9557828E-01
        1   -1    0    0  501    0  0.00000000000E+00  0.00000000000E+00  0.11858499027E+04  0.11858499027E+04  0.50400001928E-02 0.  1.
       -1   -1    0    0    0  501  0.00000000000E+00  0.00000000000E+00 -0.13543549767E+03  0.13543549776E+03  0.50400001928E-02 0. -1.
    10030    2    1    2    0    0  0.00000000000E+00  0.00000000000E+00  0.10504144050E+04  0.13212854005E+04  0.80151399690E+03 0.  0.
        5    1    3    3  502    0  0.30345757631E+03  0.25409892924E+02  0.95461170254E+03  0.10020168441E+04  0.46999998093E+01 0.  1.
       -5    1    3    3    0  502 -0.30345757631E+03 -0.25409892924E+02  0.95802702500E+02  0.31926855636E+03  0.46999998093E+01 0. -1.
</event>
<event>
 5   0  0.2464780E-02  0.8023072E+03  0.7818609E-02  0.9556684E-01
       -2   -1    0    0    0  501  0.00000000000E+00  0.00000000000E+00  0.10583190135E+03  0.10583190138E+03  0.25500000920E-02 0.  1.
        2   -1    0    0  501    0  0.00000000000E+00  0.00000000000E+00 -0.15205643197E+04  0.15205643197E+04  0.25500000920E-02 0. -1.
    10030    2    1    2    0    0  0.00000000000E+00  0.00000000000E+00 -0.14147324184E+04  0.16263962211E+04  0.80230720576E+03 0.  0.
        3    1    3    3  502    0  0.29040904676E+03 -0.26463495579E+03 -0.54324062948E+03  0.67043229784E+03  0.10100000352E+00 0.  1.
       -3    1    3    3    0  502 -0.29040904676E+03  0.26463495579E+03 -0.87149178888E+03  0.95596392325E+03  0.10100000352E+00 0. -1.
</event>
<event>
 5   0  0.2460312E-02  0.8019764E+03  0.7818609E-02  0.9557161E-01
        2   -1    0    0  501    0  0.00000000000E+00  0.00000000000E+00  0.10446373637E+04  0.10446373637E+04  0.25500000920E-02 0. -1.
       -2   -1    0    0    0  501  0.00000000000E+00  0.00000000000E+00 -0.15392090415E+03  0.15392090417E+03  0.25500000920E-02 0.  1.
    10030    2    1    2    0    0  0.00000000000E+00  0.00000000000E+00  0.89071645958E+03  0.11985582679E+04  0.80197637756E+03 0.  0.
        2    1    3    3  502    0  0.11143204946E+03  0.61063899608E+02  0.10137532033E+04  0.10216855968E+04  0.25500000920E-02 0. -1.
       -2    1    3    3    0  502 -0.11143204946E+03 -0.61063899608E+02 -0.12303674370E+03  0.17687267112E+03  0.25500000920E-02 0.  1.
</event>
<event>
 5   0  0.2571778E-02  0.7975486E+03  0.7818609E-02  0.9563572E-01
       -2   -1    0    0    0  501  0.00000000000E+00  0.00000000000E+00  0.24701564410E+03  0.24701564411E+03  0.25500000920E-02 0. -1.
        2   -1    0    0  501    0  0.00000000000E+00  0.00000000000E+00 -0.64376878844E+03  0.64376878844E+03  0.25500000920E-02 0.  1.
    10030    2    1    2    0    0  0.00000000000E+00  0.00000000000E+00 -0.39675314434E+03  0.89078443255E+03  0.79754864914E+03 0.  0.
        1    1    3    3  502    0  0.11823966826E+03  0.26289676201E+03  0.10938164120E+03  0.30831748261E+03  0.50400001928E-02 0. -1.
       -1    1    3    3    0  502 -0.11823966826E+03 -0.26289676201E+03 -0.50613478554E+03  0.58246694995E+03  0.50400001928E-02 0.  1.
</event>
<event>
 5   0  0.1471290E-02  0.7791446E+03  0.7818609E-02  0.9590705E-01
        1   -1    0    0  501    0  0.00000000000E+00  0.00000000000E+00  0.92562712407E+03  0.92562712408E+03  0.50400001928E-02 0.  1.
       -1   -1    0    0    0  501  0.00000000000E+00  0.00000000000E+00 -0.16396079859E+03  0.16396079866E+03  0.50400001928E-02 0. -1.
    10030    2    1    2    0    0  0.00000000000E+00  0.00000000000E+00  0.76166632548E+03  0.10895879227E+04  0.77914456298E+03 0.  0.
        2    1    3    3  502    0 -0.26345155130E+03  0.13683722075E+03  0.73360482029E+03  0.79139571469E+03  0.25500000920E-02 0.  1.
       -2    1    3    3    0  502  0.26345155130E+03 -0.13683722075E+03  0.28061505194E+02  0.29819220806E+03  0.25500000920E-02 0. -1.
</event>
<event>
 5   0  0.2460312E-02  0.7931219E+03  0.7818609E-02  0.9570027E-01
        2   -1    0    0  501    0  0.00000000000E+00  0.00000000000E+00  0.77559192025E+03  0.77559192026E+03  0.25500000920E-02 0. -1.
       -2   -1    0    0    0  501  0.00000000000E+00  0.00000000000E+00 -0.20276201338E+03  0.20276201340E+03  0.25500000920E-02 0.  1.
    10030    2    1    2    0    0  0.00000000000E+00  0.00000000000E+00  0.57282990687E+03  0.97835393365E+03  0.79312188048E+03 0.  0.
        2    1    3    3  502    0  0.11348204904E+03 -0.38180160898E+02 -0.17993257268E+03  0.21612873677E+03  0.25500000920E-02 0.  1.
       -2    1    3    3    0  502 -0.11348204904E+03  0.38180160898E+02  0.75276247955E+03  0.76222519688E+03  0.25500000920E-02 0. -1.
</event>
<event>
 5   0  0.1624094E-02  0.7960026E+03  0.7818609E-02  0.9565821E-01
        1   -1    0    0  501    0  0.00000000000E+00  0.00000000000E+00  0.87183845750E+03  0.87183845751E+03  0.50400001928E-02 0.  1.
       -1   -1    0    0    0  501  0.00000000000E+00  0.00000000000E+00 -0.18169079661E+03  0.18169079668E+03  0.50400001928E-02 0. -1.
    10030    2    1    2    0    0  0.00000000000E+00  0.00000000000E+00  0.69014766088E+03  0.10535292542E+04  0.79600257262E+03 0.  0.
        3    1    3    3  502    0  0.32751914183E+02  0.26639028359E+03  0.73403829276E+03  0.78156810101E+03  0.10100000352E+00 0.  1.
       -3    1    3    3    0  502 -0.32751914183E+02 -0.26639028359E+03 -0.43890631879E+02  0.27196115319E+03  0.10100000352E+00 0. -1.
</event>
<event>
 5   0  0.1471290E-02  0.7967149E+03  0.7818609E-02  0.9564784E-01
       -1   -1    0    0    0  501  0.00000000000E+00  0.00000000000E+00  0.36781545631E+03  0.36781545634E+03  0.50400001928E-02 0. -1.
        1   -1    0    0  501    0  0.00000000000E+00  0.00000000000E+00 -0.43143550268E+03  0.43143550271E+03  0.50400001928E-02 0.  1.
    10030    2    1    2    0    0  0.00000000000E+00  0.00000000000E+00 -0.63620046369E+02  0.79925095905E+03  0.79671487073E+03 0.  0.
        2    1    3    3  502    0  0.12746292500E+03 -0.36423278589E+03 -0.13100007032E+03  0.40752096633E+03  0.25500000920E-02 0.  1.
       -2    1    3    3    0  502 -0.12746292500E+03  0.36423278589E+03  0.67380023952E+02  0.39172999272E+03  0.25500000920E-02 0. -1.
</event>
<event>
 5   0  0.1471290E-02  0.7933070E+03  0.7818609E-02  0.9569756E-01
       -1   -1    0    0    0  501  0.00000000000E+00  0.00000000000E+00  0.22297328479E+03  0.22297328484E+03  0.50400001928E-02 0.  1.
        1   -1    0    0  501    0  0.00000000000E+00  0.00000000000E+00 -0.70561819033E+03  0.70561819034E+03  0.50400001928E-02 0. -1.
    10030    2    1    2    0    0  0.00000000000E+00  0.00000000000E+00 -0.48264490554E+03  0.92859147519E+03  0.79330701683E+03 0.  0.
        2    1    3    3  502    0  0.32053754998E+03  0.53273532790E+02  0.24961719076E+02  0.32589181897E+03  0.25500000920E-02 0.  1.
       -2    1    3    3    0  502 -0.32053754998E+03 -0.53273532790E+02 -0.50760662461E+03  0.60269965622E+03  0.25500000920E-02 0. -1.
</event>
<event>
 5   0  0.1509629E-02  0.7837844E+03  0.7818609E-02  0.9583790E-01
       -1   -1    0    0    0  501  0.00000000000E+00  0.00000000000E+00  0.81905712534E+02  0.81905712689E+02  0.50400001928E-02 0. -1.
        1   -1    0    0  501    0  0.00000000000E+00  0.00000000000E+00 -0.18750766712E+04  0.18750766712E+04  0.50400001928E-02 0.  1.
    10030    2    1    2    0    0  0.00000000000E+00  0.00000000000E+00 -0.17931709587E+04  0.19569823839E+04  0.78378438608E+03 0.  0.
        5    1    3    3  502    0 -0.69762104846E+02 -0.36459625334E+03 -0.58313317229E+03  0.69127676501E+03  0.46999998093E+01 0. -1.
       -5    1    3    3    0  502  0.69762104846E+02  0.36459625334E+03 -0.12100377864E+04  0.12657056189E+04  0.46999998093E+01 0.  1.
</event>
<event>
 5   0  0.2571778E-02  0.8178905E+03  0.7818609E-02  0.9534476E-01
        2   -1    0    0  501    0  0.00000000000E+00  0.00000000000E+00  0.14595446082E+04  0.14595446082E+04  0.25500000920E-02 0.  1.
       -2   -1    0    0    0  501  0.00000000000E+00  0.00000000000E+00 -0.11458108079E+03  0.11458108081E+03  0.25500000920E-02 0. -1.
    10030    2    1    2    0    0  0.00000000000E+00  0.00000000000E+00  0.13449635274E+04  0.15741256890E+04  0.81789045401E+03 0.  0.
        1    1    3    3  502    0 -0.12547149287E+03 -0.29429331581E+03  0.11627287210E+04  0.12059393559E+04  0.50400001928E-02 0.  1.
       -1    1    3    3    0  502  0.12547149287E+03  0.29429331581E+03  0.18223480640E+03  0.36818633318E+03  0.50400001928E-02 0. -1.
</event>
<event>
 5   0  0.2422031E-02  0.8202741E+03  0.7818609E-02  0.9531126E-01
       -2   -1    0    0    0  501  0.00000000000E+00  0.00000000000E+00  0.32585758174E+03  0.32585758175E+03  0.25500000920E-02 0.  1.
        2   -1    0    0  501    0  0.00000000000E+00  0.00000000000E+00 -0.51621450737E+03  0.51621450738E+03  0.25500000920E-02 0. -1.
    10030    2    1    2    0    0  0.00000000000E+00  0.00000000000E+00 -0.19035692563E+03  0.84207208912E+03  0.82027412744E+03 0.  0.
        4    1    3    3  502    0  0.11097089287E+03  0.20342347989E+03 -0.44257199340E+03  0.49956704603E+03  0.12699999809E+01 0. -1.
       -4    1    3    3    0  502 -0.11097089287E+03 -0.20342347989E+03  0.25221506777E+03  0.34250504309E+03  0.12699999809E+01 0.  1.
</event>
<event>
 5   0  0.2464780E-02  0.8105925E+03  0.7818609E-02  0.9544810E-01
        2   -1    0    0  501    0  0.00000000000E+00  0.00000000000E+00  0.80973221693E+03  0.80973221693E+03  0.25500000920E-02 0.  1.
       -2   -1    0    0    0  501  0.00000000000E+00  0.00000000000E+00 -0.20286342619E+03  0.20286342620E+03  0.25500000920E-02 0. -1.
    10030    2    1    2    0    0  0.00000000000E+00  0.00000000000E+00  0.60686879074E+03  0.10125956431E+04  0.81059250387E+03 0.  0.
        3    1    3    3  502    0  0.15555347594E+03  0.32324958958E+03  0.53906049034E+03  0.64751324580E+03  0.10100000352E+00 0.  1.
       -3    1    3    3    0  502 -0.15555347594E+03 -0.32324958958E+03  0.67808300400E+02  0.36508239734E+03  0.10100000352E+00 0. -1.
</event>
<event>
 5   0  0.1471290E-02  0.8170991E+03  0.7818609E-02  0.9535591E-01
       -1   -1    0    0    0  501  0.00000000000E+00  0.00000000000E+00  0.89932252647E+02  0.89932252788E+02  0.50400001928E-02 0. -1.
        1   -1    0    0  501    0  0.00000000000E+00  0.00000000000E+00 -0.18559831650E+04  0.18559831650E+04  0.50400001928E-02 0.  1.
    10030    2    1    2    0    0  0.00000000000E+00  0.00000000000E+00 -0.17660509123E+04  0.19459154178E+04  0.81709912996E+03 0.  0.
        2    1    3    3  502    0 -0.53856599195E+02 -0.40210972147E+03 -0.76831794380E+03  0.86885282077E+03  0.25500000920E-02 0. -1.
       -2    1    3    3    0  502  0.53856599195E+02  0.40210972147E+03 -0.99773296854E+03  0.10770625970E+04  0.25500000920E-02 0.  1.
</event>
<event>
 5   0  0.9919125E-03  0.8100725E+03  0.7818609E-02  0.9545551E-01
       -4   -1    0    0    0  501  0.00000000000E+00  0.00000000000E+00  0.50058165028E+03  0.50058326130E+03  0.12699999809E+01 0. -1.
        4   -1    0    0  501    0  0.00000000000E+00  0.00000000000E+00 -0.32772415355E+03  0.32772661430E+03  0.12699999809E+01 0.  1.
    10030    2    1    2    0    0  0.00000000000E+00  0.00000000000E+00  0.17285749673E+03  0.82830987560E+03  0.81007254974E+03 0.  0.
        2    1    3    3  502    0 -0.16263570379E+03  0.34203793306E+03  0.23323709075E+03  0.44479192923E+03  0.25500000920E-02 0. -1.
       -2    1    3    3    0  502  0.16263570379E+03 -0.34203793306E+03 -0.60379594025E+02  0.38351794636E+03  0.25500000920E-02 0.  1.
</event>
<event>
 5   0  0.1509629E-02  0.8023543E+03  0.7818609E-02  0.9556616E-01
       -1   -1    0    0    0  501  0.00000000000E+00  0.00000000000E+00  0.10451684528E+03  0.10451684540E+03  0.50400001928E-02 0. -1.
        1   -1    0    0  501    0  0.00000000000E+00  0.00000000000E+00 -0.15398773001E+04  0.15398773001E+04  0.50400001928E-02 0.  1.
    10030    2    1    2    0    0  0.00000000000E+00  0.00000000000E+00 -0.14353604548E+04  0.16443941455E+04  0.80235432978E+03 0.  0.
        5    1    3    3  502    0 -0.67360429270E+02  0.35834279571E+02  0.89452443040E+02  0.11766627634E+03  0.46999998093E+01 0. -1.
       -5    1    3    3    0  502  0.67360429270E+02 -0.35834279571E+02 -0.15248128978E+04  0.15267278692E+04  0.46999998093E+01 0.  1.
</event>
<event>
 5   0  0.1509629E-02  0.7904136E+03  0.7818609E-02  0.9573998E-01
        1   -1    0    0  501    0  0.00000000000E+00  0.00000000000E+00  0.11305691589E+04  0.11305691589E+04  0.50400001928E-02 0. -1.
       -1   -1    0    0    0  501  0.00000000000E+00  0.00000000000E+00 -0.13815025144E+03  0.13815025153E+03  0.50400001928E-02 0.  1.
    10030    2    1    2    0    0  0.00000000000E+00  0.00000000000E+00  0.99241890749E+03  0.12687194105E+04  0.79041359715E+03 0.  0.
        5    1    3    3  502    0  0.37657101528E+03  0.10364358367E+02  0.30457791903E+03  0.48446150335E+03  0.46999998093E+01 0.  1.
       -5    1    3    3    0  502 -0.37657101528E+03 -0.10364358367E+02  0.68784098847E+03  0.78425790712E+03  0.46999998093E+01 0. -1.
</event>
<event>
 5   0  0.1498375E-02  0.8214838E+03  0.7818609E-02  0.9529430E-01
        1   -1    0    0  501    0  0.00000000000E+00  0.00000000000E+00  0.45418419450E+03  0.45418419453E+03  0.50400001928E-02 0.  1.
       -1   -1    0    0    0  501  0.00000000000E+00  0.00000000000E+00 -0.37145484241E+03  0.37145484245E+03  0.50400001928E-02 0. -1.
    10030    2    1    2    0    0  0.00000000000E+00  0.00000000000E+00  0.82729352084E+02  0.82563903697E+03  0.82148382435E+03 0.  0.
        4    1    3    3  502    0  0.16484503149E+03 -0.31601436677E+03 -0.16379608799E+03  0.39226233027E+03  0.12699999809E+01 0. -1.
       -4    1    3    3    0  502 -0.16484503149E+03  0.31601436677E+03  0.24652544007E+03  0.43337670670E+03  0.12699999809E+01 0.  1.
</event>
<event>
 5   0  0.1523811E-02  0.7901729E+03  0.7818609E-02  0.9574351E-01
       -1   -1    0    0    0  501  0.00000000000E+00  0.00000000000E+00  0.28075771491E+03  0.28075771496E+03  0.50400001928E-02 0. -1.
        1   -1    0    0  501    0  0.00000000000E+00  0.00000000000E+00 -0.55597160637E+03  0.55597160639E+03  0.50400001928E-02 0.  1.
    10030    2    1    2    0    0  0.00000000000E+00  0.00000000000E+00 -0.27521389146E+03  0.83672932135E+03  0.79017293750E+03 0.  0.
        1    1    3    3  502    0 -0.28661329698E+03  0.98714945238E+02 -0.40591604937E+03  0.50661589156E+03  0.50400001928E-02 0.  1.
       -1    1    3    3    0  502  0.28661329698E+03 -0.98714945238E+02  0.13070215791E+03  0.33011342979E+03  0.50400001928E-02 0. -1.
</event>
<event>
 5   0  0.2422031E-02  0.7996949E+03  0.7818609E-02  0.9560459E-01
        2   -1    0    0  501    0  0.00000000000E+00  0.00000000000E+00  0.51397585111E+03  0.51397585112E+03  0.25500000920E-02 0. -1.
       -2   -1    0    0    0  501  0.00000000000E+00  0.00000000000E+00 -0.31106124572E+03  0.31106124573E+03  0.25500000920E-02 0.  1.
    10030    2    1    2    0    0  0.00000000000E+00  0.00000000000E+00  0.20291460540E+03  0.82503709685E+03  0.79969486311E+03 0.  0.
        4    1    3    3  502    0  0.31114689859E+03  0.54574595553E+02  0.35434883447E+03  0.47471621877E+03  0.12699999809E+01 0.  1.
       -4    1    3    3    0  502 -0.31114689859E+03 -0.54574595553E+02 -0.15143422907E+03  0.35032087807E+03  0.12699999809E+01 0. -1.
</event>
<event>
 5   0  0.2454354E-02  0.7979870E+03  0.7818609E-02  0.9562935E-01
        2   -1    0    0  501    0  0.00000000000E+00  0.00000000000E+00  0.11549997983E+04  0.11549997983E+04  0.25500000920E-02 0. -1.
       -2   -1    0    0    0  501  0.00000000000E+00  0.00000000000E+00 -0.13783188360E+03  0.13783188362E+03  0.25500000920E-02 0.  1.
    10030    2    1    2    0    0  0.00000000000E+00  0.00000000000E+00  0.10171679147E+04  0.12928316819E+04  0.79798696174E+03 0.  0.
        5    1    3    3  502    0 -0.65378369215E+02 -0.34441686616E+03  0.81715720785E+03  0.88919362413E+03  0.46999998093E+01 0.  1.
       -5    1    3    3    0  502  0.65378369215E+02  0.34441686616E+03  0.20001070687E+03  0.40363805781E+03  0.46999998093E+01 0. -1.
</event>
<event>
 5   0  0.1509629E-02  0.7985409E+03  0.7818609E-02  0.9562132E-01
        1   -1    0    0  501    0  0.00000000000E+00  0.00000000000E+00  0.57680815947E+03  0.57680815949E+03  0.50400001928E-02 0.  1.
       -1   -1    0    0    0  501  0.00000000000E+00  0.00000000000E+00 -0.27637765580E+03  0.27637765584E+03  0.50400001928E-02 0. -1.
    10030    2    1    2    0    0  0.00000000000E+00  0.00000000000E+00  0.30043050367E+03  0.85318581533E+03  0.79854088684E+03 0.  0.
        5    1    3    3  502    0 -0.49990046666E+02 -0.38828140226E+03  0.23389014405E+03  0.45605716922E+03  0.46999998093E+01 0. -1.
       -5    1    3    3    0  502  0.49990046666E+02  0.38828140226E+03  0.66540359620E+02  0.39712864612E+03  0.46999998093E+01 0.  1.
</event>
<event>
 5   0  0.2571778E-02  0.7904930E+03  0.7818609E-02  0.9573881E-01
       -2   -1    0    0    0  501  0.00000000000E+00  0.00000000000E+00  0.18771507094E+03  0.18771507095E+03  0.25500000920E-02 0. -1.
        2   -1    0    0  501    0  0.00000000000E+00  0.00000000000E+00 -0.83221762296E+03  0.83221762296E+03  0.25500000920E-02 0.  1.
    10030    2    1    2    0    0  0.00000000000E+00  0.00000000000E+00 -0.64450255202E+03  0.10199326939E+04  0.79049298577E+03 0.  0.
        1    1    3    3  502    0  0.15446002162E+03  0.22470425295E+03  0.46926541030E+02  0.27668032068E+03  0.50400001928E-02 0. -1.
       -1    1    3    3    0  502 -0.15446002162E+03 -0.22470425295E+03 -0.69142909305E+03  0.74325237324E+03  0.50400001928E-02 0.  1.
</event>
<event>
 5   0  0.2460312E-02  0.8047777E+03  0.7818609E-02  0.9553127E-01
        2   -1    0    0  501    0  0.00000000000E+00  0.00000000000E+00  0.50213223896E+03  0.50213223897E+03  0.25500000920E-02 0.  1.
       -2   -1    0    0    0  501  0.00000000000E+00  0.00000000000E+00 -0.32245843147E+03  0.32245843148E+03  0.25500000920E-02 0. -1.
    10030    2    1    2    0    0  0.00000000000E+00  0.00000000000E+00  0.17967380749E+03  0.82459067045E+03  0.80477766911E+03 0.  0.
        2    1    3    3  502    0  0.10238860311E+02 -0.83637115160E+02 -0.31331758991E+03  0.32445017098E+03  0.25500000920E-02 0. -1.
       -2    1    3    3    0  502 -0.10238860311E+02  0.83637115160E+02  0.49299139740E+03  0.50014049947E+03  0.25500000920E-02 0.  1.
</event>
<event>
 5   0  0.2460312E-02  0.7979872E+03  0.7818609E-02  0.9562935E-01
       -2   -1    0    0    0  501  0.00000000000E+00  0.00000000000E+00  0.14060570229E+03  0.14060570232E+03  0.25500000920E-02 0. -1.
        2   -1    0    0  501    0  0.00000000000E+00  0.00000000000E+00 -0.11322150070E+04  0.11322150070E+04  0.25500000920E-02 0.  1.
    10030    2    1    2    0    0  0.00000000000E+00  0.00000000000E+00 -0.99160930474E+03  0.12728207094E+04  0.79798718342E+03 0.  0.
        2    1    3    3  502    0  0.28609239390E+03 -0.26112040975E+03 -0.34312050391E+03  0.51745956987E+03  0.25500000920E-02 0. -1.
       -2    1    3    3    0  502 -0.28609239390E+03  0.26112040975E+03 -0.64848880083E+03  0.75536113949E+03  0.25500000920E-02 0.  1.
</event>
<event>
 5   0  0.1498375E-02  0.8040917E+03  0.7818609E-02  0.9554113E-01
       -1   -1    0    0    0  501  0.00000000000E+00  0.00000000000E+00  0.15737306209E+04  0.15737306209E+04  0.50400001928E-02 0. -1.
        1   -1    0    0  501    0  0.00000000000E+00  0.00000000000E+00 -0.10271189916E+03  0.10271189928E+03  0.50400001928E-02 0.  1.
    10030    2    1    2    0    0  0.00000000000E+00  0.00000000000E+00  0.14710187218E+04  0.16764425202E+04  0.80409168866E+03 0.  0.
        4    1    3    3  502    0  0.72915763692E+02  0.39533880813E+03  0.72413452788E+03  0.82824024847E+03  0.12699999809E+01 0.  1.
       -4    1    3    3    0  502 -0.72915763692E+02 -0.39533880813E+03  0.74688419388E+03  0.84820227173E+03  0.12699999809E+01 0. -1.
</event>
<event>
 5   0  0.1523811E-02  0.8199752E+03  0.7818609E-02  0.9531546E-01
        1   -1    0    0  501    0  0.00000000000E+00  0.00000000000E+00  0.41569689804E+03  0.41569689807E+03  0.50400001928E-02 0.  1.
       -1   -1    0    0    0  501  0.00000000000E+00  0.00000000000E+00 -0.40435667711E+03  0.40435667714E+03  0.50400001928E-02 0. -1.
    10030    2    1    2    0    0  0.00000000000E+00  0.00000000000E+00  0.11340220927E+02  0.82005357521E+03  0.81997516158E+03 0.  0.
        1    1    3    3  502    0  0.21284859232E+03  0.31745615359E+02 -0.34332960463E+03  0.40520059821E+03  0.50400001928E-02 0. -1.
       -1    1    3    3    0  502 -0.21284859232E+03 -0.31745615359E+02  0.35466982555E+03  0.41485297701E+03  0.50400001928E-02 0.  1.
</event>
<event>
 5   0  0.2454354E-02  0.8029974E+03  0.7818609E-02  0.9555689E-01
       -2   -1    0    0    0  501  0.00000000000E+00  0.00000000000E+00  0.16020867903E+03  0.16020867905E+03  0.25500000920E-02 0.  1.
        2   -1    0    0  501    0  0.00000000000E+00  0.00000000000E+00 -0.10061952299E+04  0.10061952299E+04  0.25500000920E-02 0. -1.
    10030    2    1    2    0    0  0.00000000000E+00  0.00000000000E+00 -0.84598655086E+03  0.11664039089E+04  0.80299740633E+03 0.  0.
        5    1    3    3  502    0 -0.29671067200E+03  0.26015537776E+03 -0.53033631820E+03  0.66105729242E+03  0.46999998093E+01 0. -1.
       -5    1    3    3    0  502  0.29671067200E+03 -0.26015537776E+03 -0.31565023266E+03  0.50534661653E+03  0.46999998093E+01 0.  1.
</event>
<event>
 5   0  0.1509629E-02  0.6948655E+03  0.7818609E-02  0.9726053E-01
       -1   -1    0    0    0  501  0.00000000000E+00  0.00000000000E+00  0.59838158668E+03  0.59838158670E+03  0.50400001928E-02 0. -1.
        1   -1    0    0  501    0  0.00000000000E+00  0.00000000000E+00 -0.20172667972E+03  0.20172667978E+03  0.50400001928E-02 0.  1.
    10030    2    1    2    0    0  0.00000000000E+00  0.00000000000E+00  0.39665490696E+03  0.80010826649E+03  0.69486554302E+03 0.  0.
        5    1    3    3  502    0 -0.12428269736E+03 -0.32435980442E+03  0.19181696686E+03  0.39682654946E+03  0.46999998093E+01 0. -1.
       -5    1    3    3    0  502  0.12428269736E+03  0.32435980442E+03  0.20483794010E+03  0.40328171703E+03  0.46999998093E+01 0.  1.
</event>
<event>
 5   0  0.2460312E-02  0.8688031E+03  0.7818609E-02  0.9465442E-01
        2   -1    0    0  501    0  0.00000000000E+00  0.00000000000E+00  0.19480947392E+04  0.19480947392E+04  0.25500000920E-02 0.  1.
       -2   -1    0    0    0  501  0.00000000000E+00  0.00000000000E+00 -0.96866295260E+02  0.96866295294E+02  0.25500000920E-02 0. -1.
    10030    2    1    2    0    0  0.00000000000E+00  0.00000000000E+00  0.18512284440E+04  0.20449610345E+04  0.86880313130E+03 0.  0.
        2    1    3    3  502    0 -0.58842831228E+02 -0.37298026046E+03  0.42008552291E+03  0.56484387227E+03  0.25500000920E-02 0. -1.
       -2    1    3    3    0  502  0.58842831228E+02  0.37298026046E+03  0.14311429211E+04  0.14801171622E+04  0.25500000920E-02 0.  1.
</event>
<event>
 5   0  0.2422031E-02  0.8058533E+03  0.7818609E-02  0.9551583E-01
        2   -1    0    0  501    0  0.00000000000E+00  0.00000000000E+00  0.82468345886E+03  0.82468345887E+03  0.25500000920E-02 0.  1.
       -2   -1    0    0    0  501  0.00000000000E+00  0.00000000000E+00 -0.19686327260E+03  0.19686327262E+03  0.25500000920E-02 0. -1.
    10030    2    1    2    0    0  0.00000000000E+00  0.00000000000E+00  0.62782018626E+03  0.10215467315E+04  0.80585329827E+03 0.  0.
        4    1    3    3  502    0  0.14926852884E+01  0.26622361057E+03  0.69730297200E+03  0.74639820914E+03  0.12699999809E+01 0.  1.
       -4    1    3    3    0  502 -0.14926852884E+01 -0.26622361057E+03 -0.69482785745E+02  0.27514852235E+03  0.12699999809E+01 0. -1.
</event>
<event>
 5   0  0.1498375E-02  0.7814115E+03  0.7818609E-02  0.9587320E-01
       -1   -1    0    0    0  501  0.00000000000E+00  0.00000000000E+00  0.21931919914E+03  0.21931919919E+03  0.50400001928E-02 0.  1.
        1   -1    0    0  501    0  0.00000000000E+00  0.00000000000E+00 -0.69602190801E+03  0.69602190802E+03  0.50400001928E-02 0. -1.
    10030    2    1    2    0    0  0.00000000000E+00  0.00000000000E+00 -0.47670270887E+03  0.91534110722E+03  0.78141146006E+03 0.  0.
        4    1    3    3  502    0  0.17677096786E+03 -0.32945453162E+03 -0.37119540142E+03  0.52685472610E+03  0.12699999809E+01 0. -1.
       -4    1    3    3    0  502 -0.17677096786E+03  0.32945453162E+03 -0.10550730745E+03  0.38848638111E+03  0.12699999809E+01 0.  1.
</event>
<event>
 5   0  0.2454354E-02  0.7992794E+03  0.7818609E-02  0.9561061E-01
       -2   -1    0    0    0  501  0.00000000000E+00  0.00000000000E+00  0.30725672993E+03  0.30725672994E+03  0.25500000920E-02 0.  1.
        2   -1    0    0  501    0  0.00000000000E+00  0.00000000000E+00 -0.51979951348E+03  0.51979951349E+03  0.25500000920E-02 0. -1.
    10030    2    1    2    0    0  0.00000000000E+00  0.00000000000E+00 -0.21254278355E+03  0.82705624343E+03  0.79927942232E+03 0.  0.
        5    1    3    3  502    0 -0.56832712216E+02 -0.15390356625E+03 -0.48331552360E+03  0.51042359882E+03  0.46999998093E+01 0. -1.
       -5    1    3    3    0  502  0.56832712216E+02  0.15390356625E+03  0.27077274004E+03  0.31663264461E+03  0.46999998093E+01 0.  1.
</event>
<event>
 5   0  0.2464780E-02  0.8296701E+03  0.7818609E-02  0.9518037E-01
        2   -1    0    0  501    0  0.00000000000E+00  0.00000000000E+00  0.15066816364E+04  0.15066816364E+04  0.25500000920E-02 0.  1.
       -2   -1    0    0    0  501  0.00000000000E+00  0.00000000000E+00 -0.11421664987E+03  0.11421664990E+03  0.25500000920E-02 0. -1.
    10030    2    1    2    0    0  0.00000000000E+00  0.00000000000E+00  0.13924649865E+04  0.16208982863E+04  0.82967012471E+03 0.  0.
        3    1    3    3  502    0  0.16771705852E+02 -0.34300554486E+03  0.11508704393E+04  0.12010149342E+04  0.10100000352E+00 0.  1.
       -3    1    3    3    0  502 -0.16771705852E+02  0.34300554486E+03  0.24159454723E+03  0.41988335210E+03  0.10100000352E+00 0. -1.
</event>
<event>
 5   0  0.2422031E-02  0.7978010E+03  0.7818609E-02  0.9563206E-01
       -2   -1    0    0    0  501  0.00000000000E+00  0.00000000000E+00  0.16340437004E+03  0.16340437006E+03  0.25500000920E-02 0.  1.
        2   -1    0    0  501    0  0.00000000000E+00  0.00000000000E+00 -0.97379030780E+03  0.97379030781E+03  0.25500000920E-02 0. -1.
    10030    2    1    2    0    0  0.00000000000E+00  0.00000000000E+00 -0.81038593776E+03  0.11371946779E+04  0.79780095717E+03 0.  0.
        4    1    3    3  502    0  0.33984392442E+03 -0.20523865430E+03 -0.46045742051E+03  0.60797980821E+03  0.12699999809E+01 0.  1.
       -4    1    3    3    0  502 -0.33984392442E+03  0.20523865430E+03 -0.34992851724E+03  0.52921486966E+03  0.12699999809E+01 0. -1.
</event>
<event>
 5   0  0.1471290E-02  0.8016081E+03  0.7818609E-02  0.9557692E-01
        1   -1    0    0  501    0  0.00000000000E+00  0.00000000000E+00  0.34961592507E+03  0.34961592511E+03  0.50400001928E-02 0. -1.
       -1   -1    0    0    0  501  0.00000000000E+00  0.00000000000E+00 -0.45948679329E+03  0.45948679332E+03  0.50400001928E-02 0.  1.
    10030    2    1    2    0    0  0.00000000000E+00  0.00000000000E+00 -0.10987086822E+03  0.80910271843E+03  0.80160813449E+03 0.  0.
        2    1    3    3  502    0 -0.48994218844E+02 -0.39542409007E+03 -0.11133205832E+02  0.39860330251E+03  0.25500000920E-02 0. -1.
       -2    1    3    3    0  502  0.48994218844E+02  0.39542409007E+03 -0.98737662391E+02  0.41049941592E+03  0.25500000920E-02 0.  1.
</event>
<event>
 5   0  0.2464780E-02  0.8048313E+03  0.7818609E-02  0.9553050E-01
        2   -1    0    0  501    0  0.00000000000E+00  0.00000000000E+00  0.73572504520E+03  0.73572504520E+03  0.25500000920E-02 0. -1.
       -2   -1    0    0    0  501  0.00000000000E+00  0.00000000000E+00 -0.22010717352E+03  0.22010717354E+03  0.25500000920E-02 0.  1.
    10030    2    1    2    0    0  0.00000000000E+00  0.00000000000E+00  0.51561787167E+03  0.95583221874E+03  0.80483131201E+03 0.  0.
        3    1    3    3  502    0  0.35872999088E+03  0.11445284136E+03  0.89218650380E+02  0.38697110619E+03  0.10100000352E+00 0.  1.
       -3    1    3    3    0  502 -0.35872999088E+03 -0.11445284136E+03  0.42639922129E+03  0.56886111255E+03  0.10100000352E+00 0. -1.
</event>
<event>
 5   0  0.1624094E-02  0.7830829E+03  0.7818609E-02  0.9584832E-01
       -1   -1    0    0    0  501  0.00000000000E+00  0.00000000000E+00  0.93374971315E+03  0.93374971316E+03  0.50400001928E-02 0.  1.
        1   -1    0    0  501    0  0.00000000000E+00  0.00000000000E+00 -0.16418180010E+03  0.16418180018E+03  0.50400001928E-02 0. -1.
    10030    2    1    2    0    0  0.00000000000E+00  0.00000000000E+00  0.76956791304E+03  0.10979315133E+04  0.78308290442E+03 0.  0.
        3    1    3    3  502    0  0.37131283518E+03 -0.12013671115E+02  0.21143119949E+03  0.42745843328E+03  0.10100000352E+00 0. -1.
       -3    1    3    3    0  502 -0.37131283518E+03  0.12013671115E+02  0.55813671355E+03  0.67047308006E+03  0.10100000352E+00 0.  1.
</event>
<event>
 5   0  0.2422031E-02  0.7955728E+03  0.7818609E-02  0.9566447E-01
        2   -1    0    0  501    0  0.00000000000E+00  0.00000000000E+00  0.69601861392E+03  0.69601861392E+03  0.25500000920E-02 0.  1.
       -2   -1    0    0    0  501  0.00000000000E+00  0.00000000000E+00 -0.22734167708E+03  0.22734167710E+03  0.25500000920E-02 0. -1.
    10030    2    1    2    0    0  0.00000000000E+00  0.00000000000E+00  0.46867693683E+03  0.92336029102E+03  0.79557284765E+03 0.  0.
        4    1    3    3  502    0  0.28494838326E+03  0.60908121812E+02 -0.79946300983E+02  0.30215625820E+03  0.12699999809E+01 0. -1.
       -4    1    3    3    0  502 -0.28494838326E+03 -0.60908121812E+02  0.54862323782E+03  0.62120403283E+03  0.12699999809E+01 0.  1.
</event>
<event>
 5   0  0.1523811E-02  0.8253064E+03  0.7818609E-02  0.9524093E-01
       -1   -1    0    0    0  501  0.00000000000E+00  0.00000000000E+00  0.46656779229E+03  0.46656779231E+03  0.50400001928E-02 0.  1.
        1   -1    0    0  501    0  0.00000000000E+00  0.00000000000E+00 -0.36496876687E+03  0.36496876691E+03  0.50400001928E-02 0. -1.
    10030    2    1    2    0    0  0.00000000000E+00  0.00000000000E+00  0.10159902542E+03  0.83153655922E+03  0.82530642028E+03 0.  0.
        1    1    3    3  502    0  0.13288296966E+03  0.24323276969E+03  0.35882387853E+03  0.45340339622E+03  0.50400001928E-02 0.  1.
       -1    1    3    3    0  502 -0.13288296966E+03 -0.24323276969E+03 -0.25722485311E+03  0.37813316300E+03  0.50400001928E-02 0. -1.
</event>
<event>
 5   0  0.2454354E-02  0.7790709E+03  0.7818609E-02  0.9590815E-01
       -2   -1    0    0    0  501  0.00000000000E+00  0.00000000000E+00  0.17845652404E+03  0.17845652405E+03  0.25500000920E-02 0. -1.
        2   -1    0    0  501    0  0.00000000000E+00  0.00000000000E+00 -0.85027912629E+03  0.85027912629E+03  0.25500000920E-02 0.  1.
    10030    2    1    2    0    0  0.00000000000E+00  0.00000000000E+00 -0.67182260225E+03  0.10287356503E+04  0.77907087572E+03 0.  0.
        5    1    3    3  502    0  0.15266126807E+03  0.33358527615E+03 -0.50874177059E+03  0.62723590329E+03  0.46999998093E+01 0.  1.
       -5    1    3    3    0  502 -0.15266126807E+03 -0.33358527615E+03 -0.16308083167E+03  0.40149974706E+03  0.46999998093E+01 0. -1.
</event>
<event>
 5   0  0.1509629E-02  0.7999800E+03  0.7818609E-02  0.9560046E-01
       -1   -1    0    0    0  501  0.00000000000E+00  0.00000000000E+00  0.23032524973E+03  0.23032524979E+03  0.50400001928E-02 0.  1.
        1   -1    0    0  501    0  0.00000000000E+00  0.00000000000E+00 -0.69463515954E+03  0.69463515955E+03  0.50400001928E-02 0. -1.
    10030    2    1    2    0    0  0.00000000000E+00  0.00000000000E+00 -0.46430990981E+03  0.92496040934E+03  0.79998004131E+03 0.  0.
        5    1    3    3  502    0 -0.96141350749E+02  0.24268047882E+03  0.11822823814E+03  0.28659549964E+03  0.46999998093E+01 0.  1.
       -5    1    3    3    0  502  0.96141350749E+02 -0.24268047882E+03 -0.58253814794E+03  0.63836490970E+03  0.46999998093E+01 0. -1.
</event>
<event>
 5   0  0.1509629E-02  0.7841959E+03  0.7818609E-02  0.9583179E-01
        1   -1    0    0  501    0  0.00000000000E+00  0.00000000000E+00  0.29587996335E+03  0.29587996340E+03  0.50400001928E-02 0.  1.
       -1   -1    0    0    0  501  0.00000000000E+00  0.00000000000E+00 -0.51960535071E+03  0.51960535073E+03  0.50400001928E-02 0. -1.
    10030    2    1    2    0    0  0.00000000000E+00  0.00000000000E+00 -0.22372538735E+03  0.81548531413E+03  0.78419592489E+03 0.  0.
        5    1    3    3  502    0 -0.28568657412E+03 -0.19708399332E+02  0.16661599787E+03  0.33134305543E+03  0.46999998093E+01 0.  1.
       -5    1    3    3    0  502  0.28568657412E+03  0.19708399332E+02 -0.39034138522E+03  0.48414225870E+03  0.46999998093E+01 0. -1.
</event>
<event>
 5   0  0.2454354E-02  0.8126458E+03  0.7818609E-02  0.9541891E-01
        2   -1    0    0  501    0  0.00000000000E+00  0.00000000000E+00  0.28332799036E+03  0.28332799038E+03  0.25500000920E-02 0. -1.
       -2   -1    0    0    0  501  0.00000000000E+00  0.00000000000E+00 -0.58271083250E+03  0.58271083250E+03  0.25500000920E-02 0.  1.
    10030    2    1    2    0    0  0.00000000000E+00  0.00000000000E+00 -0.29938284213E+03  0.86603882288E+03  0.81264577558E+03 0.  0.
        5    1    3    3  502    0 -0.34140815948E+03  0.21584846269E+03 -0.10292043758E+03  0.41685104855E+03  0.46999998093E+01 0. -1.
       -5    1    3    3    0  502  0.34140815948E+03 -0.21584846269E+03 -0.19646240456E+03  0.44918777433E+03  0.46999998093E+01 0.  1.
</event>
<event>
 5   0  0.1498375E-02  0.8006984E+03  0.7818609E-02  0.9559007E-01
       -1   -1    0    0    0  501  0.00000000000E+00  0.00000000000E+00  0.38137318334E+03  0.38137318337E+03  0.50400001928E-02 0.  1.
        1   -1    0    0  501    0  0.00000000000E+00  0.00000000000E+00 -0.42026936370E+03  0.42026936373E+03  0.50400001928E-02 0. -1.
    10030    2    1    2    0    0  0.00000000000E+00  0.00000000000E+00 -0.38896180365E+02  0.80164254710E+03  0.80069835798E+03 0.  0.
        4    1    3    3  502    0  0.14703143262E+03  0.34694570401E+03  0.11594557769E+03  0.39425189104E+03  0.12699999809E+01 0. -1.
       -4    1    3    3    0  502 -0.14703143262E+03 -0.34694570401E+03 -0.15484175806E+03  0.40739065606E+03  0.12699999809E+01 0.  1.
</event>
<event>
 5   0  0.1498375E-02  0.8023508E+03  0.7818609E-02  0.9556621E-01
        1   -1    0    0  501    0  0.00000000000E+00  0.00000000000E+00  0.11010267410E+04  0.11010267410E+04  0.50400001928E-02 0. -1.
       -1   -1    0    0    0  501  0.00000000000E+00  0.00000000000E+00 -0.14617420727E+03  0.14617420736E+03  0.50400001928E-02 0.  1.
    10030    2    1    2    0    0  0.00000000000E+00  0.00000000000E+00  0.95485253368E+03  0.12472009483E+04  0.80235082379E+03 0.  0.
        4    1    3    3  502    0 -0.18240767173E+03  0.35665535661E+03  0.51092768297E+03  0.64924903714E+03  0.12699999809E+01 0.  1.
       -4    1    3    3    0  502  0.18240767173E+03 -0.35665535661E+03  0.44392485071E+03  0.59795191118E+03  0.12699999809E+01 0. -1.
</event>
<event>
 5   0  0.1509629E-02  0.7933083E+03  0.7818609E-02  0.9569754E-01
       -1   -1    0    0    0  501  0.00000000000E+00  0.00000000000E+00  0.13491980219E+03  0.13491980228E+03  0.50400001928E-02 0. -1.
        1   -1    0    0  501    0  0.00000000000E+00  0.00000000000E+00 -0.11661334839E+04  0.11661334839E+04  0.50400001928E-02 0.  1.
    10030    2    1    2    0    0  0.00000000000E+00  0.00000000000E+00 -0.10312136817E+04  0.13010532862E+04  0.79330826049E+03 0.  0.
        5    1    3    3  502    0  0.31538976596E+03  0.18235199008E+03 -0.25843253849E+03  0.44669051894E+03  0.46999998093E+01 0. -1.
       -5    1    3    3    0  502 -0.31538976596E+03 -0.18235199008E+03 -0.77278114318E+03  0.85436276722E+03  0.46999998093E+01 0.  1.
</event>
<event>
 5   0  0.1471290E-02  0.7989521E+03  0.7818609E-02  0.9561535E-01
        1   -1    0    0  501    0  0.00000000000E+00  0.00000000000E+00  0.46111072917E+03  0.46111072920E+03  0.50400001928E-02 0. -1.
       -1   -1    0    0    0  501  0.00000000000E+00  0.00000000000E+00 -0.34607979880E+03  0.34607979884E+03  0.50400001928E-02 0.  1.
    10030    2    1    2    0    0  0.00000000000E+00  0.00000000000E+00  0.11503093037E+03  0.80719052803E+03  0.79895208467E+03 0.  0.
        2    1    3    3  502    0  0.26560863942E+03 -0.20964135982E+03  0.27203403971E+03  0.43416582989E+03  0.25500000920E-02 0. -1.
       -2    1    3    3    0  502 -0.26560863942E+03  0.20964135982E+03 -0.15700310933E+03  0.37302469814E+03  0.25500000920E-02 0.  1.
</event>
<event>
 5   0  0.1498375E-02  0.7951475E+03  0.7818609E-02  0.9567068E-01
       -1   -1    0    0    0  501  0.00000000000E+00  0.00000000000E+00  0.34603452769E+03  0.34603452772E+03  0.50400001928E-02 0. -1.
        1   -1    0    0  501    0  0.00000000000E+00  0.00000000000E+00 -0.45678932539E+03  0.45678932541E+03  0.50400001928E-02 0.  1.
    10030    2    1    2    0    0  0.00000000000E+00  0.00000000000E+00 -0.11075479770E+03  0.80282385314E+03  0.79514747937E+03 0.  0.
        4    1    3    3  502    0  0.19591722956E+03 -0.34012805224E+03  0.84197367737E+01  0.39261069474E+03  0.12699999809E+01 0.  1.
       -4    1    3    3    0  502 -0.19591722956E+03  0.34012805224E+03 -0.11917453447E+03  0.41021315840E+03  0.12699999809E+01 0. -1.
</event>
<event>
 5   0  0.1498375E-02  0.7694559E+03  0.7818609E-02  0.9605312E-01
        1   -1    0    0  501    0  0.00000000000E+00  0.00000000000E+00  0.53250715379E+03  0.53250715381E+03  0.50400001928E-02 0. -1.
       -1   -1    0    0    0  501  0.00000000000E+00  0.00000000000E+00 -0.27795982119E+03  0.27795982123E+03  0.50400001928E-02 0.  1.
    10030    2    1    2    0    0  0.00000000000E+00  0.00000000000E+00  0.25454733260E+03  0.81046697505E+03  0.76945589419E+03 0.  0.
        4    1    3    3  502    0  0.49067993407E+02 -0.25113377760E+02 -0.27377686445E+03  0.27927358294E+03  0.12699999809E+01 0.  1.
       -4    1    3    3    0  502 -0.49067993407E+02  0.25113377760E+02  0.52832419706E+03  0.53119339210E+03  0.12699999809E+01 0. -1.
</event>
<event>
 5   0  0.1523811E-02  0.8959490E+03  0.7818609E-02  0.9430660E-01
       -1   -1    0    0    0  501  0.00000000000E+00  0.00000000000E+00  0.70343300565E+03  0.70343300567E+03  0.50400001928E-02 0. -1.
        1   -1    0    0  501    0  0.00000000000E+00  0.00000000000E+00 -0.28528823864E+03  0.28528823868E+03  0.50400001928E-02 0.  1.
    10030    2    1    2    0    0  0.00000000000E+00  0.00000000000E+00  0.41814476701E+03  0.98872124435E+03  0.89594902357E+03 0.  0.
        1    1    3    3  502    0 -0.24194202115E+03 -0.77625766719E+02 -0.19807408966E+03  0.32217238597E+03  0.50400001928E-02 0.  1.
       -1    1    3    3    0  502  0.24194202115E+03  0.77625766719E+02  0.61621885668E+03  0.66654885838E+03  0.50400001928E-02 0. -1.
</event>
<event>
 5   0  0.2460312E-02  0.8019488E+03  0.7818609E-02  0.9557201E-01
        2   -1    0    0  501    0  0.00000000000E+00  0.00000000000E+00  0.96962233710E+03  0.96962233710E+03  0.25500000920E-02 0. -1.
       -2   -1    0    0    0  501  0.00000000000E+00  0.00000000000E+00 -0.16581760767E+03  0.16581760769E+03  0.25500000920E-02 0.  1.
    10030    2    1    2    0    0  0.00000000000E+00  0.00000000000E+00  0.80380472943E+03  0.11354399448E+04  0.80194876717E+03 0.  0.
        2    1    3    3  502    0 -0.21176238367E+02  0.28861624130E+03  0.79486845154E+03  0.84590993792E+03  0.25500000920E-02 0. -1.
       -2    1    3    3    0  502  0.21176238367E+02 -0.28861624130E+03  0.89362778962E+01  0.28953000687E+03  0.25500000920E-02 0.  1.
</event>
<event>
 5   0  0.1523811E-02  0.8013877E+03  0.7818609E-02  0.9558011E-01
       -1   -1    0    0    0  501  0.00000000000E+00  0.00000000000E+00  0.11306569709E+03  0.11306569721E+03  0.50400001928E-02 0.  1.
        1   -1    0    0  501    0  0.00000000000E+00  0.00000000000E+00 -0.14200200674E+04  0.14200200674E+04  0.50400001928E-02 0. -1.
    10030    2    1    2    0    0  0.00000000000E+00  0.00000000000E+00 -0.13069543703E+04  0.15330857646E+04  0.80138769370E+03 0.  0.
        1    1    3    3  502    0 -0.24792758820E+03 -0.30419152901E+03 -0.80836226560E+03  0.89858228771E+03  0.50400001928E-02 0. -1.
       -1    1    3    3    0  502  0.24792758820E+03  0.30419152901E+03 -0.49859210472E+03  0.63450347692E+03  0.50400001928E-02 0.  1.
</event>
<event>
 5   0  0.1498375E-02  0.8164204E+03  0.7818609E-02  0.9536549E-01
       -1   -1    0    0    0  501  0.00000000000E+00  0.00000000000E+00  0.12233183113E+03  0.12233183123E+03  0.50400001928E-02 0. -1.
        1   -1    0    0  501    0  0.00000000000E+00  0.00000000000E+00 -0.13621603912E+04  0.13621603912E+04  0.50400001928E-02 0.  1.
    10030    2    1    2    0    0  0.00000000000E+00  0.00000000000E+00 -0.12398285601E+04  0.14844922225E+04  0.81642041872E+03 0.  0.
        4    1    3    3  502    0 -0.26409411911E+03  0.30390375649E+03 -0.49752317796E+03  0.64002665762E+03  0.12699999809E+01 0. -1.
       -4    1    3    3    0  502  0.26409411911E+03 -0.30390375649E+03 -0.74230538212E+03  0.84446556483E+03  0.12699999809E+01 0.  1.
</event>
<event>
 5   0  0.2454354E-02  0.8394430E+03  0.7818609E-02  0.9504617E-01
        2   -1    0    0  501    0  0.00000000000E+00  0.00000000000E+00  0.35147978975E+03  0.35147978976E+03  0.25500000920E-02 0. -1.
       -2   -1    0    0    0  501  0.00000000000E+00  0.00000000000E+00 -0.50121266314E+03  0.50121266314E+03  0.25500000920E-02 0.  1.
    10030    2    1    2    0    0  0.00000000000E+00  0.00000000000E+00 -0.14973287339E+03  0.85269245290E+03  0.83944296165E+03 0.  0.
        5    1    3    3  502    0  0.92286457593E+02 -0.22175930980E+03  0.27473149188E+03  0.36495679795E+03  0.46999998093E+01 0. -1.
       -5    1    3    3    0  502 -0.92286457593E+02  0.22175930980E+03 -0.42446436526E+03  0.48773565496E+03  0.46999998093E+01 0.  1.
</event>
<event>
 5   0  0.2454354E-02  0.7904308E+03  0.7818609E-02  0.9573972E-01
        2   -1    0    0  501    0  0.00000000000E+00  0.00000000000E+00  0.15191534256E+04  0.15191534256E+04  0.25500000920E-02 0.  1.
       -2   -1    0    0    0  501  0.00000000000E+00  0.00000000000E+00 -0.10281727512E+03  0.10281727516E+03  0.25500000920E-02 0. -1.
    10030    2    1    2    0    0  0.00000000000E+00  0.00000000000E+00  0.14163361505E+04  0.16219707007E+04  0.79043080846E+03 0.  0.
        5    1    3    3  502    0 -0.36238555094E+03  0.13205986542E+03  0.88480810668E+03  0.96523083831E+03  0.46999998093E+01 0. -1.
       -5    1    3    3    0  502  0.36238555094E+03 -0.13205986542E+03  0.53152804377E+03  0.65673986242E+03  0.46999998093E+01 0.  1.
</event>
<event>
 5   0  0.1624094E-02  0.7968516E+03  0.7818609E-02  0.9564585E-01
       -1   -1    0    0    0  501  0.00000000000E+00  0.00000000000E+00  0.35612068882E+03  0.35612068886E+03  0.50400001928E-02 0. -1.
        1   -1    0    0  501    0  0.00000000000E+00  0.00000000000E+00 -0.44575655203E+03  0.44575655205E+03  0.50400001928E-02 0.  1.
    10030    2    1    2    0    0  0.00000000000E+00  0.00000000000E+00 -0.89635863203E+02  0.80187724091E+03  0.79685163081E+03 0.  0.
        3    1    3    3  502    0  0.15134030672E+03  0.31035494094E+03 -0.24486566162E+03  0.42330046096E+03  0.10100000352E+00 0.  1.
       -3    1    3    3    0  502 -0.15134030672E+03 -0.31035494094E+03  0.15522979842E+03  0.37857677996E+03  0.10100000352E+00 0. -1.
</event>
<event>
 5   0  0.1498375E-02  0.7996588E+03  0.7818609E-02  0.9560511E-01
        1   -1    0    0  501    0  0.00000000000E+00  0.00000000000E+00  0.37946572555E+03  0.37946572558E+03  0.50400001928E-02 0. -1.
       -1   -1    0    0    0  501  0.00000000000E+00  0.00000000000E+00 -0.42128588707E+03  0.42128588710E+03  0.50400001928E-02 0.  1.
    10030    2    1    2    0    0  0.00000000000E+00  0.00000000000E+00 -0.41820161518E+02  0.80075161268E+03  0.79965881431E+03 0.  0.
        4    1    3    3  502    0  0.24575290719E+03 -0.20559576131E+03 -0.26039759861E+03  0.41288331369E+03  0.12699999809E+01 0. -1.
       -4    1    3    3    0  502 -0.24575290719E+03  0.20559576131E+03  0.21857743709E+03  0.38786829900E+03  0.12699999809E+01 0.  1.
</event>
<event>
 5   0  0.1471290E-02  0.7411287E+03  0.7818609E-02  0.9649372E-01
        1   -1    0    0  501    0  0.00000000000E+00  0.00000000000E+00  0.75948376275E+03  0.75948376276E+03  0.50400001928E-02 0. -1.
       -1   -1    0    0    0  501  0.00000000000E+00  0.00000000000E+00 -0.18080432459E+03  0.18080432466E+03  0.50400001928E-02 0.  1.
    10030    2    1    2    0    0  0.00000000000E+00  0.00000000000E+00  0.57867943815E+03  0.94028808742E+03  0.74112873052E+03 0.  0.
        2    1    3    3  502    0  0.15230025341E+03 -0.25799006299E+03  0.56603715924E+03  0.64043134327E+03  0.25500000920E-02 0. -1.
       -2    1    3    3    0  502 -0.15230025341E+03  0.25799006299E+03  0.12642278917E+02  0.29985674416E+03  0.25500000920E-02 0.  1.
</event>
<event>
 5   0  0.2422031E-02  0.8069080E+03  0.7818609E-02  0.9550072E-01
       -2   -1    0    0    0  501  0.00000000000E+00  0.00000000000E+00  0.38637386453E+03  0.38637386454E+03  0.25500000920E-02 0. -1.
        2   -1    0    0  501    0  0.00000000000E+00  0.00000000000E+00 -0.42128914041E+03  0.42128914042E+03  0.25500000920E-02 0.  1.
    10030    2    1    2    0    0  0.00000000000E+00  0.00000000000E+00 -0.34915275878E+02  0.80766300496E+03  0.80690795825E+03 0.  0.
        4    1    3    3  502    0 -0.25004492363E+03  0.10684203005E+03  0.28087463878E+03  0.39093459662E+03  0.12699999809E+01 0. -1.
       -4    1    3    3    0  502  0.25004492363E+03 -0.10684203005E+03 -0.31578991466E+03  0.41672840834E+03  0.12699999809E+01 0.  1.
</event>
<event>
 5   0  0.1509629E-02  0.9353706E+03  0.7818609E-02  0.9382415E-01
       -1   -1    0    0    0  501  0.00000000000E+00  0.00000000000E+00  0.39808993265E+03  0.39808993268E+03  0.50400001928E-02 0. -1.
        1   -1    0    0  501    0  0.00000000000E+00  0.00000000000E+00 -0.54944754820E+03  0.54944754822E+03  0.50400001928E-02 0.  1.
    10030    2    1    2    0    0  0.00000000000E+00  0.00000000000E+00 -0.15135761555E+03  0.94753748090E+03  0.93537059497E+03 0.  0.
        5    1    3    3  502    0 -0.10618593581E+03 -0.40449231923E+03 -0.28772904048E+03  0.50764119220E+03  0.46999998093E+01 0.  1.
       -5    1    3    3    0  502  0.10618593581E+03  0.40449231923E+03  0.13637142493E+03  0.43989628871E+03  0.46999998093E+01 0. -1.
</event>
<event>
 5   0  0.1624094E-02  0.7540459E+03  0.7818609E-02  0.9629024E-01
       -1   -1    0    0    0  501  0.00000000000E+00  0.00000000000E+00  0.39984116178E+03  0.39984116181E+03  0.50400001928E-02 0.  1.
        1   -1    0    0  501    0  0.00000000000E+00  0.00000000000E+00 -0.35550689503E+03  0.35550689506E+03  0.50400001928E-02 0. -1.
    10030    2    1    2    0    0  0.00000000000E+00  0.00000000000E+00  0.44334266749E+02  0.75534805687E+03  0.75404586055E+03 0.  0.
        3    1    3    3  502    0 -0.25640313757E+03 -0.19274261611E+03  0.22063549569E+03  0.38932289578E+03  0.10100000352E+00 0. -1.
       -3    1    3    3    0  502  0.25640313757E+03  0.19274261611E+03 -0.17630122894E+03  0.36602516109E+03  0.10100000352E+00 0.  1.
</event>
<event>
 5   0  0.2460312E-02  0.7902707E+03  0.7818609E-02  0.9574208E-01
       -2   -1    0    0    0  501  0.00000000000E+00  0.00000000000E+00  0.54849054396E+02  0.54849054455E+02  0.25500000920E-02 0. -1.
        2   -1    0    0  501    0  0.00000000000E+00  0.00000000000E+00 -0.28465753136E+04  0.28465753136E+04  0.25500000920E-02 0.  1.
    10030    2    1    2    0    0  0.00000000000E+00  0.00000000000E+00 -0.27917262592E+04  0.29014243681E+04  0.79027074932E+03 0.  0.
        2    1    3    3  502    0 -0.33369435465E+03  0.18768142363E+03 -0.17547579352E+04  0.17960377641E+04  0.25500000920E-02 0.  1.
       -2    1    3    3    0  502  0.33369435465E+03 -0.18768142363E+03 -0.10369683240E+04  0.11053866039E+04  0.25500000920E-02 0. -1.
</event>
<event>
 5   0  0.2454354E-02  0.7979180E+03  0.7818609E-02  0.9563036E-01
        2   -1    0    0  501    0  0.00000000000E+00  0.00000000000E+00  0.59492312023E+03  0.59492312023E+03  0.25500000920E-02 0. -1.
       -2   -1    0    0    0  501  0.00000000000E+00  0.00000000000E+00 -0.26754431490E+03  0.26754431491E+03  0.25500000920E-02 0.  1.
    10030    2    1    2    0    0  0.00000000000E+00  0.00000000000E+00  0.32737880533E+03  0.86246743515E+03  0.79791803746E+03 0.  0.
        5    1    3    3  502    0 -0.36854557690E+03  0.20081008401E+02  0.58834694716E-01  0.36912217843E+03  0.46999998093E+01 0.  1.
       -5    1    3    3    0  502  0.36854557690E+03 -0.20081008401E+02  0.32731997063E+03  0.49334525671E+03  0.46999998093E+01 0. -1.
</event>
<event>
 5   0  0.2464780E-02  0.9316757E+03  0.7818609E-02  0.9386829E-01
        2   -1    0    0  501    0  0.00000000000E+00  0.00000000000E+00  0.75845425820E+03  0.75845425820E+03  0.25500000920E-02 0. -1.
       -2   -1    0    0    0  501  0.00000000000E+00  0.00000000000E+00 -0.28611469612E+03  0.28611469613E+03  0.25500000920E-02 0.  1.
    10030    2    1    2    0    0  0.00000000000E+00  0.00000000000E+00  0.47233956208E+03  0.10445689543E+04  0.93167571528E+03 0.  0.
        3    1    3    3  502    0 -0.29869374003E+03  0.21719149536E+03  0.55450137083E+03  0.66622959739E+03  0.10100000352E+00 0. -1.
       -3    1    3    3    0  502  0.29869374003E+03 -0.21719149536E+03 -0.82161808752E+02  0.37833935694E+03  0.10100000352E+00 0.  1.
</event>
<event>
 5   0  0.9919125E-03  0.8009073E+03  0.7818609E-02  0.9558705E-01
       -4   -1    0    0    0  501  0.00000000000E+00  0.00000000000E+00  0.23776140908E+03  0.23776480090E+03  0.12699999809E+01 0. -1.
        4   -1    0    0  501    0  0.00000000000E+00  0.00000000000E+00 -0.67446195642E+03  0.67446315211E+03  0.12699999809E+01 0.  1.
    10030    2    1    2    0    0  0.00000000000E+00  0.00000000000E+00 -0.43670054734E+03  0.91222795302E+03  0.80090727941E+03 0.  0.
        1    1    3    3  502    0  0.24227262974E+03 -0.23895679288E+03 -0.45880126735E+03  0.57122235507E+03  0.50400001928E-02 0.  1.
       -1    1    3    3    0  502 -0.24227262974E+03  0.23895679288E+03  0.22100720004E+02  0.34100559795E+03  0.50400001928E-02 0. -1.
</event>
<event>
 5   0  0.2464780E-02  0.8020895E+03  0.7818609E-02  0.9556998E-01
        2   -1    0    0  501    0  0.00000000000E+00  0.00000000000E+00  0.12155066671E+04  0.12155066671E+04  0.25500000920E-02 0. -1.
       -2   -1    0    0    0  501  0.00000000000E+00  0.00000000000E+00 -0.13232087446E+03  0.13232087448E+03  0.25500000920E-02 0.  1.
    10030    2    1    2    0    0  0.00000000000E+00  0.00000000000E+00  0.10831857926E+04  0.13478275415E+04  0.80208953394E+03 0.  0.
        3    1    3    3  502    0  0.32525699570E+03  0.22775620555E+03  0.63623201923E+03  0.74997079604E+03  0.10100000352E+00 0. -1.
       -3    1    3    3    0  502 -0.32525699570E+03 -0.22775620555E+03  0.44695377338E+03  0.59785674551E+03  0.10100000352E+00 0.  1.
</event>
<event>
 5   0  0.1509629E-02  0.7849523E+03  0.7818609E-02  0.9582057E-01
        1   -1    0    0  501    0  0.00000000000E+00  0.00000000000E+00  0.68373215490E+03  0.68373215491E+03  0.50400001928E-02 0. -1.
       -1   -1    0    0    0  501  0.00000000000E+00  0.00000000000E+00 -0.22528928672E+03  0.22528928678E+03  0.50400001928E-02 0.  1.
    10030    2    1    2    0    0  0.00000000000E+00  0.00000000000E+00  0.45844286817E+03  0.90902144169E+03  0.78495230306E+03 0.  0.
        5    1    3    3  502    0  0.65440950341E+01  0.30816628878E+03 -0.52084898678E+02  0.31264070974E+03  0.46999998093E+01 0.  1.
       -5    1    3    3    0  502 -0.65440950341E+01 -0.30816628878E+03  0.51052776685E+03  0.59638073195E+03  0.46999998093E+01 0. -1.
</event>
<event>
 5   0  0.1624094E-02  0.7857692E+03  0.7818609E-02  0.9580847E-01
        1   -1    0    0  501    0  0.00000000000E+00  0.00000000000E+00  0.29824674177E+03  0.29824674181E+03  0.50400001928E-02 0.  1.
       -1   -1    0    0    0  501  0.00000000000E+00  0.00000000000E+00 -0.51755236897E+03  0.51755236900E+03  0.50400001928E-02 0. -1.
    10030    2    1    2    0    0  0.00000000000E+00  0.00000000000E+00 -0.21930562720E+03  0.81579911080E+03  0.78576919707E+03 0.  0.
        3    1    3    3  502    0 -0.12859050691E+03 -0.19829790615E+03  0.21618983633E+03  0.32030553162E+03  0.10100000352E+00 0.  1.
       -3    1    3    3    0  502  0.12859050691E+03  0.19829790615E+03 -0.43549546354E+03  0.49549357918E+03  0.10100000352E+00 0. -1.
</event>
<event>
 5   0  0.9919125E-03  0.8082301E+03  0.7818609E-02  0.9548180E-01
        3   -1    0    0  501    0  0.00000000000E+00  0.00000000000E+00  0.32722953218E+03  0.32722954776E+03  0.10100000352E+00 0.  1.
       -3   -1    0    0    0  501  0.00000000000E+00  0.00000000000E+00 -0.49906553460E+03  0.49906554482E+03  0.10100000352E+00 0. -1.
    10030    2    1    2    0    0  0.00000000000E+00  0.00000000000E+00 -0.17183600243E+03  0.82629509259E+03  0.80823014563E+03 0.  0.
        1    1    3    3  502    0 -0.38159774575E+03  0.12725824844E+03 -0.46355640849E+02  0.40492017339E+03  0.50400001928E-02 0.  1.
       -1    1    3    3    0  502  0.38159774575E+03 -0.12725824844E+03 -0.12548036158E+03  0.42137491919E+03  0.50400001928E-02 0. -1.
</event>
<event>
 5   0  0.1498375E-02  0.8011647E+03  0.7818609E-02  0.9558333E-01
       -1   -1    0    0    0  501  0.00000000000E+00  0.00000000000E+00  0.11921247165E+03  0.11921247176E+03  0.50400001928E-02 0.  1.
        1   -1    0    0  501    0  0.00000000000E+00  0.00000000000E+00 -0.13460524238E+04  0.13460524238E+04  0.50400001928E-02 0. -1.
    10030    2    1    2    0    0  0.00000000000E+00  0.00000000000E+00 -0.12268399522E+04  0.14652648956E+04  0.80116474336E+03 0.  0.
        4    1    3    3  502    0  0.97686024082E+00  0.34068583909E+03 -0.99878321983E+03  0.10552901631E+04  0.12699999809E+01 0.  1.
       -4    1    3    3    0  502 -0.97686024082E+00 -0.34068583909E+03 -0.22805673234E+03  0.40997473249E+03  0.12699999809E+01 0. -1.
</event>
<event>
 5   0  0.2422031E-02  0.7983856E+03  0.7818609E-02  0.9562357E-01
        2   -1    0    0  501    0  0.00000000000E+00  0.00000000000E+00  0.32479187913E+03  0.32479187914E+03  0.25500000920E-02 0.  1.
       -2   -1    0    0    0  501  0.00000000000E+00  0.00000000000E+00 -0.49063699174E+03  0.49063699174E+03  0.25500000920E-02 0. -1.
    10030    2    1    2    0    0  0.00000000000E+00  0.00000000000E+00 -0.16584511261E+03  0.81542887088E+03  0.79838564747E+03 0.  0.
        4    1    3    3  502    0  0.12203042837E+03 -0.13806814633E+02  0.30501627329E+03  0.32881391919E+03  0.12699999809E+01 0.  1.
       -4    1    3    3    0  502 -0.12203042837E+03  0.13806814633E+02 -0.47086138590E+03  0.48661495169E+03  0.12699999809E+01 0. -1.
</event>
<event>
 5   0  0.1498375E-02  0.8017734E+03  0.7818609E-02  0.9557454E-01
       -1   -1    0    0    0  501  0.00000000000E+00  0.00000000000E+00  0.54116300037E+03  0.54116300039E+03  0.50400001928E-02 0.  1.
        1   -1    0    0  501    0  0.00000000000E+00  0.00000000000E+00 -0.29697181895E+03  0.29697181900E+03  0.50400001928E-02 0. -1.
    10030    2    1    2    0    0  0.00000000000E+00  0.00000000000E+00  0.24419118141E+03  0.83813481938E+03  0.80177343582E+03 0.  0.
        4    1    3    3  502    0 -0.24452723262E+03  0.26324309663E+02 -0.20884022873E+03  0.32264902108E+03  0.12699999809E+01 0. -1.
       -4    1    3    3    0  502  0.24452723262E+03 -0.26324309663E+02  0.45303141015E+03  0.51548579830E+03  0.12699999809E+01 0.  1.
</event>
<event>
 5   0  0.2454354E-02  0.6720118E+03  0.7818609E-02  0.9766330E-01
        2   -1    0    0  501    0  0.00000000000E+00  0.00000000000E+00  0.96649969156E+03  0.96649969157E+03  0.25500000920E-02 0. -1.
       -2   -1    0    0    0  501  0.00000000000E+00  0.00000000000E+00 -0.11681325411E+03  0.11681325414E+03  0.25500000920E-02 0.  1.
    10030    2    1    2    0    0  0.00000000000E+00  0.00000000000E+00  0.84968643745E+03  0.10833129457E+04  0.67201182753E+03 0.  0.
        5    1    3    3  502    0  0.20644029913E+03  0.25215841989E+03  0.29312410966E+03  0.43834381425E+03  0.46999998093E+01 0.  1.
       -5    1    3    3    0  502 -0.20644029913E+03 -0.25215841989E+03  0.55656232779E+03  0.64496913146E+03  0.46999998093E+01 0. -1.
</event>
<event>
 5   0  0.1624094E-02  0.8012191E+03  0.7818609E-02  0.9558254E-01
        1   -1    0    0  501    0  0.00000000000E+00  0.00000000000E+00  0.75358689347E+03  0.75358689348E+03  0.50400001928E-02 0. -1.
       -1   -1    0    0    0  501  0.00000000000E+00  0.00000000000E+00 -0.21296551449E+03  0.21296551455E+03  0.50400001928E-02 0.  1.
    10030    2    1    2    0    0  0.00000000000E+00  0.00000000000E+00  0.54062137898E+03  0.96655240804E+03  0.80121912238E+03 0.  0.
        3    1    3    3  502    0  0.19640375345E+03 -0.79464537884E+02 -0.13984720090E+03  0.25386275219E+03  0.10100000352E+00 0.  1.
       -3    1    3    3    0  502 -0.19640375345E+03  0.79464537884E+02  0.68046857988E+03  0.71268965584E+03  0.10100000352E+00 0. -1.
</event>
<event>
 5   0  0.2460312E-02  0.7975325E+03  0.7818609E-02  0.9563596E-01
        2   -1    0    0  501    0  0.00000000000E+00  0.00000000000E+00  0.11753447521E+04  0.11753447521E+04  0.25500000920E-02 0. -1.
       -2   -1    0    0    0  501  0.00000000000E+00  0.00000000000E+00 -0.13529180207E+03  0.13529180210E+03  0.25500000920E-02 0.  1.
    10030    2    1    2    0    0  0.00000000000E+00  0.00000000000E+00  0.10400529501E+04  0.13106365542E+04  0.79753246852E+03 0.  0.
        2    1    3    3  502    0 -0.22617825103E+03 -0.85254875303E+02  0.10412334991E+04  0.10689210423E+04  0.25500000920E-02 0. -1.
       -2    1    3    3    0  502  0.22617825103E+03  0.85254875303E+02 -0.11805490543E+01  0.24171551192E+03  0.25500000920E-02 0.  1.
</event>
<event>
 5   0  0.2422031E-02  0.7268225E+03  0.7818609E-02  0.9672431E-01
       -2   -1    0    0    0  501  0.00000000000E+00  0.00000000000E+00  0.31185557146E+03  0.31185557147E+03  0.25500000920E-02 0. -1.
        2   -1    0    0  501    0  0.00000000000E+00  0.00000000000E+00 -0.42349010194E+03  0.42349010195E+03  0.25500000920E-02 0.  1.
    10030    2    1    2    0    0  0.00000000000E+00  0.00000000000E+00 -0.11163453048E+03  0.73534567342E+03  0.72682253062E+03 0.  0.
        4    1    3    3  502    0  0.52137840049E+02 -0.20884349504E+03  0.24041685637E+03  0.32270084833E+03  0.12699999809E+01 0. -1.
       -4    1    3    3    0  502 -0.52137840049E+02  0.20884349504E+03 -0.35205138686E+03  0.41264482509E+03  0.12699999809E+01 0.  1.
</event>
<event>
 5   0  0.2460312E-02  0.8053403E+03  0.7818609E-02  0.9552319E-01
       -2   -1    0    0    0  501  0.00000000000E+00  0.00000000000E+00  0.46659562127E+03  0.46659562128E+03  0.25500000920E-02 0. -1.
        2   -1    0    0  501    0  0.00000000000E+00  0.00000000000E+00 -0.34750269556E+03  0.34750269557E+03  0.25500000920E-02 0.  1.
    10030    2    1    2    0    0  0.00000000000E+00  0.00000000000E+00  0.11909292571E+03  0.81409831685E+03  0.80534026631E+03 0.  0.
        2    1    3    3  502    0 -0.32624583383E+03 -0.23413651688E+03  0.29440313346E+02  0.40264498592E+03  0.25500000920E-02 0.  1.
       -2    1    3    3    0  502  0.32624583383E+03  0.23413651688E+03  0.89652612367E+02  0.41145333094E+03  0.25500000920E-02 0. -1.
</event>
<event>
 5   0  0.1498375E-02  0.8316330E+03  0.7818609E-02  0.9515326E-01
       -1   -1    0    0    0  501  0.00000000000E+00  0.00000000000E+00  0.79748837373E+02  0.79748837532E+02  0.50400001928E-02 0.  1.
        1   -1    0    0  501    0  0.00000000000E+00  0.00000000000E+00 -0.21680989150E+04  0.21680989151E+04  0.50400001928E-02 0. -1.
    10030    2    1    2    0    0  0.00000000000E+00  0.00000000000E+00 -0.20883500777E+04  0.22478477526E+04  0.83163301515E+03 0.  0.
        4    1    3    3  502    0 -0.30757041405E+03 -0.15887098655E+03 -0.42154822796E+03  0.54547600438E+03  0.12699999809E+01 0.  1.
       -4    1    3    3    0  502  0.30757041405E+03  0.15887098655E+03 -0.16668018497E+04  0.17023717482E+04  0.12699999809E+01 0. -1.
</event>
<event>
 5   0  0.2454354E-02  0.8132944E+03  0.7818609E-02  0.9540971E-01
        2   -1    0    0  501    0  0.00000000000E+00  0.00000000000E+00  0.29015675571E+03  0.29015675572E+03  0.25500000920E-02 0. -1.
       -2   -1    0    0    0  501  0.00000000000E+00  0.00000000000E+00 -0.56990553811E+03  0.56990553812E+03  0.25500000920E-02 0.  1.
    10030    2    1    2    0    0  0.00000000000E+00  0.00000000000E+00 -0.27974878240E+03  0.86006229384E+03  0.81329439198E+03 0.  0.
        5    1    3    3  502    0  0.38290852158E+03 -0.91496259926E+02 -0.24745615961E+03  0.46502380842E+03  0.46999998093E+01 0.  1.
       -5    1    3    3    0  502 -0.38290852158E+03  0.91496259926E+02 -0.32292622794E+02  0.39503848542E+03  0.46999998093E+01 0. -1.
</event>
<event>
 5   0  0.1471290E-02  0.8094312E+03  0.7818609E-02  0.9546465E-01
        1   -1    0    0  501    0  0.00000000000E+00  0.00000000000E+00  0.16430559176E+03  0.16430559184E+03  0.50400001928E-02 0. -1.
       -1   -1    0    0    0  501  0.00000000000E+00  0.00000000000E+00 -0.99689071457E+03  0.99689071458E+03  0.50400001928E-02 0.  1.
    10030    2    1    2    0    0  0.00000000000E+00  0.00000000000E+00 -0.83258512281E+03  0.11611963064E+04  0.80943120482E+03 0.  0.
        2    1    3    3  502    0 -0.33583741324E+03  0.15296781849E+03 -0.65466138107E+03  0.75151011004E+03  0.25500000920E-02 0.  1.
       -2    1    3    3    0  502  0.33583741324E+03 -0.15296781849E+03 -0.17792374174E+03  0.40968619638E+03  0.25500000920E-02 0. -1.
</event>
<event>
 5   0  0.1498375E-02  0.8027014E+03  0.7818609E-02  0.9556115E-01
       -1   -1    0    0    0  501  0.00000000000E+00  0.00000000000E+00  0.14966280590E+03  0.14966280599E+03  0.50400001928E-02 0.  1.
        1   -1    0    0  501    0  0.00000000000E+00  0.00000000000E+00 -0.10763019284E+04  0.10763019284E+04  0.50400001928E-02 0. -1.
    10030    2    1    2    0    0  0.00000000000E+00  0.00000000000E+00 -0.92663912247E+03  0.12259647344E+04  0.80270135582E+03 0.  0.
        4    1    3    3  502    0  0.13803595534E+03 -0.29332287579E+03 -0.82470734875E+03  0.88613546279E+03  0.12699999809E+01 0. -1.
       -4    1    3    3    0  502 -0.13803595534E+03  0.29332287579E+03 -0.10193177372E+03  0.33982927158E+03  0.12699999809E+01 0.  1.
</event>
<event>
 5   0  0.1509629E-02  0.8219266E+03  0.7818609E-02  0.9528811E-01
        1   -1    0    0  501    0  0.00000000000E+00  0.00000000000E+00  0.50575647629E+03  0.50575647631E+03  0.50400001928E-02 0. -1.
       -1   -1    0    0    0  501  0.00000000000E+00  0.00000000000E+00 -0.33393707161E+03  0.33393707165E+03  0.50400001928E-02 0.  1.
    10030    2    1    2    0    0  0.00000000000E+00  0.00000000000E+00  0.17181940467E+03  0.83969354796E+03  0.82192660662E+03 0.  0.
        5    1    3    3  502    0  0.46495891637E+02 -0.33781093923E+02 -0.32978355796E+03  0.33478697010E+03  0.46999998093E+01 0.  1.
       -5    1    3    3    0  502 -0.46495891637E+02  0.33781093923E+02  0.50160296264E+03  0.50490657786E+03  0.46999998093E+01 0. -1.
</event>
<event>
 5   0  0.1471290E-02  0.7895820E+03  0.7818609E-02  0.9575220E-01
       -1   -1    0    0    0  501  0.00000000000E+00  0.00000000000E+00  0.29005633912E+03  0.29005633916E+03  0.50400001928E-02 0.  1.
        1   -1    0    0  501    0  0.00000000000E+00  0.00000000000E+00 -0.53734368729E+03  0.53734368731E+03  0.50400001928E-02 0. -1.
    10030    2    1    2    0    0  0.00000000000E+00  0.00000000000E+00 -0.24728734817E+03  0.82740002647E+03  0.78958202312E+03 0.  0.
        2    1    3    3  502    0  0.22215163532E+03 -0.23555799303E+03 -0.36034073805E+03  0.48444232336E+03  0.25500000920E-02 0. -1.
       -2    1    3    3    0  502 -0.22215163532E+03  0.23555799303E+03  0.11305338987E+03  0.34295770312E+03  0.25500000920E-02 0.  1.
</event>
<event>
 5   0  0.2571778E-02  0.8498157E+03  0.7818609E-02  0.9490584E-01
        2   -1    0    0  501    0  0.00000000000E+00  0.00000000000E+00  0.17040233988E+04  0.17040233988E+04  0.25500000920E-02 0.  1.
       -2   -1    0    0    0  501  0.00000000000E+00  0.00000000000E+00 -0.10595317299E+03  0.10595317302E+03  0.25500000920E-02 0. -1.
    10030    2    1    2    0    0  0.00000000000E+00  0.00000000000E+00  0.15980702258E+04  0.18099765718E+04  0.84981571174E+03 0.  0.
        1    1    3    3  502    0 -0.14109830445E+02 -0.19650677437E+03 -0.27965585494E+01  0.19703253653E+03  0.50400001928E-02 0. -1.
       -1    1    3    3    0  502  0.14109830445E+02  0.19650677437E+03  0.16008667844E+04  0.16129440353E+04  0.50400001928E-02 0.  1.
</event>
<event>
 5   0  0.1498375E-02  0.7745825E+03  0.7818609E-02  0.9597555E-01
       -1   -1    0    0    0  501  0.00000000000E+00  0.00000000000E+00  0.31539870135E+03  0.31539870139E+03  0.50400001928E-02 0. -1.
        1   -1    0    0  501    0  0.00000000000E+00  0.00000000000E+00 -0.47557110815E+03  0.47557110818E+03  0.50400001928E-02 0.  1.
    10030    2    1    2    0    0  0.00000000000E+00  0.00000000000E+00 -0.16017240680E+03  0.79096980956E+03  0.77458249382E+03 0.  0.
        4    1    3    3  502    0  0.28015622615E+03 -0.12736639177E+03  0.16001192271E+03  0.34686472451E+03  0.12699999809E+01 0. -1.
       -4    1    3    3    0  502 -0.28015622615E+03  0.12736639177E+03 -0.32018432951E+03  0.44410508505E+03  0.12699999809E+01 0.  1.
</event>
<event>
 5   0  0.2464780E-02  0.7760334E+03  0.7818609E-02  0.9595371E-01
        2   -1    0    0  501    0  0.00000000000E+00  0.00000000000E+00  0.38503871740E+03  0.38503871741E+03  0.25500000920E-02 0.  1.
       -2   -1    0    0    0  501  0.00000000000E+00  0.00000000000E+00 -0.39101766468E+03  0.39101766469E+03  0.25500000920E-02 0. -1.
    10030    2    1    2    0    0  0.00000000000E+00  0.00000000000E+00 -0.59789472803E+01  0.77605638211E+03  0.77603335005E+03 0.  0.
        3    1    3    3  502    0  0.23429644319E+03 -0.28998611216E+03 -0.11055735063E+03  0.38885692293E+03  0.10100000352E+00 0. -1.
       -3    1    3    3    0  502 -0.23429644319E+03  0.28998611216E+03  0.10457840335E+03  0.38719945917E+03  0.10100000352E+00 0.  1.
</event>
<event>
 5   0  0.2571778E-02  0.8005092E+03  0.7818609E-02  0.9559280E-01
       -2   -1    0    0    0  501  0.00000000000E+00  0.00000000000E+00  0.93997952650E+03  0.93997952650E+03  0.25500000920E-02 0.  1.
        2   -1    0    0  501    0  0.00000000000E+00  0.00000000000E+00 -0.17043323710E+03  0.17043323712E+03  0.25500000920E-02 0. -1.
    10030    2    1    2    0    0  0.00000000000E+00  0.00000000000E+00  0.76954628940E+03  0.11104127636E+04  0.80050922173E+03 0.  0.
        1    1    3    3  502    0  0.95262248540E+02 -0.22610553980E+03 -0.53888105533E+02  0.25120218762E+03  0.50400001928E-02 0. -1.
       -1    1    3    3    0  502 -0.95262248540E+02  0.22610553980E+03  0.82343439493E+03  0.85921057600E+03  0.50400001928E-02 0.  1.
</event>
<event>
 5   0  0.2571778E-02  0.7932398E+03  0.7818609E-02  0.9569854E-01
        2   -1    0    0  501    0  0.00000000000E+00  0.00000000000E+00  0.13384957945E+04  0.13384957946E+04  0.25500000920E-02 0.  1.
       -2   -1    0    0    0  501  0.00000000000E+00  0.00000000000E+00 -0.11752545958E+03  0.11752545961E+03  0.25500000920E-02 0. -1.
    10030    2    1    2    0    0  0.00000000000E+00  0.00000000000E+00  0.12209703350E+04  0.14560212542E+04  0.79323977062E+03 0.  0.
        1    1    3    3  502    0 -0.37858540381E+03 -0.91847929809E+02  0.74716041035E+03  0.84262187784E+03  0.50400001928E-02 0. -1.
       -1    1    3    3    0  502  0.37858540381E+03  0.91847929809E+02  0.47380992461E+03  0.61339937632E+03  0.50400001928E-02 0.  1.
</event>
<event>
 5   0  0.2454354E-02  0.8024897E+03  0.7818609E-02  0.9556420E-01
        2   -1    0    0  501    0  0.00000000000E+00  0.00000000000E+00  0.83612088562E+03  0.83612088562E+03  0.25500000920E-02 0. -1.
       -2   -1    0    0    0  501  0.00000000000E+00  0.00000000000E+00 -0.19255282880E+03  0.19255282881E+03  0.25500000920E-02 0.  1.
    10030    2    1    2    0    0  0.00000000000E+00  0.00000000000E+00  0.64356805682E+03  0.10286737144E+04  0.80248973016E+03 0.  0.
        5    1    3    3  502    0 -0.14761013960E+03  0.37306585542E+03  0.31805430747E+03  0.51200343582E+03  0.46999998093E+01 0.  1.
       -5    1    3    3    0  502  0.14761013960E+03 -0.37306585542E+03  0.32551374935E+03  0.51667027862E+03  0.46999998093E+01 0. -1.
</event>
<event>
 5   0  0.1509629E-02  0.8065436E+03  0.7818609E-02  0.9550593E-01
        1   -1    0    0  501    0  0.00000000000E+00  0.00000000000E+00  0.15389516821E+04  0.15389516821E+04  0.50400001928E-02 0. -1.
       -1   -1    0    0    0  501  0.00000000000E+00  0.00000000000E+00 -0.10567463414E+03  0.10567463426E+03  0.50400001928E-02 0.  1.
    10030    2    1    2    0    0  0.00000000000E+00  0.00000000000E+00  0.14332770480E+04  0.16446263164E+04  0.80654362827E+03 0.  0.
        5    1    3    3  502    0  0.89522330143E+02 -0.47389684305E+02 -0.79254962315E+02  0.12869914072E+03  0.46999998093E+01 0.  1.
       -5    1    3    3    0  502 -0.89522330143E+02  0.47389684305E+02  0.15125320103E+04  0.15159271757E+04  0.46999998093E+01 0. -1.
</event>
<event>
 5   0  0.2464780E-02  0.7998641E+03  0.7818609E-02  0.9560214E-01
        2   -1    0    0  501    0  0.00000000000E+00  0.00000000000E+00  0.72649867202E+03  0.72649867203E+03  0.25500000920E-02 0. -1.
       -2   -1    0    0    0  501  0.00000000000E+00  0.00000000000E+00 -0.22015955800E+03  0.22015955802E+03  0.25500000920E-02 0.  1.
    10030    2    1    2    0    0  0.00000000000E+00  0.00000000000E+00  0.50633911402E+03  0.94665823004E+03  0.79986405477E+03 0.  0.
        3    1    3    3  502    0  0.38118719339E+03 -0.81528401850E+02  0.35899446213E+03  0.52993168499E+03  0.10100000352E+00 0. -1.
       -3    1    3    3    0  502 -0.38118719339E+03  0.81528401850E+02  0.14734465189E+03  0.41672654505E+03  0.10100000352E+00 0.  1.
</event>
<event>
 5   0  0.1471290E-02  0.8052154E+03  0.7818609E-02  0.9552499E-01
       -1   -1    0    0    0  501  0.00000000000E+00  0.00000000000E+00  0.96560934478E+02  0.96560934609E+02  0.50400001928E-02 0. -1.
        1   -1    0    0  501    0  0.00000000000E+00  0.00000000000E+00 -0.16786597047E+04  0.16786597047E+04  0.50400001928E-02 0.  1.
    10030    2    1    2    0    0  0.00000000000E+00  0.00000000000E+00 -0.15820987702E+04  0.17752206393E+04  0.80521537461E+03 0.  0.
        2    1    3    3  502    0 -0.31707226651E+03 -0.81134806052E+02 -0.13079701390E+04  0.13482965414E+04  0.25500000920E-02 0.  1.
       -2    1    3    3    0  502  0.31707226651E+03  0.81134806052E+02 -0.27412863120E+03  0.42692409793E+03  0.25500000920E-02 0. -1.
</event>
<event>
 5   0  0.1523811E-02  0.8574111E+03  0.7818609E-02  0.9480444E-01
       -1   -1    0    0    0  501  0.00000000000E+00  0.00000000000E+00  0.30800418035E+03  0.30800418039E+03  0.50400001928E-02 0.  1.
        1   -1    0    0  501    0  0.00000000000E+00  0.00000000000E+00 -0.59670762364E+03  0.59670762366E+03  0.50400001928E-02 0. -1.
    10030    2    1    2    0    0  0.00000000000E+00  0.00000000000E+00 -0.28870344329E+03  0.90471180405E+03  0.85741108590E+03 0.  0.
        1    1    3    3  502    0 -0.15078178781E+03  0.40007825166E+03 -0.17756329981E+03  0.46295408029E+03  0.50400001928E-02 0. -1.
       -1    1    3    3    0  502  0.15078178781E+03 -0.40007825166E+03 -0.11114014348E+03  0.44175772377E+03  0.50400001928E-02 0.  1.
</event>
<event>
 5   0  0.1624094E-02  0.8040622E+03  0.7818609E-02  0.9554156E-01
        1   -1    0    0  501    0  0.00000000000E+00  0.00000000000E+00  0.82893314917E+03  0.82893314918E+03  0.50400001928E-02 0.  1.
       -1   -1    0    0    0  501  0.00000000000E+00  0.00000000000E+00 -0.19498438955E+03  0.19498438961E+03  0.50400001928E-02 0. -1.
    10030    2    1    2    0    0  0.00000000000E+00  0.00000000000E+00  0.63394875962E+03  0.10239175388E+04  0.80406224662E+03 0.  0.
        3    1    3    3  502    0 -0.88924877657E+02 -0.42925954003E+02  0.81325099040E+03  0.81922369044E+03  0.10100000352E+00 0.  1.
       -3    1    3    3    0  502  0.88924877657E+02  0.42925954003E+02 -0.17930223078E+03  0.20469384836E+03  0.10100000352E+00 0. -1.
</event>
<event>
 5   0  0.1624094E-02  0.7967510E+03  0.7818609E-02  0.9564732E-01
       -1   -1    0    0    0  501  0.00000000000E+00  0.00000000000E+00  0.28255719549E+03  0.28255719554E+03  0.50400001928E-02 0.  1.
        1   -1    0    0  501    0  0.00000000000E+00  0.00000000000E+00 -0.56166693100E+03  0.56166693102E+03  0.50400001928E-02 0. -1.
    10030    2    1    2    0    0  0.00000000000E+00  0.00000000000E+00 -0.27910973551E+03  0.84422412656E+03  0.79675098457E+03 0.  0.
        3    1    3    3  502    0 -0.87470231315E+02  0.19401469658E+03 -0.49638486750E+03  0.54008396638E+03  0.10100000352E+00 0. -1.
       -3    1    3    3    0  502  0.87470231315E+02 -0.19401469658E+03  0.21727513199E+03  0.30414016018E+03  0.10100000352E+00 0.  1.
</event>
<event>
 5   0  0.2460312E-02  0.7986594E+03  0.7818609E-02  0.9561960E-01
        2   -1    0    0  501    0  0.00000000000E+00  0.00000000000E+00  0.58301622719E+03  0.58301622720E+03  0.25500000920E-02 0.  1.
       -2   -1    0    0    0  501  0.00000000000E+00  0.00000000000E+00 -0.27351588352E+03  0.27351588353E+03  0.25500000920E-02 0. -1.
    10030    2    1    2    0    0  0.00000000000E+00  0.00000000000E+00  0.30950034368E+03  0.85653211073E+03  0.79865937293E+03 0.  0.
        2    1    3    3  502    0  0.16157000649E+03 -0.15244240689E+03  0.51064069828E+03  0.55686396648E+03  0.25500000920E-02 0.  1.
       -2    1    3    3    0  502 -0.16157000649E+03  0.15244240689E+03 -0.20114035461E+03  0.29966814425E+03  0.25500000920E-02 0. -1.
</event>
<event>
 5   0  0.1509629E-02  0.7742894E+03  0.7818609E-02  0.9597996E-01
       -1   -1    0    0    0  501  0.00000000000E+00  0.00000000000E+00  0.59030444441E+03  0.59030444443E+03  0.50400001928E-02 0.  1.
        1   -1    0    0  501    0  0.00000000000E+00  0.00000000000E+00 -0.25390458884E+03  0.25390458889E+03  0.50400001928E-02 0. -1.
    10030    2    1    2    0    0  0.00000000000E+00  0.00000000000E+00  0.33639985556E+03  0.84420903332E+03  0.77428937041E+03 0.  0.
        5    1    3    3  502    0  0.14142093709E+03  0.32080533108E+03  0.34716549240E+03  0.49341859613E+03  0.46999998093E+01 0. -1.
       -5    1    3    3    0  502 -0.14142093709E+03 -0.32080533108E+03 -0.10765636839E+02  0.35079043720E+03  0.46999998093E+01 0.  1.
</event>
<event>
 5   0  0.2454354E-02  0.7904944E+03  0.7818609E-02  0.9573879E-01
       -2   -1    0    0    0  501  0.00000000000E+00  0.00000000000E+00  0.25891459913E+03  0.25891459914E+03  0.25500000920E-02 0. -1.
        2   -1    0    0  501    0  0.00000000000E+00  0.00000000000E+00 -0.60336630716E+03  0.60336630716E+03  0.25500000920E-02 0.  1.
    10030    2    1    2    0    0  0.00000000000E+00  0.00000000000E+00 -0.34445170803E+03  0.86228090630E+03  0.79049439100E+03 0.  0.
        5    1    3    3  502    0  0.34038586087E+03 -0.16687207748E+03 -0.50320914360E+02  0.38244360230E+03  0.46999998093E+01 0. -1.
       -5    1    3    3    0  502 -0.34038586087E+03  0.16687207748E+03 -0.29413079367E+03  0.47983730400E+03  0.46999998093E+01 0.  1.
</event>
<event>
 5   0  0.9919125E-03  0.8152616E+03  0.7818609E-02  0.9538185E-01
       -4   -1    0    0    0  501  0.00000000000E+00  0.00000000000E+00  0.41981214521E+03  0.41981406619E+03  0.12699999809E+01 0. -1.
        4   -1    0    0  501    0  0.00000000000E+00  0.00000000000E+00 -0.39579911091E+03  0.39580114843E+03  0.12699999809E+01 0.  1.
    10030    2    1    2    0    0  0.00000000000E+00  0.00000000000E+00  0.24013034299E+02  0.81561521462E+03  0.81526164665E+03 0.  0.
        1    1    3    3  502    0 -0.35515150849E+02 -0.34951043797E+03 -0.19482940564E+03  0.40171802239E+03  0.50400001928E-02 0.  1.
       -1    1    3    3    0  502  0.35515150849E+02  0.34951043797E+03  0.21884243994E+03  0.41389719223E+03  0.50400001928E-02 0. -1.
</event>
<event>
 5   0  0.2454354E-02  0.7985280E+03  0.7818609E-02  0.9562150E-01
        2   -1    0    0  501    0  0.00000000000E+00  0.00000000000E+00  0.46377250451E+03  0.46377250452E+03  0.25500000920E-02 0. -1.
       -2   -1    0    0    0  501  0.00000000000E+00  0.00000000000E+00 -0.34372827253E+03  0.34372827254E+03  0.25500000920E-02 0.  1.
    10030    2    1    2    0    0  0.00000000000E+00  0.00000000000E+00  0.12004423197E+03  0.80750077706E+03  0.79852795024E+03 0.  0.
        5    1    3    3  502    0  0.11373155743E+03  0.19532622540E+03 -0.27276915638E+03  0.35427715725E+03  0.46999998093E+01 0.  1.
       -5    1    3    3    0  502 -0.11373155743E+03 -0.19532622540E+03  0.39281338835E+03  0.45322361981E+03  0.46999998093E+01 0. -1.
</event>
<event>
 5   0  0.1523811E-02  0.7760239E+03  0.7818609E-02  0.9595385E-01
       -1   -1    0    0    0  501  0.00000000000E+00  0.00000000000E+00  0.14603163606E+03  0.14603163615E+03  0.50400001928E-02 0. -1.
        1   -1    0    0  501    0  0.00000000000E+00  0.00000000000E+00 -0.10309634744E+04  0.10309634744E+04  0.50400001928E-02 0.  1.
    10030    2    1    2    0    0  0.00000000000E+00  0.00000000000E+00 -0.88493183831E+03  0.11769951105E+04  0.77602392473E+03 0.  0.
        1    1    3    3  502    0  0.19601459326E+03  0.27402672034E+03 -0.15056166611E+03  0.36902734257E+03  0.50400001928E-02 0. -1.
       -1    1    3    3    0  502 -0.19601459326E+03 -0.27402672034E+03 -0.73437017219E+03  0.80796776796E+03  0.50400001928E-02 0.  1.
</event>
<event>
 5   0  0.1471290E-02  0.7965761E+03  0.7818609E-02  0.9564986E-01
       -1   -1    0    0    0  501  0.00000000000E+00  0.00000000000E+00  0.67384159674E+02  0.67384159862E+02  0.50400001928E-02 0.  1.
        1   -1    0    0  501    0  0.00000000000E+00  0.00000000000E+00 -0.23541643259E+04  0.23541643259E+04  0.50400001928E-02 0. -1.
    10030    2    1    2    0    0  0.00000000000E+00  0.00000000000E+00 -0.22867801662E+04  0.24215484857E+04  0.79657613589E+03 0.  0.
        2    1    3    3  502    0  0.36268826655E+03 -0.16004141294E+03 -0.12602344946E+04  0.13211158215E+04  0.25500000920E-02 0. -1.
       -2    1    3    3    0  502 -0.36268826655E+03  0.16004141294E+03 -0.10265456716E+04  0.11004326642E+04  0.25500000920E-02 0.  1.
</event>
<event>
 5   0  0.2571778E-02  0.7930277E+03  0.7818609E-02  0.9570164E-01
       -2   -1    0    0    0  501  0.00000000000E+00  0.00000000000E+00  0.28456007396E+03  0.28456007397E+03  0.25500000920E-02 0. -1.
        2   -1    0    0  501    0  0.00000000000E+00  0.00000000000E+00 -0.55251326595E+03  0.55251326596E+03  0.25500000920E-02 0.  1.
    10030    2    1    2    0    0  0.00000000000E+00  0.00000000000E+00 -0.26795319200E+03  0.83707333993E+03  0.79302765608E+03 0.  0.
        1    1    3    3  502    0  0.36429483168E+03  0.41327663486E+01 -0.29917945092E+03  0.47141929111E+03  0.50400001928E-02 0.  1.
       -1    1    3    3    0  502 -0.36429483168E+03 -0.41327663486E+01  0.31226258926E+02  0.36565404882E+03  0.50400001928E-02 0. -1.
</event>
<event>
 5   0  0.2571778E-02  0.8055364E+03  0.7818609E-02  0.9552038E-01
        2   -1    0    0  501    0  0.00000000000E+00  0.00000000000E+00  0.14670889747E+04  0.14670889747E+04  0.25500000920E-02 0. -1.
       -2   -1    0    0    0  501  0.00000000000E+00  0.00000000000E+00 -0.11057423328E+03  0.11057423331E+03  0.25500000920E-02 0.  1.
    10030    2    1    2    0    0  0.00000000000E+00  0.00000000000E+00  0.13565147414E+04  0.15776632080E+04  0.80553643879E+03 0.  0.
        1    1    3    3  502    0 -0.71983971761E+02  0.11837739821E+03 -0.62436301918E+02  0.15196444460E+03  0.50400001928E-02 0.  1.
       -1    1    3    3    0  502  0.71983971761E+02 -0.11837739821E+03  0.14189510433E+04  0.14256987634E+04  0.50400001928E-02 0. -1.
</event>
<event>
 5   0  0.1509629E-02  0.7718498E+03  0.7818609E-02  0.9601682E-01
        1   -1    0    0  501    0  0.00000000000E+00  0.00000000000E+00  0.26998755042E+04  0.26998755042E+04  0.50400001928E-02 0.  1.
       -1   -1    0    0    0  501  0.00000000000E+00  0.00000000000E+00 -0.55164781154E+02  0.55164781385E+02  0.50400001928E-02 0. -1.
    10030    2    1    2    0    0  0.00000000000E+00  0.00000000000E+00  0.26447107231E+04  0.27550402856E+04  0.77184983425E+03 0.  0.
        5    1    3    3  502    0  0.78588129041E+02  0.10081152402E+03  0.26220132854E+04  0.26251313903E+04  0.46999998093E+01 0.  1.
       -5    1    3    3    0  502 -0.78588129041E+02 -0.10081152402E+03  0.22697437621E+02  0.12990889529E+03  0.46999998093E+01 0. -1.
</event>
<event>
 5   0  0.1471290E-02  0.9739165E+03  0.7818609E-02  0.9337625E-01
       -1   -1    0    0    0  501  0.00000000000E+00  0.00000000000E+00  0.12623179753E+03  0.12623179763E+03  0.50400001928E-02 0.  1.
        1   -1    0    0  501    0  0.00000000000E+00  0.00000000000E+00 -0.18785152193E+04  0.18785152194E+04  0.50400001928E-02 0. -1.
    10030    2    1    2    0    0  0.00000000000E+00  0.00000000000E+00 -0.17522834218E+04  0.20047470170E+04  0.97391653223E+03 0.  0.
        2    1    3    3  502    0 -0.26328513419E+01  0.43314599784E+03 -0.13341429001E+04  0.14026972821E+04  0.25500000920E-02 0. -1.
       -2    1    3    3    0  502  0.26328513419E+01 -0.43314599784E+03 -0.41814052168E+03  0.60204973484E+03  0.25500000920E-02 0.  1.
</event>
<event>
 5   0  0.2454354E-02  0.7992008E+03  0.7818609E-02  0.9561175E-01
        2   -1    0    0  501    0  0.00000000000E+00  0.00000000000E+00  0.11311878341E+04  0.11311878341E+04  0.25500000920E-02 0. -1.
       -2   -1    0    0    0  501  0.00000000000E+00  0.00000000000E+00 -0.14116178195E+03  0.14116178197E+03  0.25500000920E-02 0.  1.
    10030    2    1    2    0    0  0.00000000000E+00  0.00000000000E+00  0.99002605215E+03  0.12723496161E+04  0.79920082682E+03 0.  0.
        5    1    3    3  502    0 -0.35347616250E+02  0.39709452581E+03  0.53787624628E+03  0.66952704404E+03  0.46999998093E+01 0.  1.
       -5    1    3    3    0  502  0.35347616250E+02 -0.39709452581E+03  0.45214980587E+03  0.60282257203E+03  0.46999998093E+01 0. -1.
</event>
<event>
 5   0  0.1509629E-02  0.7993808E+03  0.7818609E-02  0.9560914E-01
       -1   -1    0    0    0  501  0.00000000000E+00  0.00000000000E+00  0.24662130705E+03  0.24662130710E+03  0.50400001928E-02 0. -1.
        1   -1    0    0  501    0  0.00000000000E+00  0.00000000000E+00 -0.64776406932E+03  0.64776406934E+03  0.50400001928E-02 0.  1.
    10030    2    1    2    0    0  0.00000000000E+00  0.00000000000E+00 -0.40114276227E+03  0.89438537644E+03  0.79938081404E+03 0.  0.
        5    1    3    3  502    0 -0.31628426834E+03  0.16534857506E+02 -0.47330686653E+03  0.56951788367E+03  0.46999998093E+01 0.  1.
       -5    1    3    3    0  502  0.31628426834E+03 -0.16534857506E+02  0.72164104262E+02  0.32486749277E+03  0.46999998093E+01 0. -1.
</event>
<event>
 5   0  0.1471290E-02  0.8037245E+03  0.7818609E-02  0.9554642E-01
        1   -1    0    0  501    0  0.00000000000E+00  0.00000000000E+00  0.16186282187E+03  0.16186282195E+03  0.50400001928E-02 0. -1.
       -1   -1    0    0    0  501  0.00000000000E+00  0.00000000000E+00 -0.99771685471E+03  0.99771685472E+03  0.50400001928E-02 0.  1.
    10030    2    1    2    0    0  0.00000000000E+00  0.00000000000E+00 -0.83585403283E+03  0.11595796767E+04  0.80372449406E+03 0.  0.
        2    1    3    3  502    0 -0.31198978845E+03  0.98833378781E+02 -0.81459345865E+02  0.33725552612E+03  0.25500000920E-02 0. -1.
       -2    1    3    3    0  502  0.31198978845E+03 -0.98833378781E+02 -0.75439468697E+03  0.82232415056E+03  0.25500000920E-02 0.  1.
</event>
<event>
 5   0  0.2454354E-02  0.8059712E+03  0.7818609E-02  0.9551414E-01
        2   -1    0    0  501    0  0.00000000000E+00  0.00000000000E+00  0.93432822581E+03  0.93432822581E+03  0.25500000920E-02 0. -1.
       -2   -1    0    0    0  501  0.00000000000E+00  0.00000000000E+00 -0.17381191538E+03  0.17381191540E+03  0.25500000920E-02 0.  1.
    10030    2    1    2    0    0  0.00000000000E+00  0.00000000000E+00  0.76051631042E+03  0.11081401412E+04  0.80597116210E+03 0.  0.
        5    1    3    3  502    0 -0.58467807718E+02 -0.17952327824E+03 -0.10919576517E+03  0.21815796364E+03  0.46999998093E+01 0.  1.
       -5    1    3    3    0  502  0.58467807718E+02  0.17952327824E+03  0.86971207559E+03  0.88998217757E+03  0.46999998093E+01 0. -1.
</event>
<event>
 5   0  0.2571778E-02  0.7686165E+03  0.7818609E-02  0.9606588E-01
        2   -1    0    0  501    0  0.00000000000E+00  0.00000000000E+00  0.46635113237E+03  0.46635113237E+03  0.25500000920E-02 0.  1.
       -2   -1    0    0    0  501  0.00000000000E+00  0.00000000000E+00 -0.31669874639E+03  0.31669874640E+03  0.25500000920E-02 0. -1.
    10030    2    1    2    0    0  0.00000000000E+00  0.00000000000E+00  0.14965238598E+03  0.78304987877E+03  0.76861646874E+03 0.  0.
        1    1    3    3  502    0  0.33235855267E+03 -0.19286977611E+03  0.69075650174E+02  0.39042592580E+03  0.50400001928E-02 0. -1.
       -1    1    3    3    0  502 -0.33235855267E+03  0.19286977611E+03  0.80576735807E+02  0.39262395297E+03  0.50400001928E-02 0.  1.
</event>
<event>
 5   0  0.1471290E-02  0.7970007E+03  0.7818609E-02  0.9564369E-01
       -1   -1    0    0    0  501  0.00000000000E+00  0.00000000000E+00  0.13919136880E+03  0.13919136889E+03  0.50400001928E-02 0. -1.
        1   -1    0    0  501    0  0.00000000000E+00  0.00000000000E+00 -0.11408933661E+04  0.11408933661E+04  0.50400001928E-02 0.  1.
    10030    2    1    2    0    0  0.00000000000E+00  0.00000000000E+00 -0.10017019973E+04  0.12800847350E+04  0.79700065081E+03 0.  0.
        2    1    3    3  502    0 -0.14834102620E+02  0.82475345687E+02  0.12488005972E+03  0.15039036728E+03  0.25500000920E-02 0. -1.
       -2    1    3    3    0  502  0.14834102620E+02 -0.82475345687E+02 -0.11265820570E+04  0.11296943677E+04  0.25500000920E-02 0.  1.
</event>
<event>
 5   0  0.1509629E-02  0.8231962E+03  0.7818609E-02  0.9527035E-01
       -1   -1    0    0    0  501  0.00000000000E+00  0.00000000000E+00  0.14955826741E+03  0.14955826749E+03  0.50400001928E-02 0. -1.
        1   -1    0    0  501    0  0.00000000000E+00  0.00000000000E+00 -0.11327559262E+04  0.11327559262E+04  0.50400001928E-02 0.  1.
    10030    2    1    2    0    0  0.00000000000E+00  0.00000000000E+00 -0.98319765878E+03  0.12823141937E+04  0.82319624337E+03 0.  0.
        5    1    3    3  502    0 -0.18427880383E+03 -0.22815831554E+03 -0.41806884367E+02  0.29628499805E+03  0.46999998093E+01 0. -1.
       -5    1    3    3    0  502  0.18427880383E+03  0.22815831554E+03 -0.94139077442E+03  0.98602919564E+03  0.46999998093E+01 0.  1.
</event>
<event>
 5   0  0.1624094E-02  0.8230829E+03  0.7818609E-02  0.9527194E-01
        1   -1    0    0  501    0  0.00000000000E+00  0.00000000000E+00  0.25136592443E+04  0.25136592443E+04  0.50400001928E-02 0. -1.
       -1   -1    0    0    0  501  0.00000000000E+00  0.00000000000E+00 -0.67378409420E+02  0.67378409608E+02  0.50400001928E-02 0.  1.
    10030    2    1    2    0    0  0.00000000000E+00  0.00000000000E+00  0.24462808349E+04  0.25810376539E+04  0.82308289244E+03 0.  0.
        3    1    3    3  502    0  0.29093617638E+03  0.16423984525E+03  0.19767013246E+04  0.20047360730E+04  0.10100000352E+00 0. -1.
       -3    1    3    3    0  502 -0.29093617638E+03 -0.16423984525E+03  0.46957951030E+03  0.57630158093E+03  0.10100000352E+00 0.  1.
</event>
<event>
 5   0  0.1624094E-02  0.7383584E+03  0.7818609E-02  0.9653793E-01
        1   -1    0    0  501    0  0.00000000000E+00  0.00000000000E+00  0.13951186063E+04  0.13951186063E+04  0.50400001928E-02 0. -1.
       -1   -1    0    0    0  501  0.00000000000E+00  0.00000000000E+00 -0.97692959764E+02  0.97692959894E+02  0.50400001928E-02 0.  1.
    10030    2    1    2    0    0  0.00000000000E+00  0.00000000000E+00  0.12974256465E+04  0.14928115662E+04  0.73835835737E+03 0.  0.
        3    1    3    3  502    0 -0.91715260889E+02  0.71549967078E+02  0.13570989916E+04  0.13620751704E+04  0.10100000352E+00 0. -1.
       -3    1    3    3    0  502  0.91715260889E+02 -0.71549967078E+02 -0.59673345018E+02  0.13073639576E+03  0.10100000352E+00 0.  1.
</event>
<event>
 5   0  0.1509629E-02  0.7987639E+03  0.7818609E-02  0.9561808E-01
       -1   -1    0    0    0  501  0.00000000000E+00  0.00000000000E+00  0.31312489147E+03  0.31312489151E+03  0.50400001928E-02 0.  1.
        1   -1    0    0  501    0  0.00000000000E+00  0.00000000000E+00 -0.50940033781E+03  0.50940033783E+03  0.50400001928E-02 0. -1.
    10030    2    1    2    0    0  0.00000000000E+00  0.00000000000E+00 -0.19627544634E+03  0.82252522934E+03  0.79876385877E+03 0.  0.
        5    1    3    3  502    0  0.93586832036E+01 -0.82556467320E+02  0.30409795989E+03  0.31527894705E+03  0.46999998093E+01 0.  1.
       -5    1    3    3    0  502 -0.93586832036E+01  0.82556467320E+02 -0.50037340622E+03  0.50724628230E+03  0.46999998093E+01 0. -1.
</event>
<event>
 5   0  0.1498375E-02  0.7842504E+03  0.7818609E-02  0.9583098E-01
       -1   -1    0    0    0  501  0.00000000000E+00  0.00000000000E+00  0.32203570996E+03  0.32203571000E+03  0.50400001928E-02 0.  1.
        1   -1    0    0  501    0  0.00000000000E+00  0.00000000000E+00 -0.47746934629E+03  0.47746934631E+03  0.50400001928E-02 0. -1.
    10030    2    1    2    0    0  0.00000000000E+00  0.00000000000E+00 -0.15543363633E+03  0.79950505631E+03  0.78425041904E+03 0.  0.
        4    1    3    3  502    0 -0.48727227201E+02 -0.10139991234E+03 -0.46066194925E+03  0.47420178119E+03  0.12699999809E+01 0. -1.
       -4    1    3    3    0  502  0.48727227201E+02  0.10139991234E+03  0.30522831293E+03  0.32530327512E+03  0.12699999809E+01 0.  1.
</event>
<event>
 5   0  0.1624094E-02  0.8119227E+03  0.7818609E-02  0.9542918E-01
       -1   -1    0    0    0  501  0.00000000000E+00  0.00000000000E+00  0.83808746186E+02  0.83808746338E+02  0.50400001928E-02 0.  1.
        1   -1    0    0  501    0  0.00000000000E+00  0.00000000000E+00 -0.19664371713E+04  0.19664371714E+04  0.50400001928E-02 0. -1.
    10030    2    1    2    0    0  0.00000000000E+00  0.00000000000E+00 -0.18826284252E+04  0.20502459177E+04  0.81192274004E+03 0.  0.
        3    1    3    3  502    0 -0.33268670152E+03 -0.10394387307E+03 -0.41573916179E+03  0.54251620341E+03  0.10100000352E+00 0.  1.
       -3    1    3    3    0  502  0.33268670152E+03  0.10394387307E+03 -0.14668892634E+04  0.15077297143E+04  0.10100000352E+00 0. -1.
</event>
<event>
 5   0  0.2422031E-02  0.8149205E+03  0.7818609E-02  0.9538668E-01
       -2   -1    0    0    0  501  0.00000000000E+00  0.00000000000E+00  0.22033471258E+03  0.22033471260E+03  0.25500000920E-02 0.  1.
        2   -1    0    0  501    0  0.00000000000E+00  0.00000000000E+00 -0.75350741656E+03  0.75350741656E+03  0.25500000920E-02 0. -1.
    10030    2    1    2    0    0  0.00000000000E+00  0.00000000000E+00 -0.53317270398E+03  0.97384212916E+03  0.81492046254E+03 0.  0.
        4    1    3    3  502    0  0.92130708325E+02  0.39536742489E+03 -0.30830519621E+03  0.50976188068E+03  0.12699999809E+01 0.  1.
       -4    1    3    3    0  502 -0.92130708325E+02 -0.39536742489E+03 -0.22486750777E+03  0.46408024849E+03  0.12699999809E+01 0. -1.
</event>
<event>
 5   0  0.1624094E-02  0.7884416E+03  0.7818609E-02  0.9576900E-01
        1   -1    0    0  501    0  0.00000000000E+00  0.00000000000E+00  0.10159611509E+04  0.10159611509E+04  0.50400001928E-02 0. -1.
       -1   -1    0    0    0  501  0.00000000000E+00  0.00000000000E+00 -0.15296848420E+03  0.15296848428E+03  0.50400001928E-02 0.  1.
    10030    2    1    2    0    0  0.00000000000E+00  0.00000000000E+00  0.86299266668E+03  0.11689296352E+04  0.78844159533E+03 0.  0.
        3    1    3    3  502    0  0.14071037086E+03  0.33014193467E+03  0.18961756195E+03  0.40589153169E+03  0.10100000352E+00 0.  1.
       -3    1    3    3    0  502 -0.14071037086E+03 -0.33014193467E+03  0.67337510474E+03  0.76303810349E+03  0.10100000352E+00 0. -1.
</event>
<event>
 5   0  0.2464780E-02  0.8099208E+03  0.7818609E-02  0.9545767E-01
       -2   -1    0    0    0  501  0.00000000000E+00  0.00000000000E+00  0.67735434572E+02  0.67735434620E+02  0.25500000920E-02 0.  1.
        2   -1    0    0  501    0  0.00000000000E+00  0.00000000000E+00 -0.24210805150E+04  0.24210805150E+04  0.25500000920E-02 0. -1.
    10030    2    1    2    0    0  0.00000000000E+00  0.00000000000E+00 -0.23533450804E+04  0.24888159496E+04  0.80992083780E+03 0.  0.
        3    1    3    3  502    0  0.36683612121E+03 -0.11413823409E+03 -0.15701572216E+04  0.16164745550E+04  0.10100000352E+00 0. -1.
       -3    1    3    3    0  502 -0.36683612121E+03  0.11413823409E+03 -0.78318785885E+03  0.87234139462E+03  0.10100000352E+00 0.  1.
</event>
<event>
 5   0  0.2464780E-02  0.7896572E+03  0.7818609E-02  0.9575110E-01
       -2   -1    0    0    0  501  0.00000000000E+00  0.00000000000E+00  0.17303475402E+03  0.17303475404E+03  0.25500000920E-02 0.  1.
        2   -1    0    0  501    0  0.00000000000E+00  0.00000000000E+00 -0.90091513909E+03  0.90091513910E+03  0.25500000920E-02 0. -1.
    10030    2    1    2    0    0  0.00000000000E+00  0.00000000000E+00 -0.72788038507E+03  0.10739498931E+04  0.78965721550E+03 0.  0.
        3    1    3    3  502    0  0.41571179614E+02 -0.26214691319E+03 -0.76147684854E+03  0.80640942960E+03  0.10100000352E+00 0. -1.
       -3    1    3    3    0  502 -0.41571179614E+02  0.26214691319E+03  0.33596463473E+02  0.26754046354E+03  0.10100000352E+00 0.  1.
</event>
<event>
 5   0  0.9919125E-03  0.8129119E+03  0.7818609E-02  0.9541513E-01
       -4   -1    0    0    0  501  0.00000000000E+00  0.00000000000E+00  0.22190273186E+03  0.22190636608E+03  0.12699999809E+01 0. -1.
        4   -1    0    0  501    0  0.00000000000E+00  0.00000000000E+00 -0.74448906902E+03  0.74449015225E+03  0.12699999809E+01 0.  1.
    10030    2    1    2    0    0  0.00000000000E+00  0.00000000000E+00 -0.52258633716E+03  0.96639651833E+03  0.81291189611E+03 0.  0.
        2    1    3    3  502    0 -0.98183054324E+02 -0.33934760372E+03 -0.22316859834E+02  0.35396998538E+03  0.25500000920E-02 0. -1.
       -2    1    3    3    0  502  0.98183054324E+02  0.33934760372E+03 -0.50026947733E+03  0.61242653295E+03  0.25500000920E-02 0.  1.
</event>
<event>
 5   0  0.2454354E-02  0.8147444E+03  0.7818609E-02  0.9538917E-01
       -2   -1    0    0    0  501  0.00000000000E+00  0.00000000000E+00  0.68922595670E+02  0.68922595717E+02  0.25500000920E-02 0. -1.
        2   -1    0    0  501    0  0.00000000000E+00  0.00000000000E+00 -0.24078043808E+04  0.24078043808E+04  0.25500000920E-02 0.  1.
    10030    2    1    2    0    0  0.00000000000E+00  0.00000000000E+00 -0.23388817851E+04  0.24767269765E+04  0.81474444546E+03 0.  0.
        5    1    3    3  502    0 -0.36067238578E+03  0.65038747751E+02 -0.62892773822E+03  0.72793323765E+03  0.46999998093E+01 0. -1.
       -5    1    3    3    0  502  0.36067238578E+03 -0.65038747751E+02 -0.17099540469E+04  0.17487937389E+04  0.46999998093E+01 0.  1.
</event>
<event>
 5   0  0.1509629E-02  0.7965463E+03  0.7818609E-02  0.9565030E-01
        1   -1    0    0  501    0  0.00000000000E+00  0.00000000000E+00  0.57845849650E+03  0.57845849652E+03  0.50400001928E-02 0. -1.
       -1   -1    0    0    0  501  0.00000000000E+00  0.00000000000E+00 -0.27421416058E+03  0.27421416062E+03  0.50400001928E-02 0.  1.
    10030    2    1    2    0    0  0.00000000000E+00  0.00000000000E+00  0.30424433592E+03  0.85267265714E+03  0.79654632276E+03 0.  0.
        5    1    3    3  502    0  0.30947153932E+02  0.14784369124E+03 -0.24233104601E+03  0.28559045718E+03  0.46999998093E+01 0.  1.
       -5    1    3    3    0  502 -0.30947153932E+02 -0.14784369124E+03  0.54657538193E+03  0.56708219996E+03  0.46999998093E+01 0. -1.
</event>
<event>
 5   0  0.1471290E-02  0.8295420E+03  0.7818609E-02  0.9518214E-01
       -1   -1    0    0    0  501  0.00000000000E+00  0.00000000000E+00  0.30676868897E+03  0.30676868901E+03  0.50400001928E-02 0.  1.
        1   -1    0    0  501    0  0.00000000000E+00  0.00000000000E+00 -0.56079703186E+03  0.56079703188E+03  0.50400001928E-02 0. -1.
    10030    2    1    2    0    0  0.00000000000E+00  0.00000000000E+00 -0.25402834290E+03  0.86756572089E+03  0.82954197065E+03 0.  0.
        2    1    3    3  502    0 -0.19494196638E+03 -0.24447487196E+03  0.15799251642E+03  0.35033122688E+03  0.25500000920E-02 0.  1.
       -2    1    3    3    0  502  0.19494196638E+03  0.24447487196E+03 -0.41202085932E+03  0.51723449401E+03  0.25500000920E-02 0. -1.
</event>
<event>
 5   0  0.2454354E-02  0.7949442E+03  0.7818609E-02  0.9567364E-01
       -2   -1    0    0    0  501  0.00000000000E+00  0.00000000000E+00  0.99344455638E+02  0.99344455671E+02  0.25500000920E-02 0.  1.
        2   -1    0    0  501    0  0.00000000000E+00  0.00000000000E+00 -0.15902657254E+04  0.15902657254E+04  0.25500000920E-02 0. -1.
    10030    2    1    2    0    0  0.00000000000E+00  0.00000000000E+00 -0.14909212698E+04  0.16896101811E+04  0.79494423161E+03 0.  0.
        5    1    3    3  502    0 -0.34918173999E+03  0.94925642550E+02 -0.39606420289E+03  0.53649576696E+03  0.46999998093E+01 0.  1.
       -5    1    3    3    0  502  0.34918173999E+03 -0.94925642550E+02 -0.10948570669E+04  0.11531144141E+04  0.46999998093E+01 0. -1.
</event>
<event>
 5   0  0.2571778E-02  0.7887416E+03  0.7818609E-02  0.9576458E-01
       -2   -1    0    0    0  501  0.00000000000E+00  0.00000000000E+00  0.16267466459E+03  0.16267466461E+03  0.25500000920E-02 0.  1.
        2   -1    0    0  501    0  0.00000000000E+00  0.00000000000E+00 -0.95606978522E+03  0.95606978523E+03  0.25500000920E-02 0. -1.
    10030    2    1    2    0    0  0.00000000000E+00  0.00000000000E+00 -0.79339512064E+03  0.11187444498E+04  0.78874160952E+03 0.  0.
        1    1    3    3  502    0  0.16088054813E+03 -0.23905333184E+03 -0.14785824255E+02  0.28852671775E+03  0.50400001928E-02 0.  1.
       -1    1    3    3    0  502 -0.16088054813E+03  0.23905333184E+03 -0.77860929638E+03  0.83021773209E+03  0.50400001928E-02 0. -1.
</event>
<event>
 5   0  0.1471290E-02  0.7937443E+03  0.7818609E-02  0.9569116E-01
       -1   -1    0    0    0  501  0.00000000000E+00  0.00000000000E+00  0.49831812797E+03  0.49831812800E+03  0.50400001928E-02 0. -1.
        1   -1    0    0  501    0  0.00000000000E+00  0.00000000000E+00 -0.31607820629E+03  0.31607820633E+03  0.50400001928E-02 0.  1.
    10030    2    1    2    0    0  0.00000000000E+00  0.00000000000E+00  0.18223992168E+03  0.81439633433E+03  0.79374429152E+03 0.  0.
        2    1    3    3  502    0  0.46466394459E+01  0.32322856760E+03  0.32734766440E+03  0.46005955220E+03  0.25500000920E-02 0. -1.
       -2    1    3    3    0  502 -0.46466394459E+01 -0.32322856760E+03 -0.14510774272E+03  0.35433678213E+03  0.25500000920E-02 0.  1.
</event>
<event>
 5   0  0.2571778E-02  0.8079099E+03  0.7818609E-02  0.9548638E-01
        2   -1    0    0  501    0  0.00000000000E+00  0.00000000000E+00  0.14382437432E+04  0.14382437432E+04  0.25500000920E-02 0. -1.
       -2   -1    0    0    0  501  0.00000000000E+00  0.00000000000E+00 -0.11345754694E+03  0.11345754697E+03  0.25500000920E-02 0.  1.
    10030    2    1    2    0    0  0.00000000000E+00  0.00000000000E+00  0.13247861962E+04  0.15517012902E+04  0.80790991338E+03 0.  0.
        1    1    3    3  502    0 -0.31599549702E+03  0.14758882457E+03  0.10538638281E+04  0.11100741342E+04  0.50400001928E-02 0. -1.
       -1    1    3    3    0  502  0.31599549702E+03 -0.14758882457E+03  0.27092236814E+03  0.44162715593E+03  0.50400001928E-02 0.  1.
</event>
<event>
 5   0  0.1498375E-02  0.7843793E+03  0.7818609E-02  0.9582907E-01
        1   -1    0    0  501    0  0.00000000000E+00  0.00000000000E+00  0.14493017992E+04  0.14493017992E+04  0.50400001928E-02 0.  1.
       -1   -1    0    0    0  501  0.00000000000E+00  0.00000000000E+00 -0.10612884771E+03  0.10612884783E+03  0.50400001928E-02 0. -1.
    10030    2    1    2    0    0  0.00000000000E+00  0.00000000000E+00  0.13431729515E+04  0.15554306471E+04  0.78437932158E+03 0.  0.
        4    1    3    3  502    0 -0.12637334482E+03  0.79766123660E+02  0.13906238923E+04  0.13986312164E+04  0.12699999809E+01 0.  1.
       -4    1    3    3    0  502  0.12637334482E+03 -0.79766123660E+02 -0.47450940805E+02  0.15679943063E+03  0.12699999809E+01 0. -1.
</event>
<event>
 5   0  0.9919125E-03  0.8010609E+03  0.7818609E-02  0.9558483E-01
       -3   -1    0    0    0  501  0.00000000000E+00  0.00000000000E+00  0.26863460722E+03  0.26863462620E+03  0.10100000352E+00 0.  1.
        3   -1    0    0  501    0  0.00000000000E+00  0.00000000000E+00 -0.59718528218E+03  0.59718529072E+03  0.10100000352E+00 0. -1.
    10030    2    1    2    0    0  0.00000000000E+00  0.00000000000E+00 -0.32855067496E+03  0.86581991692E+03  0.80106091062E+03 0.  0.
        3    1    3    3  502    0 -0.19471300073E+03 -0.24566230717E+03 -0.43375303151E+03  0.53516803376E+03  0.10100000352E+00 0. -1.
       -3    1    3    3    0  502  0.19471300073E+03  0.24566230717E+03  0.10520235655E+03  0.33065188316E+03  0.10100000352E+00 0.  1.
</event>
<event>
 5   0  0.2464780E-02  0.7991693E+03  0.7818609E-02  0.9561220E-01
       -2   -1    0    0    0  501  0.00000000000E+00  0.00000000000E+00  0.29891511156E+03  0.29891511157E+03  0.25500000920E-02 0.  1.
        2   -1    0    0  501    0  0.00000000000E+00  0.00000000000E+00 -0.53415798142E+03  0.53415798143E+03  0.25500000920E-02 0. -1.
    10030    2    1    2    0    0  0.00000000000E+00  0.00000000000E+00 -0.23524286986E+03  0.83307309300E+03  0.79916930025E+03 0.  0.
        3    1    3    3  502    0  0.32916914356E+03  0.12806519494E+03 -0.31240373401E+03  0.47153909960E+03  0.10100000352E+00 0. -1.
       -3    1    3    3    0  502 -0.32916914356E+03 -0.12806519494E+03  0.77160864142E+02  0.36153399340E+03  0.10100000352E+00 0.  1.
</event>
<event>
 5   0  0.1498375E-02  0.7917039E+03  0.7818609E-02  0.9572104E-01
       -1   -1    0    0    0  501  0.00000000000E+00  0.00000000000E+00  0.34347978522E+03  0.34347978526E+03  0.50400001928E-02 0.  1.
        1   -1    0    0  501    0  0.00000000000E+00  0.00000000000E+00 -0.45620958347E+03  0.45620958350E+03  0.50400001928E-02 0. -1.
    10030    2    1    2    0    0  0.00000000000E+00  0.00000000000E+00 -0.11272979825E+03  0.79968936876E+03  0.79170390872E+03 0.  0.
        4    1    3    3  502    0 -0.31657212913E+03 -0.23522053264E+03 -0.90626711259E+02  0.40467446869E+03  0.12699999809E+01 0.  1.
       -4    1    3    3    0  502  0.31657212913E+03  0.23522053264E+03 -0.22103086990E+02  0.39501490006E+03  0.12699999809E+01 0. -1.
</event>
<event>
 5   0  0.2464780E-02  0.8606405E+03  0.7818609E-02  0.9476166E-01
        2   -1    0    0  501    0  0.00000000000E+00  0.00000000000E+00  0.12473576484E+04  0.12473576484E+04  0.25500000920E-02 0.  1.
       -2   -1    0    0    0  501  0.00000000000E+00  0.00000000000E+00 -0.14845423919E+03  0.14845423921E+03  0.25500000920E-02 0. -1.
    10030    2    1    2    0    0  0.00000000000E+00  0.00000000000E+00  0.10989034092E+04  0.13958118876E+04  0.86064053054E+03 0.  0.
        3    1    3    3  502    0 -0.94098466667E+02 -0.65945249855E+02  0.12220166856E+04  0.12274070586E+04  0.10100000352E+00 0.  1.
       -3    1    3    3    0  502  0.94098466667E+02  0.65945249855E+02 -0.12311327639E+03  0.16840482901E+03  0.10100000352E+00 0. -1.
</event>
<event>
 5   0  0.2422031E-02  0.8030972E+03  0.7818609E-02  0.9555545E-01
        2   -1    0    0  501    0  0.00000000000E+00  0.00000000000E+00  0.14439464553E+04  0.14439464553E+04  0.25500000920E-02 0.  1.
       -2   -1    0    0    0  501  0.00000000000E+00  0.00000000000E+00 -0.11166708547E+03  0.11166708550E+03  0.25500000920E-02 0. -1.
    10030    2    1    2    0    0  0.00000000000E+00  0.00000000000E+00  0.13322793699E+04  0.15556135408E+04  0.80309723514E+03 0.  0.
        4    1    3    3  502    0 -0.92114304759E+01 -0.37645826516E+03  0.39610800239E+03  0.54654262260E+03  0.12699999809E+01 0. -1.
       -4    1    3    3    0  502  0.92114304759E+01  0.37645826516E+03  0.93617136748E+03  0.10090709182E+04  0.12699999809E+01 0.  1.
</event>
<event>
 5   0  0.2460312E-02  0.8124555E+03  0.7818609E-02  0.9542161E-01
        2   -1    0    0  501    0  0.00000000000E+00  0.00000000000E+00  0.98436698996E+03  0.98436698996E+03  0.25500000920E-02 0.  1.
       -2   -1    0    0    0  501  0.00000000000E+00  0.00000000000E+00 -0.16764172321E+03  0.16764172323E+03  0.25500000920E-02 0. -1.
    10030    2    1    2    0    0  0.00000000000E+00  0.00000000000E+00  0.81672526675E+03  0.11520087132E+04  0.81245548427E+03 0.  0.
        2    1    3    3  502    0 -0.29629736287E+03 -0.69035588139E+02  0.26669663661E+02  0.30540024663E+03  0.25500000920E-02 0. -1.
       -2    1    3    3    0  502  0.29629736287E+03  0.69035588139E+02  0.79005560309E+03  0.84660846656E+03  0.25500000920E-02 0.  1.
</event>
<event>
 5   0  0.2460312E-02  0.8048727E+03  0.7818609E-02  0.9552991E-01
        2   -1    0    0  501    0  0.00000000000E+00  0.00000000000E+00  0.34597301324E+03  0.34597301325E+03  0.25500000920E-02 0. -1.
       -2   -1    0    0    0  501  0.00000000000E+00  0.00000000000E+00 -0.46811461593E+03  0.46811461593E+03  0.25500000920E-02 0.  1.
    10030    2    1    2    0    0  0.00000000000E+00  0.00000000000E+00 -0.12214160269E+03  0.81408762918E+03  0.80487272092E+03 0.  0.
        2    1    3    3  502    0  0.23870714493E+03 -0.32346204334E+03 -0.42250520342E+02  0.40422011453E+03  0.25500000920E-02 0. -1.
       -2    1    3    3    0  502 -0.23870714493E+03  0.32346204334E+03 -0.79891082347E+02  0.40986751465E+03  0.25500000920E-02 0.  1.
</event>
<event>
 5   0  0.1471290E-02  0.7988225E+03  0.7818609E-02  0.9561723E-01
        1   -1    0    0  501    0  0.00000000000E+00  0.00000000000E+00  0.48736809756E+03  0.48736809759E+03  0.50400001928E-02 0. -1.
       -1   -1    0    0    0  501  0.00000000000E+00  0.00000000000E+00 -0.32732828867E+03  0.32732828870E+03  0.50400001928E-02 0.  1.
    10030    2    1    2    0    0  0.00000000000E+00  0.00000000000E+00  0.16003980889E+03  0.81469638629E+03  0.79882254688E+03 0.  0.
        2    1    3    3  502    0  0.13823576809E+03  0.33037186084E+03 -0.10034077085E+03  0.37191795374E+03  0.25500000920E-02 0. -1.
       -2    1    3    3    0  502 -0.13823576809E+03 -0.33037186084E+03  0.26038057974E+03  0.44277843255E+03  0.25500000920E-02 0.  1.
</event>
<event>
 5   0  0.2460312E-02  0.8085060E+03  0.7818609E-02  0.9547786E-01
        2   -1    0    0  501    0  0.00000000000E+00  0.00000000000E+00  0.11770457158E+04  0.11770457158E+04  0.25500000920E-02 0.  1.
       -2   -1    0    0    0  501  0.00000000000E+00  0.00000000000E+00 -0.13883955584E+03  0.13883955587E+03  0.25500000920E-02 0. -1.
    10030    2    1    2    0    0  0.00000000000E+00  0.00000000000E+00  0.10382061600E+04  0.13158852717E+04  0.80850604057E+03 0.  0.
        2    1    3    3  502    0 -0.95508651832E+02 -0.66795151370E+01  0.11583269065E+04  0.11622769639E+04  0.25500000920E-02 0.  1.
       -2    1    3    3    0  502  0.95508651832E+02  0.66795151370E+01 -0.12012074647E+03  0.15360830784E+03  0.25500000920E-02 0. -1.
</event>
<event>
 5   0  0.2454354E-02  0.7666296E+03  0.7818609E-02  0.9609616E-01
        2   -1    0    0  501    0  0.00000000000E+00  0.00000000000E+00  0.87570877276E+03  0.87570877276E+03  0.25500000920E-02 0. -1.
       -2   -1    0    0    0  501  0.00000000000E+00  0.00000000000E+00 -0.16778435416E+03  0.16778435418E+03  0.25500000920E-02 0.  1.
    10030    2    1    2    0    0  0.00000000000E+00  0.00000000000E+00  0.70792441859E+03  0.10434931269E+04  0.76662958692E+03 0.  0.
        5    1    3    3  502    0 -0.27741086801E+03 -0.17173651829E+03  0.62774477531E+03  0.70748555769E+03  0.46999998093E+01 0. -1.
       -5    1    3    3    0  502  0.27741086801E+03  0.17173651829E+03  0.80179643279E+02  0.33600756926E+03  0.46999998093E+01 0.  1.
</event>
<event>
 5   0  0.2454354E-02  0.8513616E+03  0.7818609E-02  0.9488511E-01
        2   -1    0    0  501    0  0.00000000000E+00  0.00000000000E+00  0.43660544688E+03  0.43660544689E+03  0.25500000920E-02 0. -1.
       -2   -1    0    0    0  501  0.00000000000E+00  0.00000000000E+00 -0.41502952786E+03  0.41502952787E+03  0.25500000920E-02 0.  1.
    10030    2    1    2    0    0  0.00000000000E+00  0.00000000000E+00  0.21575919024E+02  0.85163497476E+03  0.85136162114E+03 0.  0.
        5    1    3    3  502    0  0.40234195389E+03 -0.36407112350E+02  0.14491134690E+03  0.42921546354E+03  0.46999998093E+01 0. -1.
       -5    1    3    3    0  502 -0.40234195389E+03  0.36407112350E+02 -0.12333542788E+03  0.42241951121E+03  0.46999998093E+01 0.  1.
</event>
<event>
 5   0  0.2464780E-02  0.8013763E+03  0.7818609E-02  0.9558027E-01
        2   -1    0    0  501    0  0.00000000000E+00  0.00000000000E+00  0.14568336568E+04  0.14568336568E+04  0.25500000920E-02 0.  1.
       -2   -1    0    0    0  501  0.00000000000E+00  0.00000000000E+00 -0.11020542689E+03  0.11020542692E+03  0.25500000920E-02 0. -1.
    10030    2    1    2    0    0  0.00000000000E+00  0.00000000000E+00  0.13466282299E+04  0.15670390837E+04  0.80137625390E+03 0.  0.
        3    1    3    3  502    0 -0.77491498949E+02 -0.14957563189E+02 -0.94856531832E+02  0.12339543321E+03  0.10100000352E+00 0. -1.
       -3    1    3    3    0  502  0.77491498949E+02  0.14957563189E+02  0.14414847618E+04  0.14436436505E+04  0.10100000352E+00 0.  1.
</event>
<event>
 5   0  0.1509629E-02  0.8122772E+03  0.7818609E-02  0.9542414E-01
        1   -1    0    0  501    0  0.00000000000E+00  0.00000000000E+00  0.82292570796E+03  0.82292570798E+03  0.50400001928E-02 0.  1.
       -1   -1    0    0    0  501  0.00000000000E+00  0.00000000000E+00 -0.20044164440E+03  0.20044164447E+03  0.50400001928E-02 0. -1.
    10030    2    1    2    0    0  0.00000000000E+00  0.00000000000E+00  0.62248406356E+03  0.10233673524E+04  0.81227724864E+03 0.  0.
        5    1    3    3  502    0 -0.17396388359E+03 -0.36382298021E+03  0.37160958940E+03  0.54840347433E+03  0.46999998093E+01 0.  1.
       -5    1    3    3    0  502  0.17396388359E+03  0.36382298021E+03  0.25087447416E+03  0.47496387811E+03  0.46999998093E+01 0. -1.
</event>
<event>
 5   0  0.1523811E-02  0.7939857E+03  0.7818609E-02  0.9568764E-01
       -1   -1    0    0    0  501  0.00000000000E+00  0.00000000000E+00  0.13760438187E+03  0.13760438196E+03  0.50400001928E-02 0. -1.
        1   -1    0    0  501    0  0.00000000000E+00  0.00000000000E+00 -0.11453366007E+04  0.11453366007E+04  0.50400001928E-02 0.  1.
    10030    2    1    2    0    0  0.00000000000E+00  0.00000000000E+00 -0.10077322188E+04  0.12829409827E+04  0.79398573046E+03 0.  0.
        1    1    3    3  502    0  0.33714043383E+03 -0.18783544771E+03 -0.65421160434E+03  0.75956477723E+03  0.50400001928E-02 0.  1.
       -1    1    3    3    0  502 -0.33714043383E+03  0.18783544771E+03 -0.35352061451E+03  0.52337620546E+03  0.50400001928E-02 0. -1.
</event>
<event>
 5   0  0.2464780E-02  0.8012652E+03  0.7818609E-02  0.9558188E-01
        2   -1    0    0  501    0  0.00000000000E+00  0.00000000000E+00  0.65509779025E+03  0.65509779025E+03  0.25500000920E-02 0. -1.
       -2   -1    0    0    0  501  0.00000000000E+00  0.00000000000E+00 -0.24501149763E+03  0.24501149765E+03  0.25500000920E-02 0.  1.
    10030    2    1    2    0    0  0.00000000000E+00  0.00000000000E+00  0.41008629261E+03  0.90010928790E+03  0.80126522624E+03 0.  0.
        3    1    3    3  502    0  0.24632290109E+03 -0.56712971320E+02 -0.14413058102E+03  0.29097245111E+03  0.10100000352E+00 0.  1.
       -3    1    3    3    0  502 -0.24632290109E+03  0.56712971320E+02  0.55421687364E+03  0.60913683680E+03  0.10100000352E+00 0. -1.
</event>
<event>
 5   0  0.9919125E-03  0.7924442E+03  0.7818609E-02  0.9571019E-01
        4   -1    0    0  501    0  0.00000000000E+00  0.00000000000E+00  0.46682267153E+03  0.46682439905E+03  0.12699999809E+01 0. -1.
       -4   -1    0    0    0  501  0.00000000000E+00  0.00000000000E+00 -0.33629532497E+03  0.33629772301E+03  0.12699999809E+01 0.  1.
    10030    2    1    2    0    0  0.00000000000E+00  0.00000000000E+00  0.13052734655E+03  0.80312212206E+03  0.79244416506E+03 0.  0.
        4    1    3    3  502    0 -0.38086543546E+03  0.10613354464E+03  0.39079194223E+02  0.39730543106E+03  0.12699999809E+01 0. -1.
       -4    1    3    3    0  502  0.38086543546E+03 -0.10613354464E+03  0.91448152328E+02  0.40581669100E+03  0.12699999809E+01 0.  1.
</event>
<event>
 5   0  0.2422031E-02  0.7988658E+03  0.7818609E-02  0.9561660E-01
       -2   -1    0    0    0  501  0.00000000000E+00  0.00000000000E+00  0.18889950807E+03  0.18889950808E+03  0.25500000920E-02 0. -1.
        2   -1    0    0  501    0  0.00000000000E+00  0.00000000000E+00 -0.84461118149E+03  0.84461118150E+03  0.25500000920E-02 0.  1.
    10030    2    1    2    0    0  0.00000000000E+00  0.00000000000E+00 -0.65571167343E+03  0.10335106896E+04  0.79886578773E+03 0.  0.
        4    1    3    3  502    0  0.30720835398E+03 -0.24344675781E+03 -0.22846857746E+03  0.45369901965E+03  0.12699999809E+01 0.  1.
       -4    1    3    3    0  502 -0.30720835398E+03  0.24344675781E+03 -0.42724309597E+03  0.57981166993E+03  0.12699999809E+01 0. -1.
</event>
<event>
 5   0  0.9919125E-03  0.7968339E+03  0.7818609E-02  0.9564611E-01
        3   -1    0    0  501    0  0.00000000000E+00  0.00000000000E+00  0.33527278438E+03  0.33527279959E+03  0.10100000352E+00 0. -1.
       -3   -1    0    0    0  501  0.00000000000E+00  0.00000000000E+00 -0.47345346520E+03  0.47345347597E+03  0.10100000352E+00 0.  1.
    10030    2    1    2    0    0  0.00000000000E+00  0.00000000000E+00 -0.13818068082E+03  0.80872627556E+03  0.79683391509E+03 0.  0.
        4    1    3    3  502    0  0.25052012133E+03 -0.26992834581E+03  0.85207616330E+02  0.37799946276E+03  0.12699999809E+01 0. -1.
       -4    1    3    3    0  502 -0.25052012133E+03  0.26992834581E+03 -0.22338829715E+03  0.43072681281E+03  0.12699999809E+01 0.  1.
</event>
<event>
 5   0  0.1498375E-02  0.7910045E+03  0.7818609E-02  0.9573130E-01
        1   -1    0    0  501    0  0.00000000000E+00  0.00000000000E+00  0.20825887090E+03  0.20825887096E+03  0.50400001928E-02 0. -1.
       -1   -1    0    0    0  501  0.00000000000E+00  0.00000000000E+00 -0.75109416096E+03  0.75109416097E+03  0.50400001928E-02 0.  1.
    10030    2    1    2    0    0  0.00000000000E+00  0.00000000000E+00 -0.54283529006E+03  0.95935303193E+03  0.79100448022E+03 0.  0.
        4    1    3    3  502    0 -0.20050088079E+03 -0.15651389761E+03  0.95897741938E+02  0.27183670310E+03  0.12699999809E+01 0.  1.
       -4    1    3    3    0  502  0.20050088079E+03  0.15651389761E+03 -0.63873303200E+03  0.68751632883E+03  0.12699999809E+01 0. -1.
</event>
<event>
 5   0  0.2422031E-02  0.7733610E+03  0.7818609E-02  0.9599397E-01
       -2   -1    0    0    0  501  0.00000000000E+00  0.00000000000E+00  0.39232248272E+03  0.39232248273E+03  0.25500000920E-02 0.  1.
        2   -1    0    0  501    0  0.00000000000E+00  0.00000000000E+00 -0.38111967126E+03  0.38111967127E+03  0.25500000920E-02 0. -1.
    10030    2    1    2    0    0  0.00000000000E+00  0.00000000000E+00  0.11202811462E+02  0.77344215400E+03  0.77336101699E+03 0.  0.
        4    1    3    3  502    0  0.18534110497E+03  0.23094906950E+03 -0.24308389660E+03  0.38311903056E+03  0.12699999809E+01 0. -1.
       -4    1    3    3    0  502 -0.18534110497E+03 -0.23094906950E+03  0.25428670806E+03  0.39032312344E+03  0.12699999809E+01 0.  1.
</event>
<event>
 5   0  0.2571778E-02  0.8238042E+03  0.7818609E-02  0.9526187E-01
       -2   -1    0    0    0  501  0.00000000000E+00  0.00000000000E+00  0.41089189742E+03  0.41089189743E+03  0.25500000920E-02 0.  1.
        2   -1    0    0  501    0  0.00000000000E+00  0.00000000000E+00 -0.41291473868E+03  0.41291473869E+03  0.25500000920E-02 0. -1.
    10030    2    1    2    0    0  0.00000000000E+00  0.00000000000E+00 -0.20228412643E+01  0.82380663612E+03  0.82380415259E+03 0.  0.
        1    1    3    3  502    0 -0.39860637341E+03  0.19717690235E+02 -0.10293077517E+03  0.41215357906E+03  0.50400001928E-02 0. -1.
       -1    1    3    3    0  502  0.39860637341E+03 -0.19717690235E+02  0.10090793390E+03  0.41165305706E+03  0.50400001928E-02 0.  1.
</event>
<event>
 5   0  0.2460312E-02  0.7943444E+03  0.7818609E-02  0.9568240E-01
        2   -1    0    0  501    0  0.00000000000E+00  0.00000000000E+00  0.32390361994E+03  0.32390361995E+03  0.25500000920E-02 0.  1.
       -2   -1    0    0    0  501  0.00000000000E+00  0.00000000000E+00 -0.48701447971E+03  0.48701447971E+03  0.25500000920E-02 0. -1.
    10030    2    1    2    0    0  0.00000000000E+00  0.00000000000E+00 -0.16311085977E+03  0.81091809966E+03  0.79434439117E+03 0.  0.
        2    1    3    3  502    0  0.32235812729E+03  0.17766572680E+03  0.70775500604E+02  0.37481868177E+03  0.25500000920E-02 0. -1.
       -2    1    3    3    0  502 -0.32235812729E+03 -0.17766572680E+03 -0.23388636037E+03  0.43609941789E+03  0.25500000920E-02 0.  1.
</event>
<event>
 5   0  0.1624094E-02  0.7908879E+03  0.7818609E-02  0.9573301E-01
        1   -1    0    0  501    0  0.00000000000E+00  0.00000000000E+00  0.22150224825E+04  0.22150224825E+04  0.50400001928E-02 0. -1.
       -1   -1    0    0    0  501  0.00000000000E+00  0.00000000000E+00 -0.70597886683E+02  0.70597886863E+02  0.50400001928E-02 0.  1.
    10030    2    1    2    0    0  0.00000000000E+00  0.00000000000E+00  0.21444245958E+04  0.22856203694E+04  0.79088787179E+03 0.  0.
        3    1    3    3  502    0 -0.20869633381E+03  0.25152125121E+03  0.42885896005E+03  0.53920044266E+03  0.10100000352E+00 0. -1.
       -3    1    3    3    0  502  0.20869633381E+03 -0.25152125121E+03  0.17155656358E+04  0.17464199267E+04  0.10100000352E+00 0.  1.
</event>
<event>
 5   0  0.9919125E-03  0.8014286E+03  0.7818609E-02  0.9557952E-01
        3   -1    0    0  501    0  0.00000000000E+00  0.00000000000E+00  0.70406223212E+03  0.70406223936E+03  0.10100000352E+00 0. -1.
       -3   -1    0    0    0  501  0.00000000000E+00  0.00000000000E+00 -0.22806495130E+03  0.22806497367E+03  0.10100000352E+00 0.  1.
    10030    2    1    2    0    0  0.00000000000E+00  0.00000000000E+00  0.47599728081E+03  0.93212721303E+03  0.80142855572E+03 0.  0.
        4    1    3    3  502    0  0.11803927978E+02  0.10610834614E+03 -0.21121614182E+03  0.23666893607E+03  0.12699999809E+01 0.  1.
       -4    1    3    3    0  502 -0.11803927978E+02 -0.10610834614E+03  0.68721342264E+03  0.69545827696E+03  0.12699999809E+01 0. -1.
</event>
<event>
 5   0  0.1498375E-02  0.8033289E+03  0.7818609E-02  0.9555211E-01
       -1   -1    0    0    0  501  0.00000000000E+00  0.00000000000E+00  0.13242852108E+03  0.13242852118E+03  0.50400001928E-02 0. -1.
        1   -1    0    0  501    0  0.00000000000E+00  0.00000000000E+00 -0.12182747075E+04  0.12182747075E+04  0.50400001928E-02 0.  1.
    10030    2    1    2    0    0  0.00000000000E+00  0.00000000000E+00 -0.10858461864E+04  0.13507032287E+04  0.80332886877E+03 0.  0.
        4    1    3    3  502    0 -0.17938626975E+03  0.32042234915E+03 -0.81654346375E+03  0.89531824325E+03  0.12699999809E+01 0.  1.
       -4    1    3    3    0  502  0.17938626975E+03 -0.32042234915E+03 -0.26930272264E+03  0.45538498541E+03  0.12699999809E+01 0. -1.
</event>
<event>
 5   0  0.1471290E-02  0.7988667E+03  0.7818609E-02  0.9561659E-01
       -1   -1    0    0    0  501  0.00000000000E+00  0.00000000000E+00  0.14099037008E+03  0.14099037017E+03  0.50400001928E-02 0. -1.
        1   -1    0    0  501    0  0.00000000000E+00  0.00000000000E+00 -0.11316163470E+04  0.11316163471E+04  0.50400001928E-02 0.  1.
    10030    2    1    2    0    0  0.00000000000E+00  0.00000000000E+00 -0.99062597696E+03  0.12726067172E+04  0.79886671635E+03 0.  0.
        2    1    3    3  502    0  0.24955323370E+03  0.16796888868E+02  0.79818748379E+00  0.25011914968E+03  0.25500000920E-02 0. -1.
       -2    1    3    3    0  502 -0.24955323370E+03 -0.16796888868E+02 -0.99142416444E+03  0.10224875675E+04  0.25500000920E-02 0.  1.
</event>
<event>
 5   0  0.2460312E-02  0.7790961E+03  0.7818609E-02  0.9590777E-01
        2   -1    0    0  501    0  0.00000000000E+00  0.00000000000E+00  0.15532755935E+03  0.15532755937E+03  0.25500000920E-02 0. -1.
       -2   -1    0    0    0  501  0.00000000000E+00  0.00000000000E+00 -0.97695279549E+03  0.97695279550E+03  0.25500000920E-02 0.  1.
    10030    2    1    2    0    0  0.00000000000E+00  0.00000000000E+00 -0.82162523614E+03  0.11322803549E+04  0.77909612587E+03 0.  0.
        2    1    3    3  502    0  0.13755174737E+03 -0.28889958660E+03 -0.73371344014E+03  0.80044916552E+03  0.25500000920E-02 0.  1.
       -2    1    3    3    0  502 -0.13755174737E+03  0.28889958660E+03 -0.87911796006E+02  0.33183118935E+03  0.25500000920E-02 0. -1.
</event>
<event>
 5   0  0.2454354E-02  0.7999520E+03  0.7818609E-02  0.9560087E-01
       -2   -1    0    0    0  501  0.00000000000E+00  0.00000000000E+00  0.15919131063E+03  0.15919131065E+03  0.25500000920E-02 0.  1.
        2   -1    0    0  501    0  0.00000000000E+00  0.00000000000E+00 -0.10049593157E+04  0.10049593157E+04  0.25500000920E-02 0. -1.
    10030    2    1    2    0    0  0.00000000000E+00  0.00000000000E+00 -0.84576800502E+03  0.11641506263E+04  0.79995197506E+03 0.  0.
        5    1    3    3  502    0  0.25185071306E+03  0.18560539117E+03 -0.60287954764E+02  0.31864536775E+03  0.46999998093E+01 0.  1.
       -5    1    3    3    0  502 -0.25185071306E+03 -0.18560539117E+03 -0.78548005026E+03  0.84550525856E+03  0.46999998093E+01 0. -1.
</event>
<event>
 5   0  0.1523811E-02  0.7826487E+03  0.7818609E-02  0.9585478E-01
        1   -1    0    0  501    0  0.00000000000E+00  0.00000000000E+00  0.41119341380E+03  0.41119341383E+03  0.50400001928E-02 0. -1.
       -1   -1    0    0    0  501  0.00000000000E+00  0.00000000000E+00 -0.37241533480E+03  0.37241533484E+03  0.50400001928E-02 0.  1.
    10030    2    1    2    0    0  0.00000000000E+00  0.00000000000E+00  0.38778079000E+02  0.78360874867E+03  0.78264866420E+03 0.  0.
        1    1    3    3  502    0 -0.26962350279E+02  0.33401726680E+03  0.22172660367E+03  0.40181735857E+03  0.50400001928E-02 0. -1.
       -1    1    3    3    0  502  0.26962350279E+02 -0.33401726680E+03 -0.18294852467E+03  0.38179139010E+03  0.50400001928E-02 0.  1.
</event>
<event>
 5   0  0.2571778E-02  0.7817213E+03  0.7818609E-02  0.9586858E-01
        2   -1    0    0  501    0  0.00000000000E+00  0.00000000000E+00  0.35964584926E+03  0.35964584927E+03  0.25500000920E-02 0. -1.
       -2   -1    0    0    0  501  0.00000000000E+00  0.00000000000E+00 -0.42478464647E+03  0.42478464648E+03  0.25500000920E-02 0.  1.
    10030    2    1    2    0    0  0.00000000000E+00  0.00000000000E+00 -0.65138797214E+02  0.78443049575E+03  0.78172126730E+03 0.  0.
        1    1    3    3  502    0  0.34931783483E+03 -0.38459130595E+01  0.14335017484E+03  0.37760695627E+03  0.50400001928E-02 0. -1.
       -1    1    3    3    0  502 -0.34931783483E+03  0.38459130595E+01 -0.20848897206E+03  0.40682353947E+03  0.50400001928E-02 0.  1.
</event>
<event>
 5   0  0.1498375E-02  0.7003095E+03  0.7818609E-02  0.9716703E-01
        1   -1    0    0  501    0  0.00000000000E+00  0.00000000000E+00  0.11978356111E+04  0.11978356111E+04  0.50400001928E-02 0. -1.
       -1   -1    0    0    0  501  0.00000000000E+00  0.00000000000E+00 -0.10235824633E+03  0.10235824645E+03  0.50400001928E-02 0.  1.
    10030    2    1    2    0    0  0.00000000000E+00  0.00000000000E+00  0.10954773648E+04  0.13001938576E+04  0.70030951052E+03 0.  0.
        4    1    3    3  502    0  0.30839727807E+03 -0.23138624861E+02  0.24288049442E+03  0.39323888993E+03  0.12699999809E+01 0.  1.
       -4    1    3    3    0  502 -0.30839727807E+03  0.23138624861E+02  0.85259687037E+03  0.90695496765E+03  0.12699999809E+01 0. -1.
</event>
<event>
 5   0  0.2454354E-02  0.8168488E+03  0.7818609E-02  0.9535944E-01
       -2   -1    0    0    0  501  0.00000000000E+00  0.00000000000E+00  0.29300205994E+03  0.29300205995E+03  0.25500000920E-02 0. -1.
        2   -1    0    0  501    0  0.00000000000E+00  0.00000000000E+00 -0.56931511379E+03  0.56931511380E+03  0.25500000920E-02 0.  1.
    10030    2    1    2    0    0  0.00000000000E+00  0.00000000000E+00 -0.27631305385E+03  0.86231717375E+03  0.81684882593E+03 0.  0.
        5    1    3    3  502    0  0.38833062420E+03 -0.12624088653E+03 -0.14569369446E+03  0.43357372813E+03  0.46999998093E+01 0.  1.
       -5    1    3    3    0  502 -0.38833062420E+03  0.12624088653E+03 -0.13061935939E+03  0.42874344563E+03  0.46999998093E+01 0. -1.
</event>
<event>
 5   0  0.2422031E-02  0.7969057E+03  0.7818609E-02  0.9564507E-01
        2   -1    0    0  501    0  0.00000000000E+00  0.00000000000E+00  0.18319546820E+04  0.18319546820E+04  0.25500000920E-02 0. -1.
       -2   -1    0    0    0  501  0.00000000000E+00  0.00000000000E+00 -0.86664086635E+02  0.86664086673E+02  0.25500000920E-02 0.  1.
    10030    2    1    2    0    0  0.00000000000E+00  0.00000000000E+00  0.17452905954E+04  0.19186187687E+04  0.79690571415E+03 0.  0.
        4    1    3    3  502    0 -0.26778407458E+03 -0.23728797279E+03  0.45046450288E+03  0.57526843637E+03  0.12699999809E+01 0.  1.
       -4    1    3    3    0  502  0.26778407458E+03  0.23728797279E+03  0.12948260925E+04  0.13433503323E+04  0.12699999809E+01 0. -1.
</event>
<event>
 5   0  0.2454354E-02  0.7981258E+03  0.7818609E-02  0.9562734E-01
        2   -1    0    0  501    0  0.00000000000E+00  0.00000000000E+00  0.45328544100E+03  0.45328544101E+03  0.25500000920E-02 0. -1.
       -2   -1    0    0    0  501  0.00000000000E+00  0.00000000000E+00 -0.35132653783E+03  0.35132653784E+03  0.25500000920E-02 0.  1.
    10030    2    1    2    0    0  0.00000000000E+00  0.00000000000E+00  0.10195890317E+03  0.80461197885E+03  0.79812581626E+03 0.  0.
        5    1    3    3  502    0 -0.36082046405E+03 -0.50361708962E+02  0.21509494770E+03  0.42310239368E+03  0.46999998093E+01 0. -1.
       -5    1    3    3    0  502  0.36082046405E+03  0.50361708962E+02 -0.11313604453E+03  0.38150958518E+03  0.46999998093E+01 0.  1.
</event>
<event>
 5   0  0.2454354E-02  0.7916877E+03  0.7818609E-02  0.9572127E-01
       -2   -1    0    0    0  501  0.00000000000E+00  0.00000000000E+00  0.49337265258E+03  0.49337265259E+03  0.25500000920E-02 0.  1.
        2   -1    0    0  501    0  0.00000000000E+00  0.00000000000E+00 -0.31759429502E+03  0.31759429503E+03  0.25500000920E-02 0. -1.
    10030    2    1    2    0    0  0.00000000000E+00  0.00000000000E+00  0.17577835757E+03  0.81096694761E+03  0.79168766514E+03 0.  0.
        5    1    3    3  502    0  0.54253268894E+02  0.14569360720E+03 -0.28498091455E+03  0.32466329638E+03  0.46999998093E+01 0. -1.
       -5    1    3    3    0  502 -0.54253268894E+02 -0.14569360720E+03  0.46075927211E+03  0.48630365123E+03  0.46999998093E+01 0.  1.
</event>
<event>
 5   0  0.9919125E-03  0.8303434E+03  0.7818609E-02  0.9517106E-01
        4   -1    0    0  501    0  0.00000000000E+00  0.00000000000E+00  0.41337650689E+03  0.41337845777E+03  0.12699999809E+01 0. -1.
       -4   -1    0    0    0  501  0.00000000000E+00  0.00000000000E+00 -0.41697079602E+03  0.41697273009E+03  0.12699999809E+01 0.  1.
    10030    2    1    2    0    0  0.00000000000E+00  0.00000000000E+00 -0.35942891376E+01  0.83035118785E+03  0.83034340863E+03 0.  0.
        2    1    3    3  502    0 -0.28410997782E+03 -0.15958052369E+03  0.25546606913E+03  0.41406199478E+03  0.25500000920E-02 0. -1.
       -2    1    3    3    0  502  0.28410997782E+03  0.15958052369E+03 -0.25906035827E+03  0.41628919307E+03  0.25500000920E-02 0.  1.
</event>
<event>
 5   0  0.2571778E-02  0.7182701E+03  0.7818609E-02  0.9686488E-01
        2   -1    0    0  501    0  0.00000000000E+00  0.00000000000E+00  0.85206349067E+03  0.85206349068E+03  0.25500000920E-02 0. -1.
       -2   -1    0    0    0  501  0.00000000000E+00  0.00000000000E+00 -0.15137132016E+03  0.15137132019E+03  0.25500000920E-02 0.  1.
    10030    2    1    2    0    0  0.00000000000E+00  0.00000000000E+00  0.70069217051E+03  0.10034348109E+04  0.71827007583E+03 0.  0.
        1    1    3    3  502    0  0.43597278018E+02 -0.30055888891E+03  0.82564650517E+02  0.31472732626E+03  0.50400001928E-02 0.  1.
       -1    1    3    3    0  502 -0.43597278018E+02  0.30055888891E+03  0.61812751999E+03  0.68870748460E+03  0.50400001928E-02 0. -1.
</event>
<event>
 5   0  0.1471290E-02  0.7629068E+03  0.7818609E-02  0.9615316E-01
        1   -1    0    0  501    0  0.00000000000E+00  0.00000000000E+00  0.79015371094E+03  0.79015371095E+03  0.50400001928E-02 0.  1.
       -1   -1    0    0    0  501  0.00000000000E+00  0.00000000000E+00 -0.18414987450E+03  0.18414987457E+03  0.50400001928E-02 0. -1.
    10030    2    1    2    0    0  0.00000000000E+00  0.00000000000E+00  0.60600383644E+03  0.97430358552E+03  0.76290682720E+03 0.  0.
        2    1    3    3  502    0 -0.14686303106E+03 -0.35051423879E+03  0.34492728101E+03  0.51322880928E+03  0.25500000920E-02 0. -1.
       -2    1    3    3    0  502  0.14686303106E+03  0.35051423879E+03  0.26107655543E+03  0.46107477624E+03  0.25500000920E-02 0.  1.
</event>
<event>
 5   0  0.2422031E-02  0.8067033E+03  0.7818609E-02  0.9550365E-01
        2   -1    0    0  501    0  0.00000000000E+00  0.00000000000E+00  0.59914122273E+03  0.59914122274E+03  0.25500000920E-02 0. -1.
       -2   -1    0    0    0  501  0.00000000000E+00  0.00000000000E+00 -0.27154291022E+03  0.27154291023E+03  0.25500000920E-02 0.  1.
    10030    2    1    2    0    0  0.00000000000E+00  0.00000000000E+00  0.32759831252E+03  0.87068413296E+03  0.80670329430E+03 0.  0.
        4    1    3    3  502    0 -0.58686408704E+02  0.11908700128E+03  0.57488101853E+03  0.59001322596E+03  0.12699999809E+01 0. -1.
       -4    1    3    3    0  502  0.58686408704E+02 -0.11908700128E+03 -0.24728270602E+03  0.28067090700E+03  0.12699999809E+01 0.  1.
</event>
<event>
 5   0  0.1624094E-02  0.7769079E+03  0.7818609E-02  0.9594057E-01
       -1   -1    0    0    0  501  0.00000000000E+00  0.00000000000E+00  0.44851144490E+03  0.44851144492E+03  0.50400001928E-02 0.  1.
        1   -1    0    0  501    0  0.00000000000E+00  0.00000000000E+00 -0.33643843522E+03  0.33643843526E+03  0.50400001928E-02 0. -1.
    10030    2    1    2    0    0  0.00000000000E+00  0.00000000000E+00  0.11207300968E+03  0.78494988018E+03  0.77690794493E+03 0.  0.
        3    1    3    3  502    0  0.13681338553E+03  0.32664438799E+03 -0.10524675386E+03  0.36944735493E+03  0.10100000352E+00 0. -1.
       -3    1    3    3    0  502 -0.13681338553E+03 -0.32664438799E+03  0.21731976353E+03  0.41550252525E+03  0.10100000352E+00 0.  1.
</event>
<event>
 5   0  0.2464780E-02  0.7983940E+03  0.7818609E-02  0.9562345E-01
        2   -1    0    0  501    0  0.00000000000E+00  0.00000000000E+00  0.22856495670E+04  0.22856495670E+04  0.25500000920E-02 0.  1.
       -2   -1    0    0    0  501  0.00000000000E+00  0.00000000000E+00 -0.69721202869E+02  0.69721202915E+02  0.25500000920E-02 0. -1.
    10030    2    1    2    0    0  0.00000000000E+00  0.00000000000E+00  0.22159283641E+04  0.23553707699E+04  0.79839398094E+03 0.  0.
        3    1    3    3  502    0 -0.54941267794E+02 -0.28319797811E+03  0.19220017347E+04  0.19435303743E+04  0.10100000352E+00 0.  1.
       -3    1    3    3    0  502  0.54941267794E+02  0.28319797811E+03  0.29392662944E+03  0.41184039555E+03  0.10100000352E+00 0. -1.
</event>
<event>
 5   0  0.1498375E-02  0.8271253E+03  0.7818609E-02  0.9521564E-01
        1   -1    0    0  501    0  0.00000000000E+00  0.00000000000E+00  0.85198953915E+03  0.85198953916E+03  0.50400001928E-02 0.  1.
       -1   -1    0    0    0  501  0.00000000000E+00  0.00000000000E+00 -0.20074666326E+03  0.20074666332E+03  0.50400001928E-02 0. -1.
    10030    2    1    2    0    0  0.00000000000E+00  0.00000000000E+00  0.65124287589E+03  0.10527362025E+04  0.82712527988E+03 0.  0.
        4    1    3    3  502    0 -0.12876269514E+03 -0.38902457282E+03  0.39662866425E+03  0.57029453804E+03  0.12699999809E+01 0.  1.
       -4    1    3    3    0  502  0.12876269514E+03  0.38902457282E+03  0.25461421164E+03  0.48244166444E+03  0.12699999809E+01 0. -1.
</event>
<event>
 5   0  0.2571778E-02  0.8017934E+03  0.7818609E-02  0.9557425E-01
       -2   -1    0    0    0  501  0.00000000000E+00  0.00000000000E+00  0.23029836512E+03  0.23029836513E+03  0.25500000920E-02 0.  1.
        2   -1    0    0  501    0  0.00000000000E+00  0.00000000000E+00 -0.69786930486E+03  0.69786930486E+03  0.25500000920E-02 0. -1.
    10030    2    1    2    0    0  0.00000000000E+00  0.00000000000E+00 -0.46757093974E+03  0.92816766999E+03  0.80179338981E+03 0.  0.
        1    1    3    3  502    0 -0.10682742757E+03 -0.11690953203E+03  0.19255347848E+03  0.24931261513E+03  0.50400001928E-02 0.  1.
       -1    1    3    3    0  502  0.10682742757E+03  0.11690953203E+03 -0.66012441822E+03  0.67885505487E+03  0.50400001928E-02 0. -1.
</event>
<event>
 5   0  0.1509629E-02  0.7936084E+03  0.7818609E-02  0.9569315E-01
       -1   -1    0    0    0  501  0.00000000000E+00  0.00000000000E+00  0.21363658398E+03  0.21363658404E+03  0.50400001928E-02 0. -1.
        1   -1    0    0  501    0  0.00000000000E+00  0.00000000000E+00 -0.73701597754E+03  0.73701597756E+03  0.50400001928E-02 0.  1.
    10030    2    1    2    0    0  0.00000000000E+00  0.00000000000E+00 -0.52337939357E+03  0.95065256160E+03  0.79360840675E+03 0.  0.
        5    1    3    3  502    0  0.24662375261E+03 -0.72146445922E+02  0.10046658920E+03  0.27594204202E+03  0.46999998093E+01 0. -1.
       -5    1    3    3    0  502 -0.24662375261E+03  0.72146445922E+02 -0.62384598277E+03  0.67471051957E+03  0.46999998093E+01 0.  1.
</event>
<event>
 5   0  0.1498375E-02  0.7903548E+03  0.7818609E-02  0.9574084E-01
        1   -1    0    0  501    0  0.00000000000E+00  0.00000000000E+00  0.20233789534E+03  0.20233789541E+03  0.50400001928E-02 0. -1.
       -1   -1    0    0    0  501  0.00000000000E+00  0.00000000000E+00 -0.77180383452E+03  0.77180383454E+03  0.50400001928E-02 0.  1.
    10030    2    1    2    0    0  0.00000000000E+00  0.00000000000E+00 -0.56946593918E+03  0.97414172995E+03  0.79035476473E+03 0.  0.
        4    1    3    3  502    0 -0.39405093591E+03  0.86741040723E+01 -0.31985856269E+03  0.50760466232E+03  0.12699999809E+01 0. -1.
       -4    1    3    3    0  502  0.39405093591E+03 -0.86741040723E+01 -0.24960737649E+03  0.46653706763E+03  0.12699999809E+01 0.  1.
</event>
<event>
 5   0  0.2464780E-02  0.8068485E+03  0.7818609E-02  0.9550157E-01
        2   -1    0    0  501    0  0.00000000000E+00  0.00000000000E+00  0.11007152941E+03  0.11007152944E+03  0.25500000920E-02 0. -1.
       -2   -1    0    0    0  501  0.00000000000E+00  0.00000000000E+00 -0.14785942706E+04  0.14785942707E+04  0.25500000920E-02 0.  1.
    10030    2    1    2    0    0  0.00000000000E+00  0.00000000000E+00 -0.13685227412E+04  0.15886658001E+04  0.80684851807E+03 0.  0.
        3    1    3    3  502    0 -0.52681163633E+02 -0.36021411715E+03 -0.34196734398E+03  0.49947090981E+03  0.10100000352E+00 0. -1.
       -3    1    3    3    0  502  0.52681163633E+02  0.36021411715E+03 -0.10265553973E+04  0.10891948903E+04  0.10100000352E+00 0.  1.
</event>
<event>
 5   0  0.1509629E-02  0.7876672E+03  0.7818609E-02  0.9578042E-01
        1   -1    0    0  501    0  0.00000000000E+00  0.00000000000E+00  0.16923746004E+03  0.16923746012E+03  0.50400001928E-02 0.  1.
       -1   -1    0    0    0  501  0.00000000000E+00  0.00000000000E+00 -0.91649284901E+03  0.91649284902E+03  0.50400001928E-02 0. -1.
    10030    2    1    2    0    0  0.00000000000E+00  0.00000000000E+00 -0.74725538897E+03  0.10857303091E+04  0.78766724436E+03 0.  0.
        5    1    3    3  502    0 -0.43481077037E+02  0.17049269618E+03  0.11200495512E+03  0.20862781090E+03  0.46999998093E+01 0.  1.
       -5    1    3    3    0  502  0.43481077037E+02 -0.17049269618E+03 -0.85926034409E+03  0.87710249824E+03  0.46999998093E+01 0. -1.
</event>
<event>
 5   0  0.1624094E-02  0.7888132E+03  0.7818609E-02  0.9576352E-01
       -1   -1    0    0    0  501  0.00000000000E+00  0.00000000000E+00  0.89209638906E+03  0.89209638907E+03  0.50400001928E-02 0. -1.
        1   -1    0    0  501    0  0.00000000000E+00  0.00000000000E+00 -0.17437191215E+03  0.17437191223E+03  0.50400001928E-02 0.  1.
    10030    2    1    2    0    0  0.00000000000E+00  0.00000000000E+00  0.71772447691E+03  0.10664683013E+04  0.78881316731E+03 0.  0.
        3    1    3    3  502    0 -0.91294753492E+02 -0.23218189067E+03 -0.54133682093E+02  0.25529126132E+03  0.10100000352E+00 0.  1.
       -3    1    3    3    0  502  0.91294753492E+02  0.23218189067E+03  0.77185815900E+03  0.81117703998E+03  0.10100000352E+00 0. -1.
</event>
<event>
 5   0  0.1471290E-02  0.7898774E+03  0.7818609E-02  0.9574786E-01
        1   -1    0    0  501    0  0.00000000000E+00  0.00000000000E+00  0.62816347193E+03  0.62816347195E+03  0.50400001928E-02 0. -1.
       -1   -1    0    0    0  501  0.00000000000E+00  0.00000000000E+00 -0.24830573205E+03  0.24830573210E+03  0.50400001928E-02 0.  1.
    10030    2    1    2    0    0  0.00000000000E+00  0.00000000000E+00  0.37985773987E+03  0.87646920405E+03  0.78987743550E+03 0.  0.
        2    1    3    3  502    0 -0.12268163347E+03 -0.16065414685E+03  0.56641146060E+03  0.60140043299E+03  0.25500000920E-02 0. -1.
       -2    1    3    3    0  502  0.12268163347E+03  0.16065414685E+03 -0.18655372073E+03  0.27506877106E+03  0.25500000920E-02 0.  1.
</event>
<event>
 5   0  0.2460312E-02  0.9006037E+03  0.7818609E-02  0.9424827E-01
       -2   -1    0    0    0  501  0.00000000000E+00  0.00000000000E+00  0.34239068110E+03  0.34239068111E+03  0.25500000920E-02 0.  1.
        2   -1    0    0  501    0  0.00000000000E+00  0.00000000000E+00 -0.59222330259E+03  0.59222330260E+03  0.25500000920E-02 0. -1.
    10030    2    1    2    0    0  0.00000000000E+00  0.00000000000E+00 -0.24983262149E+03  0.93461398370E+03  0.90060366409E+03 0.  0.
        2    1    3    3  502    0 -0.11278914885E+03 -0.33376934567E+03 -0.41595011283E+03  0.54510353565E+03  0.25500000920E-02 0. -1.
       -2    1    3    3    0  502  0.11278914885E+03  0.33376934567E+03  0.16611749134E+03  0.38951044805E+03  0.25500000920E-02 0.  1.
</event>
<event>
 5   0  0.1471290E-02  0.7995955E+03  0.7818609E-02  0.9560603E-01
       -1   -1    0    0    0  501  0.00000000000E+00  0.00000000000E+00  0.24776039371E+03  0.24776039377E+03  0.50400001928E-02 0.  1.
        1   -1    0    0  501    0  0.00000000000E+00  0.00000000000E+00 -0.64513231190E+03  0.64513231191E+03  0.50400001928E-02 0. -1.
    10030    2    1    2    0    0  0.00000000000E+00  0.00000000000E+00 -0.39737191818E+03  0.89289270568E+03  0.79959548679E+03 0.  0.
        2    1    3    3  502    0  0.34304923149E+03  0.61435635162E+02  0.20084047806E+02  0.34908520661E+03  0.25500000920E-02 0.  1.
       -2    1    3    3    0  502 -0.34304923149E+03 -0.61435635162E+02 -0.41745596599E+03  0.54380749907E+03  0.25500000920E-02 0. -1.
</event>
<event>
 5   0  0.1471290E-02  0.8561300E+03  0.7818609E-02  0.9482146E-01
        1   -1    0    0  501    0  0.00000000000E+00  0.00000000000E+00  0.18519423501E+04  0.18519423501E+04  0.50400001928E-02 0.  1.
       -1   -1    0    0    0  501  0.00000000000E+00  0.00000000000E+00 -0.98944572891E+02  0.98944573019E+02  0.50400001928E-02 0. -1.
    10030    2    1    2    0    0  0.00000000000E+00  0.00000000000E+00  0.17529977772E+04  0.19508869231E+04  0.85613000177E+03 0.  0.
        2    1    3    3  502    0 -0.18385870095E+02 -0.31042020194E+03  0.15468511709E+04  0.15777982403E+04  0.25500000920E-02 0.  1.
       -2    1    3    3    0  502  0.18385870095E+02  0.31042020194E+03  0.20614660630E+03  0.37308868287E+03  0.25500000920E-02 0. -1.
</event>
<event>
 5   0  0.1624094E-02  0.8470311E+03  0.7818609E-02  0.9494330E-01
       -1   -1    0    0    0  501  0.00000000000E+00  0.00000000000E+00  0.33188443921E+03  0.33188443925E+03  0.50400001928E-02 0.  1.
        1   -1    0    0  501    0  0.00000000000E+00  0.00000000000E+00 -0.54044541877E+03  0.54044541879E+03  0.50400001928E-02 0. -1.
    10030    2    1    2    0    0  0.00000000000E+00  0.00000000000E+00 -0.20856097956E+03  0.87232985804E+03  0.84703110866E+03 0.  0.
        3    1    3    3  502    0 -0.34019075577E+03  0.10746316852E+03  0.13076256985E+03  0.37996966034E+03  0.10100000352E+00 0.  1.
       -3    1    3    3    0  502  0.34019075577E+03 -0.10746316852E+03 -0.33932354941E+03  0.49236019771E+03  0.10100000352E+00 0. -1.
</event>
<event>
 5   0  0.2571778E-02  0.8146194E+03  0.7818609E-02  0.9539094E-01
        2   -1    0    0  501    0  0.00000000000E+00  0.00000000000E+00  0.60353911184E+03  0.60353911185E+03  0.25500000920E-02 0. -1.
       -2   -1    0    0    0  501  0.00000000000E+00  0.00000000000E+00 -0.27488059837E+03  0.27488059838E+03  0.25500000920E-02 0.  1.
    10030    2    1    2    0    0  0.00000000000E+00  0.00000000000E+00  0.32865851348E+03  0.87841971023E+03  0.81461940121E+03 0.  0.
        1    1    3    3  502    0  0.17292799162E+03  0.34543345564E+02 -0.23158257940E+03  0.29108044269E+03  0.50400001928E-02 0.  1.
       -1    1    3    3    0  502 -0.17292799162E+03 -0.34543345564E+02  0.56024109288E+03  0.58733926753E+03  0.50400001928E-02 0. -1.
</event>
<event>
 5   0  0.9919125E-03  0.7986128E+03  0.7818609E-02  0.9562027E-01
        3   -1    0    0  501    0  0.00000000000E+00  0.00000000000E+00  0.28779367847E+03  0.28779369619E+03  0.10100000352E+00 0. -1.
       -3   -1    0    0    0  501  0.00000000000E+00  0.00000000000E+00 -0.55402744896E+03  0.55402745817E+03  0.10100000352E+00 0.  1.
    10030    2    1    2    0    0  0.00000000000E+00  0.00000000000E+00 -0.26623377050E+03  0.84182115436E+03  0.79861281944E+03 0.  0.
        3    1    3    3  502    0 -0.88938526843E+02 -0.86196615120E+02  0.26703430062E+03  0.29435904254E+03  0.10100000352E+00 0. -1.
       -3    1    3    3    0  502  0.88938526843E+02  0.86196615120E+02 -0.53326807111E+03  0.54746211183E+03  0.10100000352E+00 0.  1.
</event>
<event>
 5   0  0.2422031E-02  0.7891761E+03  0.7818609E-02  0.9575818E-01
        2   -1    0    0  501    0  0.00000000000E+00  0.00000000000E+00  0.95672082874E+03  0.95672082874E+03  0.25500000920E-02 0.  1.
       -2   -1    0    0    0  501  0.00000000000E+00  0.00000000000E+00 -0.16274311195E+03  0.16274311197E+03  0.25500000920E-02 0. -1.
    10030    2    1    2    0    0  0.00000000000E+00  0.00000000000E+00  0.79397771678E+03  0.11194639407E+04  0.78917608923E+03 0.  0.
        4    1    3    3  502    0 -0.37466514555E+03  0.26968528105E+01  0.57254707960E+03  0.68424631206E+03  0.12699999809E+01 0.  1.
       -4    1    3    3    0  502  0.37466514555E+03 -0.26968528105E+01  0.22143063718E+03  0.43521762865E+03  0.12699999809E+01 0. -1.
</event>
<event>
 5   0  0.1523811E-02  0.7995340E+03  0.7818609E-02  0.9560692E-01
        1   -1    0    0  501    0  0.00000000000E+00  0.00000000000E+00  0.65117747284E+03  0.65117747286E+03  0.50400001928E-02 0. -1.
       -1   -1    0    0    0  501  0.00000000000E+00  0.00000000000E+00 -0.24542258926E+03  0.24542258931E+03  0.50400001928E-02 0.  1.
    10030    2    1    2    0    0  0.00000000000E+00  0.00000000000E+00  0.40575488359E+03  0.89660006217E+03  0.79953401800E+03 0.  0.
        1    1    3    3  502    0 -0.93922436702E+02 -0.23072378768E+03  0.55349986345E+03  0.60697363137E+03  0.50400001928E-02 0. -1.
       -1    1    3    3    0  502  0.93922436702E+02  0.23072378768E+03 -0.14774497987E+03  0.28962643080E+03  0.50400001928E-02 0.  1.
</event>
<event>
 5   0  0.2571778E-02  0.7225275E+03  0.7818609E-02  0.9679464E-01
        2   -1    0    0  501    0  0.00000000000E+00  0.00000000000E+00  0.11835807470E+04  0.11835807470E+04  0.25500000920E-02 0.  1.
       -2   -1    0    0    0  501  0.00000000000E+00  0.00000000000E+00 -0.11026833993E+03  0.11026833996E+03  0.25500000920E-02 0. -1.
    10030    2    1    2    0    0  0.00000000000E+00  0.00000000000E+00  0.10733124071E+04  0.12938490870E+04  0.72252746431E+03 0.  0.
        1    1    3    3  502    0  0.10913784457E+03  0.14095198320E+02  0.11528372095E+04  0.11580774479E+04  0.50400001928E-02 0.  1.
       -1    1    3    3    0  502 -0.10913784457E+03 -0.14095198320E+02 -0.79524802459E+02  0.13577163903E+03  0.50400001928E-02 0. -1.
</event>
<event>
 5   0  0.2422031E-02  0.8005982E+03  0.7818609E-02  0.9559152E-01
        2   -1    0    0  501    0  0.00000000000E+00  0.00000000000E+00  0.55954162088E+03  0.55954162088E+03  0.25500000920E-02 0.  1.
       -2   -1    0    0    0  501  0.00000000000E+00  0.00000000000E+00 -0.28637613134E+03  0.28637613135E+03  0.25500000920E-02 0. -1.
    10030    2    1    2    0    0  0.00000000000E+00  0.00000000000E+00  0.27316548953E+03  0.84591775223E+03  0.80059818815E+03 0.  0.
        4    1    3    3  502    0  0.32173682999E+03 -0.18196574843E+03 -0.25776313926E+02  0.37052955704E+03  0.12699999809E+01 0. -1.
       -4    1    3    3    0  502 -0.32173682999E+03  0.18196574843E+03  0.29894180346E+03  0.47538819520E+03  0.12699999809E+01 0.  1.
</event>
<event>
 5   0  0.2454354E-02  0.7927635E+03  0.7818609E-02  0.9570551E-01
       -2   -1    0    0    0  501  0.00000000000E+00  0.00000000000E+00  0.14232726406E+03  0.14232726409E+03  0.25500000920E-02 0. -1.
        2   -1    0    0  501    0  0.00000000000E+00  0.00000000000E+00 -0.11039240522E+04  0.11039240522E+04  0.25500000920E-02 0.  1.
    10030    2    1    2    0    0  0.00000000000E+00  0.00000000000E+00 -0.96159678809E+03  0.12462513162E+04  0.79276349586E+03 0.  0.
        5    1    3    3  502    0  0.37246509020E+03 -0.10366931387E+03 -0.34358196008E+03  0.51725063881E+03  0.46999998093E+01 0. -1.
       -5    1    3    3    0  502 -0.37246509020E+03  0.10366931387E+03 -0.61801482801E+03  0.72900067743E+03  0.46999998093E+01 0.  1.
</event>
<event>
 5   0  0.2571778E-02  0.8236800E+03  0.7818609E-02  0.9526360E-01
        2   -1    0    0  501    0  0.00000000000E+00  0.00000000000E+00  0.33982867263E+03  0.33982867264E+03  0.25500000920E-02 0. -1.
       -2   -1    0    0    0  501  0.00000000000E+00  0.00000000000E+00 -0.49911089078E+03  0.49911089079E+03  0.25500000920E-02 0.  1.
    10030    2    1    2    0    0  0.00000000000E+00  0.00000000000E+00 -0.15928221815E+03  0.83893956343E+03  0.82368001437E+03 0.  0.
        1    1    3    3  502    0  0.16546511564E+03 -0.20123279990E+03 -0.40451555627E+03  0.48115089061E+03  0.50400001928E-02 0.  1.
       -1    1    3    3    0  502 -0.16546511564E+03  0.20123279990E+03  0.24523333811E+03  0.35778867282E+03  0.50400001928E-02 0. -1.
</event>
<event>
 5   0  0.2454354E-02  0.7964456E+03  0.7818609E-02  0.9565176E-01
        2   -1    0    0  501    0  0.00000000000E+00  0.00000000000E+00  0.19969010112E+03  0.19969010114E+03  0.25500000920E-02 0.  1.
       -2   -1    0    0    0  501  0.00000000000E+00  0.00000000000E+00 -0.79413758422E+03  0.79413758423E+03  0.25500000920E-02 0. -1.
    10030    2    1    2    0    0  0.00000000000E+00  0.00000000000E+00 -0.59444748310E+03  0.99382768537E+03  0.79644564035E+03 0.  0.
        5    1    3    3  502    0  0.96487562489E+02  0.37844061012E+03 -0.20030850135E+03  0.43894502026E+03  0.46999998093E+01 0. -1.
       -5    1    3    3    0  502 -0.96487562489E+02 -0.37844061012E+03 -0.39413898175E+03  0.55488266511E+03  0.46999998093E+01 0.  1.
</event>
<event>
 5   0  0.2571778E-02  0.7981104E+03  0.7818609E-02  0.9562756E-01
       -2   -1    0    0    0  501  0.00000000000E+00  0.00000000000E+00  0.23631828391E+03  0.23631828393E+03  0.25500000920E-02 0.  1.
        2   -1    0    0  501    0  0.00000000000E+00  0.00000000000E+00 -0.67385842779E+03  0.67385842780E+03  0.25500000920E-02 0. -1.
    10030    2    1    2    0    0  0.00000000000E+00  0.00000000000E+00 -0.43754014388E+03  0.91017671172E+03  0.79811043663E+03 0.  0.
        1    1    3    3  502    0 -0.39294011573E+03 -0.60261788245E+02 -0.17907366082E+03  0.43600549732E+03  0.50400001928E-02 0.  1.
       -1    1    3    3    0  502  0.39294011573E+03  0.60261788245E+02 -0.25846648306E+03  0.47417121440E+03  0.50400001928E-02 0. -1.
</event>
<event>
 5   0  0.1498375E-02  0.7539099E+03  0.7818609E-02  0.9629236E-01
        1   -1    0    0  501    0  0.00000000000E+00  0.00000000000E+00  0.10489146294E+04  0.10489146294E+04  0.50400001928E-02 0.  1.
       -1   -1    0    0    0  501  0.00000000000E+00  0.00000000000E+00 -0.13546862517E+03  0.13546862526E+03  0.50400001928E-02 0. -1.
    10030    2    1    2    0    0  0.00000000000E+00  0.00000000000E+00  0.91344600421E+03  0.11843832547E+04  0.75390986947E+03 0.  0.
        4    1    3    3  502    0 -0.59341242474E+02  0.37173945791E+03  0.42602627341E+03  0.56851702363E+03  0.12699999809E+01 0.  1.
       -4    1    3    3    0  502  0.59341242474E+02 -0.37173945791E+03  0.48741973080E+03  0.61586623102E+03  0.12699999809E+01 0. -1.
</event>
<event>
 5   0  0.1624094E-02  0.8052767E+03  0.7818609E-02  0.9552411E-01
        1   -1    0    0  501    0  0.00000000000E+00  0.00000000000E+00  0.44238012585E+03  0.44238012588E+03  0.50400001928E-02 0. -1.
       -1   -1    0    0    0  501  0.00000000000E+00  0.00000000000E+00 -0.36646679947E+03  0.36646679950E+03  0.50400001928E-02 0.  1.
    10030    2    1    2    0    0  0.00000000000E+00  0.00000000000E+00  0.75913326380E+02  0.80884692538E+03  0.80527667021E+03 0.  0.
        3    1    3    3  502    0  0.91541913397E+02  0.32401422980E+03  0.25973522296E+03  0.42523821473E+03  0.10100000352E+00 0. -1.
       -3    1    3    3    0  502 -0.91541913397E+02 -0.32401422980E+03 -0.18382189658E+03  0.38360871065E+03  0.10100000352E+00 0.  1.
</event>
<event>
 5   0  0.2571778E-02  0.8001257E+03  0.7818609E-02  0.9559835E-01
        2   -1    0    0  501    0  0.00000000000E+00  0.00000000000E+00  0.61273868964E+03  0.61273868965E+03  0.25500000920E-02 0.  1.
       -2   -1    0    0    0  501  0.00000000000E+00  0.00000000000E+00 -0.26120482026E+03  0.26120482027E+03  0.25500000920E-02 0. -1.
    10030    2    1    2    0    0  0.00000000000E+00  0.00000000000E+00  0.35153386939E+03  0.87394350991E+03  0.80012573837E+03 0.  0.
        1    1    3    3  502    0  0.33066031743E+03 -0.18274151917E+03  0.31951232802E+03  0.49479170985E+03  0.50400001928E-02 0.  1.
       -1    1    3    3    0  502 -0.33066031743E+03  0.18274151917E+03  0.32021541361E+02  0.37915180006E+03  0.50400001928E-02 0. -1.
</event>
<event>
 5   0  0.1471290E-02  0.8028915E+03  0.7818609E-02  0.9555841E-01
        1   -1    0    0  501    0  0.00000000000E+00  0.00000000000E+00  0.70587999394E+03  0.70587999396E+03  0.50400001928E-02 0.  1.
       -1   -1    0    0    0  501  0.00000000000E+00  0.00000000000E+00 -0.22830892376E+03  0.22830892381E+03  0.50400001928E-02 0. -1.
    10030    2    1    2    0    0  0.00000000000E+00  0.00000000000E+00  0.47757107019E+03  0.93418891777E+03  0.80289152880E+03 0.  0.
        2    1    3    3  502    0 -0.39005629723E+03 -0.32199113354E+02  0.34271171302E+03  0.52022304463E+03  0.25500000920E-02 0.  1.
       -2    1    3    3    0  502  0.39005629723E+03  0.32199113354E+02  0.13485935716E+03  0.41396587315E+03  0.25500000920E-02 0. -1.
</event>
<event>
 5   0  0.2460312E-02  0.7691814E+03  0.7818609E-02  0.9605729E-01
       -2   -1    0    0    0  501  0.00000000000E+00  0.00000000000E+00  0.19988413405E+03  0.19988413406E+03  0.25500000920E-02 0. -1.
        2   -1    0    0  501    0  0.00000000000E+00  0.00000000000E+00 -0.73997865907E+03  0.73997865907E+03  0.25500000920E-02 0.  1.
    10030    2    1    2    0    0  0.00000000000E+00  0.00000000000E+00 -0.54009452502E+03  0.93986279313E+03  0.76918136610E+03 0.  0.
        2    1    3    3  502    0  0.28246361305E+03  0.10742854867E+03  0.20609379791E+02  0.30290482384E+03  0.25500000920E-02 0. -1.
       -2    1    3    3    0  502 -0.28246361305E+03 -0.10742854867E+03 -0.56070390481E+03  0.63695796929E+03  0.25500000920E-02 0.  1.
</event>
<event>
 5   0  0.1498375E-02  0.7974520E+03  0.7818609E-02  0.9563713E-01
        1   -1    0    0  501    0  0.00000000000E+00  0.00000000000E+00  0.18853467389E+03  0.18853467395E+03  0.50400001928E-02 0.  1.
       -1   -1    0    0    0  501  0.00000000000E+00  0.00000000000E+00 -0.84325289513E+03  0.84325289515E+03  0.50400001928E-02 0. -1.
    10030    2    1    2    0    0  0.00000000000E+00  0.00000000000E+00 -0.65471822125E+03  0.10317875691E+04  0.79745196628E+03 0.  0.
        4    1    3    3  502    0 -0.45294285371E+02 -0.35846681160E+02  0.18308980368E+03  0.19198970272E+03  0.12699999809E+01 0.  1.
       -4    1    3    3    0  502  0.45294285371E+02  0.35846681160E+02 -0.83780802493E+03  0.83979786638E+03  0.12699999809E+01 0. -1.
</event>
<event>
 5   0  0.2454354E-02  0.7897456E+03  0.7818609E-02  0.9574980E-01
        2   -1    0    0  501    0  0.00000000000E+00  0.00000000000E+00  0.39781225070E+03  0.39781225070E+03  0.25500000920E-02 0. -1.
       -2   -1    0    0    0  501  0.00000000000E+00  0.00000000000E+00 -0.39195509147E+03  0.39195509148E+03  0.25500000920E-02 0.  1.
    10030    2    1    2    0    0  0.00000000000E+00  0.00000000000E+00  0.58571592273E+01  0.78976734218E+03  0.78974562263E+03 0.  0.
        5    1    3    3  502    0 -0.11636516036E+02  0.61455016013E+02  0.39279866028E+03  0.39777506837E+03  0.46999998093E+01 0. -1.
       -5    1    3    3    0  502  0.11636516036E+02 -0.61455016013E+02 -0.38694150105E+03  0.39199227382E+03  0.46999998093E+01 0.  1.
</event>
<event>
 5   0  0.1498375E-02  0.8050510E+03  0.7818609E-02  0.9552735E-01
       -1   -1    0    0    0  501  0.00000000000E+00  0.00000000000E+00  0.21778898987E+03  0.21778898993E+03  0.50400001928E-02 0.  1.
        1   -1    0    0  501    0  0.00000000000E+00  0.00000000000E+00 -0.74396224135E+03  0.74396224136E+03  0.50400001928E-02 0. -1.
    10030    2    1    2    0    0  0.00000000000E+00  0.00000000000E+00 -0.52617325148E+03  0.96175123129E+03  0.80505101721E+03 0.  0.
        4    1    3    3  502    0  0.25585734186E+03 -0.20871302892E+03  0.11944371435E+02  0.33040639935E+03  0.12699999809E+01 0.  1.
       -4    1    3    3    0  502 -0.25585734186E+03  0.20871302892E+03 -0.53811762291E+03  0.63134483194E+03  0.12699999809E+01 0. -1.
</event>
<event>
 5   0  0.2571778E-02  0.7718210E+03  0.7818609E-02  0.9601725E-01
        2   -1    0    0  501    0  0.00000000000E+00  0.00000000000E+00  0.63079032202E+03  0.63079032203E+03  0.25500000920E-02 0. -1.
       -2   -1    0    0    0  501  0.00000000000E+00  0.00000000000E+00 -0.23609577164E+03  0.23609577166E+03  0.25500000920E-02 0.  1.
    10030    2    1    2    0    0  0.00000000000E+00  0.00000000000E+00  0.39469455038E+03  0.86688609368E+03  0.77182103581E+03 0.  0.
        1    1    3    3  502    0 -0.33331118720E+03 -0.60612166628E+02  0.40492639563E+03  0.52795413452E+03  0.50400001928E-02 0. -1.
       -1    1    3    3    0  502  0.33331118720E+03  0.60612166628E+02 -0.10231845252E+02  0.33893195916E+03  0.50400001928E-02 0.  1.
</event>
<event>
 5   0  0.1471290E-02  0.8008524E+03  0.7818609E-02  0.9558784E-01
        1   -1    0    0  501    0  0.00000000000E+00  0.00000000000E+00  0.33591137448E+03  0.33591137451E+03  0.50400001928E-02 0.  1.
       -1   -1    0    0    0  501  0.00000000000E+00  0.00000000000E+00 -0.47733162636E+03  0.47733162638E+03  0.50400001928E-02 0. -1.
    10030    2    1    2    0    0  0.00000000000E+00  0.00000000000E+00 -0.14142025188E+03  0.81324300090E+03  0.80085235273E+03 0.  0.
        2    1    3    3  502    0  0.13551660765E+03  0.35118309130E+03 -0.20937617121E+03  0.43073506432E+03  0.25500000920E-02 0.  1.
       -2    1    3    3    0  502 -0.13551660765E+03 -0.35118309130E+03  0.67955919328E+02  0.38250793657E+03  0.25500000920E-02 0. -1.
</event>
<event>
 5   0  0.9919125E-03  0.7712949E+03  0.7818609E-02  0.9602522E-01
       -4   -1    0    0    0  501  0.00000000000E+00  0.00000000000E+00  0.85923982460E+03  0.85924076316E+03  0.12699999809E+01 0.  1.
        4   -1    0    0  501    0  0.00000000000E+00  0.00000000000E+00 -0.17308445126E+03  0.17308911049E+03  0.12699999809E+01 0. -1.
    10030    2    1    2    0    0  0.00000000000E+00  0.00000000000E+00  0.68615537334E+03  0.10323298737E+04  0.77129486688E+03 0.  0.
        5    1    3    3  502    0 -0.32329318019E+03 -0.10398699566E+03  0.98578926940E+02  0.35365473341E+03  0.46999998093E+01 0. -1.
       -5    1    3    3    0  502  0.32329318019E+03  0.10398699566E+03  0.58757644640E+03  0.67867514024E+03  0.46999998093E+01 0.  1.
</event>
<event>
 5   0  0.1624094E-02  0.9112443E+03  0.7818609E-02  0.9411634E-01
        1   -1    0    0  501    0  0.00000000000E+00  0.00000000000E+00  0.13513028755E+04  0.13513028755E+04  0.50400001928E-02 0.  1.
       -1   -1    0    0    0  501  0.00000000000E+00  0.00000000000E+00 -0.15362326331E+03  0.15362326340E+03  0.50400001928E-02 0. -1.
    10030    2    1    2    0    0  0.00000000000E+00  0.00000000000E+00  0.11976796122E+04  0.15049261389E+04  0.91124433064E+03 0.  0.
        3    1    3    3  502    0 -0.90277617422E+02  0.42059534515E+03  0.84679171905E+03  0.94979298703E+03  0.10100000352E+00 0. -1.
       -3    1    3    3    0  502  0.90277617422E+02 -0.42059534515E+03  0.35088789316E+03  0.55513315189E+03  0.10100000352E+00 0.  1.
</event>
<event>
 5   0  0.1509629E-02  0.7684314E+03  0.7818609E-02  0.9606870E-01
        1   -1    0    0  501    0  0.00000000000E+00  0.00000000000E+00  0.20377799931E+03  0.20377799937E+03  0.50400001928E-02 0.  1.
       -1   -1    0    0    0  501  0.00000000000E+00  0.00000000000E+00 -0.72442411642E+03  0.72442411644E+03  0.50400001928E-02 0. -1.
    10030    2    1    2    0    0  0.00000000000E+00  0.00000000000E+00 -0.52064611712E+03  0.92820211581E+03  0.76843138180E+03 0.  0.
        5    1    3    3  502    0 -0.14246345047E+03 -0.32824457660E+03 -0.91390334080E+02  0.36934349858E+03  0.46999998093E+01 0.  1.
       -5    1    3    3    0  502  0.14246345047E+03  0.32824457660E+03 -0.42925578303E+03  0.55885861723E+03  0.46999998093E+01 0. -1.
</event>
<event>
 5   0  0.1498375E-02  0.8031775E+03  0.7818609E-02  0.9555429E-01
       -1   -1    0    0    0  501  0.00000000000E+00  0.00000000000E+00  0.23231608700E+03  0.23231608705E+03  0.50400001928E-02 0.  1.
        1   -1    0    0  501    0  0.00000000000E+00  0.00000000000E+00 -0.69419876253E+03  0.69419876255E+03  0.50400001928E-02 0. -1.
    10030    2    1    2    0    0  0.00000000000E+00  0.00000000000E+00 -0.46188267553E+03  0.92651484960E+03  0.80317753988E+03 0.  0.
        4    1    3    3  502    0 -0.34736666529E+03  0.16151479574E+03 -0.91932137234E+02  0.39395908437E+03  0.12699999809E+01 0.  1.
       -4    1    3    3    0  502  0.34736666529E+03 -0.16151479574E+03 -0.36995053830E+03  0.53255576523E+03  0.12699999809E+01 0. -1.
</event>
<event>
 5   0  0.2422031E-02  0.7845532E+03  0.7818609E-02  0.9582649E-01
        2   -1    0    0  501    0  0.00000000000E+00  0.00000000000E+00  0.77997253181E+03  0.77997253182E+03  0.25500000920E-02 0.  1.
       -2   -1    0    0    0  501  0.00000000000E+00  0.00000000000E+00 -0.19729019556E+03  0.19729019558E+03  0.25500000920E-02 0. -1.
    10030    2    1    2    0    0  0.00000000000E+00  0.00000000000E+00  0.58268233625E+03  0.97726272740E+03  0.78455320621E+03 0.  0.
        4    1    3    3  502    0 -0.13517952938E+03  0.15853229049E+03 -0.12267533469E+03  0.24177849973E+03  0.12699999809E+01 0. -1.
       -4    1    3    3    0  502  0.13517952938E+03 -0.15853229049E+03  0.70535767094E+03  0.73548422766E+03  0.12699999809E+01 0.  1.
</event>
<event>
 5   0  0.2571778E-02  0.8080284E+03  0.7818609E-02  0.9548469E-01
       -2   -1    0    0    0  501  0.00000000000E+00  0.00000000000E+00  0.30135689065E+03  0.30135689066E+03  0.25500000920E-02 0.  1.
        2   -1    0    0  501    0  0.00000000000E+00  0.00000000000E+00 -0.54164169047E+03  0.54164169047E+03  0.25500000920E-02 0. -1.
    10030    2    1    2    0    0  0.00000000000E+00  0.00000000000E+00 -0.24028479982E+03  0.84299858113E+03  0.80802835517E+03 0.  0.
        1    1    3    3  502    0  0.97718370696E+02 -0.36576779674E+03  0.27002382285E+02  0.37955775552E+03  0.50400001928E-02 0.  1.
       -1    1    3    3    0  502 -0.97718370696E+02  0.36576779674E+03 -0.26728718210E+03  0.46344082561E+03  0.50400001928E-02 0. -1.
</event>
<event>
 5   0  0.2454354E-02  0.7128547E+03  0.7818609E-02  0.9695498E-01
        2   -1    0    0  501    0  0.00000000000E+00  0.00000000000E+00  0.91533538594E+03  0.91533538594E+03  0.25500000920E-02 0.  1.
       -2   -1    0    0    0  501  0.00000000000E+00  0.00000000000E+00 -0.13879115081E+03  0.13879115084E+03  0.25500000920E-02 0. -1.
    10030    2    1    2    0    0  0.00000000000E+00  0.00000000000E+00  0.77654423512E+03  0.10541265368E+04  0.71285468817E+03 0.  0.
        5    1    3    3  502    0  0.29863241180E+03 -0.14553214283E+03  0.57912374185E+03  0.66765808641E+03  0.46999998093E+01 0.  1.
       -5    1    3    3    0  502 -0.29863241180E+03  0.14553214283E+03  0.19742049327E+03  0.38646845037E+03  0.46999998093E+01 0. -1.
</event>
<event>
 5   0  0.2460312E-02  0.8154462E+03  0.7818609E-02  0.9537925E-01
        2   -1    0    0  501    0  0.00000000000E+00  0.00000000000E+00  0.97853513419E+03  0.97853513419E+03  0.25500000920E-02 0. -1.
       -2   -1    0    0    0  501  0.00000000000E+00  0.00000000000E+00 -0.16988467408E+03  0.16988467410E+03  0.25500000920E-02 0.  1.
    10030    2    1    2    0    0  0.00000000000E+00  0.00000000000E+00  0.80865046012E+03  0.11484198083E+04  0.81544619039E+03 0.  0.
        2    1    3    3  502    0  0.37247699291E+03 -0.15783837647E+03  0.33270683533E+03  0.52378039446E+03  0.25500000920E-02 0. -1.
       -2    1    3    3    0  502 -0.37247699291E+03  0.15783837647E+03  0.47594362478E+03  0.62463941383E+03  0.25500000920E-02 0.  1.
</event>
<event>
 5   0  0.9919125E-03  0.8008937E+03  0.7818609E-02  0.9558724E-01
        4   -1    0    0  501    0  0.00000000000E+00  0.00000000000E+00  0.67169696256E+03  0.67169816317E+03  0.12699999809E+01 0. -1.
       -4   -1    0    0    0  501  0.00000000000E+00  0.00000000000E+00 -0.23873203282E+03  0.23873541085E+03  0.12699999809E+01 0.  1.
    10030    2    1    2    0    0  0.00000000000E+00  0.00000000000E+00  0.43296492974E+03  0.91043357403E+03  0.80089366481E+03 0.  0.
        5    1    3    3  502    0  0.35758030160E+03  0.14214419359E+03  0.34238700192E+03  0.51509182962E+03  0.46999998093E+01 0. -1.
       -5    1    3    3    0  502 -0.35758030160E+03 -0.14214419359E+03  0.90577927816E+02  0.39534174440E+03  0.46999998093E+01 0.  1.
</event>
<event>
 5   0  0.1523811E-02  0.8008628E+03  0.7818609E-02  0.9558769E-01
        1   -1    0    0  501    0  0.00000000000E+00  0.00000000000E+00  0.81446936460E+03  0.81446936462E+03  0.50400001928E-02 0.  1.
       -1   -1    0    0    0  501  0.00000000000E+00  0.00000000000E+00 -0.19687090431E+03  0.19687090438E+03  0.50400001928E-02 0. -1.
    10030    2    1    2    0    0  0.00000000000E+00  0.00000000000E+00  0.61759846029E+03  0.10113402690E+04  0.80086283566E+03 0.  0.
        1    1    3    3  502    0 -0.18095129947E+03  0.32192594426E+03  0.11330514554E+03  0.38628712430E+03  0.50400001928E-02 0. -1.
       -1    1    3    3    0  502  0.18095129947E+03 -0.32192594426E+03  0.50429331475E+03  0.62505314469E+03  0.50400001928E-02 0.  1.
</event>
<event>
 5   0  0.2454354E-02  0.7975091E+03  0.7818609E-02  0.9563630E-01
        2   -1    0    0  501    0  0.00000000000E+00  0.00000000000E+00  0.94466297210E+03  0.94466297210E+03  0.25500000920E-02 0.  1.
       -2   -1    0    0    0  501  0.00000000000E+00  0.00000000000E+00 -0.16831947983E+03  0.16831947985E+03  0.25500000920E-02 0. -1.
    10030    2    1    2    0    0  0.00000000000E+00  0.00000000000E+00  0.77634349227E+03  0.11129824520E+04  0.79750907227E+03 0.  0.
        5    1    3    3  502    0  0.94736619627E+02 -0.25583102161E+03  0.79398988230E+03  0.83956331620E+03  0.46999998093E+01 0.  1.
       -5    1    3    3    0  502 -0.94736619627E+02  0.25583102161E+03 -0.17646390028E+02  0.27341913575E+03  0.46999998093E+01 0. -1.
</event>
<event>
 5   0  0.2571778E-02  0.7872007E+03  0.7818609E-02  0.9578731E-01
       -2   -1    0    0    0  501  0.00000000000E+00  0.00000000000E+00  0.35373516094E+03  0.35373516095E+03  0.25500000920E-02 0.  1.
        2   -1    0    0  501    0  0.00000000000E+00  0.00000000000E+00 -0.43795824124E+03  0.43795824125E+03  0.25500000920E-02 0. -1.
    10030    2    1    2    0    0  0.00000000000E+00  0.00000000000E+00 -0.84223080297E+02  0.79169340220E+03  0.78720068333E+03 0.  0.
        1    1    3    3  502    0  0.11011477591E+03  0.75402511367E+02  0.33028600021E+03  0.35622976371E+03  0.50400001928E-02 0.  1.
       -1    1    3    3    0  502 -0.11011477591E+03 -0.75402511367E+02 -0.41450908051E+03  0.43546363849E+03  0.50400001928E-02 0. -1.
</event>
<event>
 5   0  0.1509629E-02  0.8199468E+03  0.7818609E-02  0.9531585E-01
        1   -1    0    0  501    0  0.00000000000E+00  0.00000000000E+00  0.30789296816E+03  0.30789296820E+03  0.50400001928E-02 0.  1.
       -1   -1    0    0    0  501  0.00000000000E+00  0.00000000000E+00 -0.54589809598E+03  0.54589809600E+03  0.50400001928E-02 0. -1.
    10030    2    1    2    0    0  0.00000000000E+00  0.00000000000E+00 -0.23800512782E+03  0.85379106421E+03  0.81994679123E+03 0.  0.
        5    1    3    3  502    0 -0.51083533949E+02  0.26284416357E+03  0.20422860554E+03  0.33679072892E+03  0.46999998093E+01 0.  1.
       -5    1    3    3    0  502  0.51083533949E+02 -0.26284416357E+03 -0.44223373336E+03  0.51700033529E+03  0.46999998093E+01 0. -1.
</event>
<event>
 5   0  0.1523811E-02  0.7842664E+03  0.7818609E-02  0.9583074E-01
        1   -1    0    0  501    0  0.00000000000E+00  0.00000000000E+00  0.26594334820E+03  0.26594334825E+03  0.50400001928E-02 0.  1.
       -1   -1    0    0    0  501  0.00000000000E+00  0.00000000000E+00 -0.57820000816E+03  0.57820000818E+03  0.50400001928E-02 0. -1.
    10030    2    1    2    0    0  0.00000000000E+00  0.00000000000E+00 -0.31225665995E+03  0.84414335643E+03  0.78426639895E+03 0.  0.
        1    1    3    3  502    0  0.20152637840E+03  0.23820236057E+03 -0.41178119592E+03  0.51664010598E+03  0.50400001928E-02 0. -1.
       -1    1    3    3    0  502 -0.20152637840E+03 -0.23820236057E+03  0.99524535965E+02  0.32750325045E+03  0.50400001928E-02 0.  1.
</event>
<event>
 5   0  0.2454354E-02  0.7951747E+03  0.7818609E-02  0.9567028E-01
        2   -1    0    0  501    0  0.00000000000E+00  0.00000000000E+00  0.62015436271E+03  0.62015436272E+03  0.25500000920E-02 0.  1.
       -2   -1    0    0    0  501  0.00000000000E+00  0.00000000000E+00 -0.25489737405E+03  0.25489737406E+03  0.25500000920E-02 0. -1.
    10030    2    1    2    0    0  0.00000000000E+00  0.00000000000E+00  0.36525698866E+03  0.87505173678E+03  0.79517474449E+03 0.  0.
        5    1    3    3  502    0  0.17237097929E+03 -0.24625531379E+03 -0.10370101651E+03  0.31800852959E+03  0.46999998093E+01 0. -1.
       -5    1    3    3    0  502 -0.17237097929E+03  0.24625531379E+03  0.46895800517E+03  0.55704320719E+03  0.46999998093E+01 0.  1.
</event>
<event>
 5   0  0.1624094E-02  0.7694435E+03  0.7818609E-02  0.9605331E-01
       -1   -1    0    0    0  501  0.00000000000E+00  0.00000000000E+00  0.86531274008E+02  0.86531274155E+02  0.50400001928E-02 0.  1.
        1   -1    0    0  501    0  0.00000000000E+00  0.00000000000E+00 -0.17104894587E+04  0.17104894587E+04  0.50400001928E-02 0. -1.
    10030    2    1    2    0    0  0.00000000000E+00  0.00000000000E+00 -0.16239581847E+04  0.17970207329E+04  0.76944351886E+03 0.  0.
        3    1    3    3  502    0  0.23030622993E+03  0.86069449550E+02 -0.12089012367E+03  0.27397690029E+03  0.10100000352E+00 0.  1.
       -3    1    3    3    0  502 -0.23030622993E+03 -0.86069449550E+02 -0.15030680610E+04  0.15230438326E+04  0.10100000352E+00 0. -1.
</event>
<event>
 5   0  0.2464780E-02  0.7992936E+03  0.7818609E-02  0.9561040E-01
        2   -1    0    0  501    0  0.00000000000E+00  0.00000000000E+00  0.25841564284E+03  0.25841564285E+03  0.25500000920E-02 0. -1.
       -2   -1    0    0    0  501  0.00000000000E+00  0.00000000000E+00 -0.61806455876E+03  0.61806455877E+03  0.25500000920E-02 0.  1.
    10030    2    1    2    0    0  0.00000000000E+00  0.00000000000E+00 -0.35964891592E+03  0.87648020162E+03  0.79929356378E+03 0.  0.
        3    1    3    3  502    0  0.29304411053E+03 -0.69498461699E+02 -0.46789586685E+03  0.55644536058E+03  0.10100000352E+00 0.  1.
       -3    1    3    3    0  502 -0.29304411053E+03  0.69498461699E+02  0.10824695092E+03  0.32003484104E+03  0.10100000352E+00 0. -1.
</event>
<event>
 5   0  0.1471290E-02  0.8011364E+03  0.7818609E-02  0.9558374E-01
        1   -1    0    0  501    0  0.00000000000E+00  0.00000000000E+00  0.79019240858E+03  0.79019240859E+03  0.50400001928E-02 0.  1.
       -1   -1    0    0    0  501  0.00000000000E+00  0.00000000000E+00 -0.20305799757E+03  0.20305799763E+03  0.50400001928E-02 0. -1.
    10030    2    1    2    0    0  0.00000000000E+00  0.00000000000E+00  0.58713441101E+03  0.99325040622E+03  0.80113641340E+03 0.  0.
        2    1    3    3  502    0  0.19175445741E+03 -0.19294041830E+03  0.65811767595E+03  0.71211983005E+03  0.25500000920E-02 0.  1.
       -2    1    3    3    0  502 -0.19175445741E+03  0.19294041830E+03 -0.70983264947E+02  0.28113057617E+03  0.25500000920E-02 0. -1.
</event>
<event>
 5   0  0.2571778E-02  0.8196393E+03  0.7818609E-02  0.9532017E-01
        2   -1    0    0  501    0  0.00000000000E+00  0.00000000000E+00  0.13021237027E+04  0.13021237027E+04  0.25500000920E-02 0. -1.
       -2   -1    0    0    0  501  0.00000000000E+00  0.00000000000E+00 -0.12898325019E+03  0.12898325022E+03  0.25500000920E-02 0.  1.
    10030    2    1    2    0    0  0.00000000000E+00  0.00000000000E+00  0.11731404525E+04  0.14311069529E+04  0.81963930445E+03 0.  0.
        1    1    3    3  502    0  0.31660109685E+03  0.25203648816E+03  0.69963770639E+03  0.80823979494E+03  0.50400001928E-02 0. -1.
       -1    1    3    3    0  502 -0.31660109685E+03 -0.25203648816E+03  0.47350274612E+03  0.62286715799E+03  0.50400001928E-02 0.  1.
</event>
<event>
 5   0  0.1471290E-02  0.8040602E+03  0.7818609E-02  0.9554159E-01
        1   -1    0    0  501    0  0.00000000000E+00  0.00000000000E+00  0.70807620732E+03  0.70807620734E+03  0.50400001928E-02 0.  1.
       -1   -1    0    0    0  501  0.00000000000E+00  0.00000000000E+00 -0.22826383944E+03  0.22826383949E+03  0.50400001928E-02 0. -1.
    10030    2    1    2    0    0  0.00000000000E+00  0.00000000000E+00  0.47981236789E+03  0.93634004683E+03  0.80406018116E+03 0.  0.
        2    1    3    3  502    0  0.45398972574E+02 -0.20976957435E+02 -0.22462739135E+03  0.23012727871E+03  0.25500000920E-02 0. -1.
       -2    1    3    3    0  502 -0.45398972574E+02  0.20976957435E+02  0.70443975924E+03  0.70621276812E+03  0.25500000920E-02 0.  1.
</event>
<event>
 5   0  0.2422031E-02  0.8084884E+03  0.7818609E-02  0.9547811E-01
        2   -1    0    0  501    0  0.00000000000E+00  0.00000000000E+00  0.44289986710E+03  0.44289986711E+03  0.25500000920E-02 0. -1.
       -2   -1    0    0    0  501  0.00000000000E+00  0.00000000000E+00 -0.36896232104E+03  0.36896232105E+03  0.25500000920E-02 0.  1.
    10030    2    1    2    0    0  0.00000000000E+00  0.00000000000E+00  0.73937546064E+02  0.81186218816E+03  0.80848837459E+03 0.  0.
        4    1    3    3  502    0 -0.39581140449E+03 -0.74089261932E+02  0.13827269176E+01  0.40269021778E+03  0.12699999809E+01 0.  1.
       -4    1    3    3    0  502  0.39581140449E+03  0.74089261932E+02  0.72554819146E+02  0.40917197038E+03  0.12699999809E+01 0. -1.
</event>
<event>
 5   0  0.1471290E-02  0.7832651E+03  0.7818609E-02  0.9584561E-01
        1   -1    0    0  501    0  0.00000000000E+00  0.00000000000E+00  0.19801593198E+04  0.19801593198E+04  0.50400001928E-02 0. -1.
       -1   -1    0    0    0  501  0.00000000000E+00  0.00000000000E+00 -0.77456414927E+02  0.77456415091E+02  0.50400001928E-02 0.  1.
    10030    2    1    2    0    0  0.00000000000E+00  0.00000000000E+00  0.19027029048E+04  0.20576157349E+04  0.78326506897E+03 0.  0.
        2    1    3    3  502    0 -0.32054579699E+02 -0.25455387254E+03  0.17286462328E+04  0.17475820347E+04  0.25500000920E-02 0. -1.
       -2    1    3    3    0  502  0.32054579699E+02  0.25455387254E+03  0.17405667207E+03  0.31003370011E+03  0.25500000920E-02 0.  1.
</event>
<event>
 5   0  0.9919125E-03  0.8051082E+03  0.7818609E-02  0.9552653E-01
        4   -1    0    0  501    0  0.00000000000E+00  0.00000000000E+00  0.64696039715E+03  0.64696164367E+03  0.12699999809E+01 0.  1.
       -4   -1    0    0    0  501  0.00000000000E+00  0.00000000000E+00 -0.25047560542E+03  0.25047882507E+03  0.12699999809E+01 0. -1.
    10030    2    1    2    0    0  0.00000000000E+00  0.00000000000E+00  0.39648479173E+03  0.89744046874E+03  0.80510819451E+03 0.  0.
        2    1    3    3  502    0 -0.32866103215E+03  0.23192473008E+03  0.21560595006E+03  0.45639136734E+03  0.25500000920E-02 0.  1.
       -2    1    3    3    0  502  0.32866103215E+03 -0.23192473008E+03  0.18087884168E+03  0.44104910140E+03  0.25500000920E-02 0. -1.
</event>
<event>
 5   0  0.1624094E-02  0.7584845E+03  0.7818609E-02  0.9622133E-01
        1   -1    0    0  501    0  0.00000000000E+00  0.00000000000E+00  0.35654059871E+03  0.35654059875E+03  0.50400001928E-02 0. -1.
       -1   -1    0    0    0  501  0.00000000000E+00  0.00000000000E+00 -0.40338938378E+03  0.40338938381E+03  0.50400001928E-02 0.  1.
    10030    2    1    2    0    0  0.00000000000E+00  0.00000000000E+00 -0.46848785062E+02  0.75992998256E+03  0.75848452174E+03 0.  0.
        3    1    3    3  502    0  0.21025490669E+03 -0.31557508885E+03 -0.17944074651E+02  0.37962713616E+03  0.10100000352E+00 0. -1.
       -3    1    3    3    0  502 -0.21025490669E+03  0.31557508885E+03 -0.28904710411E+02  0.38030284640E+03  0.10100000352E+00 0.  1.
</event>
<event>
 5   0  0.1471290E-02  0.8080767E+03  0.7818609E-02  0.9548399E-01
        1   -1    0    0  501    0  0.00000000000E+00  0.00000000000E+00  0.36267924659E+03  0.36267924663E+03  0.50400001928E-02 0.  1.
       -1   -1    0    0    0  501  0.00000000000E+00  0.00000000000E+00 -0.45011394987E+03  0.45011394990E+03  0.50400001928E-02 0. -1.
    10030    2    1    2    0    0  0.00000000000E+00  0.00000000000E+00 -0.87434703282E+02  0.81279319653E+03  0.80807669994E+03 0.  0.
        2    1    3    3  502    0  0.36137854317E+03  0.17211621649E+03 -0.99070773855E+02  0.41235113881E+03  0.25500000920E-02 0.  1.
       -2    1    3    3    0  502 -0.36137854317E+03 -0.17211621649E+03  0.11636070573E+02  0.40044205772E+03  0.25500000920E-02 0. -1.
</event>
<event>
 5   0  0.1523811E-02  0.8006003E+03  0.7818609E-02  0.9559149E-01
       -1   -1    0    0    0  501  0.00000000000E+00  0.00000000000E+00  0.10405541116E+03  0.10405541128E+03  0.50400001928E-02 0.  1.
        1   -1    0    0  501    0  0.00000000000E+00  0.00000000000E+00 -0.15399507447E+04  0.15399507447E+04  0.50400001928E-02 0. -1.
    10030    2    1    2    0    0  0.00000000000E+00  0.00000000000E+00 -0.14358953335E+04  0.16440061560E+04  0.80060029480E+03 0.  0.
        1    1    3    3  502    0  0.19478253357E+03 -0.21207141428E+03 -0.14692994139E+03  0.32326912603E+03  0.50400001928E-02 0.  1.
       -1    1    3    3    0  502 -0.19478253357E+03  0.21207141428E+03 -0.12889653921E+04  0.13207370299E+04  0.50400001928E-02 0. -1.
</event>
<event>
 5   0  0.1509629E-02  0.8056181E+03  0.7818609E-02  0.9551921E-01
        1   -1    0    0  501    0  0.00000000000E+00  0.00000000000E+00  0.41115794211E+03  0.41115794214E+03  0.50400001928E-02 0. -1.
       -1   -1    0    0    0  501  0.00000000000E+00  0.00000000000E+00 -0.39462972088E+03  0.39462972091E+03  0.50400001928E-02 0.  1.
    10030    2    1    2    0    0  0.00000000000E+00  0.00000000000E+00  0.16528221228E+02  0.80578766305E+03  0.80561813275E+03 0.  0.
        5    1    3    3  502    0 -0.34929529411E+03 -0.19450676461E+03  0.57192397194E+02  0.40389744275E+03  0.46999998093E+01 0.  1.
       -5    1    3    3    0  502  0.34929529411E+03  0.19450676461E+03 -0.40664175966E+02  0.40189022030E+03  0.46999998093E+01 0. -1.
</event>
<event>
 5   0  0.1509629E-02  0.7938886E+03  0.7818609E-02  0.9568905E-01
       -1   -1    0    0    0  501  0.00000000000E+00  0.00000000000E+00  0.52390515471E+03  0.52390515474E+03  0.50400001928E-02 0.  1.
        1   -1    0    0  501    0  0.00000000000E+00  0.00000000000E+00 -0.30075060693E+03  0.30075060697E+03  0.50400001928E-02 0. -1.
    10030    2    1    2    0    0  0.00000000000E+00  0.00000000000E+00  0.22315454779E+03  0.82465576171E+03  0.79388864025E+03 0.  0.
        5    1    3    3  502    0 -0.25683875976E+03 -0.23645859025E+03 -0.84590410214E+02  0.35924426358E+03  0.46999998093E+01 0. -1.
       -5    1    3    3    0  502  0.25683875976E+03  0.23645859025E+03  0.30774495800E+03  0.46541149813E+03  0.46999998093E+01 0.  1.
</event>
<event>
 5   0  0.1509629E-02  0.7982992E+03  0.7818609E-02  0.9562482E-01
       -1   -1    0    0    0  501  0.00000000000E+00  0.00000000000E+00  0.12309104264E+03  0.12309104274E+03  0.50400001928E-02 0.  1.
        1   -1    0    0  501    0  0.00000000000E+00  0.00000000000E+00 -0.12943296398E+04  0.12943296398E+04  0.50400001928E-02 0. -1.
    10030    2    1    2    0    0  0.00000000000E+00  0.00000000000E+00 -0.11712385971E+04  0.14174206825E+04  0.79829915434E+03 0.  0.
        5    1    3    3  502    0  0.12901128777E+03 -0.21435116841E+03 -0.33460234746E+02  0.25245200153E+03  0.46999998093E+01 0.  1.
       -5    1    3    3    0  502 -0.12901128777E+03  0.21435116841E+03 -0.11377783624E+04  0.11649686810E+04  0.46999998093E+01 0. -1.
</event>
<event>
 5   0  0.2422031E-02  0.7815221E+03  0.7818609E-02  0.9587155E-01
       -2   -1    0    0    0  501  0.00000000000E+00  0.00000000000E+00  0.54569249588E+03  0.54569249588E+03  0.25500000920E-02 0.  1.
        2   -1    0    0  501    0  0.00000000000E+00  0.00000000000E+00 -0.27981727754E+03  0.27981727755E+03  0.25500000920E-02 0. -1.
    10030    2    1    2    0    0  0.00000000000E+00  0.00000000000E+00  0.26587521834E+03  0.82550977344E+03  0.78152207538E+03 0.  0.
        4    1    3    3  502    0 -0.17102228511E+03  0.44904289634E+01 -0.23815337929E+03  0.29323613509E+03  0.12699999809E+01 0. -1.
       -4    1    3    3    0  502  0.17102228511E+03 -0.44904289634E+01  0.50402859762E+03  0.53227363835E+03  0.12699999809E+01 0.  1.
</event>
<event>
 5   0  0.1498375E-02  0.7805501E+03  0.7818609E-02  0.9588605E-01
       -1   -1    0    0    0  501  0.00000000000E+00  0.00000000000E+00  0.80424627899E+03  0.80424627900E+03  0.50400001928E-02 0. -1.
        1   -1    0    0  501    0  0.00000000000E+00  0.00000000000E+00 -0.18938800701E+03  0.18938800708E+03  0.50400001928E-02 0.  1.
    10030    2    1    2    0    0  0.00000000000E+00  0.00000000000E+00  0.61485827197E+03  0.99363428608E+03  0.78055006237E+03 0.  0.
        4    1    3    3  502    0  0.48221731050E+02 -0.30159853210E+03  0.61670597550E+03  0.68819683451E+03  0.12699999809E+01 0. -1.
       -4    1    3    3    0  502 -0.48221731050E+02  0.30159853210E+03 -0.18477035304E+01  0.30543745157E+03  0.12699999809E+01 0.  1.
</event>
<event>
 5   0  0.2464780E-02  0.8036195E+03  0.7818609E-02  0.9554793E-01
       -2   -1    0    0    0  501  0.00000000000E+00  0.00000000000E+00  0.29710741355E+03  0.29710741356E+03  0.25500000920E-02 0. -1.
        2   -1    0    0  501    0  0.00000000000E+00  0.00000000000E+00 -0.54340978875E+03  0.54340978876E+03  0.25500000920E-02 0.  1.
    10030    2    1    2    0    0  0.00000000000E+00  0.00000000000E+00 -0.24630237520E+03  0.84051720232E+03  0.80361950410E+03 0.  0.
        3    1    3    3  502    0 -0.10376287804E+03  0.27395323000E+03 -0.41079468202E+03  0.50454869741E+03  0.10100000352E+00 0.  1.
       -3    1    3    3    0  502  0.10376287804E+03 -0.27395323000E+03  0.16449230681E+03  0.33596850491E+03  0.10100000352E+00 0. -1.
</event>
<event>
 5   0  0.2571778E-02  0.8993117E+03  0.7818609E-02  0.9426442E-01
       -2   -1    0    0    0  501  0.00000000000E+00  0.00000000000E+00  0.48702680260E+03  0.48702680261E+03  0.25500000920E-02 0. -1.
        2   -1    0    0  501    0  0.00000000000E+00  0.00000000000E+00 -0.41515251332E+03  0.41515251333E+03  0.25500000920E-02 0.  1.
    10030    2    1    2    0    0  0.00000000000E+00  0.00000000000E+00  0.71874289277E+02  0.90217931594E+03  0.89931173941E+03 0.  0.
        1    1    3    3  502    0 -0.25342044693E+03  0.36161661639E+03  0.12107175951E+03  0.45787211222E+03  0.50400001928E-02 0. -1.
       -1    1    3    3    0  502  0.25342044693E+03 -0.36161661639E+03 -0.49197470238E+02  0.44430720372E+03  0.50400001928E-02 0.  1.
</event>
<event>
 5   0  0.1471290E-02  0.8054756E+03  0.7818609E-02  0.9552125E-01
       -1   -1    0    0    0  501  0.00000000000E+00  0.00000000000E+00  0.10470728435E+03  0.10470728447E+03  0.50400001928E-02 0. -1.
        1   -1    0    0  501    0  0.00000000000E+00  0.00000000000E+00 -0.15490586064E+04  0.15490586064E+04  0.50400001928E-02 0.  1.
    10030    2    1    2    0    0  0.00000000000E+00  0.00000000000E+00 -0.14443513221E+04  0.16537658909E+04  0.80547556159E+03 0.  0.
        2    1    3    3  502    0 -0.25553915337E+03 -0.30782783752E+03 -0.62720791201E+03  0.74394085877E+03  0.25500000920E-02 0.  1.
       -2    1    3    3    0  502  0.25553915337E+03  0.30782783752E+03 -0.81714341005E+03  0.90982503211E+03  0.25500000920E-02 0. -1.
</event>
<event>
 5   0  0.2571778E-02  0.8087064E+03  0.7818609E-02  0.9547500E-01
        2   -1    0    0  501    0  0.00000000000E+00  0.00000000000E+00  0.15550463011E+04  0.15550463011E+04  0.25500000920E-02 0.  1.
       -2   -1    0    0    0  501  0.00000000000E+00  0.00000000000E+00 -0.10514253421E+03  0.10514253424E+03  0.25500000920E-02 0. -1.
    10030    2    1    2    0    0  0.00000000000E+00  0.00000000000E+00  0.14499037669E+04  0.16601888353E+04  0.80870639649E+03 0.  0.
        1    1    3    3  502    0  0.28747892486E+03 -0.14501031223E+03  0.22281296393E+03  0.39155809251E+03  0.50400001928E-02 0. -1.
       -1    1    3    3    0  502 -0.28747892486E+03  0.14501031223E+03  0.12270908030E+04  0.12686307428E+04  0.50400001928E-02 0.  1.
</event>
<event>
 5   0  0.2464780E-02  0.7871755E+03  0.7818609E-02  0.9578768E-01
       -2   -1    0    0    0  501  0.00000000000E+00  0.00000000000E+00  0.22000242933E+03  0.22000242935E+03  0.25500000920E-02 0.  1.
        2   -1    0    0  501    0  0.00000000000E+00  0.00000000000E+00 -0.70413453915E+03  0.70413453916E+03  0.25500000920E-02 0. -1.
    10030    2    1    2    0    0  0.00000000000E+00  0.00000000000E+00 -0.48413210982E+03  0.92413696851E+03  0.78717548031E+03 0.  0.
        3    1    3    3  502    0  0.27558020559E+03 -0.15935513684E+03 -0.51379563445E+03  0.60442077523E+03  0.10100000352E+00 0. -1.
       -3    1    3    3    0  502 -0.27558020559E+03  0.15935513684E+03  0.29663524633E+02  0.31971619328E+03  0.10100000352E+00 0.  1.
</event>
<event>
 5   0  0.1471290E-02  0.7740584E+03  0.7818609E-02  0.9598345E-01
       -1   -1    0    0    0  501  0.00000000000E+00  0.00000000000E+00  0.38381616481E+03  0.38381616484E+03  0.50400001928E-02 0. -1.
        1   -1    0    0  501    0  0.00000000000E+00  0.00000000000E+00 -0.39026908212E+03  0.39026908215E+03  0.50400001928E-02 0.  1.
    10030    2    1    2    0    0  0.00000000000E+00  0.00000000000E+00 -0.64529173075E+01  0.77408524699E+03  0.77405835017E+03 0.  0.
        2    1    3    3  502    0 -0.36668943251E+03  0.12245970545E+03 -0.21504483735E+02  0.38719499248E+03  0.25500000920E-02 0. -1.
       -2    1    3    3    0  502  0.36668943251E+03 -0.12245970545E+03  0.15051566427E+02  0.38689025451E+03  0.25500000920E-02 0.  1.
</event>
<event>
 5   0  0.2464780E-02  0.7867518E+03  0.7818609E-02  0.9579394E-01
       -2   -1    0    0    0  501  0.00000000000E+00  0.00000000000E+00  0.76264870595E+02  0.76264870638E+02  0.25500000920E-02 0. -1.
        2   -1    0    0  501    0  0.00000000000E+00  0.00000000000E+00 -0.20290415941E+04  0.20290415941E+04  0.25500000920E-02 0.  1.
    10030    2    1    2    0    0  0.00000000000E+00  0.00000000000E+00 -0.19527767235E+04  0.21053064648E+04  0.78675178972E+03 0.  0.
        3    1    3    3  502    0  0.38739355614E+03 -0.67130817176E+02 -0.94209126382E+03  0.10208409639E+04  0.10100000352E+00 0. -1.
       -3    1    3    3    0  502 -0.38739355614E+03  0.67130817176E+02 -0.10106854597E+04  0.10844655009E+04  0.10100000352E+00 0.  1.
</event>
<event>
 5   0  0.1498375E-02  0.8009312E+03  0.7818609E-02  0.9558670E-01
       -1   -1    0    0    0  501  0.00000000000E+00  0.00000000000E+00  0.46752834310E+03  0.46752834313E+03  0.50400001928E-02 0. -1.
        1   -1    0    0  501    0  0.00000000000E+00  0.00000000000E+00 -0.34302242067E+03  0.34302242071E+03  0.50400001928E-02 0.  1.
    10030    2    1    2    0    0  0.00000000000E+00  0.00000000000E+00  0.12450592243E+03  0.81055076384E+03  0.80093121804E+03 0.  0.
        4    1    3    3  502    0 -0.50320459849E+01 -0.13626525923E+03  0.44330889560E+03  0.46380807688E+03  0.12699999809E+01 0. -1.
       -4    1    3    3    0  502  0.50320459849E+01  0.13626525923E+03 -0.31880297317E+03  0.34674268696E+03  0.12699999809E+01 0.  1.
</event>
<event>
 5   0  0.9919125E-03  0.8178700E+03  0.7818609E-02  0.9534505E-01
       -4   -1    0    0    0  501  0.00000000000E+00  0.00000000000E+00  0.19237754099E+03  0.19238173296E+03  0.12699999809E+01 0.  1.
        4   -1    0    0  501    0  0.00000000000E+00  0.00000000000E+00 -0.86925483532E+03  0.86925576307E+03  0.12699999809E+01 0. -1.
    10030    2    1    2    0    0  0.00000000000E+00  0.00000000000E+00 -0.67687729433E+03  0.10616374960E+04  0.81786997829E+03 0.  0.
        4    1    3    3  502    0  0.96056719197E+02  0.93696094318E+02 -0.83986369601E+03  0.85051660311E+03  0.12699999809E+01 0. -1.
       -4    1    3    3    0  502 -0.96056719197E+02 -0.93696094318E+02  0.16298640168E+03  0.21112089292E+03  0.12699999809E+01 0.  1.
</event>
<event>
 5   0  0.1498375E-02  0.8003895E+03  0.7818609E-02  0.9559454E-01
        1   -1    0    0  501    0  0.00000000000E+00  0.00000000000E+00  0.48365895443E+03  0.48365895446E+03  0.50400001928E-02 0.  1.
       -1   -1    0    0    0  501  0.00000000000E+00  0.00000000000E+00 -0.33113378469E+03  0.33113378473E+03  0.50400001928E-02 0. -1.
    10030    2    1    2    0    0  0.00000000000E+00  0.00000000000E+00  0.15252516975E+03  0.81479273919E+03  0.80038945547E+03 0.  0.
        4    1    3    3  502    0 -0.14572993016E+02 -0.38007031027E+03  0.20295452601E+03  0.43111247419E+03  0.12699999809E+01 0.  1.
       -4    1    3    3    0  502  0.14572993016E+02  0.38007031027E+03 -0.50429356261E+02  0.38368026500E+03  0.12699999809E+01 0. -1.
</event>
<event>
 5   0  0.2571778E-02  0.7951682E+03  0.7818609E-02  0.9567037E-01
        2   -1    0    0  501    0  0.00000000000E+00  0.00000000000E+00  0.81555347902E+03  0.81555347903E+03  0.25500000920E-02 0. -1.
       -2   -1    0    0    0  501  0.00000000000E+00  0.00000000000E+00 -0.19382313457E+03  0.19382313459E+03  0.25500000920E-02 0.  1.
    10030    2    1    2    0    0  0.00000000000E+00  0.00000000000E+00  0.62173034445E+03  0.10093766136E+04  0.79516823811E+03 0.  0.
        1    1    3    3  502    0 -0.10164181393E+03 -0.35761017621E+03  0.13198944312E+03  0.39450894741E+03  0.50400001928E-02 0.  1.
       -1    1    3    3    0  502  0.10164181393E+03  0.35761017621E+03  0.48974090134E+03  0.61486766620E+03  0.50400001928E-02 0. -1.
</event>
<event>
 5   0  0.1523811E-02  0.7942921E+03  0.7818609E-02  0.9568316E-01
       -1   -1    0    0    0  501  0.00000000000E+00  0.00000000000E+00  0.40535447993E+03  0.40535447996E+03  0.50400001928E-02 0.  1.
        1   -1    0    0  501    0  0.00000000000E+00  0.00000000000E+00 -0.38910380554E+03  0.38910380557E+03  0.50400001928E-02 0. -1.
    10030    2    1    2    0    0  0.00000000000E+00  0.00000000000E+00  0.16250674392E+02  0.79445828553E+03  0.79429206406E+03 0.  0.
        1    1    3    3  502    0 -0.87600577599E+02  0.35463583820E+03  0.16399289928E+03  0.40041741967E+03  0.50400001928E-02 0.  1.
       -1    1    3    3    0  502  0.87600577599E+02 -0.35463583820E+03 -0.14774222489E+03  0.39404086587E+03  0.50400001928E-02 0. -1.
</event>
<event>
 5   0  0.1471290E-02  0.8086961E+03  0.7818609E-02  0.9547514E-01
       -1   -1    0    0    0  501  0.00000000000E+00  0.00000000000E+00  0.26993709712E+03  0.26993709717E+03  0.50400001928E-02 0. -1.
        1   -1    0    0  501    0  0.00000000000E+00  0.00000000000E+00 -0.60568683737E+03  0.60568683739E+03  0.50400001928E-02 0.  1.
    10030    2    1    2    0    0  0.00000000000E+00  0.00000000000E+00 -0.33574974025E+03  0.87562393456E+03  0.80869610280E+03 0.  0.
        2    1    3    3  502    0  0.37994909811E+03 -0.13757536242E+03 -0.18352999336E+03  0.44381477665E+03  0.25500000920E-02 0. -1.
       -2    1    3    3    0  502 -0.37994909811E+03  0.13757536242E+03 -0.15221974689E+03  0.43180915791E+03  0.25500000920E-02 0.  1.
</event>
<event>
 5   0  0.2460312E-02  0.7922220E+03  0.7818609E-02  0.9571344E-01
        2   -1    0    0  501    0  0.00000000000E+00  0.00000000000E+00  0.13273005485E+04  0.13273005485E+04  0.25500000920E-02 0. -1.
       -2   -1    0    0    0  501  0.00000000000E+00  0.00000000000E+00 -0.11821280479E+03  0.11821280482E+03  0.25500000920E-02 0.  1.
    10030    2    1    2    0    0  0.00000000000E+00  0.00000000000E+00  0.12090877437E+04  0.14455133533E+04  0.79222199074E+03 0.  0.
        2    1    3    3  502    0 -0.25753987086E+03  0.86907039509E+02  0.78795627516E+02  0.28299888608E+03  0.25500000920E-02 0.  1.
       -2    1    3    3    0  502  0.25753987086E+03 -0.86907039509E+02  0.11302921161E+04  0.11625144672E+04  0.25500000920E-02 0. -1.
</event>
<event>
 5   0  0.2460312E-02  0.7963645E+03  0.7818609E-02  0.9565294E-01
       -2   -1    0    0    0  501  0.00000000000E+00  0.00000000000E+00  0.11418939126E+03  0.11418939129E+03  0.25500000920E-02 0.  1.
        2   -1    0    0  501    0  0.00000000000E+00  0.00000000000E+00 -0.13884749152E+04  0.13884749152E+04  0.25500000920E-02 0. -1.
    10030    2    1    2    0    0  0.00000000000E+00  0.00000000000E+00 -0.12742855240E+04  0.15026643065E+04  0.79636450290E+03 0.  0.
        2    1    3    3  502    0 -0.17465708164E+03 -0.81298949337E+02  0.20395612402E+02  0.19372815062E+03  0.25500000920E-02 0.  1.
       -2    1    3    3    0  502  0.17465708164E+03  0.81298949337E+02 -0.12946811364E+04  0.13089361559E+04  0.25500000920E-02 0. -1.
</event>
<event>
 5   0  0.2454354E-02  0.8119761E+03  0.7818609E-02  0.9542842E-01
        2   -1    0    0  501    0  0.00000000000E+00  0.00000000000E+00  0.92677250817E+03  0.92677250817E+03  0.25500000920E-02 0.  1.
       -2   -1    0    0    0  501  0.00000000000E+00  0.00000000000E+00 -0.17784980733E+03  0.17784980735E+03  0.25500000920E-02 0. -1.
    10030    2    1    2    0    0  0.00000000000E+00  0.00000000000E+00  0.74892270083E+03  0.11046223155E+04  0.81197613766E+03 0.  0.
        5    1    3    3  502    0  0.30065179050E+03  0.59766710133E+01  0.34477060788E+01  0.30076767846E+03  0.46999998093E+01 0. -1.
       -5    1    3    3    0  502 -0.30065179050E+03 -0.59766710133E+01  0.74547499475E+03  0.80385463707E+03  0.46999998093E+01 0.  1.
</event>
<event>
 5   0  0.2571778E-02  0.8012037E+03  0.7818609E-02  0.9558276E-01
       -2   -1    0    0    0  501  0.00000000000E+00  0.00000000000E+00  0.43793586523E+03  0.43793586523E+03  0.25500000920E-02 0. -1.
        2   -1    0    0  501    0  0.00000000000E+00  0.00000000000E+00 -0.36645058019E+03  0.36645058020E+03  0.25500000920E-02 0.  1.
    10030    2    1    2    0    0  0.00000000000E+00  0.00000000000E+00  0.71485285039E+02  0.80438644543E+03  0.80120372416E+03 0.  0.
        1    1    3    3  502    0  0.37530501730E+03 -0.11504807081E+03  0.11600982828E+03  0.40932651379E+03  0.50400001928E-02 0. -1.
       -1    1    3    3    0  502 -0.37530501730E+03  0.11504807081E+03 -0.44524543241E+02  0.39505993164E+03  0.50400001928E-02 0.  1.
</event>
<event>
 5   0  0.1523811E-02  0.7919389E+03  0.7818609E-02  0.9571759E-01
       -1   -1    0    0    0  501  0.00000000000E+00  0.00000000000E+00  0.79181814518E+02  0.79181814679E+02  0.50400001928E-02 0.  1.
        1   -1    0    0  501    0  0.00000000000E+00  0.00000000000E+00 -0.19801494228E+04  0.19801494228E+04  0.50400001928E-02 0. -1.
    10030    2    1    2    0    0  0.00000000000E+00  0.00000000000E+00 -0.19009676083E+04  0.20593312375E+04  0.79193894838E+03 0.  0.
        1    1    3    3  502    0  0.49161729687E+02 -0.13952237688E+03  0.46277290195E+01  0.14800265273E+03  0.50400001928E-02 0.  1.
       -1    1    3    3    0  502 -0.49161729687E+02  0.13952237688E+03 -0.19055953373E+04  0.19113285848E+04  0.50400001928E-02 0. -1.
</event>
<event>
 5   0  0.2422031E-02  0.8017686E+03  0.7818609E-02  0.9557461E-01
       -2   -1    0    0    0  501  0.00000000000E+00  0.00000000000E+00  0.11272395865E+03  0.11272395868E+03  0.25500000920E-02 0. -1.
        2   -1    0    0  501    0  0.00000000000E+00  0.00000000000E+00 -0.14256793618E+04  0.14256793618E+04  0.25500000920E-02 0.  1.
    10030    2    1    2    0    0  0.00000000000E+00  0.00000000000E+00 -0.13129554031E+04  0.15384033205E+04  0.80176859867E+03 0.  0.
        4    1    3    3  502    0  0.22776347585E+03 -0.30072221051E+03 -0.39622845976E+03  0.54709108387E+03  0.12699999809E+01 0. -1.
       -4    1    3    3    0  502 -0.22776347585E+03  0.30072221051E+03 -0.91672694335E+03  0.99131223658E+03  0.12699999809E+01 0.  1.
</event>
<event>
 5   0  0.2454354E-02  0.7562785E+03  0.7818609E-02  0.9625552E-01
        2   -1    0    0  501    0  0.00000000000E+00  0.00000000000E+00  0.52988013435E+03  0.52988013436E+03  0.25500000920E-02 0. -1.
       -2   -1    0    0    0  501  0.00000000000E+00  0.00000000000E+00 -0.26985213253E+03  0.26985213254E+03  0.25500000920E-02 0.  1.
    10030    2    1    2    0    0  0.00000000000E+00  0.00000000000E+00  0.26002800182E+03  0.79973226690E+03  0.75627847846E+03 0.  0.
        5    1    3    3  502    0  0.30826778014E+03  0.18334682656E+03  0.34627631213E+01  0.35871878095E+03  0.46999998093E+01 0. -1.
       -5    1    3    3    0  502 -0.30826778014E+03 -0.18334682656E+03  0.25656523870E+03  0.44101348595E+03  0.46999998093E+01 0.  1.
</event>
<event>
 5   0  0.2571778E-02  0.7977306E+03  0.7818609E-02  0.9563308E-01
        2   -1    0    0  501    0  0.00000000000E+00  0.00000000000E+00  0.29618983751E+03  0.29618983752E+03  0.25500000920E-02 0. -1.
       -2   -1    0    0    0  501  0.00000000000E+00  0.00000000000E+00 -0.53713367811E+03  0.53713367812E+03  0.25500000920E-02 0.  1.
    10030    2    1    2    0    0  0.00000000000E+00  0.00000000000E+00 -0.24094384060E+03  0.83332351564E+03  0.79773062332E+03 0.  0.
        1    1    3    3  502    0 -0.16728459761E+03  0.12387152132E+03  0.23495185334E+03  0.31389594424E+03  0.50400001928E-02 0. -1.
       -1    1    3    3    0  502  0.16728459761E+03 -0.12387152132E+03 -0.47589569394E+03  0.51942757140E+03  0.50400001928E-02 0.  1.
</event>
<event>
 5   0  0.1523811E-02  0.8106765E+03  0.7818609E-02  0.9544691E-01
       -1   -1    0    0    0  501  0.00000000000E+00  0.00000000000E+00  0.12219597290E+03  0.12219597301E+03  0.50400001928E-02 0. -1.
        1   -1    0    0  501    0  0.00000000000E+00  0.00000000000E+00 -0.13445540768E+04  0.13445540768E+04  0.50400001928E-02 0.  1.
    10030    2    1    2    0    0  0.00000000000E+00  0.00000000000E+00 -0.12223581039E+04  0.14667500498E+04  0.81067649187E+03 0.  0.
        1    1    3    3  502    0 -0.15979600558E+03  0.24243199112E+03 -0.11228953599E+04  0.11598284455E+04  0.50400001928E-02 0.  1.
       -1    1    3    3    0  502  0.15979600558E+03 -0.24243199112E+03 -0.99462744005E+02  0.30692160431E+03  0.50400001928E-02 0. -1.
</event>
<event>
 5   0  0.9919125E-03  0.8054505E+03  0.7818609E-02  0.9552161E-01
       -4   -1    0    0    0  501  0.00000000000E+00  0.00000000000E+00  0.77277360631E+03  0.77277464989E+03  0.12699999809E+01 0. -1.
        4   -1    0    0  501    0  0.00000000000E+00  0.00000000000E+00 -0.20987417604E+03  0.20987801854E+03  0.12699999809E+01 0.  1.
    10030    2    1    2    0    0  0.00000000000E+00  0.00000000000E+00  0.56289943027E+03  0.98265266843E+03  0.80545049393E+03 0.  0.
        2    1    3    3  502    0 -0.13373018052E+03 -0.34028649807E+02 -0.18013419748E+03  0.22691416725E+03  0.25500000920E-02 0.  1.
       -2    1    3    3    0  502  0.13373018052E+03  0.34028649807E+02  0.74303362775E+03  0.75573850118E+03  0.25500000920E-02 0. -1.
</event>
<event>
 5   0  0.1471290E-02  0.7840501E+03  0.7818609E-02  0.9583395E-01
        1   -1    0    0  501    0  0.00000000000E+00  0.00000000000E+00  0.38225690156E+03  0.38225690160E+03  0.50400001928E-02 0.  1.
       -1   -1    0    0    0  501  0.00000000000E+00  0.00000000000E+00 -0.40204277090E+03  0.40204277093E+03  0.50400001928E-02 0. -1.
    10030    2    1    2    0    0  0.00000000000E+00  0.00000000000E+00 -0.19785869333E+02  0.78429967253E+03  0.78405005943E+03 0.  0.
        2    1    3    3  502    0 -0.28836583785E+03 -0.15856482533E+02  0.25529019842E+03  0.38545994590E+03  0.25500000920E-02 0.  1.
       -2    1    3    3    0  502  0.28836583785E+03  0.15856482533E+02 -0.27507606775E+03  0.39883972662E+03  0.25500000920E-02 0. -1.
</event>
<event>
 5   0  0.2460312E-02  0.7954060E+03  0.7818609E-02  0.9566691E-01
       -2   -1    0    0    0  501  0.00000000000E+00  0.00000000000E+00  0.22485733357E+03  0.22485733359E+03  0.25500000920E-02 0.  1.
        2   -1    0    0  501    0  0.00000000000E+00  0.00000000000E+00 -0.70341347758E+03  0.70341347758E+03  0.25500000920E-02 0. -1.
    10030    2    1    2    0    0  0.00000000000E+00  0.00000000000E+00 -0.47855614400E+03  0.92827081117E+03  0.79540600696E+03 0.  0.
        2    1    3    3  502    0 -0.13904250230E+01  0.30045014624E+03  0.64814758214E+02  0.30736489153E+03  0.25500000920E-02 0.  1.
       -2    1    3    3    0  502  0.13904250230E+01 -0.30045014624E+03 -0.54337090222E+03  0.62090591964E+03  0.25500000920E-02 0. -1.
</event>
<event>
 5   0  0.2422031E-02  0.7973844E+03  0.7818609E-02  0.9563811E-01
       -2   -1    0    0    0  501  0.00000000000E+00  0.00000000000E+00  0.23036137174E+03  0.23036137175E+03  0.25500000920E-02 0. -1.
        2   -1    0    0  501    0  0.00000000000E+00  0.00000000000E+00 -0.69002666610E+03  0.69002666610E+03  0.25500000920E-02 0.  1.
    10030    2    1    2    0    0  0.00000000000E+00  0.00000000000E+00 -0.45966529436E+03  0.92038803786E+03  0.79738444767E+03 0.  0.
        4    1    3    3  502    0 -0.10899440342E+03 -0.32125746115E+03 -0.47158785357E+03  0.58093274383E+03  0.12699999809E+01 0.  1.
       -4    1    3    3    0  502  0.10899440342E+03  0.32125746115E+03  0.11922559207E+02  0.33945529402E+03  0.12699999809E+01 0. -1.
</event>
<event>
 5   0  0.2454354E-02  0.8114814E+03  0.7818609E-02  0.9543545E-01
       -2   -1    0    0    0  501  0.00000000000E+00  0.00000000000E+00  0.10969565219E+03  0.10969565222E+03  0.25500000920E-02 0.  1.
        2   -1    0    0  501    0  0.00000000000E+00  0.00000000000E+00 -0.15007476956E+04  0.15007476956E+04  0.25500000920E-02 0. -1.
    10030    2    1    2    0    0  0.00000000000E+00  0.00000000000E+00 -0.13910520434E+04  0.16104433478E+04  0.81148135472E+03 0.  0.
        5    1    3    3  502    0 -0.11568713078E+03 -0.36944041246E+03 -0.93641807521E+03  0.10132969121E+04  0.46999998093E+01 0. -1.
       -5    1    3    3    0  502  0.11568713078E+03  0.36944041246E+03 -0.45463396816E+03  0.59714643563E+03  0.46999998093E+01 0.  1.
</event>
<event>
 5   0  0.1498375E-02  0.7964941E+03  0.7818609E-02  0.9565106E-01
        1   -1    0    0  501    0  0.00000000000E+00  0.00000000000E+00  0.15119392040E+04  0.15119392040E+04  0.50400001928E-02 0. -1.
       -1   -1    0    0    0  501  0.00000000000E+00  0.00000000000E+00 -0.10489888045E+03  0.10489888057E+03  0.50400001928E-02 0.  1.
    10030    2    1    2    0    0  0.00000000000E+00  0.00000000000E+00  0.14070403236E+04  0.16168380846E+04  0.79649414287E+03 0.  0.
        4    1    3    3  502    0 -0.37255311751E+03  0.13789864474E+03  0.76047646240E+03  0.85798480427E+03  0.12699999809E+01 0. -1.
       -4    1    3    3    0  502  0.37255311751E+03 -0.13789864474E+03  0.64656386118E+03  0.75885328033E+03  0.12699999809E+01 0.  1.
</event>
<event>
 5   0  0.1498375E-02  0.8249687E+03  0.7818609E-02  0.9524563E-01
       -1   -1    0    0    0  501  0.00000000000E+00  0.00000000000E+00  0.64972297154E+03  0.64972297156E+03  0.50400001928E-02 0. -1.
        1   -1    0    0  501    0  0.00000000000E+00  0.00000000000E+00 -0.26187057568E+03  0.26187057573E+03  0.50400001928E-02 0.  1.
    10030    2    1    2    0    0  0.00000000000E+00  0.00000000000E+00  0.38785239586E+03  0.91159354729E+03  0.82496867485E+03 0.  0.
        4    1    3    3  502    0 -0.31215053569E+03 -0.12158636906E+03  0.45986394578E+03  0.56894434140E+03  0.12699999809E+01 0. -1.
       -4    1    3    3    0  502  0.31215053569E+03  0.12158636906E+03 -0.72011549929E+02  0.34264920589E+03  0.12699999809E+01 0.  1.
</event>
<event>
 5   0  0.2460312E-02  0.7956822E+03  0.7818609E-02  0.9566288E-01
       -2   -1    0    0    0  501  0.00000000000E+00  0.00000000000E+00  0.10005181999E+04  0.10005181999E+04  0.25500000920E-02 0. -1.
        2   -1    0    0  501    0  0.00000000000E+00  0.00000000000E+00 -0.15819557361E+03  0.15819557363E+03  0.25500000920E-02 0.  1.
    10030    2    1    2    0    0  0.00000000000E+00  0.00000000000E+00  0.84232262625E+03  0.11587137735E+04  0.79568222438E+03 0.  0.
        2    1    3    3  502    0  0.11384570714E+03  0.14709462882E+03  0.93329817196E+03  0.95165285302E+03  0.25500000920E-02 0. -1.
       -2    1    3    3    0  502 -0.11384570714E+03 -0.14709462882E+03 -0.90975545712E+02  0.20706092047E+03  0.25500000920E-02 0.  1.
</event>
<event>
 5   0  0.2571778E-02  0.7993511E+03  0.7818609E-02  0.9560957E-01
       -2   -1    0    0    0  501  0.00000000000E+00  0.00000000000E+00  0.70369921130E+03  0.70369921130E+03  0.25500000920E-02 0.  1.
        2   -1    0    0  501    0  0.00000000000E+00  0.00000000000E+00 -0.22700118549E+03  0.22700118551E+03  0.25500000920E-02 0. -1.
    10030    2    1    2    0    0  0.00000000000E+00  0.00000000000E+00  0.47669802580E+03  0.93070039681E+03  0.79935112486E+03 0.  0.
        1    1    3    3  502    0  0.60164309265E+02  0.35734805198E+02 -0.21981320003E+03  0.23068281978E+03  0.50400001928E-02 0. -1.
       -1    1    3    3    0  502 -0.60164309265E+02 -0.35734805198E+02  0.69651122583E+03  0.70001757702E+03  0.50400001928E-02 0.  1.
</event>
<event>
 5   0  0.2571778E-02  0.7839003E+03  0.7818609E-02  0.9583618E-01
        2   -1    0    0  501    0  0.00000000000E+00  0.00000000000E+00  0.12401684409E+04  0.12401684409E+04  0.25500000920E-02 0.  1.
       -2   -1    0    0    0  501  0.00000000000E+00  0.00000000000E+00 -0.12387425242E+03  0.12387425244E+03  0.25500000920E-02 0. -1.
    10030    2    1    2    0    0  0.00000000000E+00  0.00000000000E+00  0.11162941884E+04  0.13640426933E+04  0.78390034699E+03 0.  0.
        1    1    3    3  502    0 -0.24069095794E+03  0.30391881396E+03  0.65850195172E+03  0.76414894043E+03  0.50400001928E-02 0. -1.
       -1    1    3    3    0  502  0.24069095794E+03 -0.30391881396E+03  0.45779223672E+03  0.59989375288E+03  0.50400001928E-02 0.  1.
</event>
<event>
 5   0  0.9919125E-03  0.7982546E+03  0.7818609E-02  0.9562547E-01
        4   -1    0    0  501    0  0.00000000000E+00  0.00000000000E+00  0.32960092933E+03  0.32960337607E+03  0.12699999809E+01 0.  1.
       -4   -1    0    0    0  501  0.00000000000E+00  0.00000000000E+00 -0.48331457950E+03  0.48331624808E+03  0.12699999809E+01 0. -1.
    10030    2    1    2    0    0  0.00000000000E+00  0.00000000000E+00 -0.15371365016E+03  0.81291962415E+03  0.79825461419E+03 0.  0.
        5    1    3    3  502    0  0.90708168823E+02  0.20206527216E+03  0.26123965618E+03  0.34252969808E+03  0.46999998093E+01 0.  1.
       -5    1    3    3    0  502 -0.90708168823E+02 -0.20206527216E+03 -0.41495330635E+03  0.47038992607E+03  0.46999998093E+01 0. -1.
</event>
<event>
 5   0  0.2454354E-02  0.7996587E+03  0.7818609E-02  0.9560511E-01
        2   -1    0    0  501    0  0.00000000000E+00  0.00000000000E+00  0.22298277147E+04  0.22298277147E+04  0.25500000920E-02 0.  1.
       -2   -1    0    0    0  501  0.00000000000E+00  0.00000000000E+00 -0.71693219389E+02  0.71693219434E+02  0.25500000920E-02 0. -1.
    10030    2    1    2    0    0  0.00000000000E+00  0.00000000000E+00  0.21581344954E+04  0.23015209342E+04  0.79965874623E+03 0.  0.
        5    1    3    3  502    0  0.33121791675E+03 -0.12286829088E+03  0.54031478994E+03  0.64557268181E+03  0.46999998093E+01 0. -1.
       -5    1    3    3    0  502 -0.33121791675E+03  0.12286829088E+03  0.16178197054E+04  0.16559482524E+04  0.46999998093E+01 0.  1.
</event>
<event>
 5   0  0.1498375E-02  0.6790544E+03  0.7818609E-02  0.9753738E-01
        1   -1    0    0  501    0  0.00000000000E+00  0.00000000000E+00  0.73886183140E+03  0.73886183141E+03  0.50400001928E-02 0.  1.
       -1   -1    0    0    0  501  0.00000000000E+00  0.00000000000E+00 -0.15602200604E+03  0.15602200613E+03  0.50400001928E-02 0. -1.
    10030    2    1    2    0    0  0.00000000000E+00  0.00000000000E+00  0.58283982535E+03  0.89488383754E+03  0.67905435767E+03 0.  0.
        4    1    3    3  502    0  0.15509133833E+02  0.46851259092E+02  0.73410672535E+03  0.73576482031E+03  0.12699999809E+01 0.  1.
       -4    1    3    3    0  502 -0.15509133833E+02 -0.46851259092E+02 -0.15126689999E+03  0.15911901723E+03  0.12699999809E+01 0. -1.
</event>
<event>
 5   0  0.1523811E-02  0.7921875E+03  0.7818609E-02  0.9571395E-01
        1   -1    0    0  501    0  0.00000000000E+00  0.00000000000E+00  0.41908648982E+03  0.41908648985E+03  0.50400001928E-02 0.  1.
       -1   -1    0    0    0  501  0.00000000000E+00  0.00000000000E+00 -0.37436244120E+03  0.37436244123E+03  0.50400001928E-02 0. -1.
    10030    2    1    2    0    0  0.00000000000E+00  0.00000000000E+00  0.44724048623E+02  0.79344893109E+03  0.79218745618E+03 0.  0.
        1    1    3    3  502    0 -0.63818981062E+02 -0.31944943911E+03 -0.20331751305E+03  0.38400366877E+03  0.50400001928E-02 0. -1.
       -1    1    3    3    0  502  0.63818981062E+02  0.31944943911E+03  0.24804156168E+03  0.40944526232E+03  0.50400001928E-02 0.  1.
</event>
<event>
 5   0  0.1523811E-02  0.8078526E+03  0.7818609E-02  0.9548720E-01
       -1   -1    0    0    0  501  0.00000000000E+00  0.00000000000E+00  0.19612015242E+03  0.19612015249E+03  0.50400001928E-02 0. -1.
        1   -1    0    0  501    0  0.00000000000E+00  0.00000000000E+00 -0.83192097703E+03  0.83192097704E+03  0.50400001928E-02 0.  1.
    10030    2    1    2    0    0  0.00000000000E+00  0.00000000000E+00 -0.63580082461E+03  0.10280411295E+04  0.80785263225E+03 0.  0.
        1    1    3    3  502    0  0.25195950296E+03  0.22275619253E+03 -0.33197783310E+02  0.33794379013E+03  0.50400001928E-02 0. -1.
       -1    1    3    3    0  502 -0.25195950296E+03 -0.22275619253E+03 -0.60260304130E+03  0.69009733940E+03  0.50400001928E-02 0.  1.
</event>
<event>
 5   0  0.9919125E-03  0.7938409E+03  0.7818609E-02  0.9568975E-01
        4   -1    0    0  501    0  0.00000000000E+00  0.00000000000E+00  0.81280581081E+03  0.81280680299E+03  0.12699999809E+01 0. -1.
       -4   -1    0    0    0  501  0.00000000000E+00  0.00000000000E+00 -0.19382641482E+03  0.19383057545E+03  0.12699999809E+01 0.  1.
    10030    2    1    2    0    0  0.00000000000E+00  0.00000000000E+00  0.61897939600E+03  0.10066373784E+04  0.79384086505E+03 0.  0.
        3    1    3    3  502    0 -0.73735347083E+01  0.12328994238E+03 -0.16884113783E+03  0.20919397442E+03  0.10100000352E+00 0.  1.
       -3    1    3    3    0  502  0.73735347083E+01 -0.12328994238E+03  0.78782053383E+03  0.79744340403E+03  0.10100000352E+00 0. -1.
</event>
<event>
 5   0  0.9919125E-03  0.7904544E+03  0.7818609E-02  0.9573938E-01
       -3   -1    0    0    0  501  0.00000000000E+00  0.00000000000E+00  0.34509978943E+03  0.34509980421E+03  0.10100000352E+00 0. -1.
        3   -1    0    0  501    0  0.00000000000E+00  0.00000000000E+00 -0.45263577510E+03  0.45263578637E+03  0.10100000352E+00 0.  1.
    10030    2    1    2    0    0  0.00000000000E+00  0.00000000000E+00 -0.10753598567E+03  0.79773559058E+03  0.79045435305E+03 0.  0.
        3    1    3    3  502    0  0.78145491277E+02  0.16342184683E+03 -0.40827439161E+03  0.44665580358E+03  0.10100000352E+00 0.  1.
       -3    1    3    3    0  502 -0.78145491277E+02 -0.16342184683E+03  0.30073840594E+03  0.35107978700E+03  0.10100000352E+00 0. -1.
</event>
<event>
 5   0  0.1523811E-02  0.7989649E+03  0.7818609E-02  0.9561517E-01
       -1   -1    0    0    0  501  0.00000000000E+00  0.00000000000E+00  0.27314132725E+03  0.27314132730E+03  0.50400001928E-02 0.  1.
        1   -1    0    0  501    0  0.00000000000E+00  0.00000000000E+00 -0.58426251943E+03  0.58426251946E+03  0.50400001928E-02 0. -1.
    10030    2    1    2    0    0  0.00000000000E+00  0.00000000000E+00 -0.31112119218E+03  0.85740384675E+03  0.79896493052E+03 0.  0.
        1    1    3    3  502    0 -0.61621917837E+02  0.16282277038E+03  0.23029034216E+03  0.28869041729E+03  0.50400001928E-02 0.  1.
       -1    1    3    3    0  502  0.61621917837E+02 -0.16282277038E+03 -0.54141153434E+03  0.56871342947E+03  0.50400001928E-02 0. -1.
</event>
<event>
 5   0  0.2464780E-02  0.7996420E+03  0.7818609E-02  0.9560535E-01
       -2   -1    0    0    0  501  0.00000000000E+00  0.00000000000E+00  0.28782319053E+03  0.28782319054E+03  0.25500000920E-02 0.  1.
        2   -1    0    0  501    0  0.00000000000E+00  0.00000000000E+00 -0.55539938966E+03  0.55539938966E+03  0.25500000920E-02 0. -1.
    10030    2    1    2    0    0  0.00000000000E+00  0.00000000000E+00 -0.26757619913E+03  0.84322258020E+03  0.79964198078E+03 0.  0.
        3    1    3    3  502    0 -0.85081349129E+02 -0.24616000442E+03 -0.45367420676E+03  0.52311937436E+03  0.10100000352E+00 0. -1.
       -3    1    3    3    0  502  0.85081349129E+02  0.24616000442E+03  0.18609800763E+03  0.32010320585E+03  0.10100000352E+00 0.  1.
</event>
<event>
 5   0  0.1523811E-02  0.7864133E+03  0.7818609E-02  0.9579894E-01
       -1   -1    0    0    0  501  0.00000000000E+00  0.00000000000E+00  0.12672715251E+03  0.12672715261E+03  0.50400001928E-02 0.  1.
        1   -1    0    0  501    0  0.00000000000E+00  0.00000000000E+00 -0.12200343293E+04  0.12200343293E+04  0.50400001928E-02 0. -1.
    10030    2    1    2    0    0  0.00000000000E+00  0.00000000000E+00 -0.10933071768E+04  0.13467614819E+04  0.78641331778E+03 0.  0.
        1    1    3    3  502    0 -0.19007666633E+03 -0.32135467839E+03 -0.75788306027E+03  0.84485779956E+03  0.50400001928E-02 0. -1.
       -1    1    3    3    0  502  0.19007666633E+03  0.32135467839E+03 -0.33542411652E+03  0.50190368236E+03  0.50400001928E-02 0.  1.
</event>
<event>
 5   0  0.2422031E-02  0.8109766E+03  0.7818609E-02  0.9544263E-01
       -2   -1    0    0    0  501  0.00000000000E+00  0.00000000000E+00  0.98376595920E+03  0.98376595920E+03  0.25500000920E-02 0. -1.
        2   -1    0    0  501    0  0.00000000000E+00  0.00000000000E+00 -0.16713402434E+03  0.16713402436E+03  0.25500000920E-02 0.  1.
    10030    2    1    2    0    0  0.00000000000E+00  0.00000000000E+00  0.81663193486E+03  0.11508999836E+04  0.81097660579E+03 0.  0.
        4    1    3    3  502    0 -0.15594410395E+03  0.79571248766E+02  0.92736334814E+03  0.94374495472E+03  0.12699999809E+01 0. -1.
       -4    1    3    3    0  502  0.15594410395E+03 -0.79571248766E+02 -0.11073141328E+03  0.20715502884E+03  0.12699999809E+01 0.  1.
</event>
<event>
 5   0  0.2464780E-02  0.7979691E+03  0.7818609E-02  0.9562961E-01
        2   -1    0    0  501    0  0.00000000000E+00  0.00000000000E+00  0.18032146783E+04  0.18032146783E+04  0.25500000920E-02 0.  1.
       -2   -1    0    0    0  501  0.00000000000E+00  0.00000000000E+00 -0.88280498426E+02  0.88280498463E+02  0.25500000920E-02 0. -1.
    10030    2    1    2    0    0  0.00000000000E+00  0.00000000000E+00  0.17149341799E+04  0.18914951768E+04  0.79796914880E+03 0.  0.
        3    1    3    3  502    0  0.58855316700E+02 -0.32804210061E+03  0.13774042563E+04  0.14171513905E+04  0.10100000352E+00 0.  1.
       -3    1    3    3    0  502 -0.58855316700E+02  0.32804210061E+03  0.33752992358E+03  0.47434378629E+03  0.10100000352E+00 0. -1.
</event>
<event>
 5   0  0.2460312E-02  0.7926467E+03  0.7818609E-02  0.9570722E-01
        2   -1    0    0  501    0  0.00000000000E+00  0.00000000000E+00  0.10837702511E+04  0.10837702512E+04  0.25500000920E-02 0. -1.
       -2   -1    0    0    0  501  0.00000000000E+00  0.00000000000E+00 -0.14493125930E+03  0.14493125932E+03  0.25500000920E-02 0.  1.
    10030    2    1    2    0    0  0.00000000000E+00  0.00000000000E+00  0.93883899185E+03  0.12287015105E+04  0.79264667364E+03 0.  0.
        2    1    3    3  502    0 -0.78461712087E+02 -0.16129971711E+03 -0.78409604813E+02  0.19575981492E+03  0.25500000920E-02 0.  1.
       -2    1    3    3    0  502  0.78461712087E+02  0.16129971711E+03  0.10172485967E+04  0.10329416956E+04  0.25500000920E-02 0. -1.
</event>
<event>
 5   0  0.1509629E-02  0.8052559E+03  0.7818609E-02  0.9552440E-01
        1   -1    0    0  501    0  0.00000000000E+00  0.00000000000E+00  0.54485906505E+03  0.54485906507E+03  0.50400001928E-02 0.  1.
       -1   -1    0    0    0  501  0.00000000000E+00  0.00000000000E+00 -0.29752515832E+03  0.29752515837E+03  0.50400001928E-02 0. -1.
    10030    2    1    2    0    0  0.00000000000E+00  0.00000000000E+00  0.24733390673E+03  0.84238422344E+03  0.80525593353E+03 0.  0.
        5    1    3    3  502    0  0.14239836510E+03  0.32417150700E+03 -0.76800450702E+02  0.36233252622E+03  0.46999998093E+01 0. -1.
       -5    1    3    3    0  502 -0.14239836510E+03 -0.32417150700E+03  0.32413435743E+03  0.48005169721E+03  0.46999998093E+01 0.  1.
</event>
<event>
 5   0  0.1523811E-02  0.8059062E+03  0.7818609E-02  0.9551507E-01
       -1   -1    0    0    0  501  0.00000000000E+00  0.00000000000E+00  0.39016777123E+03  0.39016777126E+03  0.50400001928E-02 0.  1.
        1   -1    0    0  501    0  0.00000000000E+00  0.00000000000E+00 -0.41615735053E+03  0.41615735056E+03  0.50400001928E-02 0. -1.
    10030    2    1    2    0    0  0.00000000000E+00  0.00000000000E+00 -0.25989579300E+02  0.80632512182E+03  0.80590616318E+03 0.  0.
        1    1    3    3  502    0 -0.19339116394E+03 -0.34760707565E+03  0.51384326124E+02  0.40108748463E+03  0.50400001928E-02 0.  1.
       -1    1    3    3    0  502  0.19339116394E+03  0.34760707565E+03 -0.77373905424E+02  0.40523763719E+03  0.50400001928E-02 0. -1.
</event>
<event>
 5   0  0.2422031E-02  0.8054040E+03  0.7818609E-02  0.9552228E-01
        2   -1    0    0  501    0  0.00000000000E+00  0.00000000000E+00  0.51383372396E+03  0.51383372397E+03  0.25500000920E-02 0. -1.
       -2   -1    0    0    0  501  0.00000000000E+00  0.00000000000E+00 -0.31560582539E+03  0.31560582540E+03  0.25500000920E-02 0.  1.
    10030    2    1    2    0    0  0.00000000000E+00  0.00000000000E+00  0.19822789857E+03  0.82943954937E+03  0.80540403915E+03 0.  0.
        4    1    3    3  502    0  0.21137934162E+03  0.79948162502E+02 -0.24414111974E+03  0.33268518752E+03  0.12699999809E+01 0.  1.
       -4    1    3    3    0  502 -0.21137934162E+03 -0.79948162502E+02  0.44236901831E+03  0.49675436184E+03  0.12699999809E+01 0. -1.
</event>
<event>
 5   0  0.2422031E-02  0.8111855E+03  0.7818609E-02  0.9543966E-01
        2   -1    0    0  501    0  0.00000000000E+00  0.00000000000E+00  0.38875982006E+03  0.38875982006E+03  0.25500000920E-02 0.  1.
       -2   -1    0    0    0  501  0.00000000000E+00  0.00000000000E+00 -0.42315452621E+03  0.42315452622E+03  0.25500000920E-02 0. -1.
    10030    2    1    2    0    0  0.00000000000E+00  0.00000000000E+00 -0.34394706152E+02  0.81191434628E+03  0.81118549659E+03 0.  0.
        4    1    3    3  502    0  0.13628457700E+03  0.37040278328E+03 -0.11072732424E+03  0.40991933478E+03  0.12699999809E+01 0. -1.
       -4    1    3    3    0  502 -0.13628457700E+03 -0.37040278328E+03  0.76332618086E+02  0.40199501150E+03  0.12699999809E+01 0.  1.
</event>
<event>
 5   0  0.2454354E-02  0.7996142E+03  0.7818609E-02  0.9560576E-01
       -2   -1    0    0    0  501  0.00000000000E+00  0.00000000000E+00  0.16409774143E+04  0.16409774143E+04  0.25500000920E-02 0.  1.
        2   -1    0    0  501    0  0.00000000000E+00  0.00000000000E+00 -0.97408855104E+02  0.97408855137E+02  0.25500000920E-02 0. -1.
    10030    2    1    2    0    0  0.00000000000E+00  0.00000000000E+00  0.15435685592E+04  0.17383862695E+04  0.79961423502E+03 0.  0.
        5    1    3    3  502    0  0.93631167661E+02  0.98116729969E+02 -0.45807402688E+02  0.14322742893E+03  0.46999998093E+01 0. -1.
       -5    1    3    3    0  502 -0.93631167661E+02 -0.98116729969E+02  0.15893759619E+04  0.15951588405E+04  0.46999998093E+01 0.  1.
</event>
<event>
 5   0  0.2464780E-02  0.7920981E+03  0.7818609E-02  0.9571526E-01
        2   -1    0    0  501    0  0.00000000000E+00  0.00000000000E+00  0.23752501946E+03  0.23752501948E+03  0.25500000920E-02 0. -1.
       -2   -1    0    0    0  501  0.00000000000E+00  0.00000000000E+00 -0.66037198446E+03  0.66037198446E+03  0.25500000920E-02 0.  1.
    10030    2    1    2    0    0  0.00000000000E+00  0.00000000000E+00 -0.42284696500E+03  0.89789700394E+03  0.79209814662E+03 0.  0.
        3    1    3    3  502    0  0.39599830764E+02 -0.99877082904E+02 -0.64353634054E+03  0.65244356851E+03  0.10100000352E+00 0.  1.
       -3    1    3    3    0  502 -0.39599830764E+02  0.99877082904E+02  0.22068937555E+03  0.24545343543E+03  0.10100000352E+00 0. -1.
</event>
<event>
 5   0  0.9919125E-03  0.7666675E+03  0.7818609E-02  0.9609559E-01
        3   -1    0    0  501    0  0.00000000000E+00  0.00000000000E+00  0.30822333841E+03  0.30822335496E+03  0.10100000352E+00 0.  1.
       -3   -1    0    0    0  501  0.00000000000E+00  0.00000000000E+00 -0.47674765492E+03  0.47674766562E+03  0.10100000352E+00 0. -1.
    10030    2    1    2    0    0  0.00000000000E+00  0.00000000000E+00 -0.16852431651E+03  0.78497102058E+03  0.76666750152E+03 0.  0.
        5    1    3    3  502    0 -0.18133948179E+02 -0.23996166897E+02 -0.47550805402E+03  0.47648153746E+03  0.46999998093E+01 0. -1.
       -5    1    3    3    0  502  0.18133948179E+02  0.23996166897E+02  0.30698373751E+03  0.30848948312E+03  0.46999998093E+01 0.  1.
</event>
<event>
 5   0  0.2422031E-02  0.8586647E+03  0.7818609E-02  0.9478781E-01
        2   -1    0    0  501    0  0.00000000000E+00  0.00000000000E+00  0.18064908473E+04  0.18064908473E+04  0.25500000920E-02 0. -1.
       -2   -1    0    0    0  501  0.00000000000E+00  0.00000000000E+00 -0.10203554570E+03  0.10203554574E+03  0.25500000920E-02 0.  1.
    10030    2    1    2    0    0  0.00000000000E+00  0.00000000000E+00  0.17044553016E+04  0.19085263931E+04  0.85866472957E+03 0.  0.
        4    1    3    3  502    0  0.24835406968E+03  0.27647805882E+03  0.13299968187E+04  0.13809464188E+04  0.12699999809E+01 0. -1.
       -4    1    3    3    0  502 -0.24835406968E+03 -0.27647805882E+03  0.37445848298E+03  0.52757997432E+03  0.12699999809E+01 0.  1.
</event>
<event>
 5   0  0.9919125E-03  0.7363363E+03  0.7818609E-02  0.9657034E-01
        3   -1    0    0  501    0  0.00000000000E+00  0.00000000000E+00  0.25314779260E+03  0.25314781275E+03  0.10100000352E+00 0.  1.
       -3   -1    0    0    0  501  0.00000000000E+00  0.00000000000E+00 -0.53544918742E+03  0.53544919695E+03  0.10100000352E+00 0. -1.
    10030    2    1    2    0    0  0.00000000000E+00  0.00000000000E+00 -0.28230139482E+03  0.78859700970E+03  0.73633631323E+03 0.  0.
        3    1    3    3  502    0  0.20044917455E+03  0.43538974312E+02  0.18628068090E+03  0.27708485368E+03  0.10100000352E+00 0.  1.
       -3    1    3    3    0  502 -0.20044917455E+03 -0.43538974312E+02 -0.46858207572E+03  0.51151215601E+03  0.10100000352E+00 0. -1.
</event>
<event>
 5   0  0.1509629E-02  0.7817747E+03  0.7818609E-02  0.9586779E-01
        1   -1    0    0  501    0  0.00000000000E+00  0.00000000000E+00  0.15428857777E+04  0.15428857777E+04  0.50400001928E-02 0.  1.
       -1   -1    0    0    0  501  0.00000000000E+00  0.00000000000E+00 -0.99030622211E+02  0.99030622339E+02  0.50400001928E-02 0. -1.
    10030    2    1    2    0    0  0.00000000000E+00  0.00000000000E+00  0.14438551555E+04  0.16419164000E+04  0.78177474678E+03 0.  0.
        5    1    3    3  502    0 -0.25006022931E+03 -0.25133585664E+03  0.37636898752E+03  0.51708368363E+03  0.46999998093E+01 0.  1.
       -5    1    3    3    0  502  0.25006022931E+03  0.25133585664E+03  0.10674861679E+04  0.11248327164E+04  0.46999998093E+01 0. -1.
</event>
<event>
 5   0  0.1471290E-02  0.8088872E+03  0.7818609E-02  0.9547242E-01
        1   -1    0    0  501    0  0.00000000000E+00  0.00000000000E+00  0.25051839057E+03  0.25051839062E+03  0.50400001928E-02 0. -1.
       -1   -1    0    0    0  501  0.00000000000E+00  0.00000000000E+00 -0.65294460321E+03  0.65294460323E+03  0.50400001928E-02 0.  1.
    10030    2    1    2    0    0  0.00000000000E+00  0.00000000000E+00 -0.40242621264E+03  0.90346299384E+03  0.80888721378E+03 0.  0.
        2    1    3    3  502    0 -0.52002392741E+01  0.24775793376E+03  0.15578875557E+03  0.29271346501E+03  0.25500000920E-02 0. -1.
       -2    1    3    3    0  502  0.52002392741E+01 -0.24775793376E+03 -0.55821496821E+03  0.61074952883E+03  0.25500000920E-02 0.  1.
</event>
<event>
 5   0  0.9919125E-03  0.8023566E+03  0.7818609E-02  0.9556612E-01
        3   -1    0    0  501    0  0.00000000000E+00  0.00000000000E+00  0.13796451557E+04  0.13796451594E+04  0.10100000352E+00 0.  1.
       -3   -1    0    0    0  501  0.00000000000E+00  0.00000000000E+00 -0.11665608838E+03  0.11665613210E+03  0.10100000352E+00 0. -1.
    10030    2    1    2    0    0  0.00000000000E+00  0.00000000000E+00  0.12629890673E+04  0.14963012915E+04  0.80235663565E+03 0.  0.
        1    1    3    3  502    0 -0.24358213499E+03  0.31666507225E+03  0.69963344576E+03  0.80566493216E+03  0.50400001928E-02 0. -1.
       -1    1    3    3    0  502  0.24358213499E+03 -0.31666507225E+03  0.56335562158E+03  0.69063635935E+03  0.50400001928E-02 0.  1.
</event>
<event>
 5   0  0.2422031E-02  0.7939870E+03  0.7818609E-02  0.9568762E-01
       -2   -1    0    0    0  501  0.00000000000E+00  0.00000000000E+00  0.26400942115E+03  0.26400942116E+03  0.25500000920E-02 0. -1.
        2   -1    0    0  501    0  0.00000000000E+00  0.00000000000E+00 -0.59696299417E+03  0.59696299418E+03  0.25500000920E-02 0.  1.
    10030    2    1    2    0    0  0.00000000000E+00  0.00000000000E+00 -0.33295357302E+03  0.86097241534E+03  0.79398703906E+03 0.  0.
        4    1    3    3  502    0  0.87605339028E+02  0.21080055172E+03  0.18571794657E+03  0.29428614750E+03  0.12699999809E+01 0. -1.
       -4    1    3    3    0  502 -0.87605339028E+02 -0.21080055172E+03 -0.51867151959E+03  0.56668626785E+03  0.12699999809E+01 0.  1.
</event>
<event>
 5   0  0.2464780E-02  0.7298506E+03  0.7818609E-02  0.9667503E-01
        2   -1    0    0  501    0  0.00000000000E+00  0.00000000000E+00  0.96490701559E+03  0.96490701559E+03  0.25500000920E-02 0.  1.
       -2   -1    0    0    0  501  0.00000000000E+00  0.00000000000E+00 -0.13801377147E+03  0.13801377149E+03  0.25500000920E-02 0. -1.
    10030    2    1    2    0    0  0.00000000000E+00  0.00000000000E+00  0.82689324412E+03  0.11029207871E+04  0.72985055005E+03 0.  0.
        3    1    3    3  502    0 -0.55383186686E+01 -0.55253974256E+02  0.95848483273E+03  0.96009210986E+03  0.10100000352E+00 0.  1.
       -3    1    3    3    0  502  0.55383186686E+01  0.55253974256E+02 -0.13159158861E+03  0.14282867723E+03  0.10100000352E+00 0. -1.
</event>
<event>
 5   0  0.1509629E-02  0.7982555E+03  0.7818609E-02  0.9562546E-01
        1   -1    0    0  501    0  0.00000000000E+00  0.00000000000E+00  0.20557545755E+04  0.20557545756E+04  0.50400001928E-02 0.  1.
       -1   -1    0    0    0  501  0.00000000000E+00  0.00000000000E+00 -0.77491227599E+02  0.77491227763E+02  0.50400001928E-02 0. -1.
    10030    2    1    2    0    0  0.00000000000E+00  0.00000000000E+00  0.19782633479E+04  0.21332458033E+04  0.79825546257E+03 0.  0.
        5    1    3    3  502    0 -0.30891626410E+03 -0.86752651396E+02  0.35489431762E+03  0.47846352779E+03  0.46999998093E+01 0. -1.
       -5    1    3    3    0  502  0.30891626410E+03  0.86752651396E+02  0.16233690303E+04  0.16547822755E+04  0.46999998093E+01 0.  1.
</event>
<event>
 5   0  0.2460312E-02  0.8173257E+03  0.7818609E-02  0.9535272E-01
        2   -1    0    0  501    0  0.00000000000E+00  0.00000000000E+00  0.97931230417E+03  0.97931230417E+03  0.25500000920E-02 0.  1.
       -2   -1    0    0    0  501  0.00000000000E+00  0.00000000000E+00 -0.17053325557E+03  0.17053325559E+03  0.25500000920E-02 0. -1.
    10030    2    1    2    0    0  0.00000000000E+00  0.00000000000E+00  0.80877904859E+03  0.11498455598E+04  0.81732567675E+03 0.  0.
        2    1    3    3  502    0 -0.63645299515E+01  0.40181675698E+03  0.50880030859E+03  0.64836329898E+03  0.25500000920E-02 0.  1.
       -2    1    3    3    0  502  0.63645299515E+01 -0.40181675698E+03  0.29997874000E+03  0.50148226079E+03  0.25500000920E-02 0. -1.
</event>
<event>
 5   0  0.9919125E-03  0.7988219E+03  0.7818609E-02  0.9561724E-01
       -3   -1    0    0    0  501  0.00000000000E+00  0.00000000000E+00  0.65141278374E+03  0.65141279157E+03  0.10100000352E+00 0. -1.
        3   -1    0    0  501    0  0.00000000000E+00  0.00000000000E+00 -0.24489706244E+03  0.24489708327E+03  0.10100000352E+00 0.  1.
    10030    2    1    2    0    0  0.00000000000E+00  0.00000000000E+00  0.40651572130E+03  0.89630987484E+03  0.79882185754E+03 0.  0.
        5    1    3    3  502    0 -0.37003772306E+03  0.14361558625E+03  0.25285210529E+03  0.47064809598E+03  0.46999998093E+01 0.  1.
       -5    1    3    3    0  502  0.37003772306E+03 -0.14361558625E+03  0.15366361600E+03  0.42566177886E+03  0.46999998093E+01 0. -1.
</event>
<event>
 5   0  0.2422031E-02  0.7092628E+03  0.7818609E-02  0.9701521E-01
        2   -1    0    0  501    0  0.00000000000E+00  0.00000000000E+00  0.67120246241E+03  0.67120246242E+03  0.25500000920E-02 0. -1.
       -2   -1    0    0    0  501  0.00000000000E+00  0.00000000000E+00 -0.18737030886E+03  0.18737030887E+03  0.25500000920E-02 0.  1.
    10030    2    1    2    0    0  0.00000000000E+00  0.00000000000E+00  0.48383215356E+03  0.85857277129E+03  0.70926275159E+03 0.  0.
        4    1    3    3  502    0  0.24477914851E+03 -0.11489423255E+03  0.51966064131E+03  0.58580398705E+03  0.12699999809E+01 0. -1.
       -4    1    3    3    0  502 -0.24477914851E+03  0.11489423255E+03 -0.35828487755E+02  0.27276878424E+03  0.12699999809E+01 0.  1.
</event>
<event>
 5   0  0.1523811E-02  0.8103376E+03  0.7818609E-02  0.9545173E-01
        1   -1    0    0  501    0  0.00000000000E+00  0.00000000000E+00  0.70667906302E+03  0.70667906304E+03  0.50400001928E-02 0.  1.
       -1   -1    0    0    0  501  0.00000000000E+00  0.00000000000E+00 -0.23230029536E+03  0.23230029541E+03  0.50400001928E-02 0. -1.
    10030    2    1    2    0    0  0.00000000000E+00  0.00000000000E+00  0.47437876767E+03  0.93897935846E+03  0.81033759656E+03 0.  0.
        1    1    3    3  502    0  0.25743595053E+03 -0.23587568647E+03  0.47537158685E+03  0.58982095055E+03  0.50400001928E-02 0.  1.
       -1    1    3    3    0  502 -0.25743595053E+03  0.23587568647E+03 -0.99281918454E+00  0.34915840791E+03  0.50400001928E-02 0. -1.
</event>
<event>
 5   0  0.2460312E-02  0.8021029E+03  0.7818609E-02  0.9556978E-01
       -2   -1    0    0    0  501  0.00000000000E+00  0.00000000000E+00  0.57796082786E+03  0.57796082786E+03  0.25500000920E-02 0. -1.
        2   -1    0    0  501    0  0.00000000000E+00  0.00000000000E+00 -0.27829269130E+03  0.27829269131E+03  0.25500000920E-02 0.  1.
    10030    2    1    2    0    0  0.00000000000E+00  0.00000000000E+00  0.29966813656E+03  0.85625351917E+03  0.80210292171E+03 0.  0.
        2    1    3    3  502    0  0.38481307025E+03  0.15974134358E+02  0.30454082650E+02  0.38634663602E+03  0.25500000920E-02 0.  1.
       -2    1    3    3    0  502 -0.38481307025E+03 -0.15974134358E+02  0.26921405391E+03  0.46990688315E+03  0.25500000920E-02 0. -1.
</event>
<event>
 5   0  0.1509629E-02  0.8068429E+03  0.7818609E-02  0.9550165E-01
       -1   -1    0    0    0  501  0.00000000000E+00  0.00000000000E+00  0.22003170376E+03  0.22003170382E+03  0.50400001928E-02 0.  1.
        1   -1    0    0  501    0  0.00000000000E+00  0.00000000000E+00 -0.73966096925E+03  0.73966096927E+03  0.50400001928E-02 0. -1.
    10030    2    1    2    0    0  0.00000000000E+00  0.00000000000E+00 -0.51962926549E+03  0.95969267309E+03  0.80684289253E+03 0.  0.
        5    1    3    3  502    0 -0.70081467030E+02 -0.10668052103E+03  0.19534642206E+03  0.23339764394E+03  0.46999998093E+01 0.  1.
       -5    1    3    3    0  502  0.70081467030E+02  0.10668052103E+03 -0.71497568755E+03  0.72629502915E+03  0.46999998093E+01 0. -1.
</event>
<event>
 5   0  0.9919125E-03  0.8033459E+03  0.7818609E-02  0.9555187E-01
       -3   -1    0    0    0  501  0.00000000000E+00  0.00000000000E+00  0.93384190456E+03  0.93384191002E+03  0.10100000352E+00 0.  1.
        3   -1    0    0  501    0  0.00000000000E+00  0.00000000000E+00 -0.17277137295E+03  0.17277140247E+03  0.10100000352E+00 0. -1.
    10030    2    1    2    0    0  0.00000000000E+00  0.00000000000E+00  0.76107053161E+03  0.11066133125E+04  0.80334592132E+03 0.  0.
        4    1    3    3  502    0  0.10426247715E+03  0.37041661300E+03  0.22191013690E+03  0.44421262148E+03  0.12699999809E+01 0. -1.
       -4    1    3    3    0  502 -0.10426247715E+03 -0.37041661300E+03  0.53916039471E+03  0.66240069101E+03  0.12699999809E+01 0.  1.
</event>
<event>
 5   0  0.1523811E-02  0.8021460E+03  0.7818609E-02  0.9556916E-01
        1   -1    0    0  501    0  0.00000000000E+00  0.00000000000E+00  0.57719109422E+03  0.57719109424E+03  0.50400001928E-02 0. -1.
       -1   -1    0    0    0  501  0.00000000000E+00  0.00000000000E+00 -0.27869374236E+03  0.27869374240E+03  0.50400001928E-02 0.  1.
    10030    2    1    2    0    0  0.00000000000E+00  0.00000000000E+00  0.29849735186E+03  0.85588483664E+03  0.80214598704E+03 0.  0.
        1    1    3    3  502    0  0.29967471781E+02  0.35771166289E+03  0.34012985907E+03  0.49451390697E+03  0.50400001928E-02 0.  1.
       -1    1    3    3    0  502 -0.29967471781E+02 -0.35771166289E+03 -0.41632507209E+02  0.36137092967E+03  0.50400001928E-02 0. -1.
</event>
<event>
 5   0  0.2454354E-02  0.7854894E+03  0.7818609E-02  0.9581261E-01
        2   -1    0    0  501    0  0.00000000000E+00  0.00000000000E+00  0.62193409869E+03  0.62193409870E+03  0.25500000920E-02 0.  1.
       -2   -1    0    0    0  501  0.00000000000E+00  0.00000000000E+00 -0.24801407922E+03  0.24801407924E+03  0.25500000920E-02 0. -1.
    10030    2    1    2    0    0  0.00000000000E+00  0.00000000000E+00  0.37392001947E+03  0.86994817794E+03  0.78548943426E+03 0.  0.
        5    1    3    3  502    0  0.27643869430E+02  0.89942951834E+02  0.60923369891E+03  0.61647522902E+03  0.46999998093E+01 0.  1.
       -5    1    3    3    0  502 -0.27643869430E+02 -0.89942951834E+02 -0.23531367944E+03  0.25347294892E+03  0.46999998093E+01 0. -1.
</event>
<event>
 5   0  0.1509629E-02  0.8058025E+03  0.7818609E-02  0.9551656E-01
       -1   -1    0    0    0  501  0.00000000000E+00  0.00000000000E+00  0.33535593082E+03  0.33535593085E+03  0.50400001928E-02 0. -1.
        1   -1    0    0  501    0  0.00000000000E+00  0.00000000000E+00 -0.48405109477E+03  0.48405109480E+03  0.50400001928E-02 0.  1.
    10030    2    1    2    0    0  0.00000000000E+00  0.00000000000E+00 -0.14869516396E+03  0.81940702565E+03  0.80580247077E+03 0.  0.
        5    1    3    3  502    0 -0.18705453206E+03  0.26633859008E+03 -0.31580473054E+03  0.45351996688E+03  0.46999998093E+01 0.  1.
       -5    1    3    3    0  502  0.18705453206E+03 -0.26633859008E+03  0.16710956658E+03  0.36588705877E+03  0.46999998093E+01 0. -1.
</event>
<event>
 5   0  0.2464780E-02  0.7448691E+03  0.7818609E-02  0.9643434E-01
        2   -1    0    0  501    0  0.00000000000E+00  0.00000000000E+00  0.21385421864E+03  0.21385421866E+03  0.25500000920E-02 0. -1.
       -2   -1    0    0    0  501  0.00000000000E+00  0.00000000000E+00 -0.64860775550E+03  0.64860775550E+03  0.25500000920E-02 0.  1.
    10030    2    1    2    0    0  0.00000000000E+00  0.00000000000E+00 -0.43475353686E+03  0.86246197416E+03  0.74486912882E+03 0.  0.
        3    1    3    3  502    0 -0.23164189890E+03  0.66461255270E+02  0.11141038969E+03  0.26549454403E+03  0.10100000352E+00 0. -1.
       -3    1    3    3    0  502  0.23164189890E+03 -0.66461255270E+02 -0.54616392655E+03  0.59696743013E+03  0.10100000352E+00 0.  1.
</event>
<event>
 5   0  0.1523811E-02  0.7962596E+03  0.7818609E-02  0.9565447E-01
       -1   -1    0    0    0  501  0.00000000000E+00  0.00000000000E+00  0.38127472921E+03  0.38127472924E+03  0.50400001928E-02 0. -1.
        1   -1    0    0  501    0  0.00000000000E+00  0.00000000000E+00 -0.41572993804E+03  0.41572993807E+03  0.50400001928E-02 0.  1.
    10030    2    1    2    0    0  0.00000000000E+00  0.00000000000E+00 -0.34455208826E+02  0.79700466731E+03  0.79625955461E+03 0.  0.
        1    1    3    3  502    0 -0.35125634571E+03 -0.38573633289E+02 -0.20080690259E+03  0.40643862727E+03  0.50400001928E-02 0.  1.
       -1    1    3    3    0  502  0.35125634571E+03  0.38573633289E+02  0.16635169377E+03  0.39056604004E+03  0.50400001928E-02 0. -1.
</event>
<event>
 5   0  0.1624094E-02  0.7956348E+03  0.7818609E-02  0.9566357E-01
        1   -1    0    0  501    0  0.00000000000E+00  0.00000000000E+00  0.30051139208E+03  0.30051139212E+03  0.50400001928E-02 0. -1.
       -1   -1    0    0    0  501  0.00000000000E+00  0.00000000000E+00 -0.52663126302E+03  0.52663126304E+03  0.50400001928E-02 0.  1.
    10030    2    1    2    0    0  0.00000000000E+00  0.00000000000E+00 -0.22611987094E+03  0.82714265516E+03  0.79563482576E+03 0.  0.
        3    1    3    3  502    0  0.24770357198E+01  0.22746882662E+03 -0.45234348754E+03  0.50632286509E+03  0.10100000352E+00 0.  1.
       -3    1    3    3    0  502 -0.24770357198E+01 -0.22746882662E+03  0.22622361660E+03  0.32081979007E+03  0.10100000352E+00 0. -1.
</event>
<event>
 5   0  0.2464780E-02  0.7770194E+03  0.7818609E-02  0.9593889E-01
       -2   -1    0    0    0  501  0.00000000000E+00  0.00000000000E+00  0.30447670678E+03  0.30447670679E+03  0.25500000920E-02 0.  1.
        2   -1    0    0  501    0  0.00000000000E+00  0.00000000000E+00 -0.49573507776E+03  0.49573507777E+03  0.25500000920E-02 0. -1.
    10030    2    1    2    0    0  0.00000000000E+00  0.00000000000E+00 -0.19125837098E+03  0.80021178455E+03  0.77701939208E+03 0.  0.
        3    1    3    3  502    0 -0.31263726499E+02  0.61004033255E+02 -0.48945796810E+03  0.49423478773E+03  0.10100000352E+00 0. -1.
       -3    1    3    3    0  502  0.31263726499E+02 -0.61004033255E+02  0.29819959711E+03  0.30597699682E+03  0.10100000352E+00 0.  1.
</event>
<event>
 5   0  0.2454354E-02  0.8245913E+03  0.7818609E-02  0.9525089E-01
       -2   -1    0    0    0  501  0.00000000000E+00  0.00000000000E+00  0.15028607961E+03  0.15028607963E+03  0.25500000920E-02 0. -1.
        2   -1    0    0  501    0  0.00000000000E+00  0.00000000000E+00 -0.11310940838E+04  0.11310940838E+04  0.25500000920E-02 0.  1.
    10030    2    1    2    0    0  0.00000000000E+00  0.00000000000E+00 -0.98080800422E+03  0.12813801635E+04  0.82459128189E+03 0.  0.
        5    1    3    3  502    0  0.22268245457E+03  0.42999974340E+02  0.44593568673E+02  0.23118639608E+03  0.46999998093E+01 0. -1.
       -5    1    3    3    0  502 -0.22268245457E+03 -0.42999974340E+02 -0.10254015729E+04  0.10501937674E+04  0.46999998093E+01 0.  1.
</event>
<event>
 5   0  0.2454354E-02  0.8008877E+03  0.7818609E-02  0.9558733E-01
       -2   -1    0    0    0  501  0.00000000000E+00  0.00000000000E+00  0.17926727798E+03  0.17926727800E+03  0.25500000920E-02 0. -1.
        2   -1    0    0  501    0  0.00000000000E+00  0.00000000000E+00 -0.89450387482E+03  0.89450387482E+03  0.25500000920E-02 0.  1.
    10030    2    1    2    0    0  0.00000000000E+00  0.00000000000E+00 -0.71523659684E+03  0.10737711528E+04  0.80088769448E+03 0.  0.
        5    1    3    3  502    0 -0.27761682643E+02 -0.62315992248E+02 -0.88661796020E+03  0.88925108448E+03  0.46999998093E+01 0.  1.
       -5    1    3    3    0  502  0.27761682643E+02  0.62315992248E+02  0.17138136336E+03  0.18452006833E+03  0.46999998093E+01 0. -1.
</event>
<event>
 5   0  0.1498375E-02  0.7927896E+03  0.7818609E-02  0.9570513E-01
       -1   -1    0    0    0  501  0.00000000000E+00  0.00000000000E+00  0.13934768095E+03  0.13934768104E+03  0.50400001928E-02 0. -1.
        1   -1    0    0  501    0  0.00000000000E+00  0.00000000000E+00 -0.11276028351E+04  0.11276028351E+04  0.50400001928E-02 0.  1.
    10030    2    1    2    0    0  0.00000000000E+00  0.00000000000E+00 -0.98825515414E+03  0.12669505161E+04  0.79278960681E+03 0.  0.
        4    1    3    3  502    0 -0.12300315841E+03 -0.26601084272E+03 -0.67596678618E+02  0.30076979450E+03  0.12699999809E+01 0. -1.
       -4    1    3    3    0  502  0.12300315841E+03  0.26601084272E+03 -0.92065847553E+03  0.96618072165E+03  0.12699999809E+01 0.  1.
</event>
<event>
 5   0  0.1509629E-02  0.7933757E+03  0.7818609E-02  0.9569655E-01
        1   -1    0    0  501    0  0.00000000000E+00  0.00000000000E+00  0.20013747553E+04  0.20013747553E+04  0.50400001928E-02 0. -1.
       -1   -1    0    0    0  501  0.00000000000E+00  0.00000000000E+00 -0.78626585514E+02  0.78626585676E+02  0.50400001928E-02 0.  1.
    10030    2    1    2    0    0  0.00000000000E+00  0.00000000000E+00  0.19227481698E+04  0.20800013410E+04  0.79337573322E+03 0.  0.
        5    1    3    3  502    0  0.23474962697E+03  0.29854388123E+03  0.66126740665E+03  0.76258278860E+03  0.46999998093E+01 0.  1.
       -5    1    3    3    0  502 -0.23474962697E+03 -0.29854388123E+03  0.12614807631E+04  0.13174185524E+04  0.46999998093E+01 0. -1.
</event>
<event>
 5   0  0.1471290E-02  0.8340118E+03  0.7818609E-02  0.9512051E-01
        1   -1    0    0  501    0  0.00000000000E+00  0.00000000000E+00  0.29449275071E+03  0.29449275075E+03  0.50400001928E-02 0.  1.
       -1   -1    0    0    0  501  0.00000000000E+00  0.00000000000E+00 -0.59048622845E+03  0.59048622847E+03  0.50400001928E-02 0. -1.
    10030    2    1    2    0    0  0.00000000000E+00  0.00000000000E+00 -0.29599347774E+03  0.88497897922E+03  0.83401178337E+03 0.  0.
        2    1    3    3  502    0  0.42857877107E+01  0.14456691548E+03 -0.56301991692E+03  0.58129974013E+03  0.25500000920E-02 0. -1.
       -2    1    3    3    0  502 -0.42857877107E+01 -0.14456691548E+03  0.26702643918E+03  0.30367923909E+03  0.25500000920E-02 0.  1.
</event>
<event>
 5   0  0.1523811E-02  0.7963368E+03  0.7818609E-02  0.9565335E-01
        1   -1    0    0  501    0  0.00000000000E+00  0.00000000000E+00  0.49193476149E+03  0.49193476151E+03  0.50400001928E-02 0. -1.
       -1   -1    0    0    0  501  0.00000000000E+00  0.00000000000E+00 -0.32227462418E+03  0.32227462422E+03  0.50400001928E-02 0.  1.
    10030    2    1    2    0    0  0.00000000000E+00  0.00000000000E+00  0.16966013730E+03  0.81420938574E+03  0.79633683930E+03 0.  0.
        1    1    3    3  502    0 -0.22691073367E+03 -0.24559615672E+03 -0.13619784208E+03  0.36104820379E+03  0.50400001928E-02 0.  1.
       -1    1    3    3    0  502  0.22691073367E+03  0.24559615672E+03  0.30585797938E+03  0.45316118195E+03  0.50400001928E-02 0. -1.
</event>
<event>
 5   0  0.9919125E-03  0.8227878E+03  0.7818609E-02  0.9527606E-01
        3   -1    0    0  501    0  0.00000000000E+00  0.00000000000E+00  0.54758876839E+03  0.54758877770E+03  0.10100000352E+00 0. -1.
       -3   -1    0    0    0  501  0.00000000000E+00  0.00000000000E+00 -0.30907303867E+03  0.30907305517E+03  0.10100000352E+00 0.  1.
    10030    2    1    2    0    0  0.00000000000E+00  0.00000000000E+00  0.23851572972E+03  0.85666183287E+03  0.82278778709E+03 0.  0.
        3    1    3    3  502    0 -0.19623465870E+02  0.38836397619E+03  0.25907448136E+03  0.46725930221E+03  0.10100000352E+00 0. -1.
       -3    1    3    3    0  502  0.19623465870E+02 -0.38836397619E+03 -0.20558751638E+02  0.38940253066E+03  0.10100000352E+00 0.  1.
</event>
<event>
 5   0  0.1498375E-02  0.8034434E+03  0.7818609E-02  0.9555046E-01
       -1   -1    0    0    0  501  0.00000000000E+00  0.00000000000E+00  0.21395743143E+03  0.21395743149E+03  0.50400001928E-02 0. -1.
        1   -1    0    0  501    0  0.00000000000E+00  0.00000000000E+00 -0.75426366829E+03  0.75426366831E+03  0.50400001928E-02 0.  1.
    10030    2    1    2    0    0  0.00000000000E+00  0.00000000000E+00 -0.54030623687E+03  0.96822109980E+03  0.80344338226E+03 0.  0.
        4    1    3    3  502    0  0.31312752805E+03  0.32654339537E+02 -0.57085503932E+03  0.65191429155E+03  0.12699999809E+01 0.  1.
       -4    1    3    3    0  502 -0.31312752805E+03 -0.32654339537E+02  0.30548802454E+02  0.31630680825E+03  0.12699999809E+01 0. -1.
</event>
<event>
 5   0  0.2464780E-02  0.8009177E+03  0.7818609E-02  0.9558690E-01
       -2   -1    0    0    0  501  0.00000000000E+00  0.00000000000E+00  0.24290650976E+03  0.24290650977E+03  0.25500000920E-02 0.  1.
        2   -1    0    0  501    0  0.00000000000E+00  0.00000000000E+00 -0.66020171209E+03  0.66020171209E+03  0.25500000920E-02 0. -1.
    10030    2    1    2    0    0  0.00000000000E+00  0.00000000000E+00 -0.41729520233E+03  0.90310822187E+03  0.80091770771E+03 0.  0.
        3    1    3    3  502    0  0.61948986601E+02 -0.26219625845E+01  0.23746101358E+03  0.24542268599E+03  0.10100000352E+00 0.  1.
       -3    1    3    3    0  502 -0.61948986601E+02  0.26219625845E+01 -0.65475621591E+03  0.65768553588E+03  0.10100000352E+00 0. -1.
</event>
<event>
 5   0  0.2454354E-02  0.8079809E+03  0.7818609E-02  0.9548536E-01
       -2   -1    0    0    0  501  0.00000000000E+00  0.00000000000E+00  0.11093744801E+03  0.11093744804E+03  0.25500000920E-02 0.  1.
        2   -1    0    0  501    0  0.00000000000E+00  0.00000000000E+00 -0.14711738807E+04  0.14711738807E+04  0.25500000920E-02 0. -1.
    10030    2    1    2    0    0  0.00000000000E+00  0.00000000000E+00 -0.13602364327E+04  0.15821113288E+04  0.80798088079E+03 0.  0.
        5    1    3    3  502    0 -0.21427008960E+03  0.24877651979E+02 -0.11329736259E+02  0.21605791304E+03  0.46999998093E+01 0.  1.
       -5    1    3    3    0  502  0.21427008960E+03 -0.24877651979E+02 -0.13489066965E+04  0.13660534157E+04  0.46999998093E+01 0. -1.
</event>
<event>
 5   0  0.2454354E-02  0.8025986E+03  0.7818609E-02  0.9556263E-01
       -2   -1    0    0    0  501  0.00000000000E+00  0.00000000000E+00  0.21851212931E+03  0.21851212933E+03  0.25500000920E-02 0.  1.
        2   -1    0    0  501    0  0.00000000000E+00  0.00000000000E+00 -0.73698937081E+03  0.73698937081E+03  0.25500000920E-02 0. -1.
    10030    2    1    2    0    0  0.00000000000E+00  0.00000000000E+00 -0.51847724149E+03  0.95550150014E+03  0.80259857141E+03 0.  0.
        5    1    3    3  502    0 -0.43043488408E+02 -0.68214692828E+02 -0.72720597796E+03  0.73168067529E+03  0.46999998093E+01 0. -1.
       -5    1    3    3    0  502  0.43043488408E+02  0.68214692828E+02  0.20872873647E+03  0.22382082485E+03  0.46999998093E+01 0.  1.
</event>
<event>
 5   0  0.1523811E-02  0.7338210E+03  0.7818609E-02  0.9661080E-01
        1   -1    0    0  501    0  0.00000000000E+00  0.00000000000E+00  0.33510076890E+03  0.33510076894E+03  0.50400001928E-02 0.  1.
       -1   -1    0    0    0  501  0.00000000000E+00  0.00000000000E+00 -0.40173982838E+03  0.40173982842E+03  0.50400001928E-02 0. -1.
    10030    2    1    2    0    0  0.00000000000E+00  0.00000000000E+00 -0.66639059481E+02  0.73684059736E+03  0.73382102836E+03 0.  0.
        1    1    3    3  502    0  0.31925849767E+03  0.17347015724E+03 -0.84573093147E+02  0.37305561502E+03  0.50400001928E-02 0.  1.
       -1    1    3    3    0  502 -0.31925849767E+03 -0.17347015724E+03  0.17934033666E+02  0.36378498234E+03  0.50400001928E-02 0. -1.
</event>
<event>
 5   0  0.2571778E-02  0.7261600E+03  0.7818609E-02  0.9673512E-01
        2   -1    0    0  501    0  0.00000000000E+00  0.00000000000E+00  0.99939525966E+03  0.99939525966E+03  0.25500000920E-02 0. -1.
       -2   -1    0    0    0  501  0.00000000000E+00  0.00000000000E+00 -0.13190684008E+03  0.13190684010E+03  0.25500000920E-02 0.  1.
    10030    2    1    2    0    0  0.00000000000E+00  0.00000000000E+00  0.86748841958E+03  0.11313020998E+04  0.72615995677E+03 0.  0.
        1    1    3    3  502    0  0.20317317710E+03  0.12360156651E+03  0.63207443673E+01  0.23790048123E+03  0.50400001928E-02 0.  1.
       -1    1    3    3    0  502 -0.20317317710E+03 -0.12360156651E+03  0.86116767521E+03  0.89340161853E+03  0.50400001928E-02 0. -1.
</event>
<event>
 5   0  0.2571778E-02  0.8018326E+03  0.7818609E-02  0.9557368E-01
       -2   -1    0    0    0  501  0.00000000000E+00  0.00000000000E+00  0.21417364409E+03  0.21417364411E+03  0.25500000920E-02 0.  1.
        2   -1    0    0  501    0  0.00000000000E+00  0.00000000000E+00 -0.75048386988E+03  0.75048386989E+03  0.25500000920E-02 0. -1.
    10030    2    1    2    0    0  0.00000000000E+00  0.00000000000E+00 -0.53631022579E+03  0.96465751399E+03  0.80183256420E+03 0.  0.
        1    1    3    3  502    0  0.28982835020E+02 -0.15450835478E+03 -0.71185823970E+03  0.72900959519E+03  0.50400001928E-02 0. -1.
       -1    1    3    3    0  502 -0.28982835020E+02  0.15450835478E+03  0.17554801391E+03  0.23564791881E+03  0.50400001928E-02 0.  1.
</event>
<event>
 5   0  0.1523811E-02  0.8074246E+03  0.7818609E-02  0.9549332E-01
       -1   -1    0    0    0  501  0.00000000000E+00  0.00000000000E+00  0.20384753404E+03  0.20384753410E+03  0.50400001928E-02 0.  1.
        1   -1    0    0  501    0  0.00000000000E+00  0.00000000000E+00 -0.79953680970E+03  0.79953680972E+03  0.50400001928E-02 0. -1.
    10030    2    1    2    0    0  0.00000000000E+00  0.00000000000E+00 -0.59568927566E+03  0.10033843438E+04  0.80742456508E+03 0.  0.
        1    1    3    3  502    0 -0.37473203072E+03  0.14965926967E+03 -0.31364279644E+03  0.51107122363E+03  0.50400001928E-02 0. -1.
       -1    1    3    3    0  502  0.37473203072E+03 -0.14965926967E+03 -0.28204647922E+03  0.49231312019E+03  0.50400001928E-02 0.  1.
</event>
<event>
 5   0  0.2422031E-02  0.7891254E+03  0.7818609E-02  0.9575892E-01
        2   -1    0    0  501    0  0.00000000000E+00  0.00000000000E+00  0.33211473063E+03  0.33211473064E+03  0.25500000920E-02 0. -1.
       -2   -1    0    0    0  501  0.00000000000E+00  0.00000000000E+00 -0.46875282664E+03  0.46875282665E+03  0.25500000920E-02 0.  1.
    10030    2    1    2    0    0  0.00000000000E+00  0.00000000000E+00 -0.13663809601E+03  0.80086755729E+03  0.78912538614E+03 0.  0.
        4    1    3    3  502    0  0.13087502591E+03  0.60966041374E+02 -0.44097901835E+03  0.46401426501E+03  0.12699999809E+01 0.  1.
       -4    1    3    3    0  502 -0.13087502591E+03 -0.60966041374E+02  0.30434092234E+03  0.33685329228E+03  0.12699999809E+01 0. -1.
</event>
<event>
 5   0  0.1471290E-02  0.8024661E+03  0.7818609E-02  0.9556454E-01
       -1   -1    0    0    0  501  0.00000000000E+00  0.00000000000E+00  0.27198159717E+03  0.27198159722E+03  0.50400001928E-02 0. -1.
        1   -1    0    0  501    0  0.00000000000E+00  0.00000000000E+00 -0.59190754791E+03  0.59190754793E+03  0.50400001928E-02 0.  1.
    10030    2    1    2    0    0  0.00000000000E+00  0.00000000000E+00 -0.31992595073E+03  0.86388914515E+03  0.80246609969E+03 0.  0.
        2    1    3    3  502    0  0.13773914774E+03 -0.96267050296E+02  0.23227189735E+03  0.28668737694E+03  0.25500000920E-02 0. -1.
       -2    1    3    3    0  502 -0.13773914774E+03  0.96267050296E+02 -0.55219784808E+03  0.57720176821E+03  0.25500000920E-02 0.  1.
</event>
<event>
 5   0  0.2460312E-02  0.7361560E+03  0.7818609E-02  0.9657323E-01
       -2   -1    0    0    0  501  0.00000000000E+00  0.00000000000E+00  0.82721343461E+02  0.82721343500E+02  0.25500000920E-02 0.  1.
        2   -1    0    0  501    0  0.00000000000E+00  0.00000000000E+00 -0.16378049364E+04  0.16378049364E+04  0.25500000920E-02 0. -1.
    10030    2    1    2    0    0  0.00000000000E+00  0.00000000000E+00 -0.15550835930E+04  0.17205262799E+04  0.73615602885E+03 0.  0.
        2    1    3    3  502    0  0.55686707264E+02  0.89859417128E+02 -0.16015602925E+04  0.16050455118E+04  0.25500000920E-02 0. -1.
       -2    1    3    3    0  502 -0.55686707264E+02 -0.89859417128E+02  0.46476699548E+02  0.11548076818E+03  0.25500000920E-02 0.  1.
</event>
<event>
 5   0  0.1523811E-02  0.7852251E+03  0.7818609E-02  0.9581653E-01
       -1   -1    0    0    0  501  0.00000000000E+00  0.00000000000E+00  0.24191605713E+03  0.24191605719E+03  0.50400001928E-02 0.  1.
        1   -1    0    0  501    0  0.00000000000E+00  0.00000000000E+00 -0.63718227581E+03  0.63718227583E+03  0.50400001928E-02 0. -1.
    10030    2    1    2    0    0  0.00000000000E+00  0.00000000000E+00 -0.39526621868E+03  0.87909833302E+03  0.78522512408E+03 0.  0.
        1    1    3    3  502    0 -0.12781468434E+03  0.19338672476E+03  0.15712382969E+03  0.28004091974E+03  0.50400001928E-02 0.  1.
       -1    1    3    3    0  502  0.12781468434E+03 -0.19338672476E+03 -0.55239004836E+03  0.59905741328E+03  0.50400001928E-02 0. -1.
</event>
<event>
 5   0  0.2460312E-02  0.8059914E+03  0.7818609E-02  0.9551385E-01
       -2   -1    0    0    0  501  0.00000000000E+00  0.00000000000E+00  0.15752170184E+03  0.15752170186E+03  0.25500000920E-02 0. -1.
        2   -1    0    0  501    0  0.00000000000E+00  0.00000000000E+00 -0.10310042161E+04  0.10310042161E+04  0.25500000920E-02 0.  1.
    10030    2    1    2    0    0  0.00000000000E+00  0.00000000000E+00 -0.87348251424E+03  0.11885259179E+04  0.80599141120E+03 0.  0.
        2    1    3    3  502    0 -0.21275225027E+03  0.10863447335E+03  0.41862468172E+02  0.24252306085E+03  0.25500000920E-02 0. -1.
       -2    1    3    3    0  502  0.21275225027E+03 -0.10863447335E+03 -0.91534498242E+03  0.94600285710E+03  0.25500000920E-02 0.  1.
</event>
<event>
 5   0  0.2454354E-02  0.7983996E+03  0.7818609E-02  0.9562337E-01
        2   -1    0    0  501    0  0.00000000000E+00  0.00000000000E+00  0.11136014838E+04  0.11136014838E+04  0.25500000920E-02 0.  1.
       -2   -1    0    0    0  501  0.00000000000E+00  0.00000000000E+00 -0.14310368186E+03  0.14310368189E+03  0.25500000920E-02 0. -1.
    10030    2    1    2    0    0  0.00000000000E+00  0.00000000000E+00  0.97049780197E+03  0.12567051657E+04  0.79839958037E+03 0.  0.
        5    1    3    3  502    0 -0.29934579883E+03  0.12062253103E+02  0.70035994126E+02  0.30770202421E+03  0.46999998093E+01 0. -1.
       -5    1    3    3    0  502  0.29934579883E+03 -0.12062253103E+02  0.90046180784E+03  0.94900314152E+03  0.46999998093E+01 0.  1.
</event>
<event>
 5   0  0.2454354E-02  0.8115785E+03  0.7818609E-02  0.9543407E-01
        2   -1    0    0  501    0  0.00000000000E+00  0.00000000000E+00  0.69023941723E+03  0.69023941723E+03  0.25500000920E-02 0.  1.
       -2   -1    0    0    0  501  0.00000000000E+00  0.00000000000E+00 -0.23856204316E+03  0.23856204317E+03  0.25500000920E-02 0. -1.
    10030    2    1    2    0    0  0.00000000000E+00  0.00000000000E+00  0.45167737407E+03  0.92880146041E+03  0.81157852523E+03 0.  0.
        5    1    3    3  502    0  0.29658503624E+03 -0.21471213340E+03  0.42596441704E+03  0.56172213641E+03  0.46999998093E+01 0.  1.
       -5    1    3    3    0  502 -0.29658503624E+03  0.21471213340E+03  0.25712957023E+02  0.36707932400E+03  0.46999998093E+01 0. -1.
</event>
<event>
 5   0  0.2454354E-02  0.8332284E+03  0.7818609E-02  0.9513128E-01
        2   -1    0    0  501    0  0.00000000000E+00  0.00000000000E+00  0.12350550757E+04  0.12350550757E+04  0.25500000920E-02 0.  1.
       -2   -1    0    0    0  501  0.00000000000E+00  0.00000000000E+00 -0.14053412195E+03  0.14053412197E+03  0.25500000920E-02 0. -1.
    10030    2    1    2    0    0  0.00000000000E+00  0.00000000000E+00  0.10945209538E+04  0.13755891977E+04  0.83322837360E+03 0.  0.
        5    1    3    3  502    0 -0.13558255208E+03  0.33370449499E+03  0.20173390301E+03  0.41286798862E+03  0.46999998093E+01 0. -1.
       -5    1    3    3    0  502  0.13558255208E+03 -0.33370449499E+03  0.89278705077E+03  0.96272120909E+03  0.46999998093E+01 0.  1.
</event>
<event>
 5   0  0.1523811E-02  0.7732104E+03  0.7818609E-02  0.9599625E-01
        1   -1    0    0  501    0  0.00000000000E+00  0.00000000000E+00  0.84258858473E+03  0.84258858475E+03  0.50400001928E-02 0.  1.
       -1   -1    0    0    0  501  0.00000000000E+00  0.00000000000E+00 -0.17738617670E+03  0.17738617677E+03  0.50400001928E-02 0. -1.
    10030    2    1    2    0    0  0.00000000000E+00  0.00000000000E+00  0.66520240803E+03  0.10199747615E+04  0.77321036626E+03 0.  0.
        1    1    3    3  502    0 -0.19716830353E+03 -0.15964860890E+03 -0.52219065605E+02  0.25901708261E+03  0.50400001928E-02 0. -1.
       -1    1    3    3    0  502  0.19716830353E+03  0.15964860890E+03  0.71742147364E+03  0.76095767892E+03  0.50400001928E-02 0.  1.
</event>
<event>
 5   0  0.1523811E-02  0.8033017E+03  0.7818609E-02  0.9555250E-01
        1   -1    0    0  501    0  0.00000000000E+00  0.00000000000E+00  0.33178386521E+03  0.33178386525E+03  0.50400001928E-02 0. -1.
       -1   -1    0    0    0  501  0.00000000000E+00  0.00000000000E+00 -0.48623046661E+03  0.48623046664E+03  0.50400001928E-02 0.  1.
    10030    2    1    2    0    0  0.00000000000E+00  0.00000000000E+00 -0.15444660141E+03  0.81801433189E+03  0.80330174560E+03 0.  0.
        1    1    3    3  502    0  0.21112365033E+03 -0.33925855346E+03 -0.11863583478E+03  0.41682613059E+03  0.50400001928E-02 0.  1.
       -1    1    3    3    0  502 -0.21112365033E+03  0.33925855346E+03 -0.35810766623E+02  0.40118820129E+03  0.50400001928E-02 0. -1.
</event>
<event>
 5   0  0.1624094E-02  0.8023792E+03  0.7818609E-02  0.9556580E-01
       -1   -1    0    0    0  501  0.00000000000E+00  0.00000000000E+00  0.56416327236E+03  0.56416327238E+03  0.50400001928E-02 0.  1.
        1   -1    0    0  501    0  0.00000000000E+00  0.00000000000E+00 -0.28529524060E+03  0.28529524065E+03  0.50400001928E-02 0. -1.
    10030    2    1    2    0    0  0.00000000000E+00  0.00000000000E+00  0.27886803176E+03  0.84945851303E+03  0.80237920351E+03 0.  0.
        3    1    3    3  502    0  0.38361200013E+03  0.20214276205E+02  0.26192181484E+03  0.46494067459E+03  0.10100000352E+00 0.  1.
       -3    1    3    3    0  502 -0.38361200013E+03 -0.20214276205E+02  0.16946216919E+02  0.38451783843E+03  0.10100000352E+00 0. -1.
</event>
<event>
 5   0  0.2571778E-02  0.7977615E+03  0.7818609E-02  0.9563263E-01
       -2   -1    0    0    0  501  0.00000000000E+00  0.00000000000E+00  0.15447364947E+03  0.15447364949E+03  0.25500000920E-02 0. -1.
        2   -1    0    0  501    0  0.00000000000E+00  0.00000000000E+00 -0.10299869328E+04  0.10299869328E+04  0.25500000920E-02 0.  1.
    10030    2    1    2    0    0  0.00000000000E+00  0.00000000000E+00 -0.87551328338E+03  0.11844605823E+04  0.79776146921E+03 0.  0.
        1    1    3    3  502    0  0.21103608499E+02 -0.17466307934E+03  0.93754570574E+02  0.19935514316E+03  0.50400001928E-02 0. -1.
       -1    1    3    3    0  502 -0.21103608499E+02  0.17466307934E+03 -0.96926785395E+03  0.98510543918E+03  0.50400001928E-02 0.  1.
</event>
<event>
 5   0  0.1509629E-02  0.8139874E+03  0.7818609E-02  0.9539989E-01
        1   -1    0    0  501    0  0.00000000000E+00  0.00000000000E+00  0.51888480420E+03  0.51888480422E+03  0.50400001928E-02 0. -1.
       -1   -1    0    0    0  501  0.00000000000E+00  0.00000000000E+00 -0.31923053332E+03  0.31923053336E+03  0.50400001928E-02 0.  1.
    10030    2    1    2    0    0  0.00000000000E+00  0.00000000000E+00  0.19965427088E+03  0.83811533759E+03  0.81398740237E+03 0.  0.
        5    1    3    3  502    0 -0.40547012992E+03  0.28191934802E+02  0.12095289731E+03  0.42409020834E+03  0.46999998093E+01 0. -1.
       -5    1    3    3    0  502  0.40547012992E+03 -0.28191934802E+02  0.78701373570E+02  0.41402512925E+03  0.46999998093E+01 0.  1.
</event>
<event>
 5   0  0.2571778E-02  0.7955487E+03  0.7818609E-02  0.9566483E-01
        2   -1    0    0  501    0  0.00000000000E+00  0.00000000000E+00  0.52310545886E+03  0.52310545886E+03  0.25500000920E-02 0. -1.
       -2   -1    0    0    0  501  0.00000000000E+00  0.00000000000E+00 -0.30247141876E+03  0.30247141877E+03  0.25500000920E-02 0.  1.
    10030    2    1    2    0    0  0.00000000000E+00  0.00000000000E+00  0.22063404010E+03  0.82557687763E+03  0.79554874221E+03 0.  0.
        1    1    3    3  502    0  0.21355356521E+03  0.10329878103E+03  0.44166287781E+03  0.50134006526E+03  0.50400001928E-02 0. -1.
       -1    1    3    3    0  502 -0.21355356521E+03 -0.10329878103E+03 -0.22102883771E+03  0.32423681237E+03  0.50400001928E-02 0.  1.
</event>
<event>
 5   0  0.2464780E-02  0.7732108E+03  0.7818609E-02  0.9599624E-01
       -2   -1    0    0    0  501  0.00000000000E+00  0.00000000000E+00  0.19316238498E+03  0.19316238499E+03  0.25500000920E-02 0. -1.
        2   -1    0    0  501    0  0.00000000000E+00  0.00000000000E+00 -0.77377253344E+03  0.77377253344E+03  0.25500000920E-02 0.  1.
    10030    2    1    2    0    0  0.00000000000E+00  0.00000000000E+00 -0.58061014846E+03  0.96693491844E+03  0.77321083282E+03 0.  0.
        3    1    3    3  502    0  0.48430402661E+02 -0.10224252524E+03  0.17199875437E+03  0.20587039509E+03  0.10100000352E+00 0. -1.
       -3    1    3    3    0  502 -0.48430402661E+02  0.10224252524E+03 -0.75260890283E+03  0.76106452334E+03  0.10100000352E+00 0.  1.
</event>
<event>
 5   0  0.2460312E-02  0.7569940E+03  0.7818609E-02  0.9624441E-01
       -2   -1    0    0    0  501  0.00000000000E+00  0.00000000000E+00  0.12031176765E+03  0.12031176768E+03  0.25500000920E-02 0. -1.
        2   -1    0    0  501    0  0.00000000000E+00  0.00000000000E+00 -0.11907395158E+04  0.11907395158E+04  0.25500000920E-02 0.  1.
    10030    2    1    2    0    0  0.00000000000E+00  0.00000000000E+00 -0.10704277481E+04  0.13110512834E+04  0.75699399199E+03 0.  0.
        2    1    3    3  502    0  0.25132226262E+03  0.14256239975E+03 -0.11178547109E+03  0.30981108609E+03  0.25500000920E-02 0. -1.
       -2    1    3    3    0  502 -0.25132226262E+03 -0.14256239975E+03 -0.95864227702E+03  0.10012401974E+04  0.25500000920E-02 0.  1.
</event>
<event>
 5   0  0.1471290E-02  0.7939156E+03  0.7818609E-02  0.9568866E-01
       -1   -1    0    0    0  501  0.00000000000E+00  0.00000000000E+00  0.16288761691E+03  0.16288761699E+03  0.50400001928E-02 0. -1.
        1   -1    0    0  501    0  0.00000000000E+00  0.00000000000E+00 -0.96738771112E+03  0.96738771114E+03  0.50400001928E-02 0.  1.
    10030    2    1    2    0    0  0.00000000000E+00  0.00000000000E+00 -0.80450009422E+03  0.11302753281E+04  0.79391555960E+03 0.  0.
        2    1    3    3  502    0 -0.41849780666E+01 -0.11651516867E+03  0.13796205249E+03  0.18062897471E+03  0.25500000920E-02 0. -1.
       -2    1    3    3    0  502  0.41849780666E+01  0.11651516867E+03 -0.94246214670E+03  0.94964635341E+03  0.25500000920E-02 0.  1.
</event>
<event>
 5   0  0.2454354E-02  0.7553270E+03  0.7818609E-02  0.9627030E-01
        2   -1    0    0  501    0  0.00000000000E+00  0.00000000000E+00  0.26815207382E+03  0.26815207384E+03  0.25500000920E-02 0.  1.
       -2   -1    0    0    0  501  0.00000000000E+00  0.00000000000E+00 -0.53189857146E+03  0.53189857146E+03  0.25500000920E-02 0. -1.
    10030    2    1    2    0    0  0.00000000000E+00  0.00000000000E+00 -0.26374649763E+03  0.80005064530E+03  0.75532696234E+03 0.  0.
        5    1    3    3  502    0 -0.15471174337E+03 -0.27834963811E+03  0.83105809333E+02  0.32915484216E+03  0.46999998093E+01 0.  1.
       -5    1    3    3    0  502  0.15471174337E+03  0.27834963811E+03 -0.34685230697E+03  0.47089580314E+03  0.46999998093E+01 0. -1.
</event>
<event>
 5   0  0.1509629E-02  0.8004100E+03  0.7818609E-02  0.9559424E-01
        1   -1    0    0  501    0  0.00000000000E+00  0.00000000000E+00  0.66066365880E+03  0.66066365882E+03  0.50400001928E-02 0.  1.
       -1   -1    0    0    0  501  0.00000000000E+00  0.00000000000E+00 -0.24242901856E+03  0.24242901861E+03  0.50400001928E-02 0. -1.
    10030    2    1    2    0    0  0.00000000000E+00  0.00000000000E+00  0.41823464024E+03  0.90309267743E+03  0.80041000102E+03 0.  0.
        5    1    3    3  502    0 -0.81966340954E+02  0.85941994458E+02 -0.22205604713E+03  0.25186402189E+03  0.46999998093E+01 0. -1.
       -5    1    3    3    0  502  0.81966340954E+02 -0.85941994458E+02  0.64029068737E+03  0.65122865553E+03  0.46999998093E+01 0.  1.
</event>
<event>
 5   0  0.2454354E-02  0.7814995E+03  0.7818609E-02  0.9587189E-01
       -2   -1    0    0    0  501  0.00000000000E+00  0.00000000000E+00  0.24222912257E+03  0.24222912259E+03  0.25500000920E-02 0. -1.
        2   -1    0    0  501    0  0.00000000000E+00  0.00000000000E+00 -0.63033450450E+03  0.63033450451E+03  0.25500000920E-02 0.  1.
    10030    2    1    2    0    0  0.00000000000E+00  0.00000000000E+00 -0.38810538193E+03  0.87256362709E+03  0.78149951749E+03 0.  0.
        5    1    3    3  502    0  0.26768655843E+03  0.27891879929E+03 -0.13077917974E+03  0.40813854757E+03  0.46999998093E+01 0. -1.
       -5    1    3    3    0  502 -0.26768655843E+03 -0.27891879929E+03 -0.25732620220E+03  0.46442507953E+03  0.46999998093E+01 0.  1.
</event>
<event>
 5   0  0.2571778E-02  0.7985660E+03  0.7818609E-02  0.9562095E-01
        2   -1    0    0  501    0  0.00000000000E+00  0.00000000000E+00  0.59632544588E+03  0.59632544588E+03  0.25500000920E-02 0. -1.
       -2   -1    0    0    0  501  0.00000000000E+00  0.00000000000E+00 -0.26734885497E+03  0.26734885498E+03  0.25500000920E-02 0.  1.
    10030    2    1    2    0    0  0.00000000000E+00  0.00000000000E+00  0.32897659091E+03  0.86367430086E+03  0.79856602770E+03 0.  0.
        1    1    3    3  502    0 -0.16276827775E+02  0.31164412537E+03 -0.10489757507E+03  0.32922712112E+03  0.50400001928E-02 0. -1.
       -1    1    3    3    0  502  0.16276827775E+02 -0.31164412537E+03  0.43387416598E+03  0.53444717974E+03  0.50400001928E-02 0.  1.
</event>
<event>
 5   0  0.2422031E-02  0.7924762E+03  0.7818609E-02  0.9570972E-01
        2   -1    0    0  501    0  0.00000000000E+00  0.00000000000E+00  0.65111560824E+03  0.65111560824E+03  0.25500000920E-02 0. -1.
       -2   -1    0    0    0  501  0.00000000000E+00  0.00000000000E+00 -0.24113175660E+03  0.24113175661E+03  0.25500000920E-02 0.  1.
    10030    2    1    2    0    0  0.00000000000E+00  0.00000000000E+00  0.40998385164E+03  0.89224736486E+03  0.79247624664E+03 0.  0.
        4    1    3    3  502    0 -0.16700427325E+03 -0.29230707198E+03  0.44027276901E+03  0.55423422454E+03  0.12699999809E+01 0. -1.
       -4    1    3    3    0  502  0.16700427325E+03  0.29230707198E+03 -0.30288917371E+02  0.33801314032E+03  0.12699999809E+01 0.  1.
</event>
<event>
 5   0  0.1471290E-02  0.7663859E+03  0.7818609E-02  0.9609988E-01
        1   -1    0    0  501    0  0.00000000000E+00  0.00000000000E+00  0.16277137798E+04  0.16277137798E+04  0.50400001928E-02 0.  1.
       -1   -1    0    0    0  501  0.00000000000E+00  0.00000000000E+00 -0.90210474867E+02  0.90210475008E+02  0.50400001928E-02 0. -1.
    10030    2    1    2    0    0  0.00000000000E+00  0.00000000000E+00  0.15375033049E+04  0.17179242548E+04  0.76638589013E+03 0.  0.
        2    1    3    3  502    0 -0.19624835986E+03 -0.70035536528E+02  0.14896192389E+04  0.15041222929E+04  0.25500000920E-02 0.  1.
       -2    1    3    3    0  502  0.19624835986E+03  0.70035536528E+02  0.47884066018E+02  0.21380196189E+03  0.25500000920E-02 0. -1.
</event>
<event>
 5   0  0.1471290E-02  0.6027201E+03  0.7818609E-02  0.9899779E-01
       -1   -1    0    0    0  501  0.00000000000E+00  0.00000000000E+00  0.12811641213E+03  0.12811641223E+03  0.50400001928E-02 0.  1.
        1   -1    0    0  501    0  0.00000000000E+00  0.00000000000E+00 -0.70886991489E+03  0.70886991491E+03  0.50400001928E-02 0. -1.
    10030    2    1    2    0    0  0.00000000000E+00  0.00000000000E+00 -0.58075350276E+03  0.83698632714E+03  0.60272006840E+03 0.  0.
        2    1    3    3  502    0  0.15718271281E+02  0.14847906402E+03 -0.65389525029E+03  0.67072505161E+03  0.25500000920E-02 0. -1.
       -2    1    3    3    0  502 -0.15718271281E+02 -0.14847906402E+03  0.73141747524E+02  0.16626127553E+03  0.25500000920E-02 0.  1.
</event>
<event>
 5   0  0.2454354E-02  0.7184792E+03  0.7818609E-02  0.9686142E-01
       -2   -1    0    0    0  501  0.00000000000E+00  0.00000000000E+00  0.13734604651E+03  0.13734604653E+03  0.25500000920E-02 0.  1.
        2   -1    0    0  501    0  0.00000000000E+00  0.00000000000E+00 -0.93961988142E+03  0.93961988142E+03  0.25500000920E-02 0. -1.
    10030    2    1    2    0    0  0.00000000000E+00  0.00000000000E+00 -0.80227383491E+03  0.10769659280E+04  0.71847916030E+03 0.  0.
        5    1    3    3  502    0  0.43704103436E+02  0.35437274642E+03 -0.45997711929E+03  0.58231532037E+03  0.46999998093E+01 0. -1.
       -5    1    3    3    0  502 -0.43704103436E+02 -0.35437274642E+03 -0.34229671562E+03  0.49465060759E+03  0.46999998093E+01 0.  1.
</event>
<event>
 5   0  0.2464780E-02  0.8140311E+03  0.7818609E-02  0.9539927E-01
       -2   -1    0    0    0  501  0.00000000000E+00  0.00000000000E+00  0.12962850897E+03  0.12962850900E+03  0.25500000920E-02 0.  1.
        2   -1    0    0  501    0  0.00000000000E+00  0.00000000000E+00 -0.12779722856E+04  0.12779722856E+04  0.25500000920E-02 0. -1.
    10030    2    1    2    0    0  0.00000000000E+00  0.00000000000E+00 -0.11483437766E+04  0.14076007946E+04  0.81403106060E+03 0.  0.
        3    1    3    3  502    0 -0.22604280469E+03 -0.30881645984E+03 -0.33457886380E+03  0.50833648474E+03  0.10100000352E+00 0. -1.
       -3    1    3    3    0  502  0.22604280469E+03  0.30881645984E+03 -0.81376491282E+03  0.89926430984E+03  0.10100000352E+00 0.  1.
</event>
<event>
 5   0  0.1471290E-02  0.7831182E+03  0.7818609E-02  0.9584779E-01
        1   -1    0    0  501    0  0.00000000000E+00  0.00000000000E+00  0.13522484611E+04  0.13522484611E+04  0.50400001928E-02 0.  1.
       -1   -1    0    0    0  501  0.00000000000E+00  0.00000000000E+00 -0.11338044512E+03  0.11338044523E+03  0.50400001928E-02 0. -1.
    10030    2    1    2    0    0  0.00000000000E+00  0.00000000000E+00  0.12388680160E+04  0.14656289063E+04  0.78311820951E+03 0.  0.
        2    1    3    3  502    0  0.30101355607E+02 -0.29485500176E+03  0.10983151294E+04  0.11376034841E+04  0.25500000920E-02 0.  1.
       -2    1    3    3    0  502 -0.30101355607E+02  0.29485500176E+03  0.14055288660E+03  0.32802542221E+03  0.25500000920E-02 0. -1.
</event>
<event>
 5   0  0.2422031E-02  0.6385160E+03  0.7818609E-02  0.9828570E-01
       -2   -1    0    0    0  501  0.00000000000E+00  0.00000000000E+00  0.15884788231E+03  0.15884788233E+03  0.25500000920E-02 0. -1.
        2   -1    0    0  501    0  0.00000000000E+00  0.00000000000E+00 -0.64165588179E+03  0.64165588179E+03  0.25500000920E-02 0.  1.
    10030    2    1    2    0    0  0.00000000000E+00  0.00000000000E+00 -0.48280799948E+03  0.80050376413E+03  0.63851602331E+03 0.  0.
        4    1    3    3  502    0  0.45260707785E+02  0.22315910866E+03  0.39142221475E+02  0.23104598211E+03  0.12699999809E+01 0. -1.
       -4    1    3    3    0  502 -0.45260707785E+02 -0.22315910866E+03 -0.52195022095E+03  0.56945778202E+03  0.12699999809E+01 0.  1.
</event>
<event>
 5   0  0.1471290E-02  0.8421569E+03  0.7818609E-02  0.9500925E-01
       -1   -1    0    0    0  501  0.00000000000E+00  0.00000000000E+00  0.10667451872E+03  0.10667451884E+03  0.50400001928E-02 0. -1.
        1   -1    0    0  501    0  0.00000000000E+00  0.00000000000E+00 -0.16621312856E+04  0.16621312857E+04  0.50400001928E-02 0.  1.
    10030    2    1    2    0    0  0.00000000000E+00  0.00000000000E+00 -0.15554567669E+04  0.17688058045E+04  0.84215688577E+03 0.  0.
        2    1    3    3  502    0 -0.11977803395E+03 -0.17134488142E+03 -0.10026960959E+02  0.20929975097E+03  0.25500000920E-02 0. -1.
       -2    1    3    3    0  502  0.11977803395E+03  0.17134488142E+03 -0.15454298060E+04  0.15595060535E+04  0.25500000920E-02 0.  1.
</event>
<event>
 5   0  0.9919125E-03  0.8166317E+03  0.7818609E-02  0.9536251E-01
        3   -1    0    0  501    0  0.00000000000E+00  0.00000000000E+00  0.15926594927E+03  0.15926598130E+03  0.10100000352E+00 0. -1.
       -3   -1    0    0    0  501  0.00000000000E+00  0.00000000000E+00 -0.10468138557E+04  0.10468138606E+04  0.10100000352E+00 0.  1.
    10030    2    1    2    0    0  0.00000000000E+00  0.00000000000E+00 -0.88754790642E+03  0.12060798419E+04  0.81663167877E+03 0.  0.
        5    1    3    3  502    0 -0.32488017312E+03 -0.23116905296E+03 -0.57348439050E+03  0.69849315965E+03  0.46999998093E+01 0.  1.
       -5    1    3    3    0  502  0.32488017312E+03  0.23116905296E+03 -0.31406351592E+03  0.50758668222E+03  0.46999998093E+01 0. -1.
</event>
<event>
 5   0  0.1624094E-02  0.8112773E+03  0.7818609E-02  0.9543836E-01
        1   -1    0    0  501    0  0.00000000000E+00  0.00000000000E+00  0.56061576613E+03  0.56061576615E+03  0.50400001928E-02 0.  1.
       -1   -1    0    0    0  501  0.00000000000E+00  0.00000000000E+00 -0.29350353321E+03  0.29350353325E+03  0.50400001928E-02 0. -1.
    10030    2    1    2    0    0  0.00000000000E+00  0.00000000000E+00  0.26711223292E+03  0.85411929940E+03  0.81127728468E+03 0.  0.
        3    1    3    3  502    0 -0.71019486166E+02  0.33242274119E+03 -0.99478745919E+02  0.35418170106E+03  0.10100000352E+00 0. -1.
       -3    1    3    3    0  502  0.71019486166E+02 -0.33242274119E+03  0.36659097884E+03  0.49993759835E+03  0.10100000352E+00 0.  1.
</event>
<event>
 5   0  0.2571778E-02  0.8912226E+03  0.7818609E-02  0.9436621E-01
       -2   -1    0    0    0  501  0.00000000000E+00  0.00000000000E+00  0.56461034266E+03  0.56461034267E+03  0.25500000920E-02 0. -1.
        2   -1    0    0  501    0  0.00000000000E+00  0.00000000000E+00 -0.35169287633E+03  0.35169287634E+03  0.25500000920E-02 0.  1.
    10030    2    1    2    0    0  0.00000000000E+00  0.00000000000E+00  0.21291746634E+03  0.91630321900E+03  0.89122261062E+03 0.  0.
        1    1    3    3  502    0  0.15468856645E+03  0.41633490629E+03  0.69301275853E+02  0.44951748981E+03  0.50400001928E-02 0.  1.
       -1    1    3    3    0  502 -0.15468856645E+03 -0.41633490629E+03  0.14361619048E+03  0.46678572919E+03  0.50400001928E-02 0. -1.
</event>
<event>
 5   0  0.1471290E-02  0.8661439E+03  0.7818609E-02  0.9468922E-01
        1   -1    0    0  501    0  0.00000000000E+00  0.00000000000E+00  0.54254942018E+03  0.54254942021E+03  0.50400001928E-02 0.  1.
       -1   -1    0    0    0  501  0.00000000000E+00  0.00000000000E+00 -0.34568521588E+03  0.34568521592E+03  0.50400001928E-02 0. -1.
    10030    2    1    2    0    0  0.00000000000E+00  0.00000000000E+00  0.19686420430E+03  0.88823463612E+03  0.86614389906E+03 0.  0.
        2    1    3    3  502    0  0.38645358180E+03 -0.16192102691E+03  0.21070741564E+03  0.46900149771E+03  0.25500000920E-02 0. -1.
       -2    1    3    3    0  502 -0.38645358180E+03  0.16192102691E+03 -0.13843211341E+02  0.41923313842E+03  0.25500000920E-02 0.  1.
</event>
<event>
 5   0  0.2571778E-02  0.7943684E+03  0.7818609E-02  0.9568205E-01
        2   -1    0    0  501    0  0.00000000000E+00  0.00000000000E+00  0.40388037051E+03  0.40388037052E+03  0.25500000920E-02 0.  1.
       -2   -1    0    0    0  501  0.00000000000E+00  0.00000000000E+00 -0.39059907715E+03  0.39059907716E+03  0.25500000920E-02 0. -1.
    10030    2    1    2    0    0  0.00000000000E+00  0.00000000000E+00  0.13281293359E+02  0.79447944768E+03  0.79436842840E+03 0.  0.
        1    1    3    3  502    0  0.15132564111E+03 -0.36968726107E+02  0.37205339764E+03  0.40334831980E+03  0.50400001928E-02 0.  1.
       -1    1    3    3    0  502 -0.15132564111E+03  0.36968726107E+02 -0.35877210428E+03  0.39113112788E+03  0.50400001928E-02 0. -1.
</event>
<event>
 5   0  0.2464780E-02  0.8012944E+03  0.7818609E-02  0.9558145E-01
       -2   -1    0    0    0  501  0.00000000000E+00  0.00000000000E+00  0.13758579091E+03  0.13758579094E+03  0.25500000920E-02 0. -1.
        2   -1    0    0  501    0  0.00000000000E+00  0.00000000000E+00 -0.11666770825E+04  0.11666770825E+04  0.25500000920E-02 0.  1.
    10030    2    1    2    0    0  0.00000000000E+00  0.00000000000E+00 -0.10290912916E+04  0.13042628734E+04  0.80129442567E+03 0.  0.
        3    1    3    3  502    0 -0.70512754810E+02 -0.35819968790E+02  0.12475329036E+03  0.14771090823E+03  0.10100000352E+00 0. -1.
       -3    1    3    3    0  502  0.70512754810E+02  0.35819968790E+02 -0.11538445819E+04  0.11565519652E+04  0.10100000352E+00 0.  1.
</event>
<event>
 5   0  0.1523811E-02  0.7826366E+03  0.7818609E-02  0.9585496E-01
        1   -1    0    0  501    0  0.00000000000E+00  0.00000000000E+00  0.45124299105E+03  0.45124299108E+03  0.50400001928E-02 0. -1.
       -1   -1    0    0    0  501  0.00000000000E+00  0.00000000000E+00 -0.33935154770E+03  0.33935154774E+03  0.50400001928E-02 0.  1.
    10030    2    1    2    0    0  0.00000000000E+00  0.00000000000E+00  0.11189144334E+03  0.79059453882E+03  0.78263658854E+03 0.  0.
        1    1    3    3  502    0  0.23531716360E+03  0.25816817583E+03 -0.12221378241E+03  0.37008267068E+03  0.50400001928E-02 0.  1.
       -1    1    3    3    0  502 -0.23531716360E+03 -0.25816817583E+03  0.23410522575E+03  0.42051186814E+03  0.50400001928E-02 0. -1.
</event>
<event>
 5   0  0.1523811E-02  0.7482649E+03  0.7818609E-02  0.9638076E-01
       -1   -1    0    0    0  501  0.00000000000E+00  0.00000000000E+00  0.67686019013E+03  0.67686019015E+03  0.50400001928E-02 0. -1.
        1   -1    0    0  501    0  0.00000000000E+00  0.00000000000E+00 -0.20680058519E+03  0.20680058525E+03  0.50400001928E-02 0.  1.
    10030    2    1    2    0    0  0.00000000000E+00  0.00000000000E+00  0.47005960494E+03  0.88366077540E+03  0.74826488210E+03 0.  0.
        1    1    3    3  502    0 -0.19116099414E+03  0.55284078286E+02  0.60917971764E+03  0.64085784961E+03  0.50400001928E-02 0. -1.
       -1    1    3    3    0  502  0.19116099414E+03 -0.55284078286E+02 -0.13912011270E+03  0.24280292579E+03  0.50400001928E-02 0.  1.
</event>
<event>
 5   0  0.2571778E-02  0.8243836E+03  0.7818609E-02  0.9525378E-01
        2   -1    0    0  501    0  0.00000000000E+00  0.00000000000E+00  0.40332804842E+03  0.40332804843E+03  0.25500000920E-02 0.  1.
       -2   -1    0    0    0  501  0.00000000000E+00  0.00000000000E+00 -0.42125036366E+03  0.42125036367E+03  0.25500000920E-02 0. -1.
    10030    2    1    2    0    0  0.00000000000E+00  0.00000000000E+00 -0.17922315241E+02  0.82457841209E+03  0.82438361720E+03 0.  0.
        1    1    3    3  502    0  0.10656122024E+02  0.13667048670E+03 -0.39778133780E+03  0.42074026145E+03  0.50400001928E-02 0. -1.
       -1    1    3    3    0  502 -0.10656122024E+02 -0.13667048670E+03  0.37985902256E+03  0.40383815065E+03  0.50400001928E-02 0.  1.
</event>
<event>
 5   0  0.9919125E-03  0.8088735E+03  0.7818609E-02  0.9547261E-01
       -4   -1    0    0    0  501  0.00000000000E+00  0.00000000000E+00  0.79703455663E+03  0.79703556844E+03  0.12699999809E+01 0. -1.
        4   -1    0    0  501    0  0.00000000000E+00  0.00000000000E+00 -0.20521897383E+03  0.20522290349E+03  0.12699999809E+01 0.  1.
    10030    2    1    2    0    0  0.00000000000E+00  0.00000000000E+00  0.59181558280E+03  0.10022584719E+04  0.80887351330E+03 0.  0.
        5    1    3    3  502    0  0.64561157638E+02  0.38808867375E+03  0.41191922801E+03  0.56963190059E+03  0.46999998093E+01 0. -1.
       -5    1    3    3    0  502 -0.64561157638E+02 -0.38808867375E+03  0.17989635479E+03  0.43262657134E+03  0.46999998093E+01 0.  1.
</event>
<event>
 5   0  0.1523811E-02  0.8007911E+03  0.7818609E-02  0.9558873E-01
       -1   -1    0    0    0  501  0.00000000000E+00  0.00000000000E+00  0.38364238436E+03  0.38364238439E+03  0.50400001928E-02 0.  1.
        1   -1    0    0  501    0  0.00000000000E+00  0.00000000000E+00 -0.41788033059E+03  0.41788033062E+03  0.50400001928E-02 0. -1.
    10030    2    1    2    0    0  0.00000000000E+00  0.00000000000E+00 -0.34237946231E+02  0.80152271501E+03  0.80079112489E+03 0.  0.
        1    1    3    3  502    0 -0.20231804536E+03  0.15778816233E+03 -0.32478702981E+03  0.41390374534E+03  0.50400001928E-02 0. -1.
       -1    1    3    3    0  502  0.20231804536E+03 -0.15778816233E+03  0.29054908358E+03  0.38761896966E+03  0.50400001928E-02 0.  1.
</event>
<event>
 5   0  0.2464780E-02  0.7778439E+03  0.7818609E-02  0.9592653E-01
       -2   -1    0    0    0  501  0.00000000000E+00  0.00000000000E+00  0.67939056209E+03  0.67939056210E+03  0.25500000920E-02 0. -1.
        2   -1    0    0  501    0  0.00000000000E+00  0.00000000000E+00 -0.22264113352E+03  0.22264113353E+03  0.25500000920E-02 0.  1.
    10030    2    1    2    0    0  0.00000000000E+00  0.00000000000E+00  0.45674942857E+03  0.90203169563E+03  0.77784390428E+03 0.  0.
        3    1    3    3  502    0  0.91528930900E+01 -0.50353780750E+02 -0.21871908711E+03  0.22462708643E+03  0.10100000352E+00 0.  1.
       -3    1    3    3    0  502 -0.91528930900E+01  0.50353780750E+02  0.67546851569E+03  0.67740460920E+03  0.10100000352E+00 0. -1.
</event>
<event>
 5   0  0.1498375E-02  0.8010138E+03  0.7818609E-02  0.9558551E-01
       -1   -1    0    0    0  501  0.00000000000E+00  0.00000000000E+00  0.40773965993E+03  0.40773965996E+03  0.50400001928E-02 0.  1.
        1   -1    0    0  501    0  0.00000000000E+00  0.00000000000E+00 -0.39340242450E+03  0.39340242454E+03  0.50400001928E-02 0. -1.
    10030    2    1    2    0    0  0.00000000000E+00  0.00000000000E+00  0.14337235429E+02  0.80114208450E+03  0.80101378468E+03 0.  0.
        4    1    3    3  502    0 -0.80654620779E+02  0.20199893329E+03  0.34351910947E+03  0.40659036926E+03  0.12699999809E+01 0.  1.
       -4    1    3    3    0  502  0.80654620779E+02 -0.20199893329E+03 -0.32918187404E+03  0.39455171524E+03  0.12699999809E+01 0. -1.
</event>
<event>
 5   0  0.1498375E-02  0.8061160E+03  0.7818609E-02  0.9551206E-01
       -1   -1    0    0    0  501  0.00000000000E+00  0.00000000000E+00  0.40820762624E+03  0.40820762627E+03  0.50400001928E-02 0. -1.
        1   -1    0    0  501    0  0.00000000000E+00  0.00000000000E+00 -0.39797337068E+03  0.39797337071E+03  0.50400001928E-02 0.  1.
    10030    2    1    2    0    0  0.00000000000E+00  0.00000000000E+00  0.10234255565E+02  0.80618099698E+03  0.80611603377E+03 0.  0.
        4    1    3    3  502    0  0.23785517415E+03  0.28522810605E+03  0.16173113916E+03  0.40507867214E+03  0.12699999809E+01 0. -1.
       -4    1    3    3    0  502 -0.23785517415E+03 -0.28522810605E+03 -0.15149688360E+03  0.40110232484E+03  0.12699999809E+01 0.  1.
</event>
<event>
 5   0  0.1498375E-02  0.8086667E+03  0.7818609E-02  0.9547557E-01
        1   -1    0    0  501    0  0.00000000000E+00  0.00000000000E+00  0.96560723025E+03  0.96560723026E+03  0.50400001928E-02 0.  1.
       -1   -1    0    0    0  501  0.00000000000E+00  0.00000000000E+00 -0.16930843048E+03  0.16930843056E+03  0.50400001928E-02 0. -1.
    10030    2    1    2    0    0  0.00000000000E+00  0.00000000000E+00  0.79629879976E+03  0.11349156608E+04  0.80866666722E+03 0.  0.
        4    1    3    3  502    0 -0.38674236935E+03 -0.85402071555E+02  0.51234374912E+03  0.64758080904E+03  0.12699999809E+01 0. -1.
       -4    1    3    3    0  502  0.38674236935E+03  0.85402071555E+02  0.28395505064E+03  0.48733485178E+03  0.12699999809E+01 0.  1.
</event>
<event>
 5   0  0.2460312E-02  0.8053440E+03  0.7818609E-02  0.9552314E-01
       -2   -1    0    0    0  501  0.00000000000E+00  0.00000000000E+00  0.89287904811E+02  0.89287904848E+02  0.25500000920E-02 0.  1.
        2   -1    0    0  501    0  0.00000000000E+00  0.00000000000E+00 -0.18159766296E+04  0.18159766296E+04  0.25500000920E-02 0. -1.
    10030    2    1    2    0    0  0.00000000000E+00  0.00000000000E+00 -0.17266887248E+04  0.19052645344E+04  0.80534402208E+03 0.  0.
        2    1    3    3  502    0 -0.85844355137E+02  0.17763134268E+03 -0.16938049576E+04  0.17052558112E+04  0.25500000920E-02 0. -1.
       -2    1    3    3    0  502  0.85844355137E+02 -0.17763134268E+03 -0.32883767139E+02  0.20000872321E+03  0.25500000920E-02 0.  1.
</event>
<event>
 5   0  0.2422031E-02  0.8162408E+03  0.7818609E-02  0.9536802E-01
       -2   -1    0    0    0  501  0.00000000000E+00  0.00000000000E+00  0.15918651153E+03  0.15918651155E+03  0.25500000920E-02 0. -1.
        2   -1    0    0  501    0  0.00000000000E+00  0.00000000000E+00 -0.10463340298E+04  0.10463340298E+04  0.25500000920E-02 0.  1.
    10030    2    1    2    0    0  0.00000000000E+00  0.00000000000E+00 -0.88714751825E+03  0.12055205413E+04  0.81624080789E+03 0.  0.
        4    1    3    3  502    0  0.25853311998E+03  0.35677823021E+02  0.19831092627E+02  0.26173873675E+03  0.12699999809E+01 0.  1.
       -4    1    3    3    0  502 -0.25853311998E+03 -0.35677823021E+02 -0.90697861088E+03  0.94378180459E+03  0.12699999809E+01 0. -1.
</event>
<event>
 5   0  0.2464780E-02  0.7999599E+03  0.7818609E-02  0.9560075E-01
        2   -1    0    0  501    0  0.00000000000E+00  0.00000000000E+00  0.90852101895E+03  0.90852101895E+03  0.25500000920E-02 0. -1.
       -2   -1    0    0    0  501  0.00000000000E+00  0.00000000000E+00 -0.17609272746E+03  0.17609272748E+03  0.25500000920E-02 0.  1.
    10030    2    1    2    0    0  0.00000000000E+00  0.00000000000E+00  0.73242829148E+03  0.10846137464E+04  0.79995985948E+03 0.  0.
        3    1    3    3  502    0  0.16281183629E+03 -0.17731646375E+03 -0.66879419284E+02  0.24984332946E+03  0.10100000352E+00 0.  1.
       -3    1    3    3    0  502 -0.16281183629E+03  0.17731646375E+03  0.79930771077E+03  0.83477041697E+03  0.10100000352E+00 0. -1.
</event>
<event>
 5   0  0.1624094E-02  0.7988669E+03  0.7818609E-02  0.9561659E-01
        1   -1    0    0  501    0  0.00000000000E+00  0.00000000000E+00  0.54506952586E+03  0.54506952588E+03  0.50400001928E-02 0. -1.
       -1   -1    0    0    0  501  0.00000000000E+00  0.00000000000E+00 -0.29270960080E+03  0.29270960084E+03  0.50400001928E-02 0.  1.
    10030    2    1    2    0    0  0.00000000000E+00  0.00000000000E+00  0.25235992506E+03  0.83777912672E+03  0.79886690593E+03 0.  0.
        3    1    3    3  502    0 -0.30012621486E+03 -0.92857963265E+02  0.38487068498E+03  0.49681364770E+03  0.10100000352E+00 0. -1.
       -3    1    3    3    0  502  0.30012621486E+03  0.92857963265E+02 -0.13251075992E+03  0.34096547902E+03  0.10100000352E+00 0.  1.
</event>
<event>
 5   0  0.2464780E-02  0.8392864E+03  0.7818609E-02  0.9504830E-01
       -2   -1    0    0    0  501  0.00000000000E+00  0.00000000000E+00  0.37141894100E+03  0.37141894101E+03  0.25500000920E-02 0. -1.
        2   -1    0    0  501    0  0.00000000000E+00  0.00000000000E+00 -0.47412882550E+03  0.47412882551E+03  0.25500000920E-02 0.  1.
    10030    2    1    2    0    0  0.00000000000E+00  0.00000000000E+00 -0.10270988450E+03  0.84554776652E+03  0.83928642613E+03 0.  0.
        3    1    3    3  502    0 -0.22896703168E+03 -0.76306283146E+02  0.29450174584E+03  0.38076218162E+03  0.10100000352E+00 0. -1.
       -3    1    3    3    0  502  0.22896703168E+03  0.76306283146E+02 -0.39721163035E+03  0.46478558490E+03  0.10100000352E+00 0.  1.
</event>
<event>
 5   0  0.9919125E-03  0.8076664E+03  0.7818609E-02  0.9548986E-01
        3   -1    0    0  501    0  0.00000000000E+00  0.00000000000E+00  0.99833741776E+03  0.99833742287E+03  0.10100000352E+00 0. -1.
       -3   -1    0    0    0  501  0.00000000000E+00  0.00000000000E+00 -0.16335280575E+03  0.16335283697E+03  0.10100000352E+00 0.  1.
    10030    2    1    2    0    0  0.00000000000E+00  0.00000000000E+00  0.83498461201E+03  0.11616902598E+04  0.80766636523E+03 0.  0.
        3    1    3    3  502    0 -0.23092518366E+03  0.18361434790E+03  0.20866466888E+02  0.29576356917E+03  0.10100000352E+00 0.  1.
       -3    1    3    3    0  502  0.23092518366E+03 -0.18361434790E+03  0.81411814512E+03  0.86592669067E+03  0.10100000352E+00 0. -1.
</event>
<event>
 5   0  0.2460312E-02  0.8040172E+03  0.7818609E-02  0.9554220E-01
       -2   -1    0    0    0  501  0.00000000000E+00  0.00000000000E+00  0.64208447937E+03  0.64208447937E+03  0.25500000920E-02 0. -1.
        2   -1    0    0  501    0  0.00000000000E+00  0.00000000000E+00 -0.25169730379E+03  0.25169730380E+03  0.25500000920E-02 0.  1.
    10030    2    1    2    0    0  0.00000000000E+00  0.00000000000E+00  0.39038717558E+03  0.89378178317E+03  0.80401724427E+03 0.  0.
        2    1    3    3  502    0  0.16296455226E+03  0.19101582478E+03 -0.15381062916E+03  0.29445237350E+03  0.25500000920E-02 0.  1.
       -2    1    3    3    0  502 -0.16296455226E+03 -0.19101582478E+03  0.54419780474E+03  0.59932940968E+03  0.25500000920E-02 0. -1.
</event>
<event>
 5   0  0.1624094E-02  0.8195310E+03  0.7818609E-02  0.9532169E-01
        1   -1    0    0  501    0  0.00000000000E+00  0.00000000000E+00  0.27934325799E+03  0.27934325804E+03  0.50400001928E-02 0. -1.
       -1   -1    0    0    0  501  0.00000000000E+00  0.00000000000E+00 -0.60108044341E+03  0.60108044343E+03  0.50400001928E-02 0.  1.
    10030    2    1    2    0    0  0.00000000000E+00  0.00000000000E+00 -0.32173718542E+03  0.88042370147E+03  0.81953101078E+03 0.  0.
        3    1    3    3  502    0  0.84490883940E+02 -0.38382682018E+03 -0.36295788734E+02  0.39468865178E+03  0.10100000352E+00 0.  1.
       -3    1    3    3    0  502 -0.84490883940E+02  0.38382682018E+03 -0.28544139668E+03  0.48573504969E+03  0.10100000352E+00 0. -1.
</event>
<event>
 5   0  0.2454354E-02  0.7976616E+03  0.7818609E-02  0.9563408E-01
        2   -1    0    0  501    0  0.00000000000E+00  0.00000000000E+00  0.65810418291E+03  0.65810418291E+03  0.25500000920E-02 0. -1.
       -2   -1    0    0    0  501  0.00000000000E+00  0.00000000000E+00 -0.24170338899E+03  0.24170338901E+03  0.25500000920E-02 0.  1.
    10030    2    1    2    0    0  0.00000000000E+00  0.00000000000E+00  0.41640079391E+03  0.89980757192E+03  0.79766161078E+03 0.  0.
        5    1    3    3  502    0 -0.34528276866E+01  0.91178710792E+01 -0.24153768782E+03  0.24178006996E+03  0.46999998093E+01 0.  1.
       -5    1    3    3    0  502  0.34528276866E+01 -0.91178710792E+01  0.65793848174E+03  0.65802750196E+03  0.46999998093E+01 0. -1.
</event>
<event>
 5   0  0.1509629E-02  0.6770329E+03  0.7818609E-02  0.9757336E-01
       -1   -1    0    0    0  501  0.00000000000E+00  0.00000000000E+00  0.16890790441E+03  0.16890790449E+03  0.50400001928E-02 0.  1.
        1   -1    0    0  501    0  0.00000000000E+00  0.00000000000E+00 -0.67843700205E+03  0.67843700207E+03  0.50400001928E-02 0. -1.
    10030    2    1    2    0    0  0.00000000000E+00  0.00000000000E+00 -0.50952909764E+03  0.84734490656E+03  0.67703285690E+03 0.  0.
        5    1    3    3  502    0  0.20855638111E+02  0.31788609019E+03 -0.39792838620E+03  0.50976035009E+03  0.46999998093E+01 0. -1.
       -5    1    3    3    0  502 -0.20855638111E+02 -0.31788609019E+03 -0.11160071144E+03  0.33758455647E+03  0.46999998093E+01 0.  1.
</event>
<event>
 5   0  0.2454354E-02  0.8022114E+03  0.7818609E-02  0.9556822E-01
        2   -1    0    0  501    0  0.00000000000E+00  0.00000000000E+00  0.25777917115E+04  0.25777917115E+04  0.25500000920E-02 0. -1.
       -2   -1    0    0    0  501  0.00000000000E+00  0.00000000000E+00 -0.62412247155E+02  0.62412247207E+02  0.25500000920E-02 0.  1.
    10030    2    1    2    0    0  0.00000000000E+00  0.00000000000E+00  0.25153794643E+04  0.26402039587E+04  0.80221137734E+03 0.  0.
        5    1    3    3  502    0  0.34261166525E+02 -0.20552873919E+02  0.25711355264E+04  0.25714502198E+04  0.46999998093E+01 0. -1.
       -5    1    3    3    0  502 -0.34261166525E+02  0.20552873919E+02 -0.55756062024E+02  0.68753738870E+02  0.46999998093E+01 0.  1.
</event>
<event>
 5   0  0.2571778E-02  0.8030296E+03  0.7818609E-02  0.9555642E-01
       -2   -1    0    0    0  501  0.00000000000E+00  0.00000000000E+00  0.13639781817E+03  0.13639781819E+03  0.25500000920E-02 0.  1.
        2   -1    0    0  501    0  0.00000000000E+00  0.00000000000E+00 -0.11819406670E+04  0.11819406670E+04  0.25500000920E-02 0. -1.
    10030    2    1    2    0    0  0.00000000000E+00  0.00000000000E+00 -0.10455428488E+04  0.13183384852E+04  0.80302958402E+03 0.  0.
        1    1    3    3  502    0  0.31791472251E+01  0.31813289430E+03 -0.92489048678E+03  0.97808029219E+03  0.50400001928E-02 0. -1.
       -1    1    3    3    0  502 -0.31791472251E+01 -0.31813289430E+03 -0.12065236205E+03  0.34025819300E+03  0.50400001928E-02 0.  1.
</event>
<event>
 5   0  0.2422031E-02  0.7926110E+03  0.7818609E-02  0.9570774E-01
       -2   -1    0    0    0  501  0.00000000000E+00  0.00000000000E+00  0.25624186890E+03  0.25624186891E+03  0.25500000920E-02 0. -1.
        2   -1    0    0  501    0  0.00000000000E+00  0.00000000000E+00 -0.61292887326E+03  0.61292887326E+03  0.25500000920E-02 0.  1.
    10030    2    1    2    0    0  0.00000000000E+00  0.00000000000E+00 -0.35668700436E+03  0.86917074217E+03  0.79261097644E+03 0.  0.
        4    1    3    3  502    0  0.35710787785E+01  0.23464817707E+02  0.25545952778E+03  0.25656292310E+03  0.12699999809E+01 0. -1.
       -4    1    3    3    0  502 -0.35710787785E+01 -0.23464817707E+02 -0.61214653214E+03  0.61260781907E+03  0.12699999809E+01 0.  1.
</event>
<event>
 5   0  0.1624094E-02  0.8078113E+03  0.7818609E-02  0.9548779E-01
       -1   -1    0    0    0  501  0.00000000000E+00  0.00000000000E+00  0.12188026069E+03  0.12188026080E+03  0.50400001928E-02 0.  1.
        1   -1    0    0  501    0  0.00000000000E+00  0.00000000000E+00 -0.13385250260E+04  0.13385250260E+04  0.50400001928E-02 0. -1.
    10030    2    1    2    0    0  0.00000000000E+00  0.00000000000E+00 -0.12166447653E+04  0.14604052868E+04  0.80781131260E+03 0.  0.
        3    1    3    3  502    0  0.11643628512E+03 -0.60994276111E+02  0.82131435069E+02  0.15499449358E+03  0.10100000352E+00 0.  1.
       -3    1    3    3    0  502 -0.11643628512E+03  0.60994276111E+02 -0.12987762004E+04  0.13054107932E+04  0.10100000352E+00 0. -1.
</event>
<event>
 5   0  0.1498375E-02  0.7949517E+03  0.7818609E-02  0.9567353E-01
       -1   -1    0    0    0  501  0.00000000000E+00  0.00000000000E+00  0.26144718381E+03  0.26144718386E+03  0.50400001928E-02 0.  1.
        1   -1    0    0  501    0  0.00000000000E+00  0.00000000000E+00 -0.60427908824E+03  0.60427908826E+03  0.50400001928E-02 0. -1.
    10030    2    1    2    0    0  0.00000000000E+00  0.00000000000E+00 -0.34283190443E+03  0.86572627212E+03  0.79495173661E+03 0.  0.
        4    1    3    3  502    0  0.37776887134E+03  0.39580461261E+02 -0.43903981392E+02  0.38236776217E+03  0.12699999809E+01 0.  1.
       -4    1    3    3    0  502 -0.37776887134E+03 -0.39580461261E+02 -0.29892792303E+03  0.48335850995E+03  0.12699999809E+01 0. -1.
</event>
<event>
 5   0  0.2571778E-02  0.7785716E+03  0.7818609E-02  0.9591562E-01
       -2   -1    0    0    0  501  0.00000000000E+00  0.00000000000E+00  0.13440904467E+03  0.13440904470E+03  0.25500000920E-02 0. -1.
        2   -1    0    0  501    0  0.00000000000E+00  0.00000000000E+00 -0.11274793594E+04  0.11274793594E+04  0.25500000920E-02 0.  1.
    10030    2    1    2    0    0  0.00000000000E+00  0.00000000000E+00 -0.99307031475E+03  0.12618884041E+04  0.77857157309E+03 0.  0.
        1    1    3    3  502    0 -0.20304302879E+03 -0.32101966006E+03 -0.63466588245E+03  0.73964915741E+03  0.50400001928E-02 0.  1.
       -1    1    3    3    0  502  0.20304302879E+03  0.32101966006E+03 -0.35840443230E+03  0.52223924671E+03  0.50400001928E-02 0. -1.
</event>
<event>
 5   0  0.1498375E-02  0.7985082E+03  0.7818609E-02  0.9562179E-01
       -1   -1    0    0    0  501  0.00000000000E+00  0.00000000000E+00  0.13443330263E+03  0.13443330273E+03  0.50400001928E-02 0. -1.
        1   -1    0    0  501    0  0.00000000000E+00  0.00000000000E+00 -0.11857466442E+04  0.11857466442E+04  0.50400001928E-02 0.  1.
    10030    2    1    2    0    0  0.00000000000E+00  0.00000000000E+00 -0.10513133416E+04  0.13201799470E+04  0.79850820293E+03 0.  0.
        4    1    3    3  502    0  0.35499124752E+03  0.17760819571E+03 -0.59655192681E+03  0.71654676838E+03  0.12699999809E+01 0. -1.
       -4    1    3    3    0  502 -0.35499124752E+03 -0.17760819571E+03 -0.45476141478E+03  0.60363317858E+03  0.12699999809E+01 0.  1.
</event>
<event>
 5   0  0.2422031E-02  0.8059365E+03  0.7818609E-02  0.9551464E-01
       -2   -1    0    0    0  501  0.00000000000E+00  0.00000000000E+00  0.15033030501E+03  0.15033030503E+03  0.25500000920E-02 0.  1.
        2   -1    0    0  501    0  0.00000000000E+00  0.00000000000E+00 -0.10801775677E+04  0.10801775677E+04  0.25500000920E-02 0. -1.
    10030    2    1    2    0    0  0.00000000000E+00  0.00000000000E+00 -0.92984726268E+03  0.12305078727E+04  0.80593653157E+03 0.  0.
        4    1    3    3  502    0 -0.24241058089E+03 -0.19542576988E+03 -0.74384689478E+02  0.32013874522E+03  0.12699999809E+01 0.  1.
       -4    1    3    3    0  502  0.24241058089E+03  0.19542576988E+03 -0.85546257320E+03  0.91036912750E+03  0.12699999809E+01 0. -1.
</event>
<event>
 5   0  0.2454354E-02  0.8203513E+03  0.7818609E-02  0.9531018E-01
       -2   -1    0    0    0  501  0.00000000000E+00  0.00000000000E+00  0.10899185538E+03  0.10899185541E+03  0.25500000920E-02 0. -1.
        2   -1    0    0  501    0  0.00000000000E+00  0.00000000000E+00 -0.15436387791E+04  0.15436387791E+04  0.25500000920E-02 0.  1.
    10030    2    1    2    0    0  0.00000000000E+00  0.00000000000E+00 -0.14346469237E+04  0.16526306345E+04  0.82035127744E+03 0.  0.
        5    1    3    3  502    0  0.65129359417E+02  0.25606571996E+03 -0.13492936783E+04  0.13749280006E+04  0.46999998093E+01 0.  1.
       -5    1    3    3    0  502 -0.65129359417E+02 -0.25606571996E+03 -0.85353245389E+02  0.27770263394E+03  0.46999998093E+01 0. -1.
</event>
<event>
 5   0  0.2454354E-02  0.8335756E+03  0.7818609E-02  0.9512650E-01
       -2   -1    0    0    0  501  0.00000000000E+00  0.00000000000E+00  0.47759314895E+03  0.47759314896E+03  0.25500000920E-02 0. -1.
        2   -1    0    0  501    0  0.00000000000E+00  0.00000000000E+00 -0.36372393130E+03  0.36372393130E+03  0.25500000920E-02 0.  1.
    10030    2    1    2    0    0  0.00000000000E+00  0.00000000000E+00  0.11386921766E+03  0.84131708026E+03  0.83357556995E+03 0.  0.
        5    1    3    3  502    0  0.17213010003E+03  0.97579270444E+02  0.42713732779E+03  0.47076413643E+03  0.46999998093E+01 0. -1.
       -5    1    3    3    0  502 -0.17213010003E+03 -0.97579270444E+02 -0.31326811014E+03  0.37055294383E+03  0.46999998093E+01 0.  1.
</event>
<event>
 5   0  0.1471290E-02  0.7960806E+03  0.7818609E-02  0.9565708E-01
        1   -1    0    0  501    0  0.00000000000E+00  0.00000000000E+00  0.22119440879E+03  0.22119440885E+03  0.50400001928E-02 0. -1.
       -1   -1    0    0    0  501  0.00000000000E+00  0.00000000000E+00 -0.71627527551E+03  0.71627527553E+03  0.50400001928E-02 0.  1.
    10030    2    1    2    0    0  0.00000000000E+00  0.00000000000E+00 -0.49508086672E+03  0.93746968438E+03  0.79608061435E+03 0.  0.
        2    1    3    3  502    0  0.12404201301E+03  0.13490604027E+03 -0.66363735397E+03  0.68847701362E+03  0.25500000920E-02 0.  1.
       -2    1    3    3    0  502 -0.12404201301E+03 -0.13490604027E+03  0.16855648725E+03  0.24899267076E+03  0.25500000920E-02 0. -1.
</event>
<event>
 5   0  0.1471290E-02  0.7850539E+03  0.7818609E-02  0.9581907E-01
        1   -1    0    0  501    0  0.00000000000E+00  0.00000000000E+00  0.83782865811E+03  0.83782865812E+03  0.50400001928E-02 0.  1.
       -1   -1    0    0    0  501  0.00000000000E+00  0.00000000000E+00 -0.18390085787E+03  0.18390085794E+03  0.50400001928E-02 0. -1.
    10030    2    1    2    0    0  0.00000000000E+00  0.00000000000E+00  0.65392780024E+03  0.10217295161E+04  0.78505390647E+03 0.  0.
        2    1    3    3  502    0 -0.18334992588E+03  0.34596714115E+03  0.36300684354E+03  0.53393297945E+03  0.25500000920E-02 0. -1.
       -2    1    3    3    0  502  0.18334992588E+03 -0.34596714115E+03  0.29092095670E+03  0.48779653661E+03  0.25500000920E-02 0.  1.
</event>
<event>
 5   0  0.9919125E-03  0.6862630E+03  0.7818609E-02  0.9741017E-01
        3   -1    0    0  501    0  0.00000000000E+00  0.00000000000E+00  0.30506534869E+03  0.30506536541E+03  0.10100000352E+00 0. -1.
       -3   -1    0    0    0  501  0.00000000000E+00  0.00000000000E+00 -0.38594754126E+03  0.38594755448E+03  0.10100000352E+00 0.  1.
    10030    2    1    2    0    0  0.00000000000E+00  0.00000000000E+00 -0.80882192571E+02  0.69101291989E+03  0.68626301546E+03 0.  0.
        1    1    3    3  502    0  0.12421648165E+03  0.10696088603E+03 -0.34397214867E+03  0.38103438761E+03  0.50400001928E-02 0.  1.
       -1    1    3    3    0  502 -0.12421648165E+03 -0.10696088603E+03  0.26308995610E+03  0.30997853229E+03  0.50400001928E-02 0. -1.
</event>
<event>
 5   0  0.1523811E-02  0.7414149E+03  0.7818609E-02  0.9648916E-01
       -1   -1    0    0    0  501  0.00000000000E+00  0.00000000000E+00  0.27958080665E+03  0.27958080669E+03  0.50400001928E-02 0.  1.
        1   -1    0    0  501    0  0.00000000000E+00  0.00000000000E+00 -0.49153587042E+03  0.49153587045E+03  0.50400001928E-02 0. -1.
    10030    2    1    2    0    0  0.00000000000E+00  0.00000000000E+00 -0.21195506378E+03  0.77111667714E+03  0.74141485061E+03 0.  0.
        1    1    3    3  502    0  0.20503520161E+03  0.48807181036E+02 -0.42315763836E+03  0.47274090340E+03  0.50400001928E-02 0. -1.
       -1    1    3    3    0  502 -0.20503520161E+03 -0.48807181036E+02  0.21120257459E+03  0.29837577374E+03  0.50400001928E-02 0.  1.
</event>
<event>
 5   0  0.2454354E-02  0.7994388E+03  0.7818609E-02  0.9560830E-01
        2   -1    0    0  501    0  0.00000000000E+00  0.00000000000E+00  0.18432880248E+03  0.18432880250E+03  0.25500000920E-02 0.  1.
       -2   -1    0    0    0  501  0.00000000000E+00  0.00000000000E+00 -0.86679676604E+03  0.86679676604E+03  0.25500000920E-02 0. -1.
    10030    2    1    2    0    0  0.00000000000E+00  0.00000000000E+00 -0.68246796355E+03  0.10511255685E+04  0.79943882790E+03 0.  0.
        5    1    3    3  502    0 -0.12160316187E+03  0.78375151169E+02 -0.83112660409E+03  0.84363707560E+03  0.46999998093E+01 0. -1.
       -5    1    3    3    0  502  0.12160316187E+03 -0.78375151169E+02  0.14865864054E+03  0.20748849294E+03  0.46999998093E+01 0.  1.
</event>
<event>
 5   0  0.2422031E-02  0.8079003E+03  0.7818609E-02  0.9548652E-01
        2   -1    0    0  501    0  0.00000000000E+00  0.00000000000E+00  0.11956459714E+04  0.11956459714E+04  0.25500000920E-02 0.  1.
       -2   -1    0    0    0  501  0.00000000000E+00  0.00000000000E+00 -0.13647496588E+03  0.13647496590E+03  0.25500000920E-02 0. -1.
    10030    2    1    2    0    0  0.00000000000E+00  0.00000000000E+00  0.10591710055E+04  0.13321209373E+04  0.80790034823E+03 0.  0.
        4    1    3    3  502    0  0.31214826831E+03 -0.10925602242E+03  0.14713092445E+03  0.36197036021E+03  0.12699999809E+01 0. -1.
       -4    1    3    3    0  502 -0.31214826831E+03  0.10925602242E+03  0.91204008107E+03  0.97015057709E+03  0.12699999809E+01 0.  1.
</event>
<event>
 5   0  0.2571778E-02  0.8079192E+03  0.7818609E-02  0.9548625E-01
        2   -1    0    0  501    0  0.00000000000E+00  0.00000000000E+00  0.11662390626E+04  0.11662390626E+04  0.25500000920E-02 0. -1.
       -2   -1    0    0    0  501  0.00000000000E+00  0.00000000000E+00 -0.13992274686E+03  0.13992274689E+03  0.25500000920E-02 0.  1.
    10030    2    1    2    0    0  0.00000000000E+00  0.00000000000E+00  0.10263163157E+04  0.13061618095E+04  0.80791923645E+03 0.  0.
        1    1    3    3  502    0 -0.14466655897E+03 -0.21123298061E+03  0.79933300297E+01  0.25614776738E+03  0.50400001928E-02 0.  1.
       -1    1    3    3    0  502  0.14466655897E+03  0.21123298061E+03  0.10183229857E+04  0.10500140421E+04  0.50400001928E-02 0. -1.
</event>
<event>
 5   0  0.2571778E-02  0.7961016E+03  0.7818609E-02  0.9565677E-01
       -2   -1    0    0    0  501  0.00000000000E+00  0.00000000000E+00  0.31518575565E+03  0.31518575566E+03  0.25500000920E-02 0.  1.
        2   -1    0    0  501    0  0.00000000000E+00  0.00000000000E+00 -0.50270183811E+03  0.50270183812E+03  0.25500000920E-02 0. -1.
    10030    2    1    2    0    0  0.00000000000E+00  0.00000000000E+00 -0.18751608246E+03  0.81788759378E+03  0.79610164858E+03 0.  0.
        1    1    3    3  502    0  0.16308496563E+03 -0.32911503429E+03  0.63838151657E+02  0.37281191162E+03  0.50400001928E-02 0.  1.
       -1    1    3    3    0  502 -0.16308496563E+03  0.32911503429E+03 -0.25135423412E+03  0.44507568216E+03  0.50400001928E-02 0. -1.
</event>
<event>
 5   0  0.1471290E-02  0.7933706E+03  0.7818609E-02  0.9569663E-01
       -1   -1    0    0    0  501  0.00000000000E+00  0.00000000000E+00  0.16501347165E+03  0.16501347173E+03  0.50400001928E-02 0.  1.
        1   -1    0    0  501    0  0.00000000000E+00  0.00000000000E+00 -0.95361450000E+03  0.95361450002E+03  0.50400001928E-02 0. -1.
    10030    2    1    2    0    0  0.00000000000E+00  0.00000000000E+00 -0.78860102835E+03  0.11186279717E+04  0.79337063044E+03 0.  0.
        2    1    3    3  502    0  0.21199996405E+03  0.21583480830E+02 -0.86605979847E+03  0.89189091594E+03  0.25500000920E-02 0. -1.
       -2    1    3    3    0  502 -0.21199996405E+03 -0.21583480830E+02  0.77458770115E+02  0.22673705581E+03  0.25500000920E-02 0.  1.
</event>
<event>
 5   0  0.1509629E-02  0.7927177E+03  0.7818609E-02  0.9570618E-01
        1   -1    0    0  501    0  0.00000000000E+00  0.00000000000E+00  0.10050031712E+04  0.10050031712E+04  0.50400001928E-02 0.  1.
       -1   -1    0    0    0  501  0.00000000000E+00  0.00000000000E+00 -0.15631825355E+03  0.15631825363E+03  0.50400001928E-02 0. -1.
    10030    2    1    2    0    0  0.00000000000E+00  0.00000000000E+00  0.84868491767E+03  0.11613214249E+04  0.79271770660E+03 0.  0.
        5    1    3    3  502    0 -0.18496727202E+03  0.30309649550E+03  0.16641366416E+03  0.39216829923E+03  0.46999998093E+01 0. -1.
       -5    1    3    3    0  502  0.18496727202E+03 -0.30309649550E+03  0.68227125351E+03  0.76915312563E+03  0.46999998093E+01 0.  1.
</event>
<event>
 5   0  0.2454354E-02  0.8028504E+03  0.7818609E-02  0.9555900E-01
        2   -1    0    0  501    0  0.00000000000E+00  0.00000000000E+00  0.13220507584E+04  0.13220507584E+04  0.25500000920E-02 0. -1.
       -2   -1    0    0    0  501  0.00000000000E+00  0.00000000000E+00 -0.12188805401E+03  0.12188805404E+03  0.25500000920E-02 0.  1.
    10030    2    1    2    0    0  0.00000000000E+00  0.00000000000E+00  0.12001627044E+04  0.14439388125E+04  0.80285040767E+03 0.  0.
        5    1    3    3  502    0 -0.16994340956E+03  0.38188196410E+02 -0.50327570667E+02  0.18136718327E+03  0.46999998093E+01 0.  1.
       -5    1    3    3    0  502  0.16994340956E+03 -0.38188196410E+02  0.12504902751E+04  0.12625716292E+04  0.46999998093E+01 0. -1.
</event>
<event>
 5   0  0.1498375E-02  0.8005651E+03  0.7818609E-02  0.9559200E-01
       -1   -1    0    0    0  501  0.00000000000E+00  0.00000000000E+00  0.45841608830E+03  0.45841608832E+03  0.50400001928E-02 0.  1.
        1   -1    0    0  501    0  0.00000000000E+00  0.00000000000E+00 -0.34952111231E+03  0.34952111235E+03  0.50400001928E-02 0. -1.
    10030    2    1    2    0    0  0.00000000000E+00  0.00000000000E+00  0.10889497599E+03  0.80793720067E+03  0.80056505322E+03 0.  0.
        4    1    3    3  502    0  0.28893930132E+03  0.86881652527E+02 -0.21101496505E+03  0.36818917661E+03  0.12699999809E+01 0. -1.
       -4    1    3    3    0  502 -0.28893930132E+03 -0.86881652527E+02  0.31990994103E+03  0.43974802406E+03  0.12699999809E+01 0.  1.
</event>
<event>
 5   0  0.2460312E-02  0.8068382E+03  0.7818609E-02  0.9550172E-01
        2   -1    0    0  501    0  0.00000000000E+00  0.00000000000E+00  0.14728592606E+04  0.14728592606E+04  0.25500000920E-02 0. -1.
       -2   -1    0    0    0  501  0.00000000000E+00  0.00000000000E+00 -0.11049730011E+03  0.11049730014E+03  0.25500000920E-02 0.  1.
    10030    2    1    2    0    0  0.00000000000E+00  0.00000000000E+00  0.13623619604E+04  0.15833565607E+04  0.80683820375E+03 0.  0.
        2    1    3    3  502    0 -0.73566835525E+02  0.12293772355E+03 -0.58891839752E+02  0.15490000632E+03  0.25500000920E-02 0.  1.
       -2    1    3    3    0  502  0.73566835525E+02 -0.12293772355E+03  0.14212538002E+04  0.14284565544E+04  0.25500000920E-02 0. -1.
</event>
<event>
 5   0  0.1523811E-02  0.7991597E+03  0.7818609E-02  0.9561234E-01
       -1   -1    0    0    0  501  0.00000000000E+00  0.00000000000E+00  0.15396617195E+03  0.15396617203E+03  0.50400001928E-02 0. -1.
        1   -1    0    0  501    0  0.00000000000E+00  0.00000000000E+00 -0.10370074076E+04  0.10370074076E+04  0.50400001928E-02 0.  1.
    10030    2    1    2    0    0  0.00000000000E+00  0.00000000000E+00 -0.88304123563E+03  0.11909735796E+04  0.79915971090E+03 0.  0.
        1    1    3    3  502    0 -0.10482694428E+03  0.21658734444E+03 -0.91693070659E+03  0.94797715518E+03  0.50400001928E-02 0.  1.
       -1    1    3    3    0  502  0.10482694428E+03 -0.21658734444E+03  0.33889470967E+02  0.24299642444E+03  0.50400001928E-02 0. -1.
</event>
<event>
 5   0  0.2464780E-02  0.7842500E+03  0.7818609E-02  0.9583099E-01
        2   -1    0    0  501    0  0.00000000000E+00  0.00000000000E+00  0.66665089462E+03  0.66665089462E+03  0.25500000920E-02 0.  1.
       -2   -1    0    0    0  501  0.00000000000E+00  0.00000000000E+00 -0.23064848603E+03  0.23064848605E+03  0.25500000920E-02 0. -1.
    10030    2    1    2    0    0  0.00000000000E+00  0.00000000000E+00  0.43600240859E+03  0.89729938067E+03  0.78425001005E+03 0.  0.
        3    1    3    3  502    0  0.16698455786E+03  0.24773488920E+03 -0.72589365120E+02  0.30745023015E+03  0.10100000352E+00 0. -1.
       -3    1    3    3    0  502 -0.16698455786E+03 -0.24773488920E+03  0.50859177371E+03  0.58984915052E+03  0.10100000352E+00 0.  1.
</event>
<event>
 5   0  0.2454354E-02  0.8023160E+03  0.7818609E-02  0.9556671E-01
       -2   -1    0    0    0  501  0.00000000000E+00  0.00000000000E+00  0.39766252335E+03  0.39766252335E+03  0.25500000920E-02 0. -1.
        2   -1    0    0  501    0  0.00000000000E+00  0.00000000000E+00 -0.40468424256E+03  0.40468424257E+03  0.25500000920E-02 0.  1.
    10030    2    1    2    0    0  0.00000000000E+00  0.00000000000E+00 -0.70217192165E+01  0.80234676592E+03  0.80231604013E+03 0.  0.
        5    1    3    3  502    0  0.36554878849E+03 -0.54450939853E+02  0.15242729423E+03  0.39980869381E+03  0.46999998093E+01 0. -1.
       -5    1    3    3    0  502 -0.36554878849E+03  0.54450939853E+02 -0.15944901345E+03  0.40253807212E+03  0.46999998093E+01 0.  1.
</event>
<event>
 5   0  0.1523811E-02  0.8087401E+03  0.7818609E-02  0.9547452E-01
        1   -1    0    0  501    0  0.00000000000E+00  0.00000000000E+00  0.68611133157E+03  0.68611133159E+03  0.50400001928E-02 0.  1.
       -1   -1    0    0    0  501  0.00000000000E+00  0.00000000000E+00 -0.23832157380E+03  0.23832157385E+03  0.50400001928E-02 0. -1.
    10030    2    1    2    0    0  0.00000000000E+00  0.00000000000E+00  0.44778975777E+03  0.92443290544E+03  0.80874008772E+03 0.  0.
        1    1    3    3  502    0 -0.71214989707E+02  0.24895831902E+03  0.57891053996E+03  0.63418391076E+03  0.50400001928E-02 0.  1.
       -1    1    3    3    0  502  0.71214989707E+02 -0.24895831902E+03 -0.13112078218E+03  0.29024899468E+03  0.50400001928E-02 0. -1.
</event>
<event>
 5   0  0.1498375E-02  0.8031444E+03  0.7818609E-02  0.9555477E-01
       -1   -1    0    0    0  501  0.00000000000E+00  0.00000000000E+00  0.34622508179E+03  0.34622508182E+03  0.50400001928E-02 0.  1.
        1   -1    0    0  501    0  0.00000000000E+00  0.00000000000E+00 -0.46576706394E+03  0.46576706397E+03  0.50400001928E-02 0. -1.
    10030    2    1    2    0    0  0.00000000000E+00  0.00000000000E+00 -0.11954198216E+03  0.81199214579E+03  0.80314441997E+03 0.  0.
        4    1    3    3  502    0 -0.22521001363E+03  0.28533700758E+03  0.11276027232E+03  0.38059591439E+03  0.12699999809E+01 0.  1.
       -4    1    3    3    0  502  0.22521001363E+03 -0.28533700758E+03 -0.23230225448E+03  0.43139623140E+03  0.12699999809E+01 0. -1.
</event>
<event>
 5   0  0.1509629E-02  0.7964400E+03  0.7818609E-02  0.9565184E-01
        1   -1    0    0  501    0  0.00000000000E+00  0.00000000000E+00  0.11065364561E+04  0.11065364561E+04  0.50400001928E-02 0. -1.
       -1   -1    0    0    0  501  0.00000000000E+00  0.00000000000E+00 -0.14331127854E+03  0.14331127863E+03  0.50400001928E-02 0.  1.
    10030    2    1    2    0    0  0.00000000000E+00  0.00000000000E+00  0.96322517753E+03  0.12498477347E+04  0.79643996468E+03 0.  0.
        5    1    3    3  502    0  0.24942194148E+01 -0.40402895528E+02 -0.14003043856E+03  0.14583973676E+03  0.46999998093E+01 0.  1.
       -5    1    3    3    0  502 -0.24942194148E+01  0.40402895528E+02  0.11032556161E+04  0.11040079979E+04  0.46999998093E+01 0. -1.
</event>
<event>
 5   0  0.1509629E-02  0.6274473E+03  0.7818609E-02  0.9850043E-01
        1   -1    0    0  501    0  0.00000000000E+00  0.00000000000E+00  0.11641123963E+04  0.11641123963E+04  0.50400001928E-02 0.  1.
       -1   -1    0    0    0  501  0.00000000000E+00  0.00000000000E+00 -0.84547274481E+02  0.84547274631E+02  0.50400001928E-02 0. -1.
    10030    2    1    2    0    0  0.00000000000E+00  0.00000000000E+00  0.10795651218E+04  0.12486596709E+04  0.62744730582E+03 0.  0.
        5    1    3    3  502    0 -0.17933995975E+03  0.94452575258E+02  0.63344975969E+02  0.21241183139E+03  0.46999998093E+01 0. -1.
       -5    1    3    3    0  502  0.17933995975E+03 -0.94452575258E+02  0.10162201458E+04  0.10362478395E+04  0.46999998093E+01 0.  1.
</event>
<event>
 5   0  0.2454354E-02  0.6113012E+03  0.7818609E-02  0.9882233E-01
       -2   -1    0    0    0  501  0.00000000000E+00  0.00000000000E+00  0.95600526427E+03  0.95600526428E+03  0.25500000920E-02 0. -1.
        2   -1    0    0  501    0  0.00000000000E+00  0.00000000000E+00 -0.97721511087E+02  0.97721511121E+02  0.25500000920E-02 0.  1.
    10030    2    1    2    0    0  0.00000000000E+00  0.00000000000E+00  0.85828375319E+03  0.10537267754E+04  0.61130116653E+03 0.  0.
        5    1    3    3  502    0 -0.23276542463E+03 -0.17448944498E+02  0.76918717900E+03  0.80383780385E+03  0.46999998093E+01 0. -1.
       -5    1    3    3    0  502  0.23276542463E+03  0.17448944498E+02  0.89096574185E+02  0.24988897154E+03  0.46999998093E+01 0.  1.
</event>
<event>
 5   0  0.2454354E-02  0.7933908E+03  0.7818609E-02  0.9569633E-01
        2   -1    0    0  501    0  0.00000000000E+00  0.00000000000E+00  0.81188457742E+03  0.81188457742E+03  0.25500000920E-02 0. -1.
       -2   -1    0    0    0  501  0.00000000000E+00  0.00000000000E+00 -0.19382957896E+03  0.19382957898E+03  0.25500000920E-02 0.  1.
    10030    2    1    2    0    0  0.00000000000E+00  0.00000000000E+00  0.61805499845E+03  0.10057141564E+04  0.79339081371E+03 0.  0.
        5    1    3    3  502    0  0.38090063869E+03  0.10657186539E+03  0.34710444435E+03  0.52625701357E+03  0.46999998093E+01 0. -1.
       -5    1    3    3    0  502 -0.38090063869E+03 -0.10657186539E+03  0.27095055410E+03  0.47945714283E+03  0.46999998093E+01 0.  1.
</event>
<event>
 5   0  0.2464780E-02  0.7930374E+03  0.7818609E-02  0.9570150E-01
       -2   -1    0    0    0  501  0.00000000000E+00  0.00000000000E+00  0.10602802038E+03  0.10602802041E+03  0.25500000920E-02 0. -1.
        2   -1    0    0  501    0  0.00000000000E+00  0.00000000000E+00 -0.14828824547E+04  0.14828824547E+04  0.25500000920E-02 0.  1.
    10030    2    1    2    0    0  0.00000000000E+00  0.00000000000E+00 -0.13768544343E+04  0.15889104751E+04  0.79303742952E+03 0.  0.
        3    1    3    3  502    0  0.18280751765E+03  0.11827032465E+03 -0.24458384319E+02  0.21909970553E+03  0.10100000352E+00 0. -1.
       -3    1    3    3    0  502 -0.18280751765E+03 -0.11827032465E+03 -0.13523960500E+04  0.13698107696E+04  0.10100000352E+00 0.  1.
</event>
<event>
 5   0  0.2454354E-02  0.8046126E+03  0.7818609E-02  0.9553364E-01
       -2   -1    0    0    0  501  0.00000000000E+00  0.00000000000E+00  0.13187762402E+03  0.13187762405E+03  0.25500000920E-02 0.  1.
        2   -1    0    0  501    0  0.00000000000E+00  0.00000000000E+00 -0.12272768576E+04  0.12272768576E+04  0.25500000920E-02 0. -1.
    10030    2    1    2    0    0  0.00000000000E+00  0.00000000000E+00 -0.10953992336E+04  0.13591544816E+04  0.80461259253E+03 0.  0.
        5    1    3    3  502    0  0.29670871084E+03  0.10703604950E+03 -0.96944437037E+03  0.10194789121E+04  0.46999998093E+01 0. -1.
       -5    1    3    3    0  502 -0.29670871084E+03 -0.10703604950E+03 -0.12595486321E+03  0.33967556955E+03  0.46999998093E+01 0.  1.
</event>
<event>
 5   0  0.1471290E-02  0.9370438E+03  0.7818609E-02  0.9380424E-01
        1   -1    0    0  501    0  0.00000000000E+00  0.00000000000E+00  0.44797955686E+03  0.44797955689E+03  0.50400001928E-02 0. -1.
       -1   -1    0    0    0  501  0.00000000000E+00  0.00000000000E+00 -0.49000623690E+03  0.49000623692E+03  0.50400001928E-02 0.  1.
    10030    2    1    2    0    0  0.00000000000E+00  0.00000000000E+00 -0.42026680041E+02  0.93798579381E+03  0.93704381304E+03 0.  0.
        2    1    3    3  502    0  0.33516637238E+03 -0.25048692934E+03  0.18998892583E+03  0.45953888942E+03  0.25500000920E-02 0.  1.
       -2    1    3    3    0  502 -0.33516637238E+03  0.25048692934E+03 -0.23201560587E+03  0.47844690439E+03  0.25500000920E-02 0. -1.
</event>
<event>
 5   0  0.2464780E-02  0.7864887E+03  0.7818609E-02  0.9579783E-01
        2   -1    0    0  501    0  0.00000000000E+00  0.00000000000E+00  0.10310691767E+04  0.10310691767E+04  0.25500000920E-02 0. -1.
       -2   -1    0    0    0  501  0.00000000000E+00  0.00000000000E+00 -0.14998133275E+03  0.14998133277E+03  0.25500000920E-02 0.  1.
    10030    2    1    2    0    0  0.00000000000E+00  0.00000000000E+00  0.88108784395E+03  0.11810505095E+04  0.78648872667E+03 0.  0.
        3    1    3    3  502    0  0.10137792951E+03  0.24993620332E+03  0.10803639427E+02  0.26993021162E+03  0.10100000352E+00 0.  1.
       -3    1    3    3    0  502 -0.10137792951E+03 -0.24993620332E+03  0.87028420453E+03  0.91112029786E+03  0.10100000352E+00 0. -1.
</event>
<event>
 5   0  0.2460312E-02  0.7062292E+03  0.7818609E-02  0.9706638E-01
       -2   -1    0    0    0  501  0.00000000000E+00  0.00000000000E+00  0.69629164426E+02  0.69629164473E+02  0.25500000920E-02 0. -1.
        2   -1    0    0  501    0  0.00000000000E+00  0.00000000000E+00 -0.17907712519E+04  0.17907712520E+04  0.25500000920E-02 0.  1.
    10030    2    1    2    0    0  0.00000000000E+00  0.00000000000E+00 -0.17211420875E+04  0.18604004164E+04  0.70622915827E+03 0.  0.
        2    1    3    3  502    0  0.82002848692E+02  0.18195488315E+03 -0.93197504933E+02  0.22026761366E+03  0.25500000920E-02 0. -1.
       -2    1    3    3    0  502 -0.82002848692E+02 -0.18195488315E+03 -0.16279445826E+04  0.16401328028E+04  0.25500000920E-02 0.  1.
</event>
<event>
 5   0  0.2464780E-02  0.7772792E+03  0.7818609E-02  0.9593500E-01
        2   -1    0    0  501    0  0.00000000000E+00  0.00000000000E+00  0.33045868427E+03  0.33045868428E+03  0.25500000920E-02 0.  1.
       -2   -1    0    0    0  501  0.00000000000E+00  0.00000000000E+00 -0.45706394497E+03  0.45706394498E+03  0.25500000920E-02 0. -1.
    10030    2    1    2    0    0  0.00000000000E+00  0.00000000000E+00 -0.12660526070E+03  0.78752262926E+03  0.77727922883E+03 0.  0.
        3    1    3    3  502    0  0.18579322253E+02  0.24210250532E+03 -0.37075169459E+03  0.44318804535E+03  0.10100000352E+00 0. -1.
       -3    1    3    3    0  502 -0.18579322253E+02 -0.24210250532E+03  0.24414643389E+03  0.34433458392E+03  0.10100000352E+00 0.  1.
</event>
<event>
 5   0  0.9919125E-03  0.8074542E+03  0.7818609E-02  0.9549290E-01
        4   -1    0    0  501    0  0.00000000000E+00  0.00000000000E+00  0.38262125019E+03  0.38262335789E+03  0.12699999809E+01 0.  1.
       -4   -1    0    0    0  501  0.00000000000E+00  0.00000000000E+00 -0.42599297675E+03  0.42599486985E+03  0.12699999809E+01 0. -1.
    10030    2    1    2    0    0  0.00000000000E+00  0.00000000000E+00 -0.43371726553E+02  0.80861822774E+03  0.80745422877E+03 0.  0.
        3    1    3    3  502    0 -0.19916227502E+03  0.11220069570E+03 -0.35494323505E+03  0.42218398622E+03  0.10100000352E+00 0. -1.
       -3    1    3    3    0  502  0.19916227502E+03 -0.11220069570E+03  0.31157150850E+03  0.38643424152E+03  0.10100000352E+00 0.  1.
</event>
<event>
 5   0  0.2460312E-02  0.7957873E+03  0.7818609E-02  0.9566135E-01
       -2   -1    0    0    0  501  0.00000000000E+00  0.00000000000E+00  0.33606926156E+03  0.33606926157E+03  0.25500000920E-02 0. -1.
        2   -1    0    0  501    0  0.00000000000E+00  0.00000000000E+00 -0.47109148135E+03  0.47109148135E+03  0.25500000920E-02 0.  1.
    10030    2    1    2    0    0  0.00000000000E+00  0.00000000000E+00 -0.13502221979E+03  0.80716074292E+03  0.79578732402E+03 0.  0.
        2    1    3    3  502    0 -0.35559271259E+03  0.15719355133E+03 -0.15335747309E+03  0.41794079052E+03  0.25500000920E-02 0. -1.
       -2    1    3    3    0  502  0.35559271259E+03 -0.15719355133E+03  0.18335253300E+02  0.38921995240E+03  0.25500000920E-02 0.  1.
</event>
<event>
 5   0  0.1471290E-02  0.7992908E+03  0.7818609E-02  0.9561044E-01
       -1   -1    0    0    0  501  0.00000000000E+00  0.00000000000E+00  0.15511962759E+03  0.15511962767E+03  0.50400001928E-02 0.  1.
        1   -1    0    0  501    0  0.00000000000E+00  0.00000000000E+00 -0.10296340698E+04  0.10296340698E+04  0.50400001928E-02 0. -1.
    10030    2    1    2    0    0  0.00000000000E+00  0.00000000000E+00 -0.87451444219E+03  0.11847536975E+04  0.79929081945E+03 0.  0.
        2    1    3    3  502    0  0.20346297546E+03  0.34369348268E+03 -0.41660853229E+03  0.57713521951E+03  0.25500000920E-02 0. -1.
       -2    1    3    3    0  502 -0.20346297546E+03 -0.34369348268E+03 -0.45790590991E+03  0.60761847796E+03  0.25500000920E-02 0.  1.
</event>
<event>
 5   0  0.1471290E-02  0.8069413E+03  0.7818609E-02  0.9550024E-01
        1   -1    0    0  501    0  0.00000000000E+00  0.00000000000E+00  0.94746860520E+03  0.94746860521E+03  0.50400001928E-02 0. -1.
       -1   -1    0    0    0  501  0.00000000000E+00  0.00000000000E+00 -0.17181420760E+03  0.17181420768E+03  0.50400001928E-02 0.  1.
    10030    2    1    2    0    0  0.00000000000E+00  0.00000000000E+00  0.77565439760E+03  0.11192828129E+04  0.80694130562E+03 0.  0.
        2    1    3    3  502    0 -0.20422457847E+03 -0.51834047991E+02  0.86509590203E+03  0.89038495422E+03  0.25500000920E-02 0. -1.
       -2    1    3    3    0  502  0.20422457847E+03  0.51834047991E+02 -0.89441504432E+02  0.22889785867E+03  0.25500000920E-02 0.  1.
</event>
<event>
 5   0  0.2422031E-02  0.7911627E+03  0.7818609E-02  0.9572898E-01
        2   -1    0    0  501    0  0.00000000000E+00  0.00000000000E+00  0.52872077067E+03  0.52872077067E+03  0.25500000920E-02 0. -1.
       -2   -1    0    0    0  501  0.00000000000E+00  0.00000000000E+00 -0.29596832120E+03  0.29596832121E+03  0.25500000920E-02 0.  1.
    10030    2    1    2    0    0  0.00000000000E+00  0.00000000000E+00  0.23275244947E+03  0.82468909188E+03  0.79116268589E+03 0.  0.
        4    1    3    3  502    0 -0.33059312771E+03 -0.21308043120E+03  0.72300847921E+02  0.39990512845E+03  0.12699999809E+01 0. -1.
       -4    1    3    3    0  502  0.33059312771E+03  0.21308043120E+03  0.16045160155E+03  0.42478396343E+03  0.12699999809E+01 0.  1.
</event>
<event>
 5   0  0.1624094E-02  0.8014640E+03  0.7818609E-02  0.9557901E-01
        1   -1    0    0  501    0  0.00000000000E+00  0.00000000000E+00  0.43247415923E+03  0.43247415926E+03  0.50400001928E-02 0.  1.
       -1   -1    0    0    0  501  0.00000000000E+00  0.00000000000E+00 -0.37131956399E+03  0.37131956403E+03  0.50400001928E-02 0. -1.
    10030    2    1    2    0    0  0.00000000000E+00  0.00000000000E+00  0.61154595241E+02  0.80379372329E+03  0.80146395121E+03 0.  0.
        3    1    3    3  502    0  0.34649728947E+03 -0.13032483880E+03 -0.12330003413E+03  0.39018949735E+03  0.10100000352E+00 0. -1.
       -3    1    3    3    0  502 -0.34649728947E+03  0.13032483880E+03  0.18445462937E+03  0.41360422595E+03  0.10100000352E+00 0.  1.
</event>
<event>
 5   0  0.9919125E-03  0.7981717E+03  0.7818609E-02  0.9562667E-01
       -4   -1    0    0    0  501  0.00000000000E+00  0.00000000000E+00  0.17710750901E+03  0.17711206240E+03  0.12699999809E+01 0.  1.
        4   -1    0    0  501    0  0.00000000000E+00  0.00000000000E+00 -0.89926489920E+03  0.89926579599E+03  0.12699999809E+01 0. -1.
    10030    2    1    2    0    0  0.00000000000E+00  0.00000000000E+00 -0.72215739019E+03  0.10763778584E+04  0.79817165938E+03 0.  0.
        4    1    3    3  502    0 -0.19918869427E+03  0.60405222964E+02  0.98109424799E+02  0.23011301358E+03  0.12699999809E+01 0.  1.
       -4    1    3    3    0  502  0.19918869427E+03 -0.60405222964E+02 -0.82026681499E+03  0.84626484481E+03  0.12699999809E+01 0. -1.
</event>
<event>
 5   0  0.2571778E-02  0.7893844E+03  0.7818609E-02  0.9575511E-01
        2   -1    0    0  501    0  0.00000000000E+00  0.00000000000E+00  0.14213823481E+04  0.14213823481E+04  0.25500000920E-02 0. -1.
       -2   -1    0    0    0  501  0.00000000000E+00  0.00000000000E+00 -0.10959888741E+03  0.10959888744E+03  0.25500000920E-02 0.  1.
    10030    2    1    2    0    0  0.00000000000E+00  0.00000000000E+00  0.13117834607E+04  0.15309812356E+04  0.78938437776E+03 0.  0.
        1    1    3    3  502    0 -0.18930589348E+03 -0.31431191674E+03  0.93796998017E+03  0.10071823996E+04  0.50400001928E-02 0.  1.
       -1    1    3    3    0  502  0.18930589348E+03  0.31431191674E+03  0.37381348055E+03  0.52379883598E+03  0.50400001928E-02 0. -1.
</event>
<event>
 5   0  0.2464780E-02  0.8048696E+03  0.7818609E-02  0.9552995E-01
       -2   -1    0    0    0  501  0.00000000000E+00  0.00000000000E+00  0.17855523426E+03  0.17855523427E+03  0.25500000920E-02 0. -1.
        2   -1    0    0  501    0  0.00000000000E+00  0.00000000000E+00 -0.90702345855E+03  0.90702345856E+03  0.25500000920E-02 0.  1.
    10030    2    1    2    0    0  0.00000000000E+00  0.00000000000E+00 -0.72846822430E+03  0.10855786928E+04  0.80486964442E+03 0.  0.
        3    1    3    3  502    0 -0.72674594099E+01 -0.32726447667E+03 -0.48499807315E+02  0.33091856274E+03  0.10100000352E+00 0. -1.
       -3    1    3    3    0  502  0.72674594099E+01  0.32726447667E+03 -0.67996841698E+03  0.75466013009E+03  0.10100000352E+00 0.  1.
</event>
<event>
 5   0  0.2460312E-02  0.7979571E+03  0.7818609E-02  0.9562979E-01
        2   -1    0    0  501    0  0.00000000000E+00  0.00000000000E+00  0.14237394564E+04  0.14237394564E+04  0.25500000920E-02 0.  1.
       -2   -1    0    0    0  501  0.00000000000E+00  0.00000000000E+00 -0.11180689287E+03  0.11180689290E+03  0.25500000920E-02 0. -1.
    10030    2    1    2    0    0  0.00000000000E+00  0.00000000000E+00  0.13119325635E+04  0.15355463493E+04  0.79795710388E+03 0.  0.
        2    1    3    3  502    0 -0.50331634038E+02  0.62902201912E+02  0.14079254574E+04  0.14102283695E+04  0.25500000920E-02 0.  1.
       -2    1    3    3    0  502  0.50331634038E+02 -0.62902201912E+02 -0.95992893884E+02  0.12531797985E+03  0.25500000920E-02 0. -1.
</event>
<event>
 5   0  0.1523811E-02  0.8020546E+03  0.7818609E-02  0.9557048E-01
        1   -1    0    0  501    0  0.00000000000E+00  0.00000000000E+00  0.35400178678E+03  0.35400178682E+03  0.50400001928E-02 0. -1.
       -1   -1    0    0    0  501  0.00000000000E+00  0.00000000000E+00 -0.45429962078E+03  0.45429962081E+03  0.50400001928E-02 0.  1.
    10030    2    1    2    0    0  0.00000000000E+00  0.00000000000E+00 -0.10029783400E+03  0.80830140763E+03  0.80205455555E+03 0.  0.
        1    1    3    3  502    0 -0.25275246997E+03  0.15360661830E+03  0.22278149943E+03  0.37028421621E+03  0.50400001928E-02 0. -1.
       -1    1    3    3    0  502  0.25275246997E+03 -0.15360661830E+03 -0.32307933343E+03  0.43801719142E+03  0.50400001928E-02 0.  1.
</event>
<event>
 5   0  0.2422031E-02  0.7917562E+03  0.7818609E-02  0.9572027E-01
       -2   -1    0    0    0  501  0.00000000000E+00  0.00000000000E+00  0.24769694037E+03  0.24769694038E+03  0.25500000920E-02 0. -1.
        2   -1    0    0  501    0  0.00000000000E+00  0.00000000000E+00 -0.63270658974E+03  0.63270658975E+03  0.25500000920E-02 0.  1.
    10030    2    1    2    0    0  0.00000000000E+00  0.00000000000E+00 -0.38500964937E+03  0.88040353013E+03  0.79175624137E+03 0.  0.
        4    1    3    3  502    0 -0.14539966561E+03 -0.35479853900E+03 -0.30199114874E+03  0.48808127689E+03  0.12699999809E+01 0.  1.
       -4    1    3    3    0  502  0.14539966561E+03  0.35479853900E+03 -0.83018500637E+02  0.39232225324E+03  0.12699999809E+01 0. -1.
</event>
<event>
 5   0  0.1523811E-02  0.7908378E+03  0.7818609E-02  0.9573375E-01
        1   -1    0    0  501    0  0.00000000000E+00  0.00000000000E+00  0.57443695161E+03  0.57443695163E+03  0.50400001928E-02 0.  1.
       -1   -1    0    0    0  501  0.00000000000E+00  0.00000000000E+00 -0.27219018916E+03  0.27219018921E+03  0.50400001928E-02 0. -1.
    10030    2    1    2    0    0  0.00000000000E+00  0.00000000000E+00  0.30224676245E+03  0.84662714084E+03  0.79083779007E+03 0.  0.
        1    1    3    3  502    0  0.20238904812E+03  0.15781235975E+03  0.47315992032E+03  0.53828094701E+03  0.50400001928E-02 0.  1.
       -1    1    3    3    0  502 -0.20238904812E+03 -0.15781235975E+03 -0.17091315787E+03  0.30834619383E+03  0.50400001928E-02 0. -1.
</event>
<event>
 5   0  0.2464780E-02  0.8133106E+03  0.7818609E-02  0.9540948E-01
       -2   -1    0    0    0  501  0.00000000000E+00  0.00000000000E+00  0.90059601344E+02  0.90059601380E+02  0.25500000920E-02 0.  1.
        2   -1    0    0  501    0  0.00000000000E+00  0.00000000000E+00 -0.18362120852E+04  0.18362120852E+04  0.25500000920E-02 0. -1.
    10030    2    1    2    0    0  0.00000000000E+00  0.00000000000E+00 -0.17461524839E+04  0.19262716866E+04  0.81331058868E+03 0.  0.
        3    1    3    3  502    0 -0.12977137771E+03  0.35259823032E+03 -0.12415361959E+04  0.12971423431E+04  0.10100000352E+00 0. -1.
       -3    1    3    3    0  502  0.12977137771E+03 -0.35259823032E+03 -0.50461628803E+03  0.62912934349E+03  0.10100000352E+00 0.  1.
</event>
<event>
 5   0  0.2464780E-02  0.8017599E+03  0.7818609E-02  0.9557473E-01
       -2   -1    0    0    0  501  0.00000000000E+00  0.00000000000E+00  0.22505760725E+03  0.22505760726E+03  0.25500000920E-02 0.  1.
        2   -1    0    0  501    0  0.00000000000E+00  0.00000000000E+00 -0.71406046304E+03  0.71406046305E+03  0.25500000920E-02 0. -1.
    10030    2    1    2    0    0  0.00000000000E+00  0.00000000000E+00 -0.48900285579E+03  0.93911807031E+03  0.80175991232E+03 0.  0.
        3    1    3    3  502    0  0.28324213620E+03  0.31043007315E+02 -0.57479510707E+03  0.64154438766E+03  0.10100000352E+00 0. -1.
       -3    1    3    3    0  502 -0.28324213620E+03 -0.31043007315E+02  0.85792251276E+02  0.29757368265E+03  0.10100000352E+00 0.  1.
</event>
<event>
 5   0  0.1498375E-02  0.7785623E+03  0.7818609E-02  0.9591576E-01
        1   -1    0    0  501    0  0.00000000000E+00  0.00000000000E+00  0.53400118191E+03  0.53400118194E+03  0.50400001928E-02 0. -1.
       -1   -1    0    0    0  501  0.00000000000E+00  0.00000000000E+00 -0.28378182929E+03  0.28378182934E+03  0.50400001928E-02 0.  1.
    10030    2    1    2    0    0  0.00000000000E+00  0.00000000000E+00  0.25021935262E+03  0.81778301127E+03  0.77856234760E+03 0.  0.
        4    1    3    3  502    0 -0.17152380109E+03 -0.10071147044E+03  0.47659341090E+03  0.51643596586E+03  0.12699999809E+01 0. -1.
       -4    1    3    3    0  502  0.17152380109E+03  0.10071147044E+03 -0.22637405828E+03  0.30134704541E+03  0.12699999809E+01 0.  1.
</event>
<event>
 5   0  0.1523811E-02  0.8277855E+03  0.7818609E-02  0.9520647E-01
        1   -1    0    0  501    0  0.00000000000E+00  0.00000000000E+00  0.69830327998E+03  0.69830327999E+03  0.50400001928E-02 0. -1.
       -1   -1    0    0    0  501  0.00000000000E+00  0.00000000000E+00 -0.24531919870E+03  0.24531919876E+03  0.50400001928E-02 0.  1.
    10030    2    1    2    0    0  0.00000000000E+00  0.00000000000E+00  0.45298408127E+03  0.94362247875E+03  0.82778548218E+03 0.  0.
        1    1    3    3  502    0  0.84090426757E+02  0.12120164110E+02 -0.23527224790E+03  0.25014221737E+03  0.50400001928E-02 0.  1.
       -1    1    3    3    0  502 -0.84090426757E+02 -0.12120164110E+02  0.68825632918E+03  0.69348026138E+03  0.50400001928E-02 0. -1.
</event>
<event>
 5   0  0.2571778E-02  0.8171842E+03  0.7818609E-02  0.9535471E-01
       -2   -1    0    0    0  501  0.00000000000E+00  0.00000000000E+00  0.11335597388E+03  0.11335597391E+03  0.25500000920E-02 0. -1.
        2   -1    0    0  501    0  0.00000000000E+00  0.00000000000E+00 -0.14727721752E+04  0.14727721752E+04  0.25500000920E-02 0.  1.
    10030    2    1    2    0    0  0.00000000000E+00  0.00000000000E+00 -0.13594162013E+04  0.15861281491E+04  0.81718424912E+03 0.  0.
        1    1    3    3  502    0 -0.15070086208E+03  0.29632050438E+03 -0.21862744600E+03  0.39788761142E+03  0.50400001928E-02 0. -1.
       -1    1    3    3    0  502  0.15070086208E+03 -0.29632050438E+03 -0.11407887553E+04  0.11882405377E+04  0.50400001928E-02 0.  1.
</event>
<event>
 5   0  0.1471290E-02  0.8296401E+03  0.7818609E-02  0.9518078E-01
       -1   -1    0    0    0  501  0.00000000000E+00  0.00000000000E+00  0.45682662635E+03  0.45682662637E+03  0.50400001928E-02 0. -1.
        1   -1    0    0  501    0  0.00000000000E+00  0.00000000000E+00 -0.37667607449E+03  0.37667607453E+03  0.50400001928E-02 0.  1.
    10030    2    1    2    0    0  0.00000000000E+00  0.00000000000E+00  0.80150551854E+02  0.83350270090E+03  0.82964006741E+03 0.  0.
        2    1    3    3  502    0 -0.26174217257E+03 -0.31982018626E+03  0.41071404863E+01  0.41329261432E+03  0.25500000920E-02 0. -1.
       -2    1    3    3    0  502  0.26174217257E+03  0.31982018626E+03  0.76043411368E+02  0.42021008658E+03  0.25500000920E-02 0.  1.
</event>
<event>
 5   0  0.2454354E-02  0.7791349E+03  0.7818609E-02  0.9590719E-01
        2   -1    0    0  501    0  0.00000000000E+00  0.00000000000E+00  0.23604035827E+03  0.23604035828E+03  0.25500000920E-02 0.  1.
       -2   -1    0    0    0  501  0.00000000000E+00  0.00000000000E+00 -0.64295280379E+03  0.64295280379E+03  0.25500000920E-02 0. -1.
    10030    2    1    2    0    0  0.00000000000E+00  0.00000000000E+00 -0.40691244552E+03  0.87899316208E+03  0.77913493097E+03 0.  0.
        5    1    3    3  502    0 -0.24581751394E+03 -0.27538928715E+03 -0.63113110234E+02  0.37452752145E+03  0.46999998093E+01 0. -1.
       -5    1    3    3    0  502  0.24581751394E+03  0.27538928715E+03 -0.34379933528E+03  0.50446564063E+03  0.46999998093E+01 0.  1.
</event>
<event>
 5   0  0.1471290E-02  0.7860375E+03  0.7818609E-02  0.9580450E-01
        1   -1    0    0  501    0  0.00000000000E+00  0.00000000000E+00  0.21805068588E+03  0.21805068594E+03  0.50400001928E-02 0.  1.
       -1   -1    0    0    0  501  0.00000000000E+00  0.00000000000E+00 -0.70838460266E+03  0.70838460268E+03  0.50400001928E-02 0. -1.
    10030    2    1    2    0    0  0.00000000000E+00  0.00000000000E+00 -0.49033391678E+03  0.92643528862E+03  0.78603752713E+03 0.  0.
        2    1    3    3  502    0 -0.27023340303E+03 -0.23731492798E+03 -0.43196633121E+03  0.56208484988E+03  0.25500000920E-02 0. -1.
       -2    1    3    3    0  502  0.27023340303E+03  0.23731492798E+03 -0.58367585571E+02  0.36435043874E+03  0.25500000920E-02 0.  1.
</event>
<event>
 5   0  0.1509629E-02  0.7895977E+03  0.7818609E-02  0.9575197E-01
        1   -1    0    0  501    0  0.00000000000E+00  0.00000000000E+00  0.12400639513E+03  0.12400639523E+03  0.50400001928E-02 0. -1.
       -1   -1    0    0    0  501  0.00000000000E+00  0.00000000000E+00 -0.12569202282E+04  0.12569202282E+04  0.50400001928E-02 0.  1.
    10030    2    1    2    0    0  0.00000000000E+00  0.00000000000E+00 -0.11329138330E+04  0.13809266234E+04  0.78959773693E+03 0.  0.
        5    1    3    3  502    0 -0.11723454869E+03 -0.34351480457E+02  0.90067931978E+02  0.15184955050E+03  0.46999998093E+01 0. -1.
       -5    1    3    3    0  502  0.11723454869E+03  0.34351480457E+02 -0.12229817650E+04  0.12290770729E+04  0.46999998093E+01 0.  1.
</event>
<event>
 5   0  0.1523811E-02  0.7836963E+03  0.7818609E-02  0.9583921E-01
        1   -1    0    0  501    0  0.00000000000E+00  0.00000000000E+00  0.14903892433E+03  0.14903892441E+03  0.50400001928E-02 0.  1.
       -1   -1    0    0    0  501  0.00000000000E+00  0.00000000000E+00 -0.10302340459E+04  0.10302340459E+04  0.50400001928E-02 0. -1.
    10030    2    1    2    0    0  0.00000000000E+00  0.00000000000E+00 -0.88119512156E+03  0.11792729703E+04  0.78369630358E+03 0.  0.
        1    1    3    3  502    0 -0.19322568632E+03 -0.26208338169E+03 -0.11257038061E+03  0.34452279377E+03  0.50400001928E-02 0.  1.
       -1    1    3    3    0  502  0.19322568632E+03  0.26208338169E+03 -0.76862474095E+03  0.83475017654E+03  0.50400001928E-02 0. -1.
</event>
<event>
 5   0  0.2454354E-02  0.7820483E+03  0.7818609E-02  0.9586371E-01
       -2   -1    0    0    0  501  0.00000000000E+00  0.00000000000E+00  0.11403754474E+03  0.11403754477E+03  0.25500000920E-02 0. -1.
        2   -1    0    0  501    0  0.00000000000E+00  0.00000000000E+00 -0.13407854522E+04  0.13407854522E+04  0.25500000920E-02 0.  1.
    10030    2    1    2    0    0  0.00000000000E+00  0.00000000000E+00 -0.12267479075E+04  0.14548229970E+04  0.78204828755E+03 0.  0.
        5    1    3    3  502    0 -0.98550535748E+02  0.33357261707E+03 -0.94560266116E+03  0.10075561432E+04  0.46999998093E+01 0.  1.
       -5    1    3    3    0  502  0.98550535748E+02 -0.33357261707E+03 -0.28114524633E+03  0.44726685378E+03  0.46999998093E+01 0. -1.
</event>
<event>
 5   0  0.1471290E-02  0.7366237E+03  0.7818609E-02  0.9656573E-01
        1   -1    0    0  501    0  0.00000000000E+00  0.00000000000E+00  0.98003963799E+03  0.98003963800E+03  0.50400001928E-02 0. -1.
       -1   -1    0    0    0  501  0.00000000000E+00  0.00000000000E+00 -0.13841645643E+03  0.13841645652E+03  0.50400001928E-02 0.  1.
    10030    2    1    2    0    0  0.00000000000E+00  0.00000000000E+00  0.84162318156E+03  0.11184560945E+04  0.73662368659E+03 0.  0.
        2    1    3    3  502    0 -0.28084575364E+03  0.33002434034E+01  0.78257657625E+03  0.83145133751E+03  0.25500000920E-02 0. -1.
       -2    1    3    3    0  502  0.28084575364E+03 -0.33002434034E+01  0.59046605311E+02  0.28700475702E+03  0.25500000920E-02 0.  1.
</event>
<event>
 5   0  0.1624094E-02  0.7844830E+03  0.7818609E-02  0.9582753E-01
       -1   -1    0    0    0  501  0.00000000000E+00  0.00000000000E+00  0.18131693838E+03  0.18131693845E+03  0.50400001928E-02 0. -1.
        1   -1    0    0  501    0  0.00000000000E+00  0.00000000000E+00 -0.84853302209E+03  0.84853302211E+03  0.50400001928E-02 0.  1.
    10030    2    1    2    0    0  0.00000000000E+00  0.00000000000E+00 -0.66721608371E+03  0.10298499606E+04  0.78448303928E+03 0.  0.
        3    1    3    3  502    0  0.29592921980E+03 -0.91283655344E+02 -0.64962060084E+03  0.71966224307E+03  0.10100000352E+00 0.  1.
       -3    1    3    3    0  502 -0.29592921980E+03  0.91283655344E+02 -0.17595482869E+02  0.31018771749E+03  0.10100000352E+00 0. -1.
</event>
<event>
 5   0  0.2464780E-02  0.7976408E+03  0.7818609E-02  0.9563438E-01
        2   -1    0    0  501    0  0.00000000000E+00  0.00000000000E+00  0.54957619154E+03  0.54957619155E+03  0.25500000920E-02 0. -1.
       -2   -1    0    0    0  501  0.00000000000E+00  0.00000000000E+00 -0.28941885388E+03  0.28941885389E+03  0.25500000920E-02 0.  1.
    10030    2    1    2    0    0  0.00000000000E+00  0.00000000000E+00  0.26015733766E+03  0.83899504544E+03  0.79764080007E+03 0.  0.
        3    1    3    3  502    0 -0.30015422443E+02 -0.44460678640E+02 -0.28560673771E+03  0.29060092284E+03  0.10100000352E+00 0.  1.
       -3    1    3    3    0  502  0.30015422443E+02  0.44460678640E+02  0.54576407537E+03  0.54839412260E+03  0.10100000352E+00 0. -1.
</event>
<event>
 5   0  0.2454354E-02  0.8185556E+03  0.7818609E-02  0.9533540E-01
        2   -1    0    0  501    0  0.00000000000E+00  0.00000000000E+00  0.97349247220E+03  0.97349247220E+03  0.25500000920E-02 0. -1.
       -2   -1    0    0    0  501  0.00000000000E+00  0.00000000000E+00 -0.17206946306E+03  0.17206946308E+03  0.25500000920E-02 0.  1.
    10030    2    1    2    0    0  0.00000000000E+00  0.00000000000E+00  0.80142300913E+03  0.11455619353E+04  0.81855562304E+03 0.  0.
        5    1    3    3  502    0 -0.14756396737E+03 -0.90466676309E+02 -0.11828471457E+03  0.20969670405E+03  0.46999998093E+01 0.  1.
       -5    1    3    3    0  502  0.14756396737E+03  0.90466676309E+02  0.91970772371E+03  0.93586523124E+03  0.46999998093E+01 0. -1.
</event>
<event>
 5   0  0.2571778E-02  0.7820656E+03  0.7818609E-02  0.9586345E-01
        2   -1    0    0  501    0  0.00000000000E+00  0.00000000000E+00  0.14067654152E+04  0.14067654152E+04  0.25500000920E-02 0. -1.
       -2   -1    0    0    0  501  0.00000000000E+00  0.00000000000E+00 -0.10869378008E+03  0.10869378011E+03  0.25500000920E-02 0.  1.
    10030    2    1    2    0    0  0.00000000000E+00  0.00000000000E+00  0.12980716351E+04  0.15154591953E+04  0.78206560002E+03 0.  0.
        1    1    3    3  502    0 -0.30218866470E+02  0.27925994576E+03  0.12188061041E+03  0.30619304436E+03  0.50400001928E-02 0.  1.
       -1    1    3    3    0  502  0.30218866470E+02 -0.27925994576E+03  0.11761910247E+04  0.12092661509E+04  0.50400001928E-02 0. -1.
</event>
<event>
 5   0  0.1498375E-02  0.7847695E+03  0.7818609E-02  0.9582328E-01
       -1   -1    0    0    0  501  0.00000000000E+00  0.00000000000E+00  0.15501576986E+03  0.15501576994E+03  0.50400001928E-02 0. -1.
        1   -1    0    0  501    0  0.00000000000E+00  0.00000000000E+00 -0.99322673298E+03  0.99322673299E+03  0.50400001928E-02 0.  1.
    10030    2    1    2    0    0  0.00000000000E+00  0.00000000000E+00 -0.83821096311E+03  0.11482425029E+04  0.78476953742E+03 0.  0.
        4    1    3    3  502    0  0.16398883488E+03  0.34710132718E+03 -0.53790573274E+03  0.66084480743E+03  0.12699999809E+01 0. -1.
       -4    1    3    3    0  502 -0.16398883488E+03 -0.34710132718E+03 -0.30030523038E+03  0.48739769551E+03  0.12699999809E+01 0.  1.
</event>
<event>
 5   0  0.1624094E-02  0.7955089E+03  0.7818609E-02  0.9566541E-01
       -1   -1    0    0    0  501  0.00000000000E+00  0.00000000000E+00  0.29180211231E+03  0.29180211235E+03  0.50400001928E-02 0. -1.
        1   -1    0    0  501    0  0.00000000000E+00  0.00000000000E+00 -0.54217765078E+03  0.54217765080E+03  0.50400001928E-02 0.  1.
    10030    2    1    2    0    0  0.00000000000E+00  0.00000000000E+00 -0.25037553847E+03  0.83397976315E+03  0.79550885293E+03 0.  0.
        3    1    3    3  502    0 -0.31358954597E+03 -0.59515400562E+02 -0.37400072911E+03  0.49168795167E+03  0.10100000352E+00 0.  1.
       -3    1    3    3    0  502  0.31358954597E+03  0.59515400562E+02  0.12362519064E+03  0.34229181148E+03  0.10100000352E+00 0. -1.
</event>
<event>
 5   0  0.1523811E-02  0.8016003E+03  0.7818609E-02  0.9557704E-01
       -1   -1    0    0    0  501  0.00000000000E+00  0.00000000000E+00  0.70784648341E+03  0.70784648343E+03  0.50400001928E-02 0. -1.
        1   -1    0    0  501    0  0.00000000000E+00  0.00000000000E+00 -0.22694295345E+03  0.22694295351E+03  0.50400001928E-02 0.  1.
    10030    2    1    2    0    0  0.00000000000E+00  0.00000000000E+00  0.48090352996E+03  0.93478943693E+03  0.80160032826E+03 0.  0.
        1    1    3    3  502    0  0.14207904820E+03 -0.37306662775E+03  0.19880182939E+03  0.44596785991E+03  0.50400001928E-02 0.  1.
       -1    1    3    3    0  502 -0.14207904820E+03  0.37306662775E+03  0.28210170057E+03  0.48882157702E+03  0.50400001928E-02 0. -1.
</event>
<event>
 5   0  0.2460312E-02  0.7957527E+03  0.7818609E-02  0.9566185E-01
       -2   -1    0    0    0  501  0.00000000000E+00  0.00000000000E+00  0.13045503197E+03  0.13045503199E+03  0.25500000920E-02 0. -1.
        2   -1    0    0  501    0  0.00000000000E+00  0.00000000000E+00 -0.12134878673E+04  0.12134878673E+04  0.25500000920E-02 0.  1.
    10030    2    1    2    0    0  0.00000000000E+00  0.00000000000E+00 -0.10830328353E+04  0.13439428993E+04  0.79575272173E+03 0.  0.
        2    1    3    3  502    0  0.90812945166E+02  0.11901110381E+03 -0.11641096089E+04  0.11736957934E+04  0.25500000920E-02 0.  1.
       -2    1    3    3    0  502 -0.90812945166E+02 -0.11901110381E+03  0.81076773602E+02  0.17024710589E+03  0.25500000920E-02 0. -1.
</event>
<event>
 5   0  0.1523811E-02  0.8007426E+03  0.7818609E-02  0.9558943E-01
        1   -1    0    0  501    0  0.00000000000E+00  0.00000000000E+00  0.47471246463E+03  0.47471246466E+03  0.50400001928E-02 0.  1.
       -1   -1    0    0    0  501  0.00000000000E+00  0.00000000000E+00 -0.33767212285E+03  0.33767212288E+03  0.50400001928E-02 0. -1.
    10030    2    1    2    0    0  0.00000000000E+00  0.00000000000E+00  0.13704034178E+03  0.81238458754E+03  0.80074256962E+03 0.  0.
        1    1    3    3  502    0  0.13443233873E+03 -0.28664160142E+03  0.31715821675E+03  0.44813479651E+03  0.50400001928E-02 0.  1.
       -1    1    3    3    0  502 -0.13443233873E+03  0.28664160142E+03 -0.18011787497E+03  0.36424979103E+03  0.50400001928E-02 0. -1.
</event>
<event>
 5   0  0.9919125E-03  0.8074569E+03  0.7818609E-02  0.9549286E-01
       -4   -1    0    0    0  501  0.00000000000E+00  0.00000000000E+00  0.30138971367E+03  0.30139238943E+03  0.12699999809E+01 0. -1.
        4   -1    0    0  501    0  0.00000000000E+00  0.00000000000E+00 -0.54081105098E+03  0.54081254216E+03  0.12699999809E+01 0.  1.
    10030    2    1    2    0    0  0.00000000000E+00  0.00000000000E+00 -0.23942133731E+03  0.84220493159E+03  0.80745685336E+03 0.  0.
        2    1    3    3  502    0 -0.12385304709E+03  0.37849318748E+03 -0.18889749733E+03  0.44077084153E+03  0.25500000920E-02 0.  1.
       -2    1    3    3    0  502  0.12385304709E+03 -0.37849318748E+03 -0.50523839982E+02  0.40143409005E+03  0.25500000920E-02 0. -1.
</event>
<event>
 5   0  0.1498375E-02  0.7800947E+03  0.7818609E-02  0.9589285E-01
       -1   -1    0    0    0  501  0.00000000000E+00  0.00000000000E+00  0.34620211826E+03  0.34620211830E+03  0.50400001928E-02 0.  1.
        1   -1    0    0  501    0  0.00000000000E+00  0.00000000000E+00 -0.43944545312E+03  0.43944545315E+03  0.50400001928E-02 0. -1.
    10030    2    1    2    0    0  0.00000000000E+00  0.00000000000E+00 -0.93243334853E+02  0.78564757145E+03  0.78009472952E+03 0.  0.
        4    1    3    3  502    0  0.16150908567E+03  0.34057082911E+03 -0.14764349847E+03  0.40481340138E+03  0.12699999809E+01 0. -1.
       -4    1    3    3    0  502 -0.16150908567E+03 -0.34057082911E+03  0.54400163619E+02  0.38083417007E+03  0.12699999809E+01 0.  1.
</event>
<event>
 5   0  0.2571778E-02  0.8669426E+03  0.7818609E-02  0.9467875E-01
        2   -1    0    0  501    0  0.00000000000E+00  0.00000000000E+00  0.21787093907E+04  0.21787093907E+04  0.25500000920E-02 0. -1.
       -2   -1    0    0    0  501  0.00000000000E+00  0.00000000000E+00 -0.86242511565E+02  0.86242511602E+02  0.25500000920E-02 0.  1.
    10030    2    1    2    0    0  0.00000000000E+00  0.00000000000E+00  0.20924668791E+04  0.22649519023E+04  0.86694260448E+03 0.  0.
        1    1    3    3  502    0 -0.33797625120E+03 -0.11565384820E+03  0.40472217818E+03  0.53981830324E+03  0.50400001928E-02 0.  1.
       -1    1    3    3    0  502  0.33797625120E+03  0.11565384820E+03  0.16877447009E+04  0.17251335990E+04  0.50400001928E-02 0. -1.
</event>
<event>
 5   0  0.2464780E-02  0.7881053E+03  0.7818609E-02  0.9577395E-01
       -2   -1    0    0    0  501  0.00000000000E+00  0.00000000000E+00  0.32066260355E+03  0.32066260356E+03  0.25500000920E-02 0. -1.
        2   -1    0    0  501    0  0.00000000000E+00  0.00000000000E+00 -0.48423953560E+03  0.48423953561E+03  0.25500000920E-02 0.  1.
    10030    2    1    2    0    0  0.00000000000E+00  0.00000000000E+00 -0.16357693204E+03  0.80490213917E+03  0.78810534889E+03 0.  0.
        3    1    3    3  502    0 -0.19072872126E+03 -0.33129781202E+03  0.15862155761E+02  0.38260593768E+03  0.10100000352E+00 0.  1.
       -3    1    3    3    0  502  0.19072872126E+03  0.33129781202E+03 -0.17943908780E+03  0.42229620149E+03  0.10100000352E+00 0. -1.
</event>
<event>
 5   0  0.9919125E-03  0.7787412E+03  0.7818609E-02  0.9591309E-01
       -4   -1    0    0    0  501  0.00000000000E+00  0.00000000000E+00  0.51270083156E+03  0.51270240450E+03  0.12699999809E+01 0.  1.
        4   -1    0    0  501    0  0.00000000000E+00  0.00000000000E+00 -0.29570405704E+03  0.29570678425E+03  0.12699999809E+01 0. -1.
    10030    2    1    2    0    0  0.00000000000E+00  0.00000000000E+00  0.21699677452E+03  0.80840918875E+03  0.77874117414E+03 0.  0.
        5    1    3    3  502    0 -0.27023531144E+03 -0.11960174427E+03 -0.15464581702E+03  0.33357026172E+03  0.46999998093E+01 0. -1.
       -5    1    3    3    0  502  0.27023531144E+03  0.11960174427E+03  0.37164259154E+03  0.47483892703E+03  0.46999998093E+01 0.  1.
</event>
<event>
 5   0  0.9919125E-03  0.7788330E+03  0.7818609E-02  0.9591171E-01
       -3   -1    0    0    0  501  0.00000000000E+00  0.00000000000E+00  0.13885390854E+03  0.13885394528E+03  0.10100000352E+00 0. -1.
        3   -1    0    0  501    0  0.00000000000E+00  0.00000000000E+00 -0.10921205282E+04  0.10921205329E+04  0.10100000352E+00 0.  1.
    10030    2    1    2    0    0  0.00000000000E+00  0.00000000000E+00 -0.95326661969E+03  0.12309744782E+04  0.77883304868E+03 0.  0.
        4    1    3    3  502    0  0.16340450075E+03 -0.10819637953E+03  0.55226512732E+02  0.20361499949E+03  0.12699999809E+01 0. -1.
       -4    1    3    3    0  502 -0.16340450075E+03  0.10819637953E+03 -0.10084931324E+04  0.10273594787E+04  0.12699999809E+01 0.  1.
</event>
<event>
 5   0  0.1509629E-02  0.8030728E+03  0.7818609E-02  0.9555580E-01
        1   -1    0    0  501    0  0.00000000000E+00  0.00000000000E+00  0.53577946118E+03  0.53577946120E+03  0.50400001928E-02 0. -1.
       -1   -1    0    0    0  501  0.00000000000E+00  0.00000000000E+00 -0.30092879631E+03  0.30092879635E+03  0.50400001928E-02 0.  1.
    10030    2    1    2    0    0  0.00000000000E+00  0.00000000000E+00  0.23485066487E+03  0.83670825756E+03  0.80307276973E+03 0.  0.
        5    1    3    3  502    0 -0.10446456176E+03 -0.38681264636E+03  0.90406372116E+02  0.41077033749E+03  0.46999998093E+01 0. -1.
       -5    1    3    3    0  502  0.10446456176E+03  0.38681264636E+03  0.14444429275E+03  0.42593792007E+03  0.46999998093E+01 0.  1.
</event>
<event>
 5   0  0.2454354E-02  0.7552344E+03  0.7818609E-02  0.9627174E-01
       -2   -1    0    0    0  501  0.00000000000E+00  0.00000000000E+00  0.13462990142E+03  0.13462990144E+03  0.25500000920E-02 0.  1.
        2   -1    0    0  501    0  0.00000000000E+00  0.00000000000E+00 -0.10591609900E+04  0.10591609900E+04  0.25500000920E-02 0. -1.
    10030    2    1    2    0    0  0.00000000000E+00  0.00000000000E+00 -0.92453108861E+03  0.11937908915E+04  0.75523437340E+03 0.  0.
        5    1    3    3  502    0 -0.36009069156E+03 -0.10687314258E+03 -0.52318824924E+03  0.64407702094E+03  0.46999998093E+01 0. -1.
       -5    1    3    3    0  502  0.36009069156E+03  0.10687314258E+03 -0.40134283936E+03  0.54971387054E+03  0.46999998093E+01 0.  1.
</event>
<event>
 5   0  0.2571778E-02  0.8137676E+03  0.7818609E-02  0.9540300E-01
        2   -1    0    0  501    0  0.00000000000E+00  0.00000000000E+00  0.19341146815E+04  0.19341146815E+04  0.25500000920E-02 0.  1.
       -2   -1    0    0    0  501  0.00000000000E+00  0.00000000000E+00 -0.85597008956E+02  0.85597008994E+02  0.25500000920E-02 0. -1.
    10030    2    1    2    0    0  0.00000000000E+00  0.00000000000E+00  0.18485176725E+04  0.20197116905E+04  0.81376761241E+03 0.  0.
        1    1    3    3  502    0 -0.28411086466E+03  0.74883340663E+02  0.16228581306E+04  0.16492407374E+04  0.50400001928E-02 0.  1.
       -1    1    3    3    0  502  0.28411086466E+03 -0.74883340663E+02  0.22565954196E+03  0.37047095302E+03  0.50400001928E-02 0. -1.
</event>
<event>
 5   0  0.1509629E-02  0.7939514E+03  0.7818609E-02  0.9568814E-01
        1   -1    0    0  501    0  0.00000000000E+00  0.00000000000E+00  0.54372574982E+03  0.54372574985E+03  0.50400001928E-02 0.  1.
       -1   -1    0    0    0  501  0.00000000000E+00  0.00000000000E+00 -0.28983308165E+03  0.28983308169E+03  0.50400001928E-02 0. -1.
    10030    2    1    2    0    0  0.00000000000E+00  0.00000000000E+00  0.25389266817E+03  0.83355883154E+03  0.79395140827E+03 0.  0.
        5    1    3    3  502    0  0.38529592786E+03  0.64139092921E+02  0.52701882254E+02  0.39416538871E+03  0.46999998093E+01 0.  1.
       -5    1    3    3    0  502 -0.38529592786E+03 -0.64139092921E+02  0.20119078592E+03  0.43939344283E+03  0.46999998093E+01 0. -1.
</event>
<event>
 5   0  0.1471290E-02  0.8044197E+03  0.7818609E-02  0.9553642E-01
       -1   -1    0    0    0  501  0.00000000000E+00  0.00000000000E+00  0.34781110869E+03  0.34781110873E+03  0.50400001928E-02 0.  1.
        1   -1    0    0  501    0  0.00000000000E+00  0.00000000000E+00 -0.46511674602E+03  0.46511674604E+03  0.50400001928E-02 0. -1.
    10030    2    1    2    0    0  0.00000000000E+00  0.00000000000E+00 -0.11730563732E+03  0.81292785478E+03  0.80441971913E+03 0.  0.
        2    1    3    3  502    0 -0.89431525062E+02 -0.34338824566E+03  0.13271553331E+03  0.37884943939E+03  0.25500000920E-02 0.  1.
       -2    1    3    3    0  502  0.89431525062E+02  0.34338824566E+03 -0.25002117063E+03  0.43407841539E+03  0.25500000920E-02 0. -1.
</event>
<event>
 5   0  0.2422031E-02  0.7985817E+03  0.7818609E-02  0.9562072E-01
        2   -1    0    0  501    0  0.00000000000E+00  0.00000000000E+00  0.37504074131E+03  0.37504074132E+03  0.25500000920E-02 0.  1.
       -2   -1    0    0    0  501  0.00000000000E+00  0.00000000000E+00 -0.42510894173E+03  0.42510894174E+03  0.25500000920E-02 0. -1.
    10030    2    1    2    0    0  0.00000000000E+00  0.00000000000E+00 -0.50068200416E+02  0.80014968306E+03  0.79858167435E+03 0.  0.
        4    1    3    3  502    0  0.37692412827E+03  0.47012787637E+02  0.98291118453E+02  0.39235794568E+03  0.12699999809E+01 0. -1.
       -4    1    3    3    0  502 -0.37692412827E+03 -0.47012787637E+02 -0.14835931887E+03  0.40779173737E+03  0.12699999809E+01 0.  1.
</event>
<event>
 5   0  0.2571778E-02  0.7845160E+03  0.7818609E-02  0.9582704E-01
        2   -1    0    0  501    0  0.00000000000E+00  0.00000000000E+00  0.16092107617E+04  0.16092107617E+04  0.25500000920E-02 0.  1.
       -2   -1    0    0    0  501  0.00000000000E+00  0.00000000000E+00 -0.95616034456E+02  0.95616034490E+02  0.25500000920E-02 0. -1.
    10030    2    1    2    0    0  0.00000000000E+00  0.00000000000E+00  0.15135947273E+04  0.17048267962E+04  0.78451603341E+03 0.  0.
        1    1    3    3  502    0  0.33978542974E+03  0.19578853973E+03  0.77611970936E+03  0.86956833764E+03  0.50400001928E-02 0. -1.
       -1    1    3    3    0  502 -0.33978542974E+03 -0.19578853973E+03  0.73747501790E+03  0.83525845856E+03  0.50400001928E-02 0.  1.
</event>
<event>
 5   0  0.2454354E-02  0.7680668E+03  0.7818609E-02  0.9607425E-01
        2   -1    0    0  501    0  0.00000000000E+00  0.00000000000E+00  0.55379860292E+03  0.55379860292E+03  0.25500000920E-02 0. -1.
       -2   -1    0    0    0  501  0.00000000000E+00  0.00000000000E+00 -0.26630920224E+03  0.26630920225E+03  0.25500000920E-02 0.  1.
    10030    2    1    2    0    0  0.00000000000E+00  0.00000000000E+00  0.28748940068E+03  0.82010780517E+03  0.76806683082E+03 0.  0.
        5    1    3    3  502    0 -0.19815094304E+03  0.26829506779E+03  0.34693706868E+03  0.48128313834E+03  0.46999998093E+01 0. -1.
       -5    1    3    3    0  502  0.19815094304E+03 -0.26829506779E+03 -0.59447668000E+02  0.33882466684E+03  0.46999998093E+01 0.  1.
</event>
<event>
 5   0  0.2454354E-02  0.7954306E+03  0.7818609E-02  0.9566655E-01
       -2   -1    0    0    0  501  0.00000000000E+00  0.00000000000E+00  0.59324600397E+03  0.59324600398E+03  0.25500000920E-02 0. -1.
        2   -1    0    0  501    0  0.00000000000E+00  0.00000000000E+00 -0.26663046248E+03  0.26663046249E+03  0.25500000920E-02 0.  1.
    10030    2    1    2    0    0  0.00000000000E+00  0.00000000000E+00  0.32661554149E+03  0.85987646647E+03  0.79543059134E+03 0.  0.
        5    1    3    3  502    0 -0.66125858706E+02 -0.26092007565E+03 -0.15316250796E+03  0.30973013884E+03  0.46999998093E+01 0.  1.
       -5    1    3    3    0  502  0.66125858706E+02  0.26092007565E+03  0.47977804945E+03  0.55014632762E+03  0.46999998093E+01 0. -1.
</event>
<event>
 5   0  0.2454354E-02  0.8056478E+03  0.7818609E-02  0.9551878E-01
        2   -1    0    0  501    0  0.00000000000E+00  0.00000000000E+00  0.52195153945E+03  0.52195153945E+03  0.25500000920E-02 0.  1.
       -2   -1    0    0    0  501  0.00000000000E+00  0.00000000000E+00 -0.31088537144E+03  0.31088537145E+03  0.25500000920E-02 0. -1.
    10030    2    1    2    0    0  0.00000000000E+00  0.00000000000E+00  0.21106616801E+03  0.83283691090E+03  0.80564780946E+03 0.  0.
        5    1    3    3  502    0  0.22519689103E+01 -0.21172514525E+03  0.45975197276E+03  0.50618828014E+03  0.46999998093E+01 0.  1.
       -5    1    3    3    0  502 -0.22519689103E+01  0.21172514525E+03 -0.24868580475E+03  0.32664863076E+03  0.46999998093E+01 0. -1.
</event>
<event>
 5   0  0.1509629E-02  0.7977568E+03  0.7818609E-02  0.9563270E-01
        1   -1    0    0  501    0  0.00000000000E+00  0.00000000000E+00  0.50800384088E+03  0.50800384090E+03  0.50400001928E-02 0.  1.
       -1   -1    0    0    0  501  0.00000000000E+00  0.00000000000E+00 -0.31319447242E+03  0.31319447246E+03  0.50400001928E-02 0. -1.
    10030    2    1    2    0    0  0.00000000000E+00  0.00000000000E+00  0.19480936846E+03  0.82119831336E+03  0.79775684254E+03 0.  0.
        5    1    3    3  502    0 -0.23871013357E+03 -0.13450724276E+03 -0.20095195787E+03  0.33982128479E+03  0.46999998093E+01 0. -1.
       -5    1    3    3    0  502  0.23871013357E+03  0.13450724276E+03  0.39576132633E+03  0.48137702857E+03  0.46999998093E+01 0.  1.
</event>
<event>
 5   0  0.2571778E-02  0.8008921E+03  0.7818609E-02  0.9558727E-01
        2   -1    0    0  501    0  0.00000000000E+00  0.00000000000E+00  0.10746032834E+04  0.10746032834E+04  0.25500000920E-02 0.  1.
       -2   -1    0    0    0  501  0.00000000000E+00  0.00000000000E+00 -0.14922442106E+03  0.14922442108E+03  0.25500000920E-02 0. -1.
    10030    2    1    2    0    0  0.00000000000E+00  0.00000000000E+00  0.92537886239E+03  0.12238277045E+04  0.80089213470E+03 0.  0.
        1    1    3    3  502    0 -0.15666670519E+03 -0.36818503060E+03  0.48696521932E+03  0.63026962335E+03  0.50400001928E-02 0.  1.
       -1    1    3    3    0  502  0.15666670519E+03  0.36818503060E+03  0.43841364307E+03  0.59355808118E+03  0.50400001928E-02 0. -1.
</event>
<event>
 5   0  0.9919125E-03  0.7969968E+03  0.7818609E-02  0.9564374E-01
       -4   -1    0    0    0  501  0.00000000000E+00  0.00000000000E+00  0.57065530524E+03  0.57065671844E+03  0.12699999809E+01 0. -1.
        4   -1    0    0  501    0  0.00000000000E+00  0.00000000000E+00 -0.27827503835E+03  0.27827793636E+03  0.12699999809E+01 0.  1.
    10030    2    1    2    0    0  0.00000000000E+00  0.00000000000E+00  0.29238026689E+03  0.84893465480E+03  0.79699675511E+03 0.  0.
        5    1    3    3  502    0  0.36688422921E+03 -0.12590160162E+03  0.49010842287E+02  0.39099795856E+03  0.46999998093E+01 0. -1.
       -5    1    3    3    0  502 -0.36688422921E+03  0.12590160162E+03  0.24336942461E+03  0.45793669625E+03  0.46999998093E+01 0.  1.
</event>
<event>
 5   0  0.1471290E-02  0.7945281E+03  0.7818609E-02  0.9567971E-01
        1   -1    0    0  501    0  0.00000000000E+00  0.00000000000E+00  0.21803941791E+03  0.21803941797E+03  0.50400001928E-02 0. -1.
       -1   -1    0    0    0  501  0.00000000000E+00  0.00000000000E+00 -0.72380818808E+03  0.72380818810E+03  0.50400001928E-02 0.  1.
    10030    2    1    2    0    0  0.00000000000E+00  0.00000000000E+00 -0.50576877017E+03  0.94184760607E+03  0.79452807639E+03 0.  0.
        2    1    3    3  502    0  0.22820669810E+03 -0.27951836620E+03 -0.55912690273E+02  0.36515071278E+03  0.25500000920E-02 0. -1.
       -2    1    3    3    0  502 -0.22820669810E+03  0.27951836620E+03 -0.44985607990E+03  0.57669689329E+03  0.25500000920E-02 0.  1.
</event>
<event>
 5   0  0.1624094E-02  0.7855308E+03  0.7818609E-02  0.9581200E-01
       -1   -1    0    0    0  501  0.00000000000E+00  0.00000000000E+00  0.25572863563E+03  0.25572863568E+03  0.50400001928E-02 0.  1.
        1   -1    0    0  501    0  0.00000000000E+00  0.00000000000E+00 -0.60323573236E+03  0.60323573238E+03  0.50400001928E-02 0. -1.
    10030    2    1    2    0    0  0.00000000000E+00  0.00000000000E+00 -0.34750709673E+03  0.85896436807E+03  0.78553077809E+03 0.  0.
        3    1    3    3  502    0  0.97109304985E+02 -0.32980067245E+03 -0.38141724011E+03  0.51349568831E+03  0.10100000352E+00 0. -1.
       -3    1    3    3    0  502 -0.97109304985E+02  0.32980067245E+03  0.33910143379E+02  0.34546867975E+03  0.10100000352E+00 0.  1.
</event>
<event>
 5   0  0.2571778E-02  0.7937537E+03  0.7818609E-02  0.9569103E-01
       -2   -1    0    0    0  501  0.00000000000E+00  0.00000000000E+00  0.90006850845E+02  0.90006850881E+02  0.25500000920E-02 0. -1.
        2   -1    0    0  501    0  0.00000000000E+00  0.00000000000E+00 -0.17499916744E+04  0.17499916744E+04  0.25500000920E-02 0.  1.
    10030    2    1    2    0    0  0.00000000000E+00  0.00000000000E+00 -0.16599848236E+04  0.18399985253E+04  0.79375371408E+03 0.  0.
        1    1    3    3  502    0  0.32682542326E+03 -0.81614623941E+02 -0.13164364133E+04  0.13588526905E+04  0.50400001928E-02 0. -1.
       -1    1    3    3    0  502 -0.32682542326E+03  0.81614623941E+02 -0.34354841022E+03  0.48114583477E+03  0.50400001928E-02 0.  1.
</event>
<event>
 5   0  0.1498375E-02  0.8104454E+03  0.7818609E-02  0.9545020E-01
        1   -1    0    0  501    0  0.00000000000E+00  0.00000000000E+00  0.21585056395E+04  0.21585056395E+04  0.50400001928E-02 0. -1.
       -1   -1    0    0    0  501  0.00000000000E+00  0.00000000000E+00 -0.76073665406E+02  0.76073665573E+02  0.50400001928E-02 0.  1.
    10030    2    1    2    0    0  0.00000000000E+00  0.00000000000E+00  0.20824319741E+04  0.22345793051E+04  0.81044539850E+03 0.  0.
        4    1    3    3  502    0  0.45138579675E+02 -0.20354414495E+03  0.83160624421E+02  0.22446606129E+03  0.12699999809E+01 0.  1.
       -4    1    3    3    0  502 -0.45138579675E+02  0.20354414495E+03  0.19992713497E+04  0.20101132438E+04  0.12699999809E+01 0. -1.
</event>
<event>
 5   0  0.1498375E-02  0.7741469E+03  0.7818609E-02  0.9598211E-01
       -1   -1    0    0    0  501  0.00000000000E+00  0.00000000000E+00  0.72361860462E+03  0.72361860464E+03  0.50400001928E-02 0. -1.
        1   -1    0    0  501    0  0.00000000000E+00  0.00000000000E+00 -0.20705086336E+03  0.20705086342E+03  0.50400001928E-02 0.  1.
    10030    2    1    2    0    0  0.00000000000E+00  0.00000000000E+00  0.51656774126E+03  0.93066946806E+03  0.77414690303E+03 0.  0.
        4    1    3    3  502    0 -0.20026382364E+03 -0.10877204248E+03  0.63441149698E+03  0.67410423280E+03  0.12699999809E+01 0. -1.
       -4    1    3    3    0  502  0.20026382364E+03  0.10877204248E+03 -0.11784375572E+03  0.25656523526E+03  0.12699999809E+01 0.  1.
</event>
<event>
 5   0  0.1509629E-02  0.8041367E+03  0.7818609E-02  0.9554049E-01
        1   -1    0    0  501    0  0.00000000000E+00  0.00000000000E+00  0.60929002471E+03  0.60929002473E+03  0.50400001928E-02 0.  1.
       -1   -1    0    0    0  501  0.00000000000E+00  0.00000000000E+00 -0.26532348033E+03  0.26532348037E+03  0.50400001928E-02 0. -1.
    10030    2    1    2    0    0  0.00000000000E+00  0.00000000000E+00  0.34396654438E+03  0.87461350510E+03  0.80413667971E+03 0.  0.
        5    1    3    3  502    0  0.29015268989E+03  0.17621999669E+03 -0.62289010794E+02  0.34517253881E+03  0.46999998093E+01 0. -1.
       -5    1    3    3    0  502 -0.29015268989E+03 -0.17621999669E+03  0.40625555517E+03  0.52944096629E+03  0.46999998093E+01 0.  1.
</event>
<event>
 5   0  0.2460312E-02  0.8038864E+03  0.7818609E-02  0.9554409E-01
       -2   -1    0    0    0  501  0.00000000000E+00  0.00000000000E+00  0.18121857033E+03  0.18121857035E+03  0.25500000920E-02 0. -1.
        2   -1    0    0  501    0  0.00000000000E+00  0.00000000000E+00 -0.89151096996E+03  0.89151096996E+03  0.25500000920E-02 0.  1.
    10030    2    1    2    0    0  0.00000000000E+00  0.00000000000E+00 -0.71029239963E+03  0.10727295403E+04  0.80388641840E+03 0.  0.
        2    1    3    3  502    0  0.16231704683E+03 -0.45589111427E+02  0.13175254730E+03  0.21397178435E+03  0.25500000920E-02 0. -1.
       -2    1    3    3    0  502 -0.16231704683E+03  0.45589111427E+02 -0.84204494693E+03  0.85875775596E+03  0.25500000920E-02 0.  1.
</event>
<event>
 5   0  0.2422031E-02  0.8002184E+03  0.7818609E-02  0.9559701E-01
       -2   -1    0    0    0  501  0.00000000000E+00  0.00000000000E+00  0.24377090785E+03  0.24377090786E+03  0.25500000920E-02 0. -1.
        2   -1    0    0  501    0  0.00000000000E+00  0.00000000000E+00 -0.65671235284E+03  0.65671235284E+03  0.25500000920E-02 0.  1.
    10030    2    1    2    0    0  0.00000000000E+00  0.00000000000E+00 -0.41294144499E+03  0.90048326070E+03  0.80021838633E+03 0.  0.
        4    1    3    3  502    0 -0.84827137251E+02 -0.24576227457E+03  0.13575834218E+03  0.29330305009E+03  0.12699999809E+01 0. -1.
       -4    1    3    3    0  502  0.84827137251E+02  0.24576227457E+03 -0.54869978717E+03  0.60718021061E+03  0.12699999809E+01 0.  1.
</event>
<event>
 5   0  0.2454354E-02  0.7939077E+03  0.7818609E-02  0.9568878E-01
        2   -1    0    0  501    0  0.00000000000E+00  0.00000000000E+00  0.39631927499E+03  0.39631927500E+03  0.25500000920E-02 0. -1.
       -2   -1    0    0    0  501  0.00000000000E+00  0.00000000000E+00 -0.39758940967E+03  0.39758940968E+03  0.25500000920E-02 0.  1.
    10030    2    1    2    0    0  0.00000000000E+00  0.00000000000E+00 -0.12701346792E+01  0.79390868468E+03  0.79390766866E+03 0.  0.
        5    1    3    3  502    0 -0.26683320942E+03  0.25934493961E+03 -0.13880360972E+03  0.39717539126E+03  0.46999998093E+01 0.  1.
       -5    1    3    3    0  502  0.26683320942E+03 -0.25934493961E+03  0.13753347504E+03  0.39673329342E+03  0.46999998093E+01 0. -1.
</event>
<event>
 5   0  0.2464780E-02  0.7604611E+03  0.7818609E-02  0.9619080E-01
       -2   -1    0    0    0  501  0.00000000000E+00  0.00000000000E+00  0.50631782777E+03  0.50631782778E+03  0.25500000920E-02 0.  1.
        2   -1    0    0  501    0  0.00000000000E+00  0.00000000000E+00 -0.28554252412E+03  0.28554252413E+03  0.25500000920E-02 0. -1.
    10030    2    1    2    0    0  0.00000000000E+00  0.00000000000E+00  0.22077530365E+03  0.79186035191E+03  0.76046109843E+03 0.  0.
        3    1    3    3  502    0  0.30105588329E+03 -0.21774695262E+03  0.19451252334E+03  0.41938468281E+03  0.10100000352E+00 0. -1.
       -3    1    3    3    0  502 -0.30105588329E+03  0.21774695262E+03  0.26262780309E+02  0.37247566910E+03  0.10100000352E+00 0.  1.
</event>
<event>
 5   0  0.2454354E-02  0.7991536E+03  0.7818609E-02  0.9561243E-01
        2   -1    0    0  501    0  0.00000000000E+00  0.00000000000E+00  0.19695229562E+03  0.19695229564E+03  0.25500000920E-02 0. -1.
       -2   -1    0    0    0  501  0.00000000000E+00  0.00000000000E+00 -0.81066139606E+03  0.81066139606E+03  0.25500000920E-02 0.  1.
    10030    2    1    2    0    0  0.00000000000E+00  0.00000000000E+00 -0.61370910044E+03  0.10076136917E+04  0.79915360960E+03 0.  0.
        5    1    3    3  502    0  0.34711969080E+03  0.10354751111E+03 -0.94277278703E+02  0.37433202117E+03  0.46999998093E+01 0. -1.
       -5    1    3    3    0  502 -0.34711969080E+03 -0.10354751111E+03 -0.51943182174E+03  0.63328167053E+03  0.46999998093E+01 0.  1.
</event>
<event>
 5   0  0.2460312E-02  0.7834571E+03  0.7818609E-02  0.9584276E-01
        2   -1    0    0  501    0  0.00000000000E+00  0.00000000000E+00  0.57923181131E+03  0.57923181131E+03  0.25500000920E-02 0.  1.
       -2   -1    0    0    0  501  0.00000000000E+00  0.00000000000E+00 -0.26492199044E+03  0.26492199045E+03  0.25500000920E-02 0. -1.
    10030    2    1    2    0    0  0.00000000000E+00  0.00000000000E+00  0.31430982087E+03  0.84415380177E+03  0.78345706809E+03 0.  0.
        2    1    3    3  502    0  0.14477553395E+03  0.70515275432E+02 -0.22760838100E+03  0.27881523346E+03  0.25500000920E-02 0. -1.
       -2    1    3    3    0  502 -0.14477553395E+03 -0.70515275432E+02  0.54191820187E+03  0.56533856831E+03  0.25500000920E-02 0.  1.
</event>
<event>
 5   0  0.1523811E-02  0.7906287E+03  0.7818609E-02  0.9573682E-01
        1   -1    0    0  501    0  0.00000000000E+00  0.00000000000E+00  0.28143568160E+03  0.28143568164E+03  0.50400001928E-02 0.  1.
       -1   -1    0    0    0  501  0.00000000000E+00  0.00000000000E+00 -0.55527233202E+03  0.55527233205E+03  0.50400001928E-02 0. -1.
    10030    2    1    2    0    0  0.00000000000E+00  0.00000000000E+00 -0.27383665043E+03  0.83670801369E+03  0.79062873022E+03 0.  0.
        1    1    3    3  502    0 -0.31069109174E+03 -0.10493843577E+03  0.96701833437E+02  0.34189512194E+03  0.50400001928E-02 0.  1.
       -1    1    3    3    0  502  0.31069109174E+03  0.10493843577E+03 -0.37053848387E+03  0.49481289175E+03  0.50400001928E-02 0. -1.
</event>
<event>
 5   0  0.1498375E-02  0.7549341E+03  0.7818609E-02  0.9627641E-01
       -1   -1    0    0    0  501  0.00000000000E+00  0.00000000000E+00  0.29815251894E+03  0.29815251899E+03  0.50400001928E-02 0. -1.
        1   -1    0    0  501    0  0.00000000000E+00  0.00000000000E+00 -0.47788085805E+03  0.47788085808E+03  0.50400001928E-02 0.  1.
    10030    2    1    2    0    0  0.00000000000E+00  0.00000000000E+00 -0.17972833911E+03  0.77603337706E+03  0.75493412059E+03 0.  0.
        4    1    3    3  502    0 -0.16952986870E+02 -0.27021124159E+03 -0.36023269433E+03  0.45063369360E+03  0.12699999809E+01 0.  1.
       -4    1    3    3    0  502  0.16952986870E+02  0.27021124159E+03  0.18050435522E+03  0.32539968346E+03  0.12699999809E+01 0. -1.
</event>
<event>
 5   0  0.2422031E-02  0.7899779E+03  0.7818609E-02  0.9574638E-01
        2   -1    0    0  501    0  0.00000000000E+00  0.00000000000E+00  0.93021241697E+03  0.93021241697E+03  0.25500000920E-02 0.  1.
       -2   -1    0    0    0  501  0.00000000000E+00  0.00000000000E+00 -0.16772112410E+03  0.16772112412E+03  0.25500000920E-02 0. -1.
    10030    2    1    2    0    0  0.00000000000E+00  0.00000000000E+00  0.76249129287E+03  0.10979335411E+04  0.78997790410E+03 0.  0.
        4    1    3    3  502    0  0.23843241533E+03  0.28167326330E+03  0.57693431779E+03  0.68486835515E+03  0.12699999809E+01 0.  1.
       -4    1    3    3    0  502 -0.23843241533E+03 -0.28167326330E+03  0.18555697507E+03  0.41306518594E+03  0.12699999809E+01 0. -1.
</event>
<event>
 5   0  0.2422031E-02  0.8142990E+03  0.7818609E-02  0.9539547E-01
        2   -1    0    0  501    0  0.00000000000E+00  0.00000000000E+00  0.93558441002E+03  0.93558441003E+03  0.25500000920E-02 0. -1.
       -2   -1    0    0    0  501  0.00000000000E+00  0.00000000000E+00 -0.17718415207E+03  0.17718415209E+03  0.25500000920E-02 0.  1.
    10030    2    1    2    0    0  0.00000000000E+00  0.00000000000E+00  0.75840025795E+03  0.11127685621E+04  0.81429903695E+03 0.  0.
        4    1    3    3  502    0 -0.17052469485E+03  0.36692152972E+03  0.44120888201E+03  0.59864594794E+03  0.12699999809E+01 0. -1.
       -4    1    3    3    0  502  0.17052469485E+03 -0.36692152972E+03  0.31719137595E+03  0.51412261417E+03  0.12699999809E+01 0.  1.
</event>
<event>
 5   0  0.1471290E-02  0.7992400E+03  0.7818609E-02  0.9561118E-01
       -1   -1    0    0    0  501  0.00000000000E+00  0.00000000000E+00  0.37825235192E+03  0.37825235195E+03  0.50400001928E-02 0.  1.
        1   -1    0    0  501    0  0.00000000000E+00  0.00000000000E+00 -0.42219476069E+03  0.42219476072E+03  0.50400001928E-02 0. -1.
    10030    2    1    2    0    0  0.00000000000E+00  0.00000000000E+00 -0.43942408766E+02  0.80044711267E+03  0.79924004210E+03 0.  0.
        2    1    3    3  502    0 -0.30274361996E+03  0.18324700681E+02  0.23862682450E+03  0.38591742052E+03  0.25500000920E-02 0.  1.
       -2    1    3    3    0  502  0.30274361996E+03 -0.18324700681E+02 -0.28256923327E+03  0.41452969215E+03  0.25500000920E-02 0. -1.
</event>
<event>
 5   0  0.9919125E-03  0.7933261E+03  0.7818609E-02  0.9569728E-01
        4   -1    0    0  501    0  0.00000000000E+00  0.00000000000E+00  0.10690540092E+04  0.10690547636E+04  0.12699999809E+01 0. -1.
       -4   -1    0    0    0  501  0.00000000000E+00  0.00000000000E+00 -0.14717479219E+03  0.14718027162E+03  0.12699999809E+01 0.  1.
    10030    2    1    2    0    0  0.00000000000E+00  0.00000000000E+00  0.92187921704E+03  0.12162350352E+04  0.79332614356E+03 0.  0.
        1    1    3    3  502    0 -0.37961912507E+03 -0.88223527035E+02  0.34778682923E+03  0.52235021724E+03  0.50400001928E-02 0.  1.
       -1    1    3    3    0  502  0.37961912507E+03  0.88223527035E+02  0.57409238781E+03  0.69388481796E+03  0.50400001928E-02 0. -1.
</event>
<event>
 5   0  0.2460312E-02  0.7993970E+03  0.7818609E-02  0.9560890E-01
       -2   -1    0    0    0  501  0.00000000000E+00  0.00000000000E+00  0.18574678397E+03  0.18574678399E+03  0.25500000920E-02 0.  1.
        2   -1    0    0  501    0  0.00000000000E+00  0.00000000000E+00 -0.86008964837E+03  0.86008964837E+03  0.25500000920E-02 0. -1.
    10030    2    1    2    0    0  0.00000000000E+00  0.00000000000E+00 -0.67434286440E+03  0.10458364324E+04  0.79939698804E+03 0.  0.
        2    1    3    3  502    0 -0.30434564171E+03 -0.25448676237E+03 -0.27349285568E+03  0.48185902914E+03  0.25500000920E-02 0.  1.
       -2    1    3    3    0  502  0.30434564171E+03  0.25448676237E+03 -0.40085000872E+03  0.56397740322E+03  0.25500000920E-02 0. -1.
</event>
<event>
 5   0  0.2464780E-02  0.7937623E+03  0.7818609E-02  0.9569090E-01
        2   -1    0    0  501    0  0.00000000000E+00  0.00000000000E+00  0.46801564182E+03  0.46801564183E+03  0.25500000920E-02 0.  1.
       -2   -1    0    0    0  501  0.00000000000E+00  0.00000000000E+00 -0.33655849202E+03  0.33655849203E+03  0.25500000920E-02 0. -1.
    10030    2    1    2    0    0  0.00000000000E+00  0.00000000000E+00  0.13145714980E+03  0.80457413386E+03  0.79376227842E+03 0.  0.
        3    1    3    3  502    0  0.15590920009E+03 -0.27662828000E+03 -0.17559784824E+03  0.36285740791E+03  0.10100000352E+00 0. -1.
       -3    1    3    3    0  502 -0.15590920009E+03  0.27662828000E+03  0.30705499804E+03  0.44171672596E+03  0.10100000352E+00 0.  1.
</event>
<event>
 5   0  0.9919125E-03  0.7802664E+03  0.7818609E-02  0.9589028E-01
       -3   -1    0    0    0  501  0.00000000000E+00  0.00000000000E+00  0.16700294666E+03  0.16700297720E+03  0.10100000352E+00 0.  1.
        3   -1    0    0  501    0  0.00000000000E+00  0.00000000000E+00 -0.91138450070E+03  0.91138450630E+03  0.10100000352E+00 0. -1.
    10030    2    1    2    0    0  0.00000000000E+00  0.00000000000E+00 -0.74438155404E+03  0.10783874835E+04  0.78026640743E+03 0.  0.
        3    1    3    3  502    0 -0.16185319164E+03 -0.31509670952E+03 -0.59811482603E+03  0.69514296897E+03  0.10100000352E+00 0. -1.
       -3    1    3    3    0  502  0.16185319164E+03  0.31509670952E+03 -0.14626672801E+03  0.38324451453E+03  0.10100000352E+00 0.  1.
</event>
<event>
 5   0  0.2460312E-02  0.7686992E+03  0.7818609E-02  0.9606463E-01
        2   -1    0    0  501    0  0.00000000000E+00  0.00000000000E+00  0.16668129340E+04  0.16668129340E+04  0.25500000920E-02 0. -1.
       -2   -1    0    0    0  501  0.00000000000E+00  0.00000000000E+00 -0.88626983803E+02  0.88626983840E+02  0.25500000920E-02 0.  1.
    10030    2    1    2    0    0  0.00000000000E+00  0.00000000000E+00  0.15781859502E+04  0.17554399179E+04  0.76869916857E+03 0.  0.
        2    1    3    3  502    0 -0.13400635823E+03 -0.31824194597E+03  0.11745428214E+04  0.12242493535E+04  0.25500000920E-02 0.  1.
       -2    1    3    3    0  502  0.13400635823E+03  0.31824194597E+03  0.40364312880E+03  0.53119056435E+03  0.25500000920E-02 0. -1.
</event>
<event>
 5   0  0.2571778E-02  0.7936344E+03  0.7818609E-02  0.9569277E-01
       -2   -1    0    0    0  501  0.00000000000E+00  0.00000000000E+00  0.95767988176E+02  0.95767988210E+02  0.25500000920E-02 0. -1.
        2   -1    0    0  501    0  0.00000000000E+00  0.00000000000E+00 -0.16442227012E+04  0.16442227012E+04  0.25500000920E-02 0.  1.
    10030    2    1    2    0    0  0.00000000000E+00  0.00000000000E+00 -0.15484547130E+04  0.17399906894E+04  0.79363442526E+03 0.  0.
        1    1    3    3  502    0  0.18935976220E+02  0.19170448390E+03 -0.15348302790E+04  0.15468720586E+04  0.50400001928E-02 0.  1.
       -1    1    3    3    0  502 -0.18935976220E+02 -0.19170448390E+03 -0.13624434042E+02  0.19311863082E+03  0.50400001928E-02 0. -1.
</event>
<event>
 5   0  0.1624094E-02  0.8185399E+03  0.7818609E-02  0.9533562E-01
       -1   -1    0    0    0  501  0.00000000000E+00  0.00000000000E+00  0.18430359991E+03  0.18430359998E+03  0.50400001928E-02 0.  1.
        1   -1    0    0  501    0  0.00000000000E+00  0.00000000000E+00 -0.90883682704E+03  0.90883682705E+03  0.50400001928E-02 0. -1.
    10030    2    1    2    0    0  0.00000000000E+00  0.00000000000E+00 -0.72453322713E+03  0.10931404270E+04  0.81853991718E+03 0.  0.
        3    1    3    3  502    0 -0.23405020747E+03 -0.12310904373E+03  0.54877935126E+02  0.27008690125E+03  0.10100000352E+00 0.  1.
       -3    1    3    3    0  502  0.23405020747E+03  0.12310904373E+03 -0.77941116225E+03  0.82305352578E+03  0.10100000352E+00 0. -1.
</event>
<event>
 5   0  0.2454354E-02  0.8012026E+03  0.7818609E-02  0.9558278E-01
        2   -1    0    0  501    0  0.00000000000E+00  0.00000000000E+00  0.11370159809E+04  0.11370159809E+04  0.25500000920E-02 0.  1.
       -2   -1    0    0    0  501  0.00000000000E+00  0.00000000000E+00 -0.14114262020E+03  0.14114262022E+03  0.25500000920E-02 0. -1.
    10030    2    1    2    0    0  0.00000000000E+00  0.00000000000E+00  0.99587336068E+03  0.12781586011E+04  0.80120263296E+03 0.  0.
        5    1    3    3  502    0 -0.13481546799E+03 -0.33768331755E+03  0.76608992233E+03  0.84801007803E+03  0.46999998093E+01 0.  1.
       -5    1    3    3    0  502  0.13481546799E+03  0.33768331755E+03  0.22978343835E+03  0.43014852307E+03  0.46999998093E+01 0. -1.
</event>
<event>
 5   0  0.2422031E-02  0.7977327E+03  0.7818609E-02  0.9563305E-01
       -2   -1    0    0    0  501  0.00000000000E+00  0.00000000000E+00  0.70106296039E+02  0.70106296086E+02  0.25500000920E-02 0. -1.
        2   -1    0    0  501    0  0.00000000000E+00  0.00000000000E+00 -0.22693307305E+04  0.22693307305E+04  0.25500000920E-02 0.  1.
    10030    2    1    2    0    0  0.00000000000E+00  0.00000000000E+00 -0.21992244345E+04  0.23394370266E+04  0.79773271730E+03 0.  0.
        4    1    3    3  502    0 -0.25921422728E+03 -0.18102541077E+03 -0.38649668940E+03  0.49934308725E+03  0.12699999809E+01 0. -1.
       -4    1    3    3    0  502  0.25921422728E+03  0.18102541077E+03 -0.18127277451E+04  0.18400939394E+04  0.12699999809E+01 0.  1.
</event>
<event>
 5   0  0.2460312E-02  0.8035506E+03  0.7818609E-02  0.9554892E-01
        2   -1    0    0  501    0  0.00000000000E+00  0.00000000000E+00  0.20278550074E+04  0.20278550074E+04  0.25500000920E-02 0.  1.
       -2   -1    0    0    0  501  0.00000000000E+00  0.00000000000E+00 -0.79603027453E+02  0.79603027494E+02  0.25500000920E-02 0. -1.
    10030    2    1    2    0    0  0.00000000000E+00  0.00000000000E+00  0.19482519800E+04  0.21074580349E+04  0.80355061538E+03 0.  0.
        2    1    3    3  502    0 -0.32652470856E+02  0.36920405093E+03  0.56743612359E+03  0.67776217764E+03  0.25500000920E-02 0. -1.
       -2    1    3    3    0  502  0.32652470856E+02 -0.36920405093E+03  0.13808158564E+04  0.14296958573E+04  0.25500000920E-02 0.  1.
</event>
<event>
 5   0  0.1624094E-02  0.7744107E+03  0.7818609E-02  0.9597813E-01
        1   -1    0    0  501    0  0.00000000000E+00  0.00000000000E+00  0.38957365915E+03  0.38957365918E+03  0.50400001928E-02 0.  1.
       -1   -1    0    0    0  501  0.00000000000E+00  0.00000000000E+00 -0.38485139917E+03  0.38485139920E+03  0.50400001928E-02 0. -1.
    10030    2    1    2    0    0  0.00000000000E+00  0.00000000000E+00  0.47222599792E+01  0.77442505838E+03  0.77441066063E+03 0.  0.
        3    1    3    3  502    0  0.13449366288E+03  0.21303977728E+03 -0.29167403841E+03  0.38541957260E+03  0.10100000352E+00 0. -1.
       -3    1    3    3    0  502 -0.13449366288E+03 -0.21303977728E+03  0.29639629839E+03  0.38900548577E+03  0.10100000352E+00 0.  1.
</event>
<event>
 5   0  0.1509629E-02  0.7874423E+03  0.7818609E-02  0.9578374E-01
        1   -1    0    0  501    0  0.00000000000E+00  0.00000000000E+00  0.16640981432E+04  0.16640981432E+04  0.50400001928E-02 0. -1.
       -1   -1    0    0    0  501  0.00000000000E+00  0.00000000000E+00 -0.93153358834E+02  0.93153358970E+02  0.50400001928E-02 0.  1.
    10030    2    1    2    0    0  0.00000000000E+00  0.00000000000E+00  0.15709447844E+04  0.17572515022E+04  0.78744226860E+03 0.  0.
        5    1    3    3  502    0 -0.23243262169E+03  0.20243481340E+03  0.13320510776E+04  0.13672552581E+04  0.46999998093E+01 0. -1.
       -5    1    3    3    0  502  0.23243262169E+03 -0.20243481340E+03  0.23889370673E+03  0.38999624410E+03  0.46999998093E+01 0.  1.
</event>
<event>
 5   0  0.2571778E-02  0.7689549E+03  0.7818609E-02  0.9606074E-01
        2   -1    0    0  501    0  0.00000000000E+00  0.00000000000E+00  0.91422351669E+03  0.91422351669E+03  0.25500000920E-02 0. -1.
       -2   -1    0    0    0  501  0.00000000000E+00  0.00000000000E+00 -0.16169230726E+03  0.16169230728E+03  0.25500000920E-02 0.  1.
    10030    2    1    2    0    0  0.00000000000E+00  0.00000000000E+00  0.75253120942E+03  0.10759158240E+04  0.76895490058E+03 0.  0.
        1    1    3    3  502    0  0.25219620410E+03 -0.19306924705E+03  0.67942332283E+03  0.74999647409E+03  0.50400001928E-02 0. -1.
       -1    1    3    3    0  502 -0.25219620410E+03  0.19306924705E+03  0.73107886588E+02  0.32591934988E+03  0.50400001928E-02 0.  1.
</event>
<event>
 5   0  0.2454354E-02  0.8024135E+03  0.7818609E-02  0.9556530E-01
        2   -1    0    0  501    0  0.00000000000E+00  0.00000000000E+00  0.30496571687E+03  0.30496571688E+03  0.25500000920E-02 0.  1.
       -2   -1    0    0    0  501  0.00000000000E+00  0.00000000000E+00 -0.52781946146E+03  0.52781946147E+03  0.25500000920E-02 0. -1.
    10030    2    1    2    0    0  0.00000000000E+00  0.00000000000E+00 -0.22285374459E+03  0.83278517835E+03  0.80241346064E+03 0.  0.
        5    1    3    3  502    0 -0.27713479343E+03 -0.22085475172E+03  0.83744860475E+02  0.36416453251E+03  0.46999998093E+01 0.  1.
       -5    1    3    3    0  502  0.27713479343E+03  0.22085475172E+03 -0.30659860507E+03  0.46862064584E+03  0.46999998093E+01 0. -1.
</event>
<event>
 5   0  0.2454354E-02  0.7645857E+03  0.7818609E-02  0.9612742E-01
        2   -1    0    0  501    0  0.00000000000E+00  0.00000000000E+00  0.13648347112E+04  0.13648347112E+04  0.25500000920E-02 0.  1.
       -2   -1    0    0    0  501  0.00000000000E+00  0.00000000000E+00 -0.10708096231E+03  0.10708096234E+03  0.25500000920E-02 0. -1.
    10030    2    1    2    0    0  0.00000000000E+00  0.00000000000E+00  0.12577537489E+04  0.14719156736E+04  0.76458567680E+03 0.  0.
        5    1    3    3  502    0  0.30355426807E+03 -0.22408149445E+03  0.51070529147E+03  0.63498007414E+03  0.46999998093E+01 0. -1.
       -5    1    3    3    0  502 -0.30355426807E+03  0.22408149445E+03  0.74704845746E+03  0.83693559944E+03  0.46999998093E+01 0.  1.
</event>
<event>
 5   0  0.1498375E-02  0.7897666E+03  0.7818609E-02  0.9574949E-01
        1   -1    0    0  501    0  0.00000000000E+00  0.00000000000E+00  0.47207684902E+03  0.47207684904E+03  0.50400001928E-02 0. -1.
       -1   -1    0    0    0  501  0.00000000000E+00  0.00000000000E+00 -0.33031238081E+03  0.33031238085E+03  0.50400001928E-02 0.  1.
    10030    2    1    2    0    0  0.00000000000E+00  0.00000000000E+00  0.14176446821E+03  0.80238922990E+03  0.78976661857E+03 0.  0.
        4    1    3    3  502    0 -0.23201669852E+03 -0.27730091810E+03 -0.90411756901E+02  0.37269752649E+03  0.12699999809E+01 0.  1.
       -4    1    3    3    0  502  0.23201669852E+03  0.27730091810E+03  0.23217622511E+03  0.42969170340E+03  0.12699999809E+01 0. -1.
</event>
<event>
 5   0  0.1498375E-02  0.8210864E+03  0.7818609E-02  0.9529987E-01
       -1   -1    0    0    0  501  0.00000000000E+00  0.00000000000E+00  0.56245912188E+03  0.56245912191E+03  0.50400001928E-02 0. -1.
        1   -1    0    0  501    0  0.00000000000E+00  0.00000000000E+00 -0.29965864194E+03  0.29965864198E+03  0.50400001928E-02 0.  1.
    10030    2    1    2    0    0  0.00000000000E+00  0.00000000000E+00  0.26280047995E+03  0.86211776389E+03  0.82108644280E+03 0.  0.
        4    1    3    3  502    0  0.94252590099E+02  0.80864147650E+02  0.54226215741E+03  0.55630245494E+03  0.12699999809E+01 0. -1.
       -4    1    3    3    0  502 -0.94252590099E+02 -0.80864147650E+02 -0.27946167746E+03  0.30581530895E+03  0.12699999809E+01 0.  1.
</event>
<event>
 5   0  0.1471290E-02  0.7827584E+03  0.7818609E-02  0.9585314E-01
        1   -1    0    0  501    0  0.00000000000E+00  0.00000000000E+00  0.10505934100E+04  0.10505934101E+04  0.50400001928E-02 0.  1.
       -1   -1    0    0    0  501  0.00000000000E+00  0.00000000000E+00 -0.14580109976E+03  0.14580109984E+03  0.50400001928E-02 0. -1.
    10030    2    1    2    0    0  0.00000000000E+00  0.00000000000E+00  0.90479231029E+03  0.11963945099E+04  0.78275839093E+03 0.  0.
        2    1    3    3  502    0 -0.22576338741E+03 -0.30556365593E+03  0.59609674720E+03  0.70687310527E+03  0.25500000920E-02 0.  1.
       -2    1    3    3    0  502  0.22576338741E+03  0.30556365593E+03  0.30869556308E+03  0.48952140463E+03  0.25500000920E-02 0. -1.
</event>
<event>
 5   0  0.2571778E-02  0.7929183E+03  0.7818609E-02  0.9570324E-01
       -2   -1    0    0    0  501  0.00000000000E+00  0.00000000000E+00  0.55188170353E+03  0.55188170353E+03  0.25500000920E-02 0.  1.
        2   -1    0    0  501    0  0.00000000000E+00  0.00000000000E+00 -0.28480716206E+03  0.28480716207E+03  0.25500000920E-02 0. -1.
    10030    2    1    2    0    0  0.00000000000E+00  0.00000000000E+00  0.26707454147E+03  0.83668886561E+03  0.79291831051E+03 0.  0.
        1    1    3    3  502    0  0.23007995479E+03 -0.11142854387E+03  0.45329434619E+03  0.52041221190E+03  0.50400001928E-02 0.  1.
       -1    1    3    3    0  502 -0.23007995479E+03  0.11142854387E+03 -0.18621980472E+03  0.31627665371E+03  0.50400001928E-02 0. -1.
</event>
<event>
 5   0  0.2454354E-02  0.8124194E+03  0.7818609E-02  0.9542213E-01
       -2   -1    0    0    0  501  0.00000000000E+00  0.00000000000E+00  0.85694864086E+02  0.85694864124E+02  0.25500000920E-02 0. -1.
        2   -1    0    0  501    0  0.00000000000E+00  0.00000000000E+00 -0.19255098465E+04  0.19255098465E+04  0.25500000920E-02 0.  1.
    10030    2    1    2    0    0  0.00000000000E+00  0.00000000000E+00 -0.18398149824E+04  0.20112047106E+04  0.81241936124E+03 0.  0.
        5    1    3    3  502    0 -0.21964288754E+03 -0.25447595086E+03 -0.14843341881E+04  0.15219300508E+04  0.46999998093E+01 0.  1.
       -5    1    3    3    0  502  0.21964288754E+03  0.25447595086E+03 -0.35548079433E+03  0.48927465983E+03  0.46999998093E+01 0. -1.
</event>
<event>
 5   0  0.2464780E-02  0.8276660E+03  0.7818609E-02  0.9520813E-01
        2   -1    0    0  501    0  0.00000000000E+00  0.00000000000E+00  0.23273366913E+04  0.23273366913E+04  0.25500000920E-02 0. -1.
       -2   -1    0    0    0  501  0.00000000000E+00  0.00000000000E+00 -0.73585297933E+02  0.73585297978E+02  0.25500000920E-02 0.  1.
    10030    2    1    2    0    0  0.00000000000E+00  0.00000000000E+00  0.22537513933E+04  0.24009219893E+04  0.82766602896E+03 0.  0.
        3    1    3    3  502    0  0.26118209317E+03 -0.13958216147E+03  0.28834646774E+03  0.41333153914E+03  0.10100000352E+00 0.  1.
       -3    1    3    3    0  502 -0.26118209317E+03  0.13958216147E+03  0.19654049256E+04  0.19875904501E+04  0.10100000352E+00 0. -1.
</event>
<event>
 5   0  0.1498375E-02  0.7850690E+03  0.7818609E-02  0.9581884E-01
        1   -1    0    0  501    0  0.00000000000E+00  0.00000000000E+00  0.20967704589E+03  0.20967704595E+03  0.50400001928E-02 0. -1.
       -1   -1    0    0    0  501  0.00000000000E+00  0.00000000000E+00 -0.73486029733E+03  0.73486029734E+03  0.50400001928E-02 0.  1.
    10030    2    1    2    0    0  0.00000000000E+00  0.00000000000E+00 -0.52518325144E+03  0.94453734329E+03  0.78506900670E+03 0.  0.
        4    1    3    3  502    0 -0.11888636943E+03  0.28564245356E+03 -0.55323109481E+03  0.63387052091E+03  0.12699999809E+01 0.  1.
       -4    1    3    3    0  502  0.11888636943E+03 -0.28564245356E+03  0.28047843375E+02  0.31066682238E+03  0.12699999809E+01 0. -1.
</event>
<event>
 5   0  0.2571778E-02  0.7962739E+03  0.7818609E-02  0.9565426E-01
       -2   -1    0    0    0  501  0.00000000000E+00  0.00000000000E+00  0.55390789406E+03  0.55390789407E+03  0.25500000920E-02 0. -1.
        2   -1    0    0  501    0  0.00000000000E+00  0.00000000000E+00 -0.28617220164E+03  0.28617220165E+03  0.25500000920E-02 0.  1.
    10030    2    1    2    0    0  0.00000000000E+00  0.00000000000E+00  0.26773569242E+03  0.84008009572E+03  0.79627392663E+03 0.  0.
        1    1    3    3  502    0  0.27265089693E+03 -0.13414768550E+03  0.40527298413E+03  0.50653756506E+03  0.50400001928E-02 0. -1.
       -1    1    3    3    0  502 -0.27265089693E+03  0.13414768550E+03 -0.13753729171E+03  0.33354253066E+03  0.50400001928E-02 0.  1.
</event>
<event>
 5   0  0.1498375E-02  0.7997951E+03  0.7818609E-02  0.9560314E-01
       -1   -1    0    0    0  501  0.00000000000E+00  0.00000000000E+00  0.28554151772E+03  0.28554151776E+03  0.50400001928E-02 0.  1.
        1   -1    0    0  501    0  0.00000000000E+00  0.00000000000E+00 -0.56005177223E+03  0.56005177225E+03  0.50400001928E-02 0. -1.
    10030    2    1    2    0    0  0.00000000000E+00  0.00000000000E+00 -0.27451025451E+03  0.84559329002E+03  0.79979505643E+03 0.  0.
        4    1    3    3  502    0 -0.17574346471E+03 -0.29378908455E+03 -0.35577526400E+03  0.49373620787E+03  0.12699999809E+01 0. -1.
       -4    1    3    3    0  502  0.17574346471E+03  0.29378908455E+03  0.81265009482E+02  0.35185708215E+03  0.12699999809E+01 0.  1.
</event>
<event>
 5   0  0.2464780E-02  0.8031372E+03  0.7818609E-02  0.9555487E-01
        2   -1    0    0  501    0  0.00000000000E+00  0.00000000000E+00  0.36150151912E+03  0.36150151913E+03  0.25500000920E-02 0. -1.
       -2   -1    0    0    0  501  0.00000000000E+00  0.00000000000E+00 -0.44607652951E+03  0.44607652952E+03  0.25500000920E-02 0.  1.
    10030    2    1    2    0    0  0.00000000000E+00  0.00000000000E+00 -0.84575010395E+02  0.80757804865E+03  0.80313720638E+03 0.  0.
        3    1    3    3  502    0 -0.33461930582E+03  0.15987618861E+02  0.18036778078E+03  0.38047106372E+03  0.10100000352E+00 0. -1.
       -3    1    3    3    0  502  0.33461930582E+03 -0.15987618861E+02 -0.26494279118E+03  0.42710698493E+03  0.10100000352E+00 0.  1.
</event>
<event>
 5   0  0.2422031E-02  0.8026121E+03  0.7818609E-02  0.9556244E-01
       -2   -1    0    0    0  501  0.00000000000E+00  0.00000000000E+00  0.18204392190E+03  0.18204392192E+03  0.25500000920E-02 0. -1.
        2   -1    0    0  501    0  0.00000000000E+00  0.00000000000E+00 -0.88465760748E+03  0.88465760748E+03  0.25500000920E-02 0.  1.
    10030    2    1    2    0    0  0.00000000000E+00  0.00000000000E+00 -0.70261368558E+03  0.10667015294E+04  0.80261208666E+03 0.  0.
        4    1    3    3  502    0 -0.26956742092E+03 -0.14276988075E+03 -0.47487760686E+01  0.30508031245E+03  0.12699999809E+01 0. -1.
       -4    1    3    3    0  502  0.26956742092E+03  0.14276988075E+03 -0.69786490951E+03  0.76162121695E+03  0.12699999809E+01 0.  1.
</event>
<event>
 5   0  0.1523811E-02  0.7749069E+03  0.7818609E-02  0.9597066E-01
        1   -1    0    0  501    0  0.00000000000E+00  0.00000000000E+00  0.66015270388E+03  0.66015270390E+03  0.50400001928E-02 0.  1.
       -1   -1    0    0    0  501  0.00000000000E+00  0.00000000000E+00 -0.22740219240E+03  0.22740219245E+03  0.50400001928E-02 0. -1.
    10030    2    1    2    0    0  0.00000000000E+00  0.00000000000E+00  0.43275051148E+03  0.88755489635E+03  0.77490689043E+03 0.  0.
        1    1    3    3  502    0  0.23035874792E+03 -0.65686365999E+02  0.56517808453E+03  0.61384535404E+03  0.50400001928E-02 0.  1.
       -1    1    3    3    0  502 -0.23035874792E+03  0.65686365999E+02 -0.13242757305E+03  0.27370954231E+03  0.50400001928E-02 0. -1.
</event>
<event>
 5   0  0.2571778E-02  0.7968795E+03  0.7818609E-02  0.9564545E-01
        2   -1    0    0  501    0  0.00000000000E+00  0.00000000000E+00  0.15438602123E+04  0.15438602123E+04  0.25500000920E-02 0. -1.
       -2   -1    0    0    0  501  0.00000000000E+00  0.00000000000E+00 -0.10282941120E+03  0.10282941123E+03  0.25500000920E-02 0.  1.
    10030    2    1    2    0    0  0.00000000000E+00  0.00000000000E+00  0.14410308011E+04  0.16466896235E+04  0.79687950566E+03 0.  0.
        1    1    3    3  502    0  0.98430590226E+02 -0.47929374698E+02 -0.71138610014E+02  0.13056227599E+03  0.50400001928E-02 0.  1.
       -1    1    3    3    0  502 -0.98430590226E+02  0.47929374698E+02  0.15121694111E+04  0.15161273475E+04  0.50400001928E-02 0. -1.
</event>
<event>
 5   0  0.1624094E-02  0.7965040E+03  0.7818609E-02  0.9565091E-01
       -1   -1    0    0    0  501  0.00000000000E+00  0.00000000000E+00  0.20936826023E+03  0.20936826029E+03  0.50400001928E-02 0. -1.
        1   -1    0    0  501    0  0.00000000000E+00  0.00000000000E+00 -0.75753922327E+03  0.75753922329E+03  0.50400001928E-02 0.  1.
    10030    2    1    2    0    0  0.00000000000E+00  0.00000000000E+00 -0.54817096304E+03  0.96690748358E+03  0.79650403457E+03 0.  0.
        3    1    3    3  502    0  0.84476317516E+02 -0.38543373660E+03 -0.20860872917E+03  0.44633286414E+03  0.10100000352E+00 0.  1.
       -3    1    3    3    0  502 -0.84476317516E+02  0.38543373660E+03 -0.33956223387E+03  0.52057461944E+03  0.10100000352E+00 0. -1.
</event>
<event>
 5   0  0.1509629E-02  0.8007246E+03  0.7818609E-02  0.9558969E-01
       -1   -1    0    0    0  501  0.00000000000E+00  0.00000000000E+00  0.60966728353E+03  0.60966728355E+03  0.50400001928E-02 0.  1.
        1   -1    0    0  501    0  0.00000000000E+00  0.00000000000E+00 -0.26291387957E+03  0.26291387962E+03  0.50400001928E-02 0. -1.
    10030    2    1    2    0    0  0.00000000000E+00  0.00000000000E+00  0.34675340395E+03  0.87258116317E+03  0.80072464878E+03 0.  0.
        5    1    3    3  502    0  0.30604275674E+03 -0.11728738271E+03  0.42389685790E+03  0.53584431996E+03  0.46999998093E+01 0.  1.
       -5    1    3    3    0  502 -0.30604275674E+03  0.11728738271E+03 -0.77143453943E+02  0.33673684322E+03  0.46999998093E+01 0. -1.
</event>
<event>
 5   0  0.1498375E-02  0.7955201E+03  0.7818609E-02  0.9566524E-01
        1   -1    0    0  501    0  0.00000000000E+00  0.00000000000E+00  0.22810793210E+03  0.22810793215E+03  0.50400001928E-02 0.  1.
       -1   -1    0    0    0  501  0.00000000000E+00  0.00000000000E+00 -0.69358850404E+03  0.69358850405E+03  0.50400001928E-02 0. -1.
    10030    2    1    2    0    0  0.00000000000E+00  0.00000000000E+00 -0.46548057194E+03  0.92169643621E+03  0.79552005484E+03 0.  0.
        4    1    3    3  502    0  0.19379823928E+03 -0.24524767106E+03 -0.51773741099E+03  0.60477914757E+03  0.12699999809E+01 0.  1.
       -4    1    3    3    0  502 -0.19379823928E+03  0.24524767106E+03  0.52256839046E+02  0.31691728863E+03  0.12699999809E+01 0. -1.
</event>
<event>
 5   0  0.1624094E-02  0.8204307E+03  0.7818609E-02  0.9530906E-01
        1   -1    0    0  501    0  0.00000000000E+00  0.00000000000E+00  0.17506535471E+03  0.17506535478E+03  0.50400001928E-02 0. -1.
       -1   -1    0    0    0  501  0.00000000000E+00  0.00000000000E+00 -0.96122168407E+03  0.96122168408E+03  0.50400001928E-02 0.  1.
    10030    2    1    2    0    0  0.00000000000E+00  0.00000000000E+00 -0.78615632936E+03  0.11362870389E+04  0.82043065550E+03 0.  0.
        3    1    3    3  502    0  0.90379862602E+02  0.72485316995E+02 -0.93809176168E+03  0.94521891871E+03  0.10100000352E+00 0.  1.
       -3    1    3    3    0  502 -0.90379862602E+02 -0.72485316995E+02  0.15193543232E+03  0.19106812015E+03  0.10100000352E+00 0. -1.
</event>
<event>
 5   0  0.1624094E-02  0.8018194E+03  0.7818609E-02  0.9557387E-01
        1   -1    0    0  501    0  0.00000000000E+00  0.00000000000E+00  0.40135341598E+03  0.40135341601E+03  0.50400001928E-02 0. -1.
       -1   -1    0    0    0  501  0.00000000000E+00  0.00000000000E+00 -0.40046647990E+03  0.40046647993E+03  0.50400001928E-02 0.  1.
    10030    2    1    2    0    0  0.00000000000E+00  0.00000000000E+00  0.88693608075E+00  0.80181989594E+03  0.80181940540E+03 0.  0.
        3    1    3    3  502    0 -0.21598079739E+03 -0.21256843296E+03 -0.26203628410E+03  0.40061960501E+03  0.10100000352E+00 0.  1.
       -3    1    3    3    0  502  0.21598079739E+03  0.21256843296E+03  0.26292322018E+03  0.40120029093E+03  0.10100000352E+00 0. -1.
</event>
<event>
 5   0  0.1498375E-02  0.8023451E+03  0.7818609E-02  0.9556629E-01
        1   -1    0    0  501    0  0.00000000000E+00  0.00000000000E+00  0.20497633389E+04  0.20497633390E+04  0.50400001928E-02 0. -1.
       -1   -1    0    0    0  501  0.00000000000E+00  0.00000000000E+00 -0.78516090671E+02  0.78516090833E+02  0.50400001928E-02 0.  1.
    10030    2    1    2    0    0  0.00000000000E+00  0.00000000000E+00  0.19712472483E+04  0.21282794298E+04  0.80234507378E+03 0.  0.
        4    1    3    3  502    0  0.30557769078E+03 -0.25382885604E+03  0.83719848025E+03  0.92666591687E+03  0.12699999809E+01 0.  1.
       -4    1    3    3    0  502 -0.30557769078E+03  0.25382885604E+03  0.11340487680E+04  0.12016135129E+04  0.12699999809E+01 0. -1.
</event>
<event>
 5   0  0.1624094E-02  0.8011713E+03  0.7818609E-02  0.9558323E-01
        1   -1    0    0  501    0  0.00000000000E+00  0.00000000000E+00  0.57457264931E+03  0.57457264933E+03  0.50400001928E-02 0.  1.
       -1   -1    0    0    0  501  0.00000000000E+00  0.00000000000E+00 -0.27928387575E+03  0.27928387579E+03  0.50400001928E-02 0. -1.
    10030    2    1    2    0    0  0.00000000000E+00  0.00000000000E+00  0.29528877356E+03  0.85385652512E+03  0.80117133355E+03 0.  0.
        3    1    3    3  502    0  0.12862493731E+02  0.95151710944E+02 -0.26683847770E+03  0.28358786155E+03  0.10100000352E+00 0. -1.
       -3    1    3    3    0  502 -0.12862493731E+02 -0.95151710944E+02  0.56212725126E+03  0.57026866357E+03  0.10100000352E+00 0.  1.
</event>
<event>
 5   0  0.1523811E-02  0.8047193E+03  0.7818609E-02  0.9553211E-01
       -1   -1    0    0    0  501  0.00000000000E+00  0.00000000000E+00  0.94057657436E+02  0.94057657571E+02  0.50400001928E-02 0. -1.
        1   -1    0    0  501    0  0.00000000000E+00  0.00000000000E+00 -0.17212131064E+04  0.17212131064E+04  0.50400001928E-02 0.  1.
    10030    2    1    2    0    0  0.00000000000E+00  0.00000000000E+00 -0.16271554489E+04  0.18152707640E+04  0.80471926251E+03 0.  0.
        1    1    3    3  502    0 -0.45369493798E+01 -0.28196900754E+03 -0.14609758624E+04  0.14879440768E+04  0.50400001928E-02 0.  1.
       -1    1    3    3    0  502  0.45369493798E+01  0.28196900754E+03 -0.16617958656E+03  0.32732668718E+03  0.50400001928E-02 0. -1.
</event>
<event>
 5   0  0.1509629E-02  0.8062621E+03  0.7818609E-02  0.9550997E-01
       -1   -1    0    0    0  501  0.00000000000E+00  0.00000000000E+00  0.30817756735E+03  0.30817756739E+03  0.50400001928E-02 0. -1.
        1   -1    0    0  501    0  0.00000000000E+00  0.00000000000E+00 -0.52734094220E+03  0.52734094222E+03  0.50400001928E-02 0.  1.
    10030    2    1    2    0    0  0.00000000000E+00  0.00000000000E+00 -0.21916337485E+03  0.83551850961E+03  0.80626211311E+03 0.  0.
        5    1    3    3  502    0  0.16566843986E+03  0.16746868939E+03  0.22939767936E+03  0.32884217975E+03  0.46999998093E+01 0. -1.
       -5    1    3    3    0  502 -0.16566843986E+03 -0.16746868939E+03 -0.44856105421E+03  0.50667632986E+03  0.46999998093E+01 0.  1.
</event>
<event>
 5   0  0.2464780E-02  0.8010651E+03  0.7818609E-02  0.9558477E-01
       -2   -1    0    0    0  501  0.00000000000E+00  0.00000000000E+00  0.16179605390E+03  0.16179605392E+03  0.25500000920E-02 0. -1.
        2   -1    0    0  501    0  0.00000000000E+00  0.00000000000E+00 -0.99153417505E+03  0.99153417506E+03  0.25500000920E-02 0.  1.
    10030    2    1    2    0    0  0.00000000000E+00  0.00000000000E+00 -0.82973812115E+03  0.11533302290E+04  0.80106508311E+03 0.  0.
        3    1    3    3  502    0  0.31120380426E+03  0.16276178437E+03 -0.13760261624E+03  0.37719185626E+03  0.10100000352E+00 0. -1.
       -3    1    3    3    0  502 -0.31120380426E+03 -0.16276178437E+03 -0.69213550491E+03  0.77613837271E+03  0.10100000352E+00 0.  1.
</event>
<event>
 5   0  0.2460312E-02  0.8113667E+03  0.7818609E-02  0.9543709E-01
        2   -1    0    0  501    0  0.00000000000E+00  0.00000000000E+00  0.45386878958E+03  0.45386878959E+03  0.25500000920E-02 0.  1.
       -2   -1    0    0    0  501  0.00000000000E+00  0.00000000000E+00 -0.36261354614E+03  0.36261354615E+03  0.25500000920E-02 0. -1.
    10030    2    1    2    0    0  0.00000000000E+00  0.00000000000E+00  0.91255243443E+02  0.81648233574E+03  0.81136667735E+03 0.  0.
        2    1    3    3  502    0  0.17064169484E+03 -0.33969262092E+03  0.18818700546E+03  0.42417450861E+03  0.25500000920E-02 0.  1.
       -2    1    3    3    0  502 -0.17064169484E+03  0.33969262092E+03 -0.96931762018E+02  0.39230782712E+03  0.25500000920E-02 0. -1.
</event>
<event>
 5   0  0.1509629E-02  0.8225848E+03  0.7818609E-02  0.9527890E-01
        1   -1    0    0  501    0  0.00000000000E+00  0.00000000000E+00  0.12000144114E+04  0.12000144114E+04  0.50400001928E-02 0. -1.
       -1   -1    0    0    0  501  0.00000000000E+00  0.00000000000E+00 -0.14096615665E+03  0.14096615674E+03  0.50400001928E-02 0.  1.
    10030    2    1    2    0    0  0.00000000000E+00  0.00000000000E+00  0.10590482547E+04  0.13409805681E+04  0.82258475447E+03 0.  0.
        5    1    3    3  502    0  0.26679350401E+03  0.22745338707E+03  0.88001982867E+03  0.94729657759E+03  0.46999998093E+01 0. -1.
       -5    1    3    3    0  502 -0.26679350401E+03 -0.22745338707E+03  0.17902842606E+03  0.39368399054E+03  0.46999998093E+01 0.  1.
</event>
<event>
 5   0  0.2464780E-02  0.7723234E+03  0.7818609E-02  0.9600965E-01
       -2   -1    0    0    0  501  0.00000000000E+00  0.00000000000E+00  0.13398956288E+03  0.13398956290E+03  0.25500000920E-02 0.  1.
        2   -1    0    0  501    0  0.00000000000E+00  0.00000000000E+00 -0.11129288230E+04  0.11129288230E+04  0.25500000920E-02 0. -1.
    10030    2    1    2    0    0  0.00000000000E+00  0.00000000000E+00 -0.97893926017E+03  0.12469183859E+04  0.77232336888E+03 0.  0.
        3    1    3    3  502    0 -0.77392420370E+02 -0.27496186143E+02  0.11972496380E+03  0.14518851243E+03  0.10100000352E+00 0.  1.
       -3    1    3    3    0  502  0.77392420370E+02  0.27496186143E+02 -0.10986642240E+04  0.11017298735E+04  0.10100000352E+00 0. -1.
</event>
<event>
 5   0  0.2571778E-02  0.8094105E+03  0.7818609E-02  0.9546495E-01
        2   -1    0    0  501    0  0.00000000000E+00  0.00000000000E+00  0.13591626365E+03  0.13591626367E+03  0.25500000920E-02 0.  1.
       -2   -1    0    0    0  501  0.00000000000E+00  0.00000000000E+00 -0.12050533591E+04  0.12050533592E+04  0.25500000920E-02 0. -1.
    10030    2    1    2    0    0  0.00000000000E+00  0.00000000000E+00 -0.10691370955E+04  0.13409696228E+04  0.80941052647E+03 0.  0.
        1    1    3    3  502    0 -0.66014254406E+02  0.15574249110E+03  0.74539949250E+02  0.18485077597E+03  0.50400001928E-02 0.  1.
       -1    1    3    3    0  502  0.66014254406E+02 -0.15574249110E+03 -0.11436770448E+04  0.11561188468E+04  0.50400001928E-02 0. -1.
</event>
<event>
 5   0  0.2422031E-02  0.7923214E+03  0.7818609E-02  0.9571199E-01
        2   -1    0    0  501    0  0.00000000000E+00  0.00000000000E+00  0.92979994172E+03  0.92979994172E+03  0.25500000920E-02 0. -1.
       -2   -1    0    0    0  501  0.00000000000E+00  0.00000000000E+00 -0.16879255760E+03  0.16879255762E+03  0.25500000920E-02 0.  1.
    10030    2    1    2    0    0  0.00000000000E+00  0.00000000000E+00  0.76100738412E+03  0.10985924993E+04  0.79232142527E+03 0.  0.
        4    1    3    3  502    0  0.90985647187E+02 -0.35918731739E+03  0.18615036613E+03  0.41466551421E+03  0.12699999809E+01 0.  1.
       -4    1    3    3    0  502 -0.90985647187E+02  0.35918731739E+03  0.57485701798E+03  0.68392698513E+03  0.12699999809E+01 0. -1.
</event>
<event>
 5   0  0.2460312E-02  0.7953216E+03  0.7818609E-02  0.9566814E-01
       -2   -1    0    0    0  501  0.00000000000E+00  0.00000000000E+00  0.25804119297E+03  0.25804119298E+03  0.25500000920E-02 0. -1.
        2   -1    0    0  501    0  0.00000000000E+00  0.00000000000E+00 -0.61282511903E+03  0.61282511903E+03  0.25500000920E-02 0.  1.
    10030    2    1    2    0    0  0.00000000000E+00  0.00000000000E+00 -0.35478392606E+03  0.87086631201E+03  0.79532163255E+03 0.  0.
        2    1    3    3  502    0  0.34668038564E+03  0.16809544750E+03 -0.28518420743E+03  0.47934684877E+03  0.25500000920E-02 0.  1.
       -2    1    3    3    0  502 -0.34668038564E+03 -0.16809544750E+03 -0.69599718635E+02  0.39151946324E+03  0.25500000920E-02 0. -1.
</event>
<event>
 5   0  0.1509629E-02  0.8083865E+03  0.7818609E-02  0.9547957E-01
       -1   -1    0    0    0  501  0.00000000000E+00  0.00000000000E+00  0.29593032435E+03  0.29593032439E+03  0.50400001928E-02 0. -1.
        1   -1    0    0  501    0  0.00000000000E+00  0.00000000000E+00 -0.55206302245E+03  0.55206302247E+03  0.50400001928E-02 0.  1.
    10030    2    1    2    0    0  0.00000000000E+00  0.00000000000E+00 -0.25613269810E+03  0.84799334687E+03  0.80838651479E+03 0.  0.
        5    1    3    3  502    0 -0.11638349661E+03  0.22567882480E+03 -0.45791487271E+03  0.52362598378E+03  0.46999998093E+01 0.  1.
       -5    1    3    3    0  502  0.11638349661E+03 -0.22567882480E+03  0.20178217460E+03  0.32436736308E+03  0.46999998093E+01 0. -1.
</event>
<event>
 5   0  0.2460312E-02  0.8023292E+03  0.7818609E-02  0.9556652E-01
       -2   -1    0    0    0  501  0.00000000000E+00  0.00000000000E+00  0.17831478699E+03  0.17831478701E+03  0.25500000920E-02 0.  1.
        2   -1    0    0  501    0  0.00000000000E+00  0.00000000000E+00 -0.90252219241E+03  0.90252219241E+03  0.25500000920E-02 0. -1.
    10030    2    1    2    0    0  0.00000000000E+00  0.00000000000E+00 -0.72420740541E+03  0.10808369794E+04  0.80232924042E+03 0.  0.
        2    1    3    3  502    0  0.21887385990E+03  0.12308938772E+03  0.59346552713E+02  0.25802863648E+03  0.25500000920E-02 0.  1.
       -2    1    3    3    0  502 -0.21887385990E+03 -0.12308938772E+03 -0.78355395813E+03  0.82280834294E+03  0.25500000920E-02 0. -1.
</event>
<event>
 5   0  0.1509629E-02  0.8084974E+03  0.7818609E-02  0.9547798E-01
       -1   -1    0    0    0  501  0.00000000000E+00  0.00000000000E+00  0.22556889251E+03  0.22556889257E+03  0.50400001928E-02 0.  1.
        1   -1    0    0  501    0  0.00000000000E+00  0.00000000000E+00 -0.72446603617E+03  0.72446603619E+03  0.50400001928E-02 0. -1.
    10030    2    1    2    0    0  0.00000000000E+00  0.00000000000E+00 -0.49889714366E+03  0.95003492876E+03  0.80849737532E+03 0.  0.
        5    1    3    3  502    0  0.15094980549E+02 -0.26754765326E+03  0.10616134162E+03  0.28827404610E+03  0.46999998093E+01 0.  1.
       -5    1    3    3    0  502 -0.15094980549E+02  0.26754765326E+03 -0.60505848528E+03  0.66176088265E+03  0.46999998093E+01 0. -1.
</event>
<event>
 5   0  0.1471290E-02  0.7983638E+03  0.7818609E-02  0.9562388E-01
        1   -1    0    0  501    0  0.00000000000E+00  0.00000000000E+00  0.43261634851E+03  0.43261634854E+03  0.50400001928E-02 0. -1.
       -1   -1    0    0    0  501  0.00000000000E+00  0.00000000000E+00 -0.36833140056E+03  0.36833140059E+03  0.50400001928E-02 0.  1.
    10030    2    1    2    0    0  0.00000000000E+00  0.00000000000E+00  0.64284947957E+02  0.80094774914E+03  0.79836379071E+03 0.  0.
        2    1    3    3  502    0 -0.19073687970E+02  0.38376792094E+03 -0.76395310613E+02  0.39176251251E+03  0.25500000920E-02 0.  1.
       -2    1    3    3    0  502  0.19073687970E+02 -0.38376792094E+03  0.14068025857E+03  0.40918523663E+03  0.25500000920E-02 0. -1.
</event>
<event>
 5   0  0.1471290E-02  0.7753197E+03  0.7818609E-02  0.9596444E-01
       -1   -1    0    0    0  501  0.00000000000E+00  0.00000000000E+00  0.18768808374E+03  0.18768808381E+03  0.50400001928E-02 0.  1.
        1   -1    0    0  501    0  0.00000000000E+00  0.00000000000E+00 -0.80069102001E+03  0.80069102003E+03  0.50400001928E-02 0. -1.
    10030    2    1    2    0    0  0.00000000000E+00  0.00000000000E+00 -0.61300293627E+03  0.98837910384E+03  0.77531971020E+03 0.  0.
        2    1    3    3  502    0  0.18247748908E+03  0.34142916098E+03 -0.28074361337E+03  0.47821426416E+03  0.25500000920E-02 0. -1.
       -2    1    3    3    0  502 -0.18247748908E+03 -0.34142916098E+03 -0.33225932290E+03  0.51016483968E+03  0.25500000920E-02 0.  1.
</event>
<event>
 5   0  0.1471290E-02  0.7935418E+03  0.7818609E-02  0.9569412E-01
        1   -1    0    0  501    0  0.00000000000E+00  0.00000000000E+00  0.59794699614E+03  0.59794699616E+03  0.50400001928E-02 0. -1.
       -1   -1    0    0    0  501  0.00000000000E+00  0.00000000000E+00 -0.26327940718E+03  0.26327940722E+03  0.50400001928E-02 0.  1.
    10030    2    1    2    0    0  0.00000000000E+00  0.00000000000E+00  0.33466758897E+03  0.86122640339E+03  0.79354175869E+03 0.  0.
        2    1    3    3  502    0 -0.39334417220E+02  0.28592870614E+03  0.46281444869E+03  0.54543527141E+03  0.25500000920E-02 0. -1.
       -2    1    3    3    0  502  0.39334417220E+02 -0.28592870614E+03 -0.12814685972E+03  0.31579113198E+03  0.25500000920E-02 0.  1.
</event>
<event>
 5   0  0.2571778E-02  0.8002383E+03  0.7818609E-02  0.9559672E-01
        2   -1    0    0  501    0  0.00000000000E+00  0.00000000000E+00  0.76920057162E+03  0.76920057162E+03  0.25500000920E-02 0.  1.
       -2   -1    0    0    0  501  0.00000000000E+00  0.00000000000E+00 -0.20813212961E+03  0.20813212963E+03  0.25500000920E-02 0. -1.
    10030    2    1    2    0    0  0.00000000000E+00  0.00000000000E+00  0.56106844200E+03  0.97733270125E+03  0.80023834720E+03 0.  0.
        1    1    3    3  502    0  0.17245921194E+03 -0.20583481175E+03  0.64280048567E+03  0.69663664410E+03  0.50400001928E-02 0.  1.
       -1    1    3    3    0  502 -0.17245921194E+03  0.20583481175E+03 -0.81732043664E+02  0.28069605715E+03  0.50400001928E-02 0. -1.
</event>
<event>
 5   0  0.2422031E-02  0.8189771E+03  0.7818609E-02  0.9532948E-01
       -2   -1    0    0    0  501  0.00000000000E+00  0.00000000000E+00  0.26312493747E+03  0.26312493748E+03  0.25500000920E-02 0. -1.
        2   -1    0    0  501    0  0.00000000000E+00  0.00000000000E+00 -0.63726718904E+03  0.63726718905E+03  0.25500000920E-02 0.  1.
    10030    2    1    2    0    0  0.00000000000E+00  0.00000000000E+00 -0.37414225158E+03  0.90039212653E+03  0.81897714077E+03 0.  0.
        4    1    3    3  502    0 -0.33590781359E+03 -0.57936554261E+01  0.70321647621E+02  0.34324098342E+03  0.12699999809E+01 0. -1.
       -4    1    3    3    0  502  0.33590781359E+03  0.57936554261E+01 -0.44446389920E+03  0.55715114311E+03  0.12699999809E+01 0.  1.
</event>
<event>
 5   0  0.1624094E-02  0.7940930E+03  0.7818609E-02  0.9568607E-01
       -1   -1    0    0    0  501  0.00000000000E+00  0.00000000000E+00  0.14651500864E+03  0.14651500872E+03  0.50400001928E-02 0.  1.
        1   -1    0    0  501    0  0.00000000000E+00  0.00000000000E+00 -0.10759711738E+04  0.10759711739E+04  0.50400001928E-02 0. -1.
    10030    2    1    2    0    0  0.00000000000E+00  0.00000000000E+00 -0.92945616521E+03  0.12224861826E+04  0.79409300686E+03 0.  0.
        3    1    3    3  502    0  0.17569709606E+03 -0.82231419509E+02  0.68593720509E+02  0.20575855902E+03  0.10100000352E+00 0.  1.
       -3    1    3    3    0  502 -0.17569709606E+03  0.82231419509E+02 -0.99804988572E+03  0.10167276236E+04  0.10100000352E+00 0. -1.
</event>
<event>
 5   0  0.2464780E-02  0.7960638E+03  0.7818609E-02  0.9565732E-01
        2   -1    0    0  501    0  0.00000000000E+00  0.00000000000E+00  0.51156389447E+03  0.51156389448E+03  0.25500000920E-02 0. -1.
       -2   -1    0    0    0  501  0.00000000000E+00  0.00000000000E+00 -0.30969621304E+03  0.30969621305E+03  0.25500000920E-02 0.  1.
    10030    2    1    2    0    0  0.00000000000E+00  0.00000000000E+00  0.20186768144E+03  0.82126010753E+03  0.79606381868E+03 0.  0.
        3    1    3    3  502    0 -0.24299137374E+03 -0.22857068419E+02  0.42530918774E+03  0.49036228308E+03  0.10100000352E+00 0. -1.
       -3    1    3    3    0  502  0.24299137374E+03  0.22857068419E+02 -0.22344150630E+03  0.33089782445E+03  0.10100000352E+00 0.  1.
</event>
<event>
 5   0  0.1624094E-02  0.7926462E+03  0.7818609E-02  0.9570723E-01
       -1   -1    0    0    0  501  0.00000000000E+00  0.00000000000E+00  0.17570630005E+03  0.17570630012E+03  0.50400001928E-02 0.  1.
        1   -1    0    0  501    0  0.00000000000E+00  0.00000000000E+00 -0.89394639045E+03  0.89394639046E+03  0.50400001928E-02 0. -1.
    10030    2    1    2    0    0  0.00000000000E+00  0.00000000000E+00 -0.71824009040E+03  0.10696526906E+04  0.79264623320E+03 0.  0.
        3    1    3    3  502    0  0.14011261268E+03 -0.36933093279E+03 -0.40253694622E+03  0.56397950798E+03  0.10100000352E+00 0.  1.
       -3    1    3    3    0  502 -0.14011261268E+03  0.36933093279E+03 -0.31570314419E+03  0.50567318260E+03  0.10100000352E+00 0. -1.
</event>
<event>
 5   0  0.1471290E-02  0.7959764E+03  0.7818609E-02  0.9565859E-01
        1   -1    0    0  501    0  0.00000000000E+00  0.00000000000E+00  0.99195278504E+03  0.99195278505E+03  0.50400001928E-02 0. -1.
       -1   -1    0    0    0  501  0.00000000000E+00  0.00000000000E+00 -0.15967960269E+03  0.15967960277E+03  0.50400001928E-02 0.  1.
    10030    2    1    2    0    0  0.00000000000E+00  0.00000000000E+00  0.83227318234E+03  0.11516323878E+04  0.79597644854E+03 0.  0.
        2    1    3    3  502    0 -0.39096576235E+03 -0.73720322964E+02  0.40126085485E+03  0.56506564839E+03  0.25500000920E-02 0. -1.
       -2    1    3    3    0  502  0.39096576235E+03  0.73720322964E+02  0.43101232750E+03  0.58656673944E+03  0.25500000920E-02 0.  1.
</event>
<event>
 5   0  0.2460312E-02  0.7132060E+03  0.7818609E-02  0.9694911E-01
        2   -1    0    0  501    0  0.00000000000E+00  0.00000000000E+00  0.37467761623E+03  0.37467761624E+03  0.25500000920E-02 0. -1.
       -2   -1    0    0    0  501  0.00000000000E+00  0.00000000000E+00 -0.33940029060E+03  0.33940029061E+03  0.25500000920E-02 0.  1.
    10030    2    1    2    0    0  0.00000000000E+00  0.00000000000E+00  0.35277325633E+02  0.71407790684E+03  0.71320597820E+03 0.  0.
        2    1    3    3  502    0  0.29428982032E+03 -0.10422895063E+03  0.19017321622E+03  0.36556261389E+03  0.25500000920E-02 0. -1.
       -2    1    3    3    0  502 -0.29428982032E+03  0.10422895063E+03 -0.15489589059E+03  0.34851529296E+03  0.25500000920E-02 0.  1.
</event>
<event>
 5   0  0.1509629E-02  0.7842648E+03  0.7818609E-02  0.9583077E-01
       -1   -1    0    0    0  501  0.00000000000E+00  0.00000000000E+00  0.42213263373E+03  0.42213263376E+03  0.50400001928E-02 0. -1.
        1   -1    0    0  501    0  0.00000000000E+00  0.00000000000E+00 -0.36426422615E+03  0.36426422618E+03  0.50400001928E-02 0.  1.
    10030    2    1    2    0    0  0.00000000000E+00  0.00000000000E+00  0.57868407581E+02  0.78639685995E+03  0.78426479504E+03 0.  0.
        5    1    3    3  502    0  0.70392437082E+02 -0.13327396407E+03 -0.33402869724E+03  0.36648916120E+03  0.46999998093E+01 0.  1.
       -5    1    3    3    0  502 -0.70392437082E+02  0.13327396407E+03  0.39189710482E+03  0.41990769874E+03  0.46999998093E+01 0. -1.
</event>
<event>
 5   0  0.1498375E-02  0.8009911E+03  0.7818609E-02  0.9558584E-01
       -1   -1    0    0    0  501  0.00000000000E+00  0.00000000000E+00  0.31223905415E+03  0.31223905420E+03  0.50400001928E-02 0.  1.
        1   -1    0    0  501    0  0.00000000000E+00  0.00000000000E+00 -0.51369828521E+03  0.51369828524E+03  0.50400001928E-02 0. -1.
    10030    2    1    2    0    0  0.00000000000E+00  0.00000000000E+00 -0.20145923106E+03  0.82593733943E+03  0.80099105294E+03 0.  0.
        4    1    3    3  502    0  0.57116330887E+02  0.22017012746E+03  0.23916953255E+03  0.33006187069E+03  0.12699999809E+01 0.  1.
       -4    1    3    3    0  502 -0.57116330887E+02 -0.22017012746E+03 -0.44062876361E+03  0.49587546874E+03  0.12699999809E+01 0. -1.
</event>
<event>
 5   0  0.2422031E-02  0.8007634E+03  0.7818609E-02  0.9558913E-01
       -2   -1    0    0    0  501  0.00000000000E+00  0.00000000000E+00  0.63518513882E+02  0.63518513934E+02  0.25500000920E-02 0. -1.
        2   -1    0    0  501    0  0.00000000000E+00  0.00000000000E+00 -0.25237605347E+04  0.25237605348E+04  0.25500000920E-02 0.  1.
    10030    2    1    2    0    0  0.00000000000E+00  0.00000000000E+00 -0.24602420209E+04  0.25872790487E+04  0.80076343231E+03 0.  0.
        4    1    3    3  502    0  0.10091803253E+03 -0.90779732152E+02 -0.24471399260E+04  0.24509020460E+04  0.12699999809E+01 0.  1.
       -4    1    3    3    0  502 -0.10091803253E+03  0.90779732152E+02 -0.13102094887E+02  0.13637700264E+03  0.12699999809E+01 0. -1.
</event>
<event>
 5   0  0.1523811E-02  0.8380327E+03  0.7818609E-02  0.9506541E-01
       -1   -1    0    0    0  501  0.00000000000E+00  0.00000000000E+00  0.31199313602E+03  0.31199313606E+03  0.50400001928E-02 0. -1.
        1   -1    0    0  501    0  0.00000000000E+00  0.00000000000E+00 -0.56275182440E+03  0.56275182442E+03  0.50400001928E-02 0.  1.
    10030    2    1    2    0    0  0.00000000000E+00  0.00000000000E+00 -0.25075868838E+03  0.87474496048E+03  0.83803271182E+03 0.  0.
        1    1    3    3  502    0 -0.66951323127E+02  0.36385812378E+03  0.79960445677E+02  0.37850876715E+03  0.50400001928E-02 0. -1.
       -1    1    3    3    0  502  0.66951323127E+02 -0.36385812378E+03 -0.33071913406E+03  0.49623619333E+03  0.50400001928E-02 0.  1.
</event>
<event>
 5   0  0.2422031E-02  0.8068923E+03  0.7818609E-02  0.9550094E-01
        2   -1    0    0  501    0  0.00000000000E+00  0.00000000000E+00  0.30979188304E+04  0.30979188304E+04  0.25500000920E-02 0.  1.
       -2   -1    0    0    0  501  0.00000000000E+00  0.00000000000E+00 -0.52541341258E+02  0.52541341320E+02  0.25500000920E-02 0. -1.
    10030    2    1    2    0    0  0.00000000000E+00  0.00000000000E+00  0.30453774891E+04  0.31504601717E+04  0.80689233620E+03 0.  0.
        4    1    3    3  502    0  0.11102666157E+03  0.42430374139E+02  0.30279995038E+04  0.30303316426E+04  0.12699999809E+01 0.  1.
       -4    1    3    3    0  502 -0.11102666157E+03 -0.42430374139E+02  0.17377985312E+02  0.12012852909E+03  0.12699999809E+01 0. -1.
</event>
<event>
 5   0  0.2454354E-02  0.7955193E+03  0.7818609E-02  0.9566525E-01
       -2   -1    0    0    0  501  0.00000000000E+00  0.00000000000E+00  0.10601279930E+04  0.10601279930E+04  0.25500000920E-02 0.  1.
        2   -1    0    0  501    0  0.00000000000E+00  0.00000000000E+00 -0.14923928635E+03  0.14923928637E+03  0.25500000920E-02 0. -1.
    10030    2    1    2    0    0  0.00000000000E+00  0.00000000000E+00  0.91088870669E+03  0.12093672794E+04  0.79551931499E+03 0.  0.
        5    1    3    3  502    0 -0.36176642663E+03  0.86795038330E+01  0.20453663695E+03  0.41570134361E+03  0.46999998093E+01 0.  1.
       -5    1    3    3    0  502  0.36176642663E+03 -0.86795038330E+01  0.70635206974E+03  0.79366593580E+03  0.46999998093E+01 0. -1.
</event>
<event>
 5   0  0.1498375E-02  0.8295745E+03  0.7818609E-02  0.9518169E-01
       -1   -1    0    0    0  501  0.00000000000E+00  0.00000000000E+00  0.11273543398E+03  0.11273543409E+03  0.50400001928E-02 0. -1.
        1   -1    0    0  501    0  0.00000000000E+00  0.00000000000E+00 -0.15261257041E+04  0.15261257041E+04  0.50400001928E-02 0.  1.
    10030    2    1    2    0    0  0.00000000000E+00  0.00000000000E+00 -0.14133902701E+04  0.16388611382E+04  0.82957445394E+03 0.  0.
        4    1    3    3  502    0  0.12056187781E+02 -0.25022375836E+02 -0.15242826134E+04  0.15245361817E+04  0.12699999809E+01 0.  1.
       -4    1    3    3    0  502 -0.12056187781E+02  0.25022375836E+02  0.11089234333E+03  0.11432495644E+03  0.12699999809E+01 0. -1.
</event>
<event>
 5   0  0.2454354E-02  0.8005926E+03  0.7818609E-02  0.9559160E-01
        2   -1    0    0  501    0  0.00000000000E+00  0.00000000000E+00  0.18297984336E+03  0.18297984338E+03  0.25500000920E-02 0.  1.
       -2   -1    0    0    0  501  0.00000000000E+00  0.00000000000E+00 -0.87570910664E+03  0.87570910665E+03  0.25500000920E-02 0. -1.
    10030    2    1    2    0    0  0.00000000000E+00  0.00000000000E+00 -0.69272926328E+03  0.10586889500E+04  0.80059256848E+03 0.  0.
        5    1    3    3  502    0 -0.18346268421E+03  0.22530978855E+02  0.12312523639E+03  0.22214435699E+03  0.46999998093E+01 0.  1.
       -5    1    3    3    0  502  0.18346268421E+03 -0.22530978855E+02 -0.81585449967E+03  0.83654459304E+03  0.46999998093E+01 0. -1.
</event>
<event>
 5   0  0.9919125E-03  0.7880842E+03  0.7818609E-02  0.9577427E-01
        4   -1    0    0  501    0  0.00000000000E+00  0.00000000000E+00  0.13768587670E+03  0.13769173375E+03  0.12699999809E+01 0.  1.
       -4   -1    0    0    0  501  0.00000000000E+00  0.00000000000E+00 -0.11276756518E+04  0.11276763669E+04  0.12699999809E+01 0. -1.
    10030    2    1    2    0    0  0.00000000000E+00  0.00000000000E+00 -0.98998977510E+03  0.12653681007E+04  0.78808418044E+03 0.  0.
        4    1    3    3  502    0 -0.34214262664E+02 -0.39201991983E+03 -0.52779537161E+03  0.65834626186E+03  0.12699999809E+01 0. -1.
       -4    1    3    3    0  502  0.34214262664E+02  0.39201991983E+03 -0.46219440349E+03  0.60702183884E+03  0.12699999809E+01 0.  1.
</event>
<event>
 5   0  0.2460312E-02  0.7951337E+03  0.7818609E-02  0.9567088E-01
       -2   -1    0    0    0  501  0.00000000000E+00  0.00000000000E+00  0.99720802733E+02  0.99720802766E+02  0.25500000920E-02 0.  1.
        2   -1    0    0  501    0  0.00000000000E+00  0.00000000000E+00 -0.15850193911E+04  0.15850193911E+04  0.25500000920E-02 0. -1.
    10030    2    1    2    0    0  0.00000000000E+00  0.00000000000E+00 -0.14852985884E+04  0.16847401939E+04  0.79513371470E+03 0.  0.
        2    1    3    3  502    0 -0.34772350574E+03 -0.78806192220E+02 -0.11153278037E+04  0.11709304685E+04  0.25500000920E-02 0. -1.
       -2    1    3    3    0  502  0.34772350574E+03  0.78806192220E+02 -0.36997078475E+03  0.51380972544E+03  0.25500000920E-02 0.  1.
</event>
<event>
 5   0  0.1624094E-02  0.8123751E+03  0.7818609E-02  0.9542275E-01
       -1   -1    0    0    0  501  0.00000000000E+00  0.00000000000E+00  0.11312621991E+03  0.11312622002E+03  0.50400001928E-02 0. -1.
        1   -1    0    0  501    0  0.00000000000E+00  0.00000000000E+00 -0.14584447482E+04  0.14584447482E+04  0.50400001928E-02 0.  1.
    10030    2    1    2    0    0  0.00000000000E+00  0.00000000000E+00 -0.13453185283E+04  0.15715709682E+04  0.81237513848E+03 0.  0.
        3    1    3    3  502    0 -0.24943621803E+03 -0.29752110840E+03 -0.44171803028E+03  0.58809188507E+03  0.10100000352E+00 0. -1.
       -3    1    3    3    0  502  0.24943621803E+03  0.29752110840E+03 -0.90360049801E+03  0.98347908316E+03  0.10100000352E+00 0.  1.
</event>
</LesHouchesEvents>
