<LesHouchesEvents version="3.0">
<header>
<!--
#*********************************************************************
#                                                                    *
#                        MadGraph5_aMC@NLO                           *
#                                                                    *
#                           Going Beyond                             *
#                                                                    *
#                   http://madgraph.hep.uiuc.edu                     *
#                   http://madgraph.phys.ucl.ac.be                   *
#                   http://amcatnlo.cern.ch                          *
#                                                                    *
#                     The MadGraph5_aMC@NLO team                     *
#                                                                    *
#....................................................................*
#                                                                    *
# This file contains all the information necessary to reproduce      *
# the events generated:                                              *
#                                                                    *
# 1. software version                                                *
# 2. proc_card          : code generation info including model       *
# 3. param_card         : model primary parameters in the LH format  *
# 4. run_card           : running parameters (collider and cuts)     *
# 5. pythia_card        : present only if pythia has been run        *
# 6. pgs_card           : present only if pgs has been run           *
# 7. delphes_cards      : present only if delphes has been run       *
#                                                                    *
#                                                                    *
#*********************************************************************
-->
<MGVersion>
#5.2.2.3
</MGVersion>
<MG5ProcCard>
#************************************************************
#*                     MadGraph5_aMC@NLO                    *
#*                                                          *
#*                *                       *                 *
#*                  *        * *        *                   *
#*                    * * * * 5 * * * *                     *
#*                  *        * *        *                   *
#*                *                       *                 *
#*                                                          *
#*                                                          *
#*         VERSION 2.2.3                 2015-02-10         *
#*                                                          *
#*    The MadGraph5_aMC@NLO Development Team - Find us at   *
#*    https://server06.fynu.ucl.ac.be/projects/madgraph     *
#*                                                          *
#************************************************************
#*                                                          *
#*               Command File for MadGraph5_aMC@NLO         *
#*                                                          *
#*     run as ./bin/mg5_aMC  filename                       *
#*                                                          *
#************************************************************
set group_subprocesses Auto
set ignore_six_quark_processes False
set loop_optimized_output True
set gauge unitary
set complex_mass_scheme False
import model sm
define p = g u c d s u~ c~ d~ s~
define j = g u c d s u~ c~ d~ s~
define l+ = e+ mu+
define l- = e- mu-
define vl = ve vm vt
define vl~ = ve~ vm~ vt~
import model Zprime_UFO
generate p p > zph, zph > j j
add process p p > zph, zph > b b~
output Dijet_signal
</MG5ProcCard>
<MGProcCard>
#*********************************************************************
#                        MadGraph/MadEvent                           *
#                   http://madgraph.hep.uiuc.edu                     *
#                                                                    *
#                          proc_card.dat                             *
#*********************************************************************
#                                                                    *
#            This Files is generated by MADGRAPH 5                   *
#                                                                    *
# WARNING: This Files is generated for MADEVENT (compatibility issue)*
#          This files is NOT a valid MG4 proc_card.dat               *
#          Running this in MG4 will NEVER reproduce the result of MG5*
#                                                                    *
#*********************************************************************
#*********************************************************************
# Process(es) requested : mg2 input                                  *
#*********************************************************************
# Begin PROCESS # This is TAG. Do not modify this line
p p > zph , zph > j j           #Process
# Be carefull the coupling are here in MG5 convention
          
end_coup           # End the couplings input

done               # this tells MG there are no more procs
# End PROCESS  # This is TAG. Do not modify this line
#*********************************************************************
# Model information                                                  *
#*********************************************************************
# Begin MODEL  # This is TAG. Do not modify this line
Zprime_UFO
# End   MODEL  # This is TAG. Do not modify this line
#*********************************************************************
# Start multiparticle definitions                                    *
#*********************************************************************
# Begin MULTIPARTICLES # This is TAG. Do not modify this line

# End  MULTIPARTICLES # This is TAG. Do not modify this line
</MGProcCard>
<MGRunCard>
#*********************************************************************
#                       MadGraph5_aMC@NLO                            *
#                                                                    *
#                     run_card.dat MadEvent                          *
#                                                                    *
#  This file is used to set the parameters of the run.               *
#                                                                    *
#  Some notation/conventions:                                        *
#                                                                    *
#   Lines starting with a '# ' are info or comments                  *
#                                                                    *
#   mind the format:   value    = variable     ! comment             *
#*********************************************************************
#
#*******************                                                 
# Running parameters
#*******************                                                 
#                                                                    
#*********************************************************************
# Tag name for the run (one word)                                    *
#*********************************************************************
  tag_1     = run_tag ! name of the run 
#*********************************************************************
# Run to generate the grid pack                                      *
#*********************************************************************
  .false.     = gridpack  !True = setting up the grid pack
#*********************************************************************
# Number of events and rnd seed                                      *
# Warning: Do not generate more than 1M events in a single run       *
# If you want to run Pythia, avoid more than 50k events in a run.    *
#*********************************************************************
  2000 = nevents ! Number of unweighted events requested 
 1794 = iseed   ! rnd seed (0=assigned automatically=default))
#*********************************************************************
# Collider type and energy                                           *
# lpp: 0=No PDF, 1=proton, -1=antiproton, 2=photon from proton,      *
#                                         3=photon from electron     *
#*********************************************************************
        1     = lpp1    ! beam 1 type 
        1     = lpp2    ! beam 2 type
     4000     = ebeam1  ! beam 1 total energy in GeV
     4000     = ebeam2  ! beam 2 total energy in GeV
#*********************************************************************
# Beam polarization from -100 (left-handed) to 100 (right-handed)    *
#*********************************************************************
        0     = polbeam1 ! beam polarization for beam 1
        0     = polbeam2 ! beam polarization for beam 2
#*********************************************************************
# PDF CHOICE: this automatically fixes also alpha_s and its evol.    *
#*********************************************************************
 'nn23lo1'    = pdlabel     ! PDF set                                     
 230000    = lhaid     ! if pdlabel=lhapdf, this is the lhapdf number
#*********************************************************************
# Renormalization and factorization scales                           *
#*********************************************************************
 F        = fixed_ren_scale  ! if .true. use fixed ren scale
 F        = fixed_fac_scale  ! if .true. use fixed fac scale
 91.1880  = scale            ! fixed ren scale
 91.1880  = dsqrt_q2fact1    ! fixed fact scale for pdf1
 91.1880  = dsqrt_q2fact2    ! fixed fact scale for pdf2
 1        = scalefact        ! scale factor for event-by-event scales
#*********************************************************************
# Matching - Warning! ickkw > 1 is still beta
#*********************************************************************
 0        = ickkw            ! 0 no matching, 1 MLM, 2 CKKW matching
 1        = highestmult      ! for ickkw=2, highest mult group
 1        = ktscheme         ! for ickkw=1, 1 Durham kT, 2 Pythia pTE
 1        = alpsfact         ! scale factor for QCD emission vx
 F        = chcluster        ! cluster only according to channel diag
 T        = pdfwgt           ! for ickkw=1, perform pdf reweighting
 5        = asrwgtflavor     ! highest quark flavor for a_s reweight
 T        = clusinfo         ! include clustering tag in output
 3.0      = lhe_version       ! Change the way clustering information pass to shower.        
#*********************************************************************
#**********************************************************
#
#**********************************************************
# Automatic ptj and mjj cuts if xqcut > 0
# (turn off for VBF and single top processes)
#**********************************************************
   T  = auto_ptj_mjj  ! Automatic setting of ptj and mjj
#**********************************************************
#                                                                    
#**********************************
# BW cutoff (M+/-bwcutoff*Gamma)
#**********************************
  15  = bwcutoff      ! (M+/-bwcutoff*Gamma)
#**********************************************************
# Apply pt/E/eta/dr/mij cuts on decay products or not
# (note that etmiss/ptll/ptheavy/ht/sorted cuts always apply)
#**********************************************************
   T  = cut_decays    ! Cut decay products 
#*************************************************************
# Number of helicities to sum per event (0 = all helicities)
# 0 gives more stable result, but longer run time (needed for
# long decay chains e.g.).
# Use >=2 if most helicities contribute, e.g. pure QCD.
#*************************************************************
   0  = nhel          ! Number of helicities used per event
#*******************                                                 
# Standard Cuts
#*******************                                                 
#                                                                    
#*********************************************************************
# Minimum and maximum pt's (for max, -1 means no cut)                *
#*********************************************************************
 20  = ptj       ! minimum pt for the jets 
  0  = ptb       ! minimum pt for the b 
 10  = pta       ! minimum pt for the photons 
 10  = ptl       ! minimum pt for the charged leptons 
  0  = misset    ! minimum missing Et (sum of neutrino's momenta)
  0  = ptheavy   ! minimum pt for one heavy final state
 1.0 = ptonium   ! minimum pt for the quarkonium states
 -1  = ptjmax    ! maximum pt for the jets
 -1  = ptbmax    ! maximum pt for the b
 -1  = ptamax    ! maximum pt for the photons
 -1  = ptlmax    ! maximum pt for the charged leptons
 -1  = missetmax ! maximum missing Et (sum of neutrino's momenta)
#*********************************************************************
# Minimum and maximum E's (in the center of mass frame)              *
#*********************************************************************
  0  = ej     ! minimum E for the jets 
  0  = eb     ! minimum E for the b 
  0  = ea     ! minimum E for the photons 
  0  = el     ! minimum E for the charged leptons 
 -1   = ejmax ! maximum E for the jets
 -1   = ebmax ! maximum E for the b
 -1   = eamax ! maximum E for the photons
 -1   = elmax ! maximum E for the charged leptons
#*********************************************************************
# Maximum and minimum absolute rapidity (for max, -1 means no cut)   *
#*********************************************************************
   5  = etaj    ! max rap for the jets 
  -1  = etab    ! max rap for the b
 2.5  = etaa    ! max rap for the photons 
 2.5  = etal    ! max rap for the charged leptons 
 0.6  = etaonium ! max rap for the quarkonium states
   0  = etajmin ! min rap for the jets
   0  = etabmin ! min rap for the b
   0  = etaamin ! min rap for the photons
   0  = etalmin ! main rap for the charged leptons
#*********************************************************************
# Minimum and maximum DeltaR distance                                *
#*********************************************************************
 0.4 = drjj    ! min distance between jets 
 0   = drbb    ! min distance between b's 
 0.4 = drll    ! min distance between leptons 
 0.4 = draa    ! min distance between gammas 
 0   = drbj    ! min distance between b and jet 
 0.4 = draj    ! min distance between gamma and jet 
 0.4 = drjl    ! min distance between jet and lepton 
 0   = drab    ! min distance between gamma and b 
 0   = drbl    ! min distance between b and lepton 
 0.4 = dral    ! min distance between gamma and lepton 
 -1  = drjjmax ! max distance between jets
 -1  = drbbmax ! max distance between b's
 -1  = drllmax ! max distance between leptons
 -1  = draamax ! max distance between gammas
 -1  = drbjmax ! max distance between b and jet
 -1  = drajmax ! max distance between gamma and jet
 -1  = drjlmax ! max distance between jet and lepton
 -1  = drabmax ! max distance between gamma and b
 -1  = drblmax ! max distance between b and lepton
 -1  = dralmax ! maxdistance between gamma and lepton
#*********************************************************************
# Minimum and maximum invariant mass for pairs                       *
# WARNING: for four lepton final state mmll cut require to have      *
#          different lepton masses for each flavor!                  *           
#*********************************************************************
 0   = mmjj    ! min invariant mass of a jet pair 
 0   = mmbb    ! min invariant mass of a b pair 
 0   = mmaa    ! min invariant mass of gamma gamma pair
 0   = mmll    ! min invariant mass of l+l- (same flavour) lepton pair
 -1  = mmjjmax ! max invariant mass of a jet pair
 -1  = mmbbmax ! max invariant mass of a b pair
 -1  = mmaamax ! max invariant mass of gamma gamma pair
 -1  = mmllmax ! max invariant mass of l+l- (same flavour) lepton pair
#*********************************************************************
# Minimum and maximum invariant mass for all letpons                 *
#*********************************************************************
 0   = mmnl    ! min invariant mass for all letpons (l+- and vl) 
 -1  = mmnlmax ! max invariant mass for all letpons (l+- and vl) 
#*********************************************************************
# Minimum and maximum pt for 4-momenta sum of leptons                *
#*********************************************************************
 0   = ptllmin  ! Minimum pt for 4-momenta sum of leptons(l and vl)
 -1  = ptllmax  ! Maximum pt for 4-momenta sum of leptons(l and vl)
#*********************************************************************
# Inclusive cuts                                                     *
#*********************************************************************
 0  = xptj ! minimum pt for at least one jet  
 0  = xptb ! minimum pt for at least one b 
 0  = xpta ! minimum pt for at least one photon 
 0  = xptl ! minimum pt for at least one charged lepton 
#*********************************************************************
# Control the pt's of the jets sorted by pt                          *
#*********************************************************************
 0   = ptj1min ! minimum pt for the leading jet in pt
 0   = ptj2min ! minimum pt for the second jet in pt
 0   = ptj3min ! minimum pt for the third jet in pt
 0   = ptj4min ! minimum pt for the fourth jet in pt
 -1  = ptj1max ! maximum pt for the leading jet in pt 
 -1  = ptj2max ! maximum pt for the second jet in pt
 -1  = ptj3max ! maximum pt for the third jet in pt
 -1  = ptj4max ! maximum pt for the fourth jet in pt
 0   = cutuse  ! reject event if fails any (0) / all (1) jet pt cuts
#*********************************************************************
# Control the pt's of leptons sorted by pt                           *
#*********************************************************************
 0   = ptl1min ! minimum pt for the leading lepton in pt
 0   = ptl2min ! minimum pt for the second lepton in pt
 0   = ptl3min ! minimum pt for the third lepton in pt
 0   = ptl4min ! minimum pt for the fourth lepton in pt
 -1  = ptl1max ! maximum pt for the leading lepton in pt 
 -1  = ptl2max ! maximum pt for the second lepton in pt
 -1  = ptl3max ! maximum pt for the third lepton in pt
 -1  = ptl4max ! maximum pt for the fourth lepton in pt
#*********************************************************************
# Control the Ht(k)=Sum of k leading jets                            *
#*********************************************************************
 0   = htjmin ! minimum jet HT=Sum(jet pt)
 -1  = htjmax ! maximum jet HT=Sum(jet pt)
 0   = ihtmin  !inclusive Ht for all partons (including b)
 -1  = ihtmax  !inclusive Ht for all partons (including b)
 0   = ht2min ! minimum Ht for the two leading jets
 0   = ht3min ! minimum Ht for the three leading jets
 0   = ht4min ! minimum Ht for the four leading jets
 -1  = ht2max ! maximum Ht for the two leading jets
 -1  = ht3max ! maximum Ht for the three leading jets
 -1  = ht4max ! maximum Ht for the four leading jets
#***********************************************************************
# Photon-isolation cuts, according to hep-ph/9801442                   *
# When ptgmin=0, all the other parameters are ignored                  *
# When ptgmin>0, pta and draj are not going to be used                 *
#***********************************************************************
   0 = ptgmin ! Min photon transverse momentum
 0.4 = R0gamma ! Radius of isolation code
 1.0 = xn ! n parameter of eq.(3.4) in hep-ph/9801442
 1.0 = epsgamma ! epsilon_gamma parameter of eq.(3.4) in hep-ph/9801442
 .true. = isoEM ! isolate photons from EM energy (photons and leptons)
#*********************************************************************
# WBF cuts                                                           *
#*********************************************************************
 0   = xetamin ! minimum rapidity for two jets in the WBF case  
 0   = deltaeta ! minimum rapidity for two jets in the WBF case 
#*********************************************************************
# KT DURHAM CUT                                                      *
#*********************************************************************
 -1    =  ktdurham        
 0.4  =  dparameter 
#*********************************************************************
# maximal pdg code for quark to be considered as a light jet         *
# (otherwise b cuts are applied)                                     *
#*********************************************************************
 4 = maxjetflavor    ! Maximum jet pdg code
#*********************************************************************
# Jet measure cuts                                                   *
#*********************************************************************
 0   = xqcut   ! minimum kt jet measure between partons
#*********************************************************************
#
#*********************************************************************
# Store info for systematics studies                                 *
# WARNING: If use_syst is T, matched Pythia output is                *
#          meaningful ONLY if plotted taking matchscale              *
#          reweighting into account!                                 *
#*********************************************************************
   F  = use_syst      ! Enable systematics studies
#
#**************************************
# Parameter of the systematics study
#  will be used by SysCalc (if installed)
#**************************************                                  
#
0.5 1 2 = sys_scalefact  # factorization/renormalization scale factor
0.5 1 2 = sys_alpsfact  # \alpha_s emission scale factors
30 50 = sys_matchscale # variation of merging scale
# PDF sets and number of members (0 or none for all members).
CT10nlo.LHgrid = sys_pdf # matching scales
# MSTW2008nlo68cl.LHgrid 1  = sys_pdf
</MGRunCard>
<slha>
######################################################################
## PARAM_CARD AUTOMATICALY GENERATED BY MG5 FOLLOWING UFO MODEL   ####
######################################################################
##                                                                  ##
##  Width set on Auto will be computed following the information    ##
##        present in the decay.py files of the model.               ##
##        See  arXiv:1402.1178 for more details.                    ##
##                                                                  ##
######################################################################

###################################
## INFORMATION FOR CKMBLOCK
###################################
Block ckmblock 
    1 2.277360e-01 # cabi 

###################################
## INFORMATION FOR FRBLOCK
###################################
Block frblock 
    1 1.000000e+00 # gz 

###################################
## INFORMATION FOR MASS
###################################
Block mass 
    1 5.040000e-03 # MD 
    2 2.550000e-03 # MU 
    3 1.010000e-01 # MS 
    4 1.270000e+00 # MC 
    5 4.700000e+00 # MB 
    6 1.720000e+02 # MT 
   11 5.110000e-04 # Me 
   13 1.056600e-01 # MM 
   15 1.777000e+00 # MTA 
   23 9.118760e+01 # MZ 
   25 1.200000e+02 # MH 
  10030 5.000000e+02 # MZph 
  10031 3.000000e+02 # MZpl 
## Dependent parameters, given by model restrictions.
## Those values should be edited following the 
## analytical expression. MG5 ignores those values 
## but they are important for interfacing the output of MG5
## to external program such as Pythia.
  12 0.000000 # ve : 0.0 
  14 0.000000 # vm : 0.0 
  16 0.000000 # vt : 0.0 
  21 0.000000 # g : 0.0 
  22 0.000000 # a : 0.0 
  24 79.824360 # w+ : cmath.sqrt(MZ__exp__2/2. + cmath.sqrt(MZ__exp__4/4. - (aEW*cmath.pi*MZ__exp__2)/(Gf*sqrt__2))) 

###################################
## INFORMATION FOR SMINPUTS
###################################
Block sminputs 
    1 1.279000e+02 # aEWM1 
    2 1.166370e-05 # Gf 
    3 1.184000e-01 # aS 

###################################
## INFORMATION FOR YUKAWA
###################################
Block yukawa 
    1 5.040000e-03 # ymdo 
    2 2.550000e-03 # ymup 
    3 1.010000e-01 # yms 
    4 1.270000e+00 # ymc 
    5 4.700000e+00 # ymb 
    6 1.720000e+02 # ymt 
   11 5.110000e-04 # yme 
   13 1.056600e-01 # ymm 
   15 1.777000e+00 # ymtau 

###################################
## INFORMATION FOR DECAY
###################################
DECAY   6 1.508336e+00 # WT 
DECAY  23 2.495200e+00 # WZ 
DECAY  24 2.085000e+00 # WW 
DECAY  25 5.753088e-03 # WH 
## Dependent parameters, given by model restrictions.
## Those values should be edited following the 
## analytical expression. MG5 ignores those values 
## but they are important for interfacing the output of MG5
## to external program such as Pythia.
DECAY  1 0.000000 # d : 0.0 
DECAY  2 0.000000 # u : 0.0 
DECAY  3 0.000000 # s : 0.0 
DECAY  4 0.000000 # c : 0.0 
DECAY  5 0.000000 # b : 0.0 
DECAY  11 0.000000 # e- : 0.0 
DECAY  12 0.000000 # ve : 0.0 
DECAY  13 0.000000 # mu- : 0.0 
DECAY  14 0.000000 # vm : 0.0 
DECAY  15 0.000000 # ta- : 0.0 
DECAY  16 0.000000 # vt : 0.0 
DECAY  21 0.000000 # g : 0.0 
DECAY  22 0.000000 # a : 0.0 
DECAY  10030 0.308725 # zph : (gz__exp__2*MZph*(5 + cmath.sqrt(1 - (4*MT__exp__2)/MZph__exp__2)))/(144.*cmath.pi) 
DECAY  10031 0.132629 # zpl : (5*gz__exp__2*MZpl)/(144.*cmath.pi) 
#===========================================================
# QUANTUM NUMBERS OF NEW STATE(S) (NON SM PDG CODE)
#===========================================================

Block QNUMBERS 10030  # zph 
        1 0  # 3 times electric charge
        2 3  # number of spin states (2S+1)
        3 1  # colour rep (1: singlet, 3: triplet, 8: octet)
        4 0  # Particle/Antiparticle distinction (0=own anti)
Block QNUMBERS 10031  # zpl 
        1 0  # 3 times electric charge
        2 3  # number of spin states (2S+1)
        3 1  # colour rep (1: singlet, 3: triplet, 8: octet)
        4 0  # Particle/Antiparticle distinction (0=own anti)
</slha>
## END BANNER##
<MGGenerationInfo>
#  Number of Events        :         4206
#  Integrated weight (pb)  :  0.40054E+02
#  Max wgt                 :  0.12792E-01
#  Average wgt             :  0.95231E-02
</MGGenerationInfo>
</header>
<init>
     2212     2212  0.40000000000E+04  0.40000000000E+04 0 0  247000  247000 2   1
  0.39970737582E+02  0.72311369318E-01  0.12791880000E-01   0
</init>
<event>
 5   0  0.1231822E-01  0.5002363E+03  0.7818609E-02  0.1013717E+00
       -2   -1    0    0    0  501  0.00000000000E+00  0.00000000000E+00  0.75568276005E+02  0.75568276048E+02  0.25500000920E-02 0.  1.
        2   -1    0    0  501    0  0.00000000000E+00  0.00000000000E+00 -0.82784863235E+03  0.82784863235E+03  0.25500000920E-02 0. -1.
    10030    2    1    2    0    0  0.00000000000E+00  0.00000000000E+00 -0.75228035634E+03  0.90341690840E+03  0.50023632000E+03 0.  0.
        1    1    3    3  502    0 -0.79546101090E+01  0.73436879907E+02  0.55420491711E+02  0.92345449695E+02  0.50400001928E-02 0.  1.
       -1    1    3    3    0  502  0.79546101090E+01 -0.73436879907E+02 -0.80770084806E+03  0.81107145871E+03  0.50400001928E-02 0. -1.
</event>
<event>
 5   0  0.5006750E-02  0.4953469E+03  0.7818609E-02  0.1015001E+00
       -3   -1    0    0    0  501  0.00000000000E+00  0.00000000000E+00  0.15781208225E+03  0.15781211457E+03  0.10100000352E+00 0.  1.
        3   -1    0    0  501    0  0.00000000000E+00  0.00000000000E+00 -0.38870353075E+03  0.38870354388E+03  0.10100000352E+00 0. -1.
    10030    2    1    2    0    0  0.00000000000E+00  0.00000000000E+00 -0.23089144850E+03  0.54651565845E+03  0.49534685215E+03 0.  0.
        1    1    3    3  502    0  0.79503328390E+02 -0.22461022272E+03 -0.19004370243E+03  0.30477391659E+03  0.50400001928E-02 0. -1.
       -1    1    3    3    0  502 -0.79503328390E+02  0.22461022272E+03 -0.40847746077E+02  0.24174174186E+03  0.50400001928E-02 0.  1.
</event>
<event>
 5   0  0.1231822E-01  0.4978839E+03  0.7818609E-02  0.1014333E+00
        2   -1    0    0  501    0  0.00000000000E+00  0.00000000000E+00  0.21371418833E+03  0.21371418835E+03  0.25500000920E-02 0. -1.
       -2   -1    0    0    0  501  0.00000000000E+00  0.00000000000E+00 -0.28997655971E+03  0.28997655972E+03  0.25500000920E-02 0.  1.
    10030    2    1    2    0    0  0.00000000000E+00  0.00000000000E+00 -0.76262371378E+02  0.50369074807E+03  0.49788394270E+03 0.  0.
        1    1    3    3  502    0 -0.18609137638E+03  0.99656614051E+02  0.95357212188E+02  0.23163427861E+03  0.50400001928E-02 0. -1.
       -1    1    3    3    0  502  0.18609137638E+03 -0.99656614051E+02 -0.17161958357E+03  0.27205646946E+03  0.50400001928E-02 0.  1.
</event>
<event>
 5   0  0.1191894E-01  0.4955721E+03  0.7818609E-02  0.1014941E+00
       -2   -1    0    0    0  501  0.00000000000E+00  0.00000000000E+00  0.10482503917E+03  0.10482503920E+03  0.25500000920E-02 0. -1.
        2   -1    0    0  501    0  0.00000000000E+00  0.00000000000E+00 -0.58571802033E+03  0.58571802034E+03  0.25500000920E-02 0.  1.
    10030    2    1    2    0    0  0.00000000000E+00  0.00000000000E+00 -0.48089298116E+03  0.69054305954E+03  0.49557205102E+03 0.  0.
        3    1    3    3  502    0  0.23624873857E+02  0.23790728850E+03 -0.33117866911E+03  0.40845726051E+03  0.10100000352E+00 0.  1.
       -3    1    3    3    0  502 -0.23624873857E+02 -0.23790728850E+03 -0.14971431204E+03  0.28208579903E+03  0.10100000352E+00 0. -1.
</event>
<event>
 5   0  0.1231822E-01  0.5020848E+03  0.7818609E-02  0.1013236E+00
       -2   -1    0    0    0  501  0.00000000000E+00  0.00000000000E+00  0.29168811477E+02  0.29168811589E+02  0.25500000920E-02 0.  1.
        2   -1    0    0  501    0  0.00000000000E+00  0.00000000000E+00 -0.21606051404E+04  0.21606051404E+04  0.25500000920E-02 0. -1.
    10030    2    1    2    0    0  0.00000000000E+00  0.00000000000E+00 -0.21314363289E+04  0.21897739520E+04  0.50208479021E+03 0.  0.
        1    1    3    3  502    0 -0.18088510714E+03  0.16672098751E+03 -0.84734605253E+03  0.88233250106E+03  0.50400001928E-02 0.  1.
       -1    1    3    3    0  502  0.18088510714E+03 -0.16672098751E+03 -0.12840902764E+04  0.13074414509E+04  0.50400001928E-02 0. -1.
</event>
<event>
 5   0  0.1191894E-01  0.5097869E+03  0.7818609E-02  0.1011256E+00
        2   -1    0    0  501    0  0.00000000000E+00  0.00000000000E+00  0.58287905511E+03  0.58287905511E+03  0.25500000920E-02 0.  1.
       -2   -1    0    0    0  501  0.00000000000E+00  0.00000000000E+00 -0.11146508161E+03  0.11146508163E+03  0.25500000920E-02 0. -1.
    10030    2    1    2    0    0  0.00000000000E+00  0.00000000000E+00  0.47141397350E+03  0.69434413675E+03  0.50978686313E+03 0.  0.
        3    1    3    3  502    0 -0.20962059413E+03 -0.16532863072E+02  0.43193609353E+03  0.48039871788E+03  0.10100000352E+00 0.  1.
       -3    1    3    3    0  502  0.20962059413E+03  0.16532863072E+02  0.39477879970E+02  0.21394541887E+03  0.10100000352E+00 0. -1.
</event>
<event>
 5   0  0.7416638E-02  0.4662176E+03  0.7818609E-02  0.1022993E+00
       -1   -1    0    0    0  501  0.00000000000E+00  0.00000000000E+00  0.60441495281E+03  0.60441495283E+03  0.50400001928E-02 0. -1.
        1   -1    0    0  501    0  0.00000000000E+00  0.00000000000E+00 -0.89904640855E+02  0.89904640996E+02  0.50400001928E-02 0.  1.
    10030    2    1    2    0    0  0.00000000000E+00  0.00000000000E+00  0.51451031195E+03  0.69431959383E+03  0.46621758575E+03 0.  0.
        1    1    3    3  502    0 -0.13025480245E+03  0.95035113351E+02  0.50797222058E+03  0.53294818063E+03  0.50400001928E-02 0. -1.
       -1    1    3    3    0  502  0.13025480245E+03 -0.95035113351E+02  0.65380913734E+01  0.16137141319E+03  0.50400001928E-02 0.  1.
</event>
<event>
 5   0  0.7531632E-02  0.5040588E+03  0.7818609E-02  0.1012725E+00
        1   -1    0    0  501    0  0.00000000000E+00  0.00000000000E+00  0.12659805904E+04  0.12659805904E+04  0.50400001928E-02 0.  1.
       -1   -1    0    0    0  501  0.00000000000E+00  0.00000000000E+00 -0.50173604833E+02  0.50173605086E+02  0.50400001928E-02 0. -1.
    10030    2    1    2    0    0  0.00000000000E+00  0.00000000000E+00  0.12158069856E+04  0.13161541955E+04  0.50405876659E+03 0.  0.
        3    1    3    3  502    0  0.11846253720E+03  0.13757090481E+03  0.10643605788E+04  0.10797326422E+04  0.10100000352E+00 0.  1.
       -3    1    3    3    0  502 -0.11846253720E+03 -0.13757090481E+03  0.15144640674E+03  0.23642155335E+03  0.10100000352E+00 0. -1.
</event>
<event>
 5   0  0.1231822E-01  0.5037669E+03  0.7818609E-02  0.1012800E+00
        2   -1    0    0  501    0  0.00000000000E+00  0.00000000000E+00  0.36601664530E+03  0.36601664531E+03  0.25500000920E-02 0. -1.
       -2   -1    0    0    0  501  0.00000000000E+00  0.00000000000E+00 -0.17333988018E+03  0.17333988020E+03  0.25500000920E-02 0.  1.
    10030    2    1    2    0    0  0.00000000000E+00  0.00000000000E+00  0.19267676512E+03  0.53935652551E+03  0.50376693599E+03 0.  0.
        1    1    3    3  502    0 -0.16134446750E+03 -0.17289937355E+03  0.18917681286E+03  0.30284335409E+03  0.50400001928E-02 0. -1.
       -1    1    3    3    0  502  0.16134446750E+03  0.17289937355E+03  0.34999522630E+01  0.23651317142E+03  0.50400001928E-02 0.  1.
</event>
<event>
 5   0  0.5006750E-02  0.5008913E+03  0.7818609E-02  0.1013547E+00
       -4   -1    0    0    0  501  0.00000000000E+00  0.00000000000E+00  0.66733684447E+03  0.66733805293E+03  0.12699999809E+01 0. -1.
        4   -1    0    0  501    0  0.00000000000E+00  0.00000000000E+00 -0.93984472314E+02  0.93993052595E+02  0.12699999809E+01 0.  1.
    10030    2    1    2    0    0  0.00000000000E+00  0.00000000000E+00  0.57335237216E+03  0.76133110553E+03  0.50089131514E+03 0.  0.
        1    1    3    3  502    0  0.11588857792E+02 -0.56070899112E+02  0.65726041635E+03  0.65974957543E+03  0.50400001928E-02 0. -1.
       -1    1    3    3    0  502 -0.11588857792E+02  0.56070899112E+02 -0.83908044190E+02  0.10158153010E+03  0.50400001928E-02 0.  1.
</event>
<event>
 5   0  0.1231822E-01  0.4985368E+03  0.7818609E-02  0.1014162E+00
       -2   -1    0    0    0  501  0.00000000000E+00  0.00000000000E+00  0.15281295781E+03  0.15281295783E+03  0.25500000920E-02 0. -1.
        2   -1    0    0  501    0  0.00000000000E+00  0.00000000000E+00 -0.40660653600E+03  0.40660653600E+03  0.25500000920E-02 0.  1.
    10030    2    1    2    0    0  0.00000000000E+00  0.00000000000E+00 -0.25379357819E+03  0.55941949383E+03  0.49853684894E+03 0.  0.
        1    1    3    3  502    0  0.14822359644E+02 -0.82621766191E+02 -0.39026997029E+03  0.39919507553E+03  0.50400001928E-02 0.  1.
       -1    1    3    3    0  502 -0.14822359644E+02  0.82621766191E+02  0.13647639210E+03  0.16022441830E+03  0.50400001928E-02 0. -1.
</event>
<event>
 5   0  0.5006750E-02  0.4966980E+03  0.7818609E-02  0.1014644E+00
       -4   -1    0    0    0  501  0.00000000000E+00  0.00000000000E+00  0.30532525534E+03  0.30532789661E+03  0.12699999809E+01 0. -1.
        4   -1    0    0  501    0  0.00000000000E+00  0.00000000000E+00 -0.20199945093E+03  0.20200344322E+03  0.12699999809E+01 0.  1.
    10030    2    1    2    0    0  0.00000000000E+00  0.00000000000E+00  0.10332580442E+03  0.50733133983E+03  0.49669796307E+03 0.  0.
        2    1    3    3  502    0  0.11229418283E+03  0.12818844458E+03  0.23618178936E+03  0.29124576984E+03  0.25500000920E-02 0. -1.
       -2    1    3    3    0  502 -0.11229418283E+03 -0.12818844458E+03 -0.13285598494E+03  0.21608557000E+03  0.25500000920E-02 0.  1.
</event>
<event>
 5   0  0.1211345E-01  0.5021742E+03  0.7818609E-02  0.1013213E+00
       -2   -1    0    0    0  501  0.00000000000E+00  0.00000000000E+00  0.57926706479E+02  0.57926706535E+02  0.25500000920E-02 0. -1.
        2   -1    0    0  501    0  0.00000000000E+00  0.00000000000E+00 -0.10883536793E+04  0.10883536793E+04  0.25500000920E-02 0.  1.
    10030    2    1    2    0    0  0.00000000000E+00  0.00000000000E+00 -0.10304269728E+04  0.11462803859E+04  0.50217424928E+03 0.  0.
        5    1    3    3  502    0  0.78935815314E+02  0.43189852780E+02  0.19753645371E+02  0.92241654507E+02  0.46999998093E+01 0. -1.
       -5    1    3    3    0  502 -0.78935815314E+02 -0.43189852780E+02 -0.10501806182E+04  0.10540387314E+04  0.46999998093E+01 0.  1.
</event>
<event>
 5   0  0.7602288E-02  0.4976390E+03  0.7818609E-02  0.1014397E+00
       -1   -1    0    0    0  501  0.00000000000E+00  0.00000000000E+00  0.94414455776E+02  0.94414455910E+02  0.50400001928E-02 0.  1.
        1   -1    0    0  501    0  0.00000000000E+00  0.00000000000E+00 -0.65573803562E+03  0.65573803564E+03  0.50400001928E-02 0. -1.
    10030    2    1    2    0    0  0.00000000000E+00  0.00000000000E+00 -0.56132357985E+03  0.75015249155E+03  0.49763902509E+03 0.  0.
        5    1    3    3  502    0 -0.23353825757E+03 -0.17114417085E+02 -0.15403791321E+03  0.28032622019E+03  0.46999998093E+01 0.  1.
       -5    1    3    3    0  502  0.23353825757E+03  0.17114417085E+02 -0.40728566664E+03  0.46982627137E+03  0.46999998093E+01 0. -1.
</event>
<event>
 5   0  0.5006750E-02  0.5030510E+03  0.7818609E-02  0.1012986E+00
       -3   -1    0    0    0  501  0.00000000000E+00  0.00000000000E+00  0.37916194404E+03  0.37916195749E+03  0.10100000352E+00 0. -1.
        3   -1    0    0  501    0  0.00000000000E+00  0.00000000000E+00 -0.16685502286E+03  0.16685505343E+03  0.10100000352E+00 0.  1.
    10030    2    1    2    0    0  0.00000000000E+00  0.00000000000E+00  0.21230692118E+03  0.54601701092E+03  0.50305103860E+03 0.  0.
        2    1    3    3  502    0 -0.78919216097E+02  0.23626419448E+03  0.68302733182E+02  0.25829106765E+03  0.25500000920E-02 0.  1.
       -2    1    3    3    0  502  0.78919216097E+02 -0.23626419448E+03  0.14400418800E+03  0.28772594327E+03  0.25500000920E-02 0. -1.
</event>
<event>
 5   0  0.5006750E-02  0.5005240E+03  0.7818609E-02  0.1013642E+00
        3   -1    0    0  501    0  0.00000000000E+00  0.00000000000E+00  0.20912128457E+03  0.20912130896E+03  0.10100000352E+00 0.  1.
       -3   -1    0    0    0  501  0.00000000000E+00  0.00000000000E+00 -0.29949637571E+03  0.29949639274E+03  0.10100000352E+00 0. -1.
    10030    2    1    2    0    0  0.00000000000E+00  0.00000000000E+00 -0.90375091143E+02  0.50861770169E+03  0.50052403477E+03 0.  0.
        3    1    3    3  502    0  0.16857801824E+03 -0.10672193757E+03 -0.19870310328E+03  0.28158667164E+03  0.10100000352E+00 0. -1.
       -3    1    3    3    0  502 -0.16857801824E+03  0.10672193757E+03  0.10832801213E+03  0.22703103005E+03  0.10100000352E+00 0.  1.
</event>
<event>
 5   0  0.7416638E-02  0.5083871E+03  0.7818609E-02  0.1011613E+00
        1   -1    0    0  501    0  0.00000000000E+00  0.00000000000E+00  0.43317484545E+03  0.43317484548E+03  0.50400001928E-02 0. -1.
       -1   -1    0    0    0  501  0.00000000000E+00  0.00000000000E+00 -0.14916459282E+03  0.14916459290E+03  0.50400001928E-02 0.  1.
    10030    2    1    2    0    0  0.00000000000E+00  0.00000000000E+00  0.28401025263E+03  0.58233943838E+03  0.50838705520E+03 0.  0.
        1    1    3    3  502    0  0.24595145983E+03  0.37876423982E+02  0.20138844555E+03  0.32013130136E+03  0.50400001928E-02 0.  1.
       -1    1    3    3    0  502 -0.24595145983E+03 -0.37876423982E+02  0.82621807083E+02  0.26220813702E+03  0.50400001928E-02 0. -1.
</event>
<event>
 5   0  0.7531632E-02  0.4975836E+03  0.7818609E-02  0.1014412E+00
       -1   -1    0    0    0  501  0.00000000000E+00  0.00000000000E+00  0.43633284290E+02  0.43633284581E+02  0.50400001928E-02 0.  1.
        1   -1    0    0  501    0  0.00000000000E+00  0.00000000000E+00 -0.14185812071E+04  0.14185812071E+04  0.50400001928E-02 0. -1.
    10030    2    1    2    0    0  0.00000000000E+00  0.00000000000E+00 -0.13749479228E+04  0.14622144917E+04  0.49758359023E+03 0.  0.
        3    1    3    3  502    0 -0.23457770066E+03  0.53959946430E+01 -0.44440934706E+03  0.50254899498E+03  0.10100000352E+00 0.  1.
       -3    1    3    3    0  502  0.23457770066E+03 -0.53959946430E+01 -0.93053857575E+03  0.95966549670E+03  0.10100000352E+00 0. -1.
</event>
<event>
 5   0  0.7531632E-02  0.4911455E+03  0.7818609E-02  0.1016116E+00
        1   -1    0    0  501    0  0.00000000000E+00  0.00000000000E+00  0.87599933705E+03  0.87599933707E+03  0.50400001928E-02 0. -1.
       -1   -1    0    0    0  501  0.00000000000E+00  0.00000000000E+00 -0.68842499374E+02  0.68842499558E+02  0.50400001928E-02 0.  1.
    10030    2    1    2    0    0  0.00000000000E+00  0.00000000000E+00  0.80715683768E+03  0.94484183663E+03  0.49114553406E+03 0.  0.
        3    1    3    3  502    0 -0.46766519850E+02 -0.17553577131E+03  0.72146956368E+03  0.74398807511E+03  0.10100000352E+00 0. -1.
       -3    1    3    3    0  502  0.46766519850E+02  0.17553577131E+03  0.85687274002E+02  0.20085376152E+03  0.10100000352E+00 0.  1.
</event>
<event>
 5   0  0.1231822E-01  0.4866075E+03  0.7818609E-02  0.1017335E+00
        2   -1    0    0  501    0  0.00000000000E+00  0.00000000000E+00  0.11521180421E+04  0.11521180421E+04  0.25500000920E-02 0. -1.
       -2   -1    0    0    0  501  0.00000000000E+00  0.00000000000E+00 -0.51380771032E+02  0.51380771096E+02  0.25500000920E-02 0.  1.
    10030    2    1    2    0    0  0.00000000000E+00  0.00000000000E+00  0.11007372711E+04  0.12034988132E+04  0.48660749425E+03 0.  0.
        1    1    3    3  502    0  0.21726772286E+02 -0.10967195752E+03  0.10848223168E+04  0.10905684068E+04  0.50400001928E-02 0. -1.
       -1    1    3    3    0  502 -0.21726772286E+02  0.10967195752E+03  0.15914954325E+02  0.11293040644E+03  0.50400001928E-02 0.  1.
</event>
<event>
 5   0  0.7812547E-02  0.4974362E+03  0.7818609E-02  0.1014450E+00
       -1   -1    0    0    0  501  0.00000000000E+00  0.00000000000E+00  0.34425259652E+03  0.34425259656E+03  0.50400001928E-02 0.  1.
        1   -1    0    0  501    0  0.00000000000E+00  0.00000000000E+00 -0.17969561748E+03  0.17969561755E+03  0.50400001928E-02 0. -1.
    10030    2    1    2    0    0  0.00000000000E+00  0.00000000000E+00  0.16455697905E+03  0.52394821411E+03  0.49743615843E+03 0.  0.
        4    1    3    3  502    0  0.23172562078E+03  0.27712410635E+01  0.17739437649E+03  0.29184725596E+03  0.12699999809E+01 0.  1.
       -4    1    3    3    0  502 -0.23172562078E+03 -0.27712410635E+01 -0.12837397442E+02  0.23210095815E+03  0.12699999809E+01 0. -1.
</event>
<event>
 5   0  0.7416638E-02  0.4866410E+03  0.7818609E-02  0.1017326E+00
       -1   -1    0    0    0  501  0.00000000000E+00  0.00000000000E+00  0.24759152596E+03  0.24759152602E+03  0.50400001928E-02 0. -1.
        1   -1    0    0  501    0  0.00000000000E+00  0.00000000000E+00 -0.23912317571E+03  0.23912317577E+03  0.50400001928E-02 0.  1.
    10030    2    1    2    0    0  0.00000000000E+00  0.00000000000E+00  0.84683502496E+01  0.48671470178E+03  0.48664102578E+03 0.  0.
        1    1    3    3  502    0 -0.19814200094E+03  0.12653620306E+03  0.66958969168E+02  0.24444869973E+03  0.50400001928E-02 0. -1.
       -1    1    3    3    0  502  0.19814200094E+03 -0.12653620306E+03 -0.58490618918E+02  0.24226600205E+03  0.50400001928E-02 0.  1.
</event>
<event>
 5   0  0.1279188E-01  0.5119077E+03  0.7818609E-02  0.1010717E+00
       -2   -1    0    0    0  501  0.00000000000E+00  0.00000000000E+00  0.26572424583E+03  0.26572424584E+03  0.25500000920E-02 0. -1.
        2   -1    0    0  501    0  0.00000000000E+00  0.00000000000E+00 -0.24654271301E+03  0.24654271302E+03  0.25500000920E-02 0.  1.
    10030    2    1    2    0    0  0.00000000000E+00  0.00000000000E+00  0.19181532817E+02  0.51226695886E+03  0.51190771233E+03 0.  0.
        2    1    3    3  502    0 -0.10925897989E+03 -0.10907347552E+03  0.21388552057E+03  0.26378317548E+03  0.25500000920E-02 0. -1.
       -2    1    3    3    0  502  0.10925897989E+03  0.10907347552E+03 -0.19470398776E+03  0.24848378338E+03  0.25500000920E-02 0.  1.
</event>
<event>
 5   0  0.7531632E-02  0.5024862E+03  0.7818609E-02  0.1013132E+00
        1   -1    0    0  501    0  0.00000000000E+00  0.00000000000E+00  0.10291978874E+03  0.10291978886E+03  0.50400001928E-02 0.  1.
       -1   -1    0    0    0  501  0.00000000000E+00  0.00000000000E+00 -0.61332326179E+03  0.61332326181E+03  0.50400001928E-02 0. -1.
    10030    2    1    2    0    0  0.00000000000E+00  0.00000000000E+00 -0.51040347305E+03  0.71624305067E+03  0.50248622103E+03 0.  0.
        3    1    3    3  502    0  0.11058929341E+03  0.19543888671E+03 -0.41581535976E+03  0.47257673861E+03  0.10100000352E+00 0. -1.
       -3    1    3    3    0  502 -0.11058929341E+03 -0.19543888671E+03 -0.94588113284E+02  0.24366631206E+03  0.10100000352E+00 0.  1.
</event>
<event>
 5   0  0.5006750E-02  0.4954051E+03  0.7818609E-02  0.1014985E+00
       -3   -1    0    0    0  501  0.00000000000E+00  0.00000000000E+00  0.55935239314E+02  0.55935330500E+02  0.10100000352E+00 0.  1.
        3   -1    0    0  501    0  0.00000000000E+00  0.00000000000E+00 -0.10969202524E+04  0.10969202570E+04  0.10100000352E+00 0. -1.
    10030    2    1    2    0    0  0.00000000000E+00  0.00000000000E+00 -0.10409850130E+04  0.11528555875E+04  0.49540509511E+03 0.  0.
        2    1    3    3  502    0  0.66136939623E+01  0.24273995449E+03 -0.63426173219E+03  0.67915710361E+03  0.25500000920E-02 0.  1.
       -2    1    3    3    0  502 -0.66136939623E+01 -0.24273995449E+03 -0.40672328086E+03  0.47369848390E+03  0.25500000920E-02 0. -1.
</event>
<event>
 5   0  0.1191894E-01  0.5207933E+03  0.7818609E-02  0.1008490E+00
       -2   -1    0    0    0  501  0.00000000000E+00  0.00000000000E+00  0.89633898456E+02  0.89633898492E+02  0.25500000920E-02 0.  1.
        2   -1    0    0  501    0  0.00000000000E+00  0.00000000000E+00 -0.75648192057E+03  0.75648192057E+03  0.25500000920E-02 0. -1.
    10030    2    1    2    0    0  0.00000000000E+00  0.00000000000E+00 -0.66684802211E+03  0.84611581906E+03  0.52079333202E+03 0.  0.
        3    1    3    3  502    0 -0.24683399944E+03 -0.31164846051E+02 -0.45830314626E+03  0.52147871959E+03  0.10100000352E+00 0.  1.
       -3    1    3    3    0  502  0.24683399944E+03  0.31164846051E+02 -0.20854487585E+03  0.32463709947E+03  0.10100000352E+00 0. -1.
</event>
<event>
 5   0  0.7812547E-02  0.5037410E+03  0.7818609E-02  0.1012807E+00
        1   -1    0    0  501    0  0.00000000000E+00  0.00000000000E+00  0.10262001920E+04  0.10262001921E+04  0.50400001928E-02 0.  1.
       -1   -1    0    0    0  501  0.00000000000E+00  0.00000000000E+00 -0.61819069268E+02  0.61819069474E+02  0.50400001928E-02 0. -1.
    10030    2    1    2    0    0  0.00000000000E+00  0.00000000000E+00  0.96438112277E+03  0.10880192615E+04  0.50374096865E+03 0.  0.
        4    1    3    3  502    0  0.50838992889E+02 -0.24662469501E+03  0.47060253955E+03  0.53373842518E+03  0.12699999809E+01 0. -1.
       -4    1    3    3    0  502 -0.50838992889E+02  0.24662469501E+03  0.49377858323E+03  0.55428083635E+03  0.12699999809E+01 0.  1.
</event>
<event>
 5   0  0.1279188E-01  0.4987012E+03  0.7818609E-02  0.1014118E+00
        2   -1    0    0  501    0  0.00000000000E+00  0.00000000000E+00  0.24391549740E+03  0.24391549741E+03  0.25500000920E-02 0. -1.
       -2   -1    0    0    0  501  0.00000000000E+00  0.00000000000E+00 -0.25490682623E+03  0.25490682624E+03  0.25500000920E-02 0.  1.
    10030    2    1    2    0    0  0.00000000000E+00  0.00000000000E+00 -0.10991328828E+02  0.49882232365E+03  0.49870121442E+03 0.  0.
        2    1    3    3  502    0  0.24569283523E+03  0.10377563313E+01  0.37054989564E+02  0.24847357702E+03  0.25500000920E-02 0. -1.
       -2    1    3    3    0  502 -0.24569283523E+03 -0.10377563313E+01 -0.48046318392E+02  0.25034874663E+03  0.25500000920E-02 0.  1.
</event>
<event>
 5   0  0.7781754E-02  0.4963218E+03  0.7818609E-02  0.1014743E+00
        1   -1    0    0  501    0  0.00000000000E+00  0.00000000000E+00  0.53426380884E+03  0.53426380886E+03  0.50400001928E-02 0. -1.
       -1   -1    0    0    0  501  0.00000000000E+00  0.00000000000E+00 -0.11526856343E+03  0.11526856354E+03  0.50400001928E-02 0.  1.
    10030    2    1    2    0    0  0.00000000000E+00  0.00000000000E+00  0.41899524541E+03  0.64953237240E+03  0.49632175765E+03 0.  0.
        2    1    3    3  502    0 -0.23487652442E+02 -0.13494424678E+03  0.48031216770E+03  0.49946110760E+03  0.25500000920E-02 0. -1.
       -2    1    3    3    0  502  0.23487652442E+02  0.13494424678E+03 -0.61316922286E+02  0.15007126481E+03  0.25500000920E-02 0.  1.
</event>
<event>
 5   0  0.1191894E-01  0.4972931E+03  0.7818609E-02  0.1014488E+00
       -2   -1    0    0    0  501  0.00000000000E+00  0.00000000000E+00  0.40618381002E+03  0.40618381003E+03  0.25500000920E-02 0.  1.
        2   -1    0    0  501    0  0.00000000000E+00  0.00000000000E+00 -0.15220969572E+03  0.15220969574E+03  0.25500000920E-02 0. -1.
    10030    2    1    2    0    0  0.00000000000E+00  0.00000000000E+00  0.25397411430E+03  0.55839350577E+03  0.49729312941E+03 0.  0.
        3    1    3    3  502    0 -0.64370835313E+02 -0.13024927275E+03  0.35356299872E+03  0.38225028680E+03  0.10100000352E+00 0.  1.
       -3    1    3    3    0  502  0.64370835313E+02  0.13024927275E+03 -0.99588884424E+02  0.17614321898E+03  0.10100000352E+00 0. -1.
</event>
<event>
 5   0  0.1211345E-01  0.5040221E+03  0.7818609E-02  0.1012734E+00
       -2   -1    0    0    0  501  0.00000000000E+00  0.00000000000E+00  0.89921022477E+02  0.89921022513E+02  0.25500000920E-02 0.  1.
        2   -1    0    0  501    0  0.00000000000E+00  0.00000000000E+00 -0.70628166914E+03  0.70628166915E+03  0.25500000920E-02 0. -1.
    10030    2    1    2    0    0  0.00000000000E+00  0.00000000000E+00 -0.61636064667E+03  0.79620269166E+03  0.50402210214E+03 0.  0.
        5    1    3    3  502    0  0.14372378406E+03 -0.45294025448E+00  0.18747507297E+02  0.14501824123E+03  0.46999998093E+01 0.  1.
       -5    1    3    3    0  502 -0.14372378406E+03  0.45294025448E+00 -0.63510815396E+03  0.65118445044E+03  0.46999998093E+01 0. -1.
</event>
<event>
 5   0  0.7781754E-02  0.5036190E+03  0.7818609E-02  0.1012839E+00
       -1   -1    0    0    0  501  0.00000000000E+00  0.00000000000E+00  0.47732619225E+03  0.47732619228E+03  0.50400001928E-02 0.  1.
        1   -1    0    0  501    0  0.00000000000E+00  0.00000000000E+00 -0.13284001879E+03  0.13284001889E+03  0.50400001928E-02 0. -1.
    10030    2    1    2    0    0  0.00000000000E+00  0.00000000000E+00  0.34448617346E+03  0.61016621117E+03  0.50361898449E+03 0.  0.
        2    1    3    3  502    0 -0.22264954795E+02 -0.22887628118E+03  0.47929738557E+02  0.23489857416E+03  0.25500000920E-02 0.  1.
       -2    1    3    3    0  502  0.22264954795E+02  0.22887628118E+03  0.29655643491E+03  0.37526763701E+03  0.25500000920E-02 0. -1.
</event>
<event>
 5   0  0.1191894E-01  0.4999850E+03  0.7818609E-02  0.1013783E+00
        2   -1    0    0  501    0  0.00000000000E+00  0.00000000000E+00  0.50902654805E+03  0.50902654806E+03  0.25500000920E-02 0. -1.
       -2   -1    0    0    0  501  0.00000000000E+00  0.00000000000E+00 -0.12277601179E+03  0.12277601181E+03  0.25500000920E-02 0.  1.
    10030    2    1    2    0    0  0.00000000000E+00  0.00000000000E+00  0.38625053626E+03  0.63180255987E+03  0.49998499767E+03 0.  0.
        3    1    3    3  502    0  0.10646700160E+03  0.19498983907E+00  0.47894606807E+03  0.49063693987E+03  0.10100000352E+00 0. -1.
       -3    1    3    3    0  502 -0.10646700160E+03 -0.19498983907E+00 -0.92695531805E+02  0.14116562000E+03  0.10100000352E+00 0.  1.
</event>
<event>
 5   0  0.1231822E-01  0.4873826E+03  0.7818609E-02  0.1017126E+00
       -2   -1    0    0    0  501  0.00000000000E+00  0.00000000000E+00  0.29754333730E+02  0.29754333840E+02  0.25500000920E-02 0. -1.
        2   -1    0    0  501    0  0.00000000000E+00  0.00000000000E+00 -0.19958591632E+04  0.19958591632E+04  0.25500000920E-02 0.  1.
    10030    2    1    2    0    0  0.00000000000E+00  0.00000000000E+00 -0.19661048295E+04  0.20256134971E+04  0.48738264119E+03 0.  0.
        1    1    3    3  502    0 -0.18391832276E+02  0.50652934049E+02  0.46805789505E+01  0.54091469447E+02  0.50400001928E-02 0. -1.
       -1    1    3    3    0  502  0.18391832276E+02 -0.50652934049E+02 -0.19707854085E+04  0.19715220276E+04  0.50400001928E-02 0.  1.
</event>
<event>
 5   0  0.7531632E-02  0.4959136E+03  0.7818609E-02  0.1014851E+00
        1   -1    0    0  501    0  0.00000000000E+00  0.00000000000E+00  0.45070636865E+03  0.45070636868E+03  0.50400001928E-02 0. -1.
       -1   -1    0    0    0  501  0.00000000000E+00  0.00000000000E+00 -0.13641383859E+03  0.13641383868E+03  0.50400001928E-02 0.  1.
    10030    2    1    2    0    0  0.00000000000E+00  0.00000000000E+00  0.31429253007E+03  0.58712020736E+03  0.49591364514E+03 0.  0.
        3    1    3    3  502    0 -0.20681189642E+03 -0.57463916499E+02  0.10181706369E+02  0.21488820244E+03  0.10100000352E+00 0.  1.
       -3    1    3    3    0  502  0.20681189642E+03  0.57463916499E+02  0.30411082370E+03  0.37223200492E+03  0.10100000352E+00 0. -1.
</event>
<event>
 5   0  0.1191894E-01  0.4790331E+03  0.7818609E-02  0.1019401E+00
       -2   -1    0    0    0  501  0.00000000000E+00  0.00000000000E+00  0.98037726236E+02  0.98037726269E+02  0.25500000920E-02 0. -1.
        2   -1    0    0  501    0  0.00000000000E+00  0.00000000000E+00 -0.58516426615E+03  0.58516426615E+03  0.25500000920E-02 0.  1.
    10030    2    1    2    0    0  0.00000000000E+00  0.00000000000E+00 -0.48712653991E+03  0.68320199242E+03  0.47903308504E+03 0.  0.
        3    1    3    3  502    0 -0.17530410212E+03  0.71008134425E+01 -0.11015668690E+02  0.17579335861E+03  0.10100000352E+00 0. -1.
       -3    1    3    3    0  502  0.17530410212E+03 -0.71008134425E+01 -0.47611087122E+03  0.50740863381E+03  0.10100000352E+00 0.  1.
</event>
<event>
 5   0  0.7812547E-02  0.5001478E+03  0.7818609E-02  0.1013740E+00
       -1   -1    0    0    0  501  0.00000000000E+00  0.00000000000E+00  0.74580654377E+02  0.74580654547E+02  0.50400001928E-02 0.  1.
        1   -1    0    0  501    0  0.00000000000E+00  0.00000000000E+00 -0.83851455707E+03  0.83851455709E+03  0.50400001928E-02 0. -1.
    10030    2    1    2    0    0  0.00000000000E+00  0.00000000000E+00 -0.76393390270E+03  0.91309521164E+03  0.50014783597E+03 0.  0.
        4    1    3    3  502    0  0.75421414842E+02  0.18802313175E+03 -0.11430973483E+03  0.23261430796E+03  0.12699999809E+01 0.  1.
       -4    1    3    3    0  502 -0.75421414842E+02 -0.18802313175E+03 -0.64962416787E+03  0.68048090368E+03  0.12699999809E+01 0. -1.
</event>
<event>
 5   0  0.7812547E-02  0.5109076E+03  0.7818609E-02  0.1010970E+00
       -1   -1    0    0    0  501  0.00000000000E+00  0.00000000000E+00  0.15077232508E+03  0.15077232517E+03  0.50400001928E-02 0. -1.
        1   -1    0    0  501    0  0.00000000000E+00  0.00000000000E+00 -0.43281586369E+03  0.43281586372E+03  0.50400001928E-02 0.  1.
    10030    2    1    2    0    0  0.00000000000E+00  0.00000000000E+00 -0.28204353861E+03  0.58358818889E+03  0.51090763993E+03 0.  0.
        4    1    3    3  502    0 -0.23496119027E+03 -0.53837555160E+02 -0.44436480797E+02  0.24511519130E+03  0.12699999809E+01 0. -1.
       -4    1    3    3    0  502  0.23496119027E+03  0.53837555160E+02 -0.23760705781E+03  0.33847299760E+03  0.12699999809E+01 0.  1.
</event>
<event>
 5   0  0.7531632E-02  0.4985778E+03  0.7818609E-02  0.1014151E+00
        1   -1    0    0  501    0  0.00000000000E+00  0.00000000000E+00  0.33353647314E+03  0.33353647318E+03  0.50400001928E-02 0.  1.
       -1   -1    0    0    0  501  0.00000000000E+00  0.00000000000E+00 -0.18632133303E+03  0.18632133310E+03  0.50400001928E-02 0. -1.
    10030    2    1    2    0    0  0.00000000000E+00  0.00000000000E+00  0.14721514011E+03  0.51985780628E+03  0.49857781867E+03 0.  0.
        3    1    3    3  502    0 -0.18477630782E+03 -0.15121485036E+03  0.14833760864E+03  0.28109121516E+03  0.10100000352E+00 0.  1.
       -3    1    3    3    0  502  0.18477630782E+03  0.15121485036E+03 -0.11224685264E+01  0.23876659112E+03  0.10100000352E+00 0. -1.
</event>
<event>
 5   0  0.1243803E-01  0.5002733E+03  0.7818609E-02  0.1013708E+00
       -2   -1    0    0    0  501  0.00000000000E+00  0.00000000000E+00  0.51927738414E+02  0.51927738476E+02  0.25500000920E-02 0.  1.
        2   -1    0    0  501    0  0.00000000000E+00  0.00000000000E+00 -0.12049119571E+04  0.12049119571E+04  0.25500000920E-02 0. -1.
    10030    2    1    2    0    0  0.00000000000E+00  0.00000000000E+00 -0.11529842187E+04  0.12568396956E+04  0.50027333713E+03 0.  0.
        4    1    3    3  502    0  0.35050883255E+02  0.52146682616E+02  0.31770836376E+02  0.70419030587E+02  0.12699999809E+01 0.  1.
       -4    1    3    3    0  502 -0.35050883255E+02 -0.52146682616E+02 -0.11847550551E+04  0.11864206650E+04  0.12699999809E+01 0. -1.
</event>
<event>
 5   0  0.1243803E-01  0.5007341E+03  0.7818609E-02  0.1013587E+00
        2   -1    0    0  501    0  0.00000000000E+00  0.00000000000E+00  0.10937882910E+03  0.10937882913E+03  0.25500000920E-02 0.  1.
       -2   -1    0    0    0  501  0.00000000000E+00  0.00000000000E+00 -0.57308760207E+03  0.57308760207E+03  0.25500000920E-02 0. -1.
    10030    2    1    2    0    0  0.00000000000E+00  0.00000000000E+00 -0.46370877297E+03  0.68246643121E+03  0.50073406475E+03 0.  0.
        4    1    3    3  502    0  0.10937316127E+03 -0.17873257907E+03 -0.45106778388E+02  0.21434564979E+03  0.12699999809E+01 0.  1.
       -4    1    3    3    0  502 -0.10937316127E+03  0.17873257907E+03 -0.41860199458E+03  0.46812078141E+03  0.12699999809E+01 0. -1.
</event>
<event>
 5   0  0.5006750E-02  0.4964971E+03  0.7818609E-02  0.1014697E+00
       -4   -1    0    0    0  501  0.00000000000E+00  0.00000000000E+00  0.84687505894E+02  0.84697028015E+02  0.12699999809E+01 0.  1.
        4   -1    0    0  501    0  0.00000000000E+00  0.00000000000E+00 -0.72765193578E+03  0.72765304407E+03  0.12699999809E+01 0. -1.
    10030    2    1    2    0    0  0.00000000000E+00  0.00000000000E+00 -0.64296442989E+03  0.81235007209E+03  0.49649711129E+03 0.  0.
        4    1    3    3  502    0  0.10895500774E+03  0.21797139358E+03 -0.39897158603E+03  0.46750685716E+03  0.12699999809E+01 0. -1.
       -4    1    3    3    0  502 -0.10895500774E+03 -0.21797139358E+03 -0.24399284386E+03  0.34484321493E+03  0.12699999809E+01 0.  1.
</event>
<event>
 5   0  0.7531632E-02  0.4908663E+03  0.7818609E-02  0.1016191E+00
       -1   -1    0    0    0  501  0.00000000000E+00  0.00000000000E+00  0.67485499705E+02  0.67485499893E+02  0.50400001928E-02 0. -1.
        1   -1    0    0  501    0  0.00000000000E+00  0.00000000000E+00 -0.89259817128E+03  0.89259817130E+03  0.50400001928E-02 0.  1.
    10030    2    1    2    0    0  0.00000000000E+00  0.00000000000E+00 -0.82511267158E+03  0.96008367119E+03  0.49086631061E+03 0.  0.
        3    1    3    3  502    0 -0.68677702327E+00  0.15386193643E+03 -0.38558164537E+02  0.15862127663E+03  0.10100000352E+00 0. -1.
       -3    1    3    3    0  502  0.68677702327E+00 -0.15386193643E+03 -0.78655450704E+03  0.80146239456E+03  0.10100000352E+00 0.  1.
</event>
<event>
 5   0  0.7602288E-02  0.4996908E+03  0.7818609E-02  0.1013860E+00
        1   -1    0    0  501    0  0.00000000000E+00  0.00000000000E+00  0.27971231717E+03  0.27971231722E+03  0.50400001928E-02 0. -1.
       -1   -1    0    0    0  501  0.00000000000E+00  0.00000000000E+00 -0.22316756119E+03  0.22316756125E+03  0.50400001928E-02 0.  1.
    10030    2    1    2    0    0  0.00000000000E+00  0.00000000000E+00  0.56544755981E+02  0.50287987847E+03  0.49969076711E+03 0.  0.
        5    1    3    3  502    0 -0.43564376583E+02 -0.23724548876E+03  0.93627961518E+02  0.25878864353E+03  0.46999998093E+01 0. -1.
       -5    1    3    3    0  502  0.43564376583E+02  0.23724548876E+03 -0.37083205538E+02  0.24409123494E+03  0.46999998093E+01 0.  1.
</event>
<event>
 5   0  0.1279188E-01  0.4953483E+03  0.7818609E-02  0.1015000E+00
        2   -1    0    0  501    0  0.00000000000E+00  0.00000000000E+00  0.19250163523E+04  0.19250163523E+04  0.25500000920E-02 0.  1.
       -2   -1    0    0    0  501  0.00000000000E+00  0.00000000000E+00 -0.31865951879E+02  0.31865951981E+02  0.25500000920E-02 0. -1.
    10030    2    1    2    0    0  0.00000000000E+00  0.00000000000E+00  0.18931504004E+04  0.19568823043E+04  0.49534827566E+03 0.  0.
        2    1    3    3  502    0 -0.16376734420E+03 -0.17720295504E+03  0.11673044790E+04  0.11919817016E+04  0.25500000920E-02 0.  1.
       -2    1    3    3    0  502  0.16376734420E+03  0.17720295504E+03  0.72584592141E+03  0.76490060265E+03  0.25500000920E-02 0. -1.
</event>
<event>
 5   0  0.1191894E-01  0.5025689E+03  0.7818609E-02  0.1013111E+00
       -2   -1    0    0    0  501  0.00000000000E+00  0.00000000000E+00  0.43470775900E+02  0.43470775975E+02  0.25500000920E-02 0. -1.
        2   -1    0    0  501    0  0.00000000000E+00  0.00000000000E+00 -0.14525590107E+04  0.14525590107E+04  0.25500000920E-02 0.  1.
    10030    2    1    2    0    0  0.00000000000E+00  0.00000000000E+00 -0.14090882348E+04  0.14960297867E+04  0.50256887008E+03 0.  0.
        3    1    3    3  502    0  0.87412132945E+02  0.20689115523E+03 -0.10399957134E+04  0.10639717690E+04  0.10100000352E+00 0.  1.
       -3    1    3    3    0  502 -0.87412132945E+02 -0.20689115523E+03 -0.36909252139E+03  0.43205801768E+03  0.10100000352E+00 0. -1.
</event>
<event>
 5   0  0.1231822E-01  0.4987758E+03  0.7818609E-02  0.1014099E+00
       -2   -1    0    0    0  501  0.00000000000E+00  0.00000000000E+00  0.10219694389E+03  0.10219694392E+03  0.25500000920E-02 0.  1.
        2   -1    0    0  501    0  0.00000000000E+00  0.00000000000E+00 -0.60857331320E+03  0.60857331320E+03  0.25500000920E-02 0. -1.
    10030    2    1    2    0    0  0.00000000000E+00  0.00000000000E+00 -0.50637636931E+03  0.71077025712E+03  0.49877583243E+03 0.  0.
        1    1    3    3  502    0  0.95301930084E+02 -0.22778229534E+03 -0.30310696439E+03  0.39094892739E+03  0.50400001928E-02 0. -1.
       -1    1    3    3    0  502 -0.95301930084E+02  0.22778229534E+03 -0.20326940492E+03  0.31982132973E+03  0.50400001928E-02 0.  1.
</event>
<event>
 5   0  0.1279188E-01  0.4939731E+03  0.7818609E-02  0.1015364E+00
       -2   -1    0    0    0  501  0.00000000000E+00  0.00000000000E+00  0.20980215922E+03  0.20980215924E+03  0.25500000920E-02 0. -1.
        2   -1    0    0  501    0  0.00000000000E+00  0.00000000000E+00 -0.29076137024E+03  0.29076137026E+03  0.25500000920E-02 0.  1.
    10030    2    1    2    0    0  0.00000000000E+00  0.00000000000E+00 -0.80959211023E+02  0.50056352949E+03  0.49397313005E+03 0.  0.
        2    1    3    3  502    0 -0.12275216405E+03 -0.41761299256E+02 -0.25349901354E+03  0.28473470067E+03  0.25500000920E-02 0.  1.
       -2    1    3    3    0  502  0.12275216405E+03  0.41761299256E+02  0.17253980251E+03  0.21582882882E+03  0.25500000920E-02 0. -1.
</event>
<event>
 5   0  0.1191894E-01  0.4993292E+03  0.7818609E-02  0.1013954E+00
       -2   -1    0    0    0  501  0.00000000000E+00  0.00000000000E+00  0.31158834667E+03  0.31158834668E+03  0.25500000920E-02 0. -1.
        2   -1    0    0  501    0  0.00000000000E+00  0.00000000000E+00 -0.20004730082E+03  0.20004730083E+03  0.25500000920E-02 0.  1.
    10030    2    1    2    0    0  0.00000000000E+00  0.00000000000E+00  0.11154104585E+03  0.51163564751E+03  0.49932918089E+03 0.  0.
        3    1    3    3  502    0 -0.90684755567E+02  0.17179250097E+03 -0.10492588627E+03  0.22078460112E+03  0.10100000352E+00 0.  1.
       -3    1    3    3    0  502  0.90684755567E+02 -0.17179250097E+03  0.21646693212E+03  0.29085104639E+03  0.10100000352E+00 0. -1.
</event>
<event>
 5   0  0.7531632E-02  0.5008927E+03  0.7818609E-02  0.1013546E+00
        1   -1    0    0  501    0  0.00000000000E+00  0.00000000000E+00  0.24275218609E+03  0.24275218614E+03  0.50400001928E-02 0.  1.
       -1   -1    0    0    0  501  0.00000000000E+00  0.00000000000E+00 -0.25838434543E+03  0.25838434548E+03  0.50400001928E-02 0. -1.
    10030    2    1    2    0    0  0.00000000000E+00  0.00000000000E+00 -0.15632159341E+02  0.50113653161E+03  0.50089266207E+03 0.  0.
        3    1    3    3  502    0 -0.10975513939E+03 -0.13233589711E+03 -0.19001562844E+03  0.25625169178E+03  0.10100000352E+00 0. -1.
       -3    1    3    3    0  502  0.10975513939E+03  0.13233589711E+03  0.17438346910E+03  0.24488483984E+03  0.10100000352E+00 0.  1.
</event>
<event>
 5   0  0.1211345E-01  0.5025688E+03  0.7818609E-02  0.1013111E+00
        2   -1    0    0  501    0  0.00000000000E+00  0.00000000000E+00  0.50486503703E+03  0.50486503703E+03  0.25500000920E-02 0. -1.
       -2   -1    0    0    0  501  0.00000000000E+00  0.00000000000E+00 -0.12507073569E+03  0.12507073571E+03  0.25500000920E-02 0.  1.
    10030    2    1    2    0    0  0.00000000000E+00  0.00000000000E+00  0.37979430134E+03  0.62993577275E+03  0.50256876789E+03 0.  0.
        5    1    3    3  502    0 -0.17988874020E+03  0.10060279883E+03  0.98174453626E+01  0.20639610998E+03  0.46999998093E+01 0. -1.
       -5    1    3    3    0  502  0.17988874020E+03 -0.10060279883E+03  0.36997685598E+03  0.42353966277E+03  0.46999998093E+01 0.  1.
</event>
<event>
 5   0  0.7602288E-02  0.5010425E+03  0.7818609E-02  0.1013507E+00
        1   -1    0    0  501    0  0.00000000000E+00  0.00000000000E+00  0.81231266640E+03  0.81231266642E+03  0.50400001928E-02 0. -1.
       -1   -1    0    0    0  501  0.00000000000E+00  0.00000000000E+00 -0.77262005696E+02  0.77262005861E+02  0.50400001928E-02 0.  1.
    10030    2    1    2    0    0  0.00000000000E+00  0.00000000000E+00  0.73505066071E+03  0.88957467228E+03  0.50104253687E+03 0.  0.
        5    1    3    3  502    0 -0.12749119621E+03  0.12414218180E+03  0.54555045859E+02  0.18618171081E+03  0.46999998093E+01 0.  1.
       -5    1    3    3    0  502  0.12749119621E+03 -0.12414218180E+03  0.68049561485E+03  0.70339296147E+03  0.46999998093E+01 0. -1.
</event>
<event>
 5   0  0.7531632E-02  0.4986926E+03  0.7818609E-02  0.1014121E+00
        1   -1    0    0  501    0  0.00000000000E+00  0.00000000000E+00  0.14387519726E+04  0.14387519726E+04  0.50400001928E-02 0.  1.
       -1   -1    0    0    0  501  0.00000000000E+00  0.00000000000E+00 -0.43213555872E+02  0.43213556166E+02  0.50400001928E-02 0. -1.
    10030    2    1    2    0    0  0.00000000000E+00  0.00000000000E+00  0.13955384167E+04  0.14819655288E+04  0.49869264674E+03 0.  0.
        3    1    3    3  502    0  0.84885954716E+02  0.14183528561E+03  0.12525365957E+04  0.12633965361E+04  0.10100000352E+00 0.  1.
       -3    1    3    3    0  502 -0.84885954716E+02 -0.14183528561E+03  0.14300182098E+03  0.21856899267E+03  0.10100000352E+00 0. -1.
</event>
<event>
 5   0  0.5006750E-02  0.5007599E+03  0.7818609E-02  0.1013581E+00
        3   -1    0    0  501    0  0.00000000000E+00  0.00000000000E+00  0.74731828594E+02  0.74731896845E+02  0.10100000352E+00 0.  1.
       -3   -1    0    0    0  501  0.00000000000E+00  0.00000000000E+00 -0.83886723920E+03  0.83886724528E+03  0.10100000352E+00 0. -1.
    10030    2    1    2    0    0  0.00000000000E+00  0.00000000000E+00 -0.76413541061E+03  0.91359914213E+03  0.50075988932E+03 0.  0.
        3    1    3    3  502    0  0.15429833619E+03  0.12027914903E+03 -0.66714000083E+03  0.69523437858E+03  0.10100000352E+00 0. -1.
       -3    1    3    3    0  502 -0.15429833619E+03 -0.12027914903E+03 -0.96995409773E+02  0.21836476355E+03  0.10100000352E+00 0.  1.
</event>
<event>
 5   0  0.1191894E-01  0.4481567E+03  0.7818609E-02  0.1028273E+00
       -2   -1    0    0    0  501  0.00000000000E+00  0.00000000000E+00  0.90540658082E+03  0.90540658082E+03  0.25500000920E-02 0. -1.
        2   -1    0    0  501    0  0.00000000000E+00  0.00000000000E+00 -0.55456965135E+02  0.55456965193E+02  0.25500000920E-02 0.  1.
    10030    2    1    2    0    0  0.00000000000E+00  0.00000000000E+00  0.84994961568E+03  0.96086354601E+03  0.44815667446E+03 0.  0.
        3    1    3    3  502    0 -0.18275032246E+03 -0.22916429481E+02  0.69860816181E+03  0.72247921565E+03  0.10100000352E+00 0. -1.
       -3    1    3    3    0  502  0.18275032246E+03  0.22916429481E+02  0.15134145387E+03  0.23838433036E+03  0.10100000352E+00 0.  1.
</event>
<event>
 5   0  0.7416638E-02  0.5015614E+03  0.7818609E-02  0.1013372E+00
        1   -1    0    0  501    0  0.00000000000E+00  0.00000000000E+00  0.70833839477E+02  0.70833839656E+02  0.50400001928E-02 0. -1.
       -1   -1    0    0    0  501  0.00000000000E+00  0.00000000000E+00 -0.88786590156E+03  0.88786590157E+03  0.50400001928E-02 0.  1.
    10030    2    1    2    0    0  0.00000000000E+00  0.00000000000E+00 -0.81703206208E+03  0.95869974123E+03  0.50156136550E+03 0.  0.
        1    1    3    3  502    0 -0.81171268438E+02  0.23633161374E+03 -0.36798899878E+03  0.44481154405E+03  0.50400001928E-02 0. -1.
       -1    1    3    3    0  502  0.81171268438E+02 -0.23633161374E+03 -0.44904306331E+03  0.51388819718E+03  0.50400001928E-02 0.  1.
</event>
<event>
 5   0  0.7531632E-02  0.4953936E+03  0.7818609E-02  0.1014988E+00
        1   -1    0    0  501    0  0.00000000000E+00  0.00000000000E+00  0.18384491277E+03  0.18384491284E+03  0.50400001928E-02 0.  1.
       -1   -1    0    0    0  501  0.00000000000E+00  0.00000000000E+00 -0.33372529412E+03  0.33372529416E+03  0.50400001928E-02 0. -1.
    10030    2    1    2    0    0  0.00000000000E+00  0.00000000000E+00 -0.14988038135E+03  0.51757020700E+03  0.49539357127E+03 0.  0.
        3    1    3    3  502    0 -0.77757444190E+02  0.31991759472E+02  0.16847899315E+03  0.18829464712E+03  0.10100000352E+00 0.  1.
       -3    1    3    3    0  502  0.77757444190E+02 -0.31991759472E+02 -0.31835937450E+03  0.32927555988E+03  0.10100000352E+00 0. -1.
</event>
<event>
 5   0  0.7781754E-02  0.4986600E+03  0.7818609E-02  0.1014129E+00
        1   -1    0    0  501    0  0.00000000000E+00  0.00000000000E+00  0.38678698375E+03  0.38678698378E+03  0.50400001928E-02 0.  1.
       -1   -1    0    0    0  501  0.00000000000E+00  0.00000000000E+00 -0.16072268518E+03  0.16072268526E+03  0.50400001928E-02 0. -1.
    10030    2    1    2    0    0  0.00000000000E+00  0.00000000000E+00  0.22606429856E+03  0.54750966904E+03  0.49865997494E+03 0.  0.
        2    1    3    3  502    0  0.18812245160E+02  0.24171356900E+03  0.17692271007E+03  0.30013496190E+03  0.25500000920E-02 0.  1.
       -2    1    3    3    0  502 -0.18812245160E+02 -0.24171356900E+03  0.49141588489E+02  0.24737470714E+03  0.25500000920E-02 0. -1.
</event>
<event>
 5   0  0.7602288E-02  0.5069003E+03  0.7818609E-02  0.1011993E+00
       -1   -1    0    0    0  501  0.00000000000E+00  0.00000000000E+00  0.57371666502E+02  0.57371666724E+02  0.50400001928E-02 0. -1.
        1   -1    0    0  501    0  0.00000000000E+00  0.00000000000E+00 -0.11196640170E+04  0.11196640170E+04  0.50400001928E-02 0.  1.
    10030    2    1    2    0    0  0.00000000000E+00  0.00000000000E+00 -0.10622923505E+04  0.11770356837E+04  0.50690034805E+03 0.  0.
        5    1    3    3  502    0 -0.14740733692E+03 -0.14187972015E+03 -0.18395771426E+03  0.27517505083E+03  0.46999998093E+01 0. -1.
       -5    1    3    3    0  502  0.14740733692E+03  0.14187972015E+03 -0.87833463623E+03  0.90186063289E+03  0.46999998093E+01 0.  1.
</event>
<event>
 5   0  0.1243803E-01  0.4980308E+03  0.7818609E-02  0.1014294E+00
       -2   -1    0    0    0  501  0.00000000000E+00  0.00000000000E+00  0.57030000272E+02  0.57030000329E+02  0.25500000920E-02 0.  1.
        2   -1    0    0  501    0  0.00000000000E+00  0.00000000000E+00 -0.10872991281E+04  0.10872991281E+04  0.25500000920E-02 0. -1.
    10030    2    1    2    0    0  0.00000000000E+00  0.00000000000E+00 -0.10302691278E+04  0.11443291284E+04  0.49803080067E+03 0.  0.
        4    1    3    3  502    0 -0.79694805479E+02 -0.47393065696E+02 -0.10461471161E+04  0.10502489067E+04  0.12699999809E+01 0. -1.
       -4    1    3    3    0  502  0.79694805479E+02  0.47393065696E+02  0.15877988293E+02  0.94080221666E+02  0.12699999809E+01 0.  1.
</event>
<event>
 5   0  0.1231822E-01  0.5228923E+03  0.7818609E-02  0.1007971E+00
        2   -1    0    0  501    0  0.00000000000E+00  0.00000000000E+00  0.10707046376E+04  0.10707046376E+04  0.25500000920E-02 0. -1.
       -2   -1    0    0    0  501  0.00000000000E+00  0.00000000000E+00 -0.63840288688E+02  0.63840288739E+02  0.25500000920E-02 0.  1.
    10030    2    1    2    0    0  0.00000000000E+00  0.00000000000E+00  0.10068643489E+04  0.11345449263E+04  0.52289231471E+03 0.  0.
        1    1    3    3  502    0  0.66145346695E+02 -0.25291477244E+03  0.51125656644E+03  0.57421630573E+03  0.50400001928E-02 0. -1.
       -1    1    3    3    0  502 -0.66145346695E+02  0.25291477244E+03  0.49560778247E+03  0.56032862062E+03  0.50400001928E-02 0.  1.
</event>
<event>
 5   0  0.7812547E-02  0.4996517E+03  0.7818609E-02  0.1013870E+00
       -1   -1    0    0    0  501  0.00000000000E+00  0.00000000000E+00  0.49465702279E+02  0.49465702536E+02  0.50400001928E-02 0. -1.
        1   -1    0    0  501    0  0.00000000000E+00  0.00000000000E+00 -0.12617421131E+04  0.12617421131E+04  0.50400001928E-02 0.  1.
    10030    2    1    2    0    0  0.00000000000E+00  0.00000000000E+00 -0.12122764108E+04  0.13112078157E+04  0.49965171828E+03 0.  0.
        4    1    3    3  502    0 -0.16597432190E+03 -0.34825686412E+02 -0.12474117274E+03  0.21052856585E+03  0.12699999809E+01 0. -1.
       -4    1    3    3    0  502  0.16597432190E+03  0.34825686412E+02 -0.10875352381E+04  0.11006792498E+04  0.12699999809E+01 0.  1.
</event>
<event>
 5   0  0.1279188E-01  0.5057521E+03  0.7818609E-02  0.1012288E+00
       -2   -1    0    0    0  501  0.00000000000E+00  0.00000000000E+00  0.77763878925E+03  0.77763878925E+03  0.25500000920E-02 0.  1.
        2   -1    0    0  501    0  0.00000000000E+00  0.00000000000E+00 -0.82231375566E+02  0.82231375606E+02  0.25500000920E-02 0. -1.
    10030    2    1    2    0    0  0.00000000000E+00  0.00000000000E+00  0.69540741368E+03  0.85987016486E+03  0.50575214227E+03 0.  0.
        2    1    3    3  502    0  0.23694734366E+03  0.60556687420E+01  0.19787934053E+03  0.30876681850E+03  0.25500000920E-02 0. -1.
       -2    1    3    3    0  502 -0.23694734366E+03 -0.60556687420E+01  0.49752807315E+03  0.55110334636E+03  0.25500000920E-02 0.  1.
</event>
<event>
 5   0  0.7531632E-02  0.5028215E+03  0.7818609E-02  0.1013045E+00
       -1   -1    0    0    0  501  0.00000000000E+00  0.00000000000E+00  0.99817930081E+02  0.99817930208E+02  0.50400001928E-02 0. -1.
        1   -1    0    0  501    0  0.00000000000E+00  0.00000000000E+00 -0.63322663655E+03  0.63322663657E+03  0.50400001928E-02 0.  1.
    10030    2    1    2    0    0  0.00000000000E+00  0.00000000000E+00 -0.53340870647E+03  0.73304456678E+03  0.50282152773E+03 0.  0.
        3    1    3    3  502    0 -0.24396561875E+03 -0.52588932326E+02 -0.22242412646E+03  0.33430124315E+03  0.10100000352E+00 0. -1.
       -3    1    3    3    0  502  0.24396561875E+03  0.52588932326E+02 -0.31098458001E+03  0.39874332363E+03  0.10100000352E+00 0.  1.
</event>
<event>
 5   0  0.1279188E-01  0.4943157E+03  0.7818609E-02  0.1015273E+00
        2   -1    0    0  501    0  0.00000000000E+00  0.00000000000E+00  0.91527723884E+03  0.91527723885E+03  0.25500000920E-02 0.  1.
       -2   -1    0    0    0  501  0.00000000000E+00  0.00000000000E+00 -0.66741541155E+02  0.66741541203E+02  0.25500000920E-02 0. -1.
    10030    2    1    2    0    0  0.00000000000E+00  0.00000000000E+00  0.84853569769E+03  0.98201878005E+03  0.49431574335E+03 0.  0.
        2    1    3    3  502    0  0.73233984137E+02  0.22895186791E+03  0.31006142773E+03  0.39232673019E+03  0.25500000920E-02 0. -1.
       -2    1    3    3    0  502 -0.73233984137E+02 -0.22895186791E+03  0.53847426996E+03  0.58969204986E+03  0.25500000920E-02 0.  1.
</event>
<event>
 5   0  0.7781754E-02  0.4867354E+03  0.7818609E-02  0.1017300E+00
       -1   -1    0    0    0  501  0.00000000000E+00  0.00000000000E+00  0.16719022322E+03  0.16719022329E+03  0.50400001928E-02 0.  1.
        1   -1    0    0  501    0  0.00000000000E+00  0.00000000000E+00 -0.35425417367E+03  0.35425417370E+03  0.50400001928E-02 0. -1.
    10030    2    1    2    0    0  0.00000000000E+00  0.00000000000E+00 -0.18706395045E+03  0.52144439700E+03  0.48673538766E+03 0.  0.
        2    1    3    3  502    0 -0.71189788080E+02  0.20278331253E+02  0.15483783968E+03  0.17162154075E+03  0.25500000920E-02 0.  1.
       -2    1    3    3    0  502  0.71189788080E+02 -0.20278331253E+02 -0.34190179014E+03  0.34982285624E+03  0.25500000920E-02 0. -1.
</event>
<event>
 5   0  0.7781754E-02  0.4947329E+03  0.7818609E-02  0.1015163E+00
       -1   -1    0    0    0  501  0.00000000000E+00  0.00000000000E+00  0.29011961801E+03  0.29011961805E+03  0.50400001928E-02 0. -1.
        1   -1    0    0  501    0  0.00000000000E+00  0.00000000000E+00 -0.21091352019E+03  0.21091352025E+03  0.50400001928E-02 0.  1.
    10030    2    1    2    0    0  0.00000000000E+00  0.00000000000E+00  0.79206097815E+02  0.50103313831E+03  0.49473285695E+03 0.  0.
        2    1    3    3  502    0  0.18542630545E+03  0.94302616159E+02  0.17515164798E+03  0.27194484360E+03  0.25500000920E-02 0. -1.
       -2    1    3    3    0  502 -0.18542630545E+03 -0.94302616159E+02 -0.95945550164E+02  0.22908829470E+03  0.25500000920E-02 0.  1.
</event>
<event>
 5   0  0.7781754E-02  0.4998436E+03  0.7818609E-02  0.1013820E+00
       -1   -1    0    0    0  501  0.00000000000E+00  0.00000000000E+00  0.23502046390E+03  0.23502046395E+03  0.50400001928E-02 0.  1.
        1   -1    0    0  501    0  0.00000000000E+00  0.00000000000E+00 -0.26576799316E+03  0.26576799321E+03  0.50400001928E-02 0. -1.
    10030    2    1    2    0    0  0.00000000000E+00  0.00000000000E+00 -0.30747529263E+02  0.50078845716E+03  0.49984364382E+03 0.  0.
        2    1    3    3  502    0 -0.23952636568E+03  0.15526661081E+02  0.54377944574E+02  0.24611159648E+03  0.25500000920E-02 0.  1.
       -2    1    3    3    0  502  0.23952636568E+03 -0.15526661081E+02 -0.85125473837E+02  0.25467686067E+03  0.25500000920E-02 0. -1.
</event>
<event>
 5   0  0.1243803E-01  0.4993036E+03  0.7818609E-02  0.1013961E+00
        2   -1    0    0  501    0  0.00000000000E+00  0.00000000000E+00  0.77474643159E+03  0.77474643159E+03  0.25500000920E-02 0. -1.
       -2   -1    0    0    0  501  0.00000000000E+00  0.00000000000E+00 -0.80446992162E+02  0.80446992202E+02  0.25500000920E-02 0.  1.
    10030    2    1    2    0    0  0.00000000000E+00  0.00000000000E+00  0.69429943943E+03  0.85519342379E+03  0.49930359554E+03 0.  0.
        4    1    3    3  502    0 -0.14607201789E+03 -0.19628625739E+03  0.43208454729E+03  0.49655211021E+03  0.12699999809E+01 0. -1.
       -4    1    3    3    0  502  0.14607201789E+03  0.19628625739E+03  0.26221489213E+03  0.35864131358E+03  0.12699999809E+01 0.  1.
</event>
<event>
 5   0  0.7602288E-02  0.4978037E+03  0.7818609E-02  0.1014354E+00
       -1   -1    0    0    0  501  0.00000000000E+00  0.00000000000E+00  0.36171114342E+02  0.36171114693E+02  0.50400001928E-02 0. -1.
        1   -1    0    0  501    0  0.00000000000E+00  0.00000000000E+00 -0.17127518158E+04  0.17127518158E+04  0.50400001928E-02 0.  1.
    10030    2    1    2    0    0  0.00000000000E+00  0.00000000000E+00 -0.16765807015E+04  0.17489229305E+04  0.49780374480E+03 0.  0.
        5    1    3    3  502    0  0.18677776096E+03  0.12923340249E+03 -0.11955899911E+04  0.12169818081E+04  0.46999998093E+01 0.  1.
       -5    1    3    3    0  502 -0.18677776096E+03 -0.12923340249E+03 -0.48099071038E+03  0.53194112247E+03  0.46999998093E+01 0. -1.
</event>
<event>
 5   0  0.1211345E-01  0.4961030E+03  0.7818609E-02  0.1014801E+00
        2   -1    0    0  501    0  0.00000000000E+00  0.00000000000E+00  0.40576473171E+03  0.40576473171E+03  0.25500000920E-02 0. -1.
       -2   -1    0    0    0  501  0.00000000000E+00  0.00000000000E+00 -0.15163847492E+03  0.15163847494E+03  0.25500000920E-02 0.  1.
    10030    2    1    2    0    0  0.00000000000E+00  0.00000000000E+00  0.25412625678E+03  0.55740320666E+03  0.49610299375E+03 0.  0.
        5    1    3    3  502    0  0.16012020886E+03  0.10809097391E+03  0.30179554794E+03  0.35836403653E+03  0.46999998093E+01 0. -1.
       -5    1    3    3    0  502 -0.16012020886E+03 -0.10809097391E+03 -0.47669291158E+02  0.19903917012E+03  0.46999998093E+01 0.  1.
</event>
<event>
 5   0  0.1211345E-01  0.4963730E+03  0.7818609E-02  0.1014730E+00
       -2   -1    0    0    0  501  0.00000000000E+00  0.00000000000E+00  0.49813691817E+02  0.49813691883E+02  0.25500000920E-02 0. -1.
        2   -1    0    0  501    0  0.00000000000E+00  0.00000000000E+00 -0.12365382676E+04  0.12365382676E+04  0.25500000920E-02 0.  1.
    10030    2    1    2    0    0  0.00000000000E+00  0.00000000000E+00 -0.11867245758E+04  0.12863519595E+04  0.49637298970E+03 0.  0.
        5    1    3    3  502    0 -0.26581836389E+02 -0.12578991531E+03 -0.43348269277E+02  0.13576030077E+03  0.46999998093E+01 0. -1.
       -5    1    3    3    0  502  0.26581836389E+02  0.12578991531E+03 -0.11433763065E+04  0.11505916587E+04  0.46999998093E+01 0.  1.
</event>
<event>
 5   0  0.1243803E-01  0.4981439E+03  0.7818609E-02  0.1014265E+00
        2   -1    0    0  501    0  0.00000000000E+00  0.00000000000E+00  0.65230857905E+03  0.65230857906E+03  0.25500000920E-02 0. -1.
       -2   -1    0    0    0  501  0.00000000000E+00  0.00000000000E+00 -0.95103510600E+02  0.95103510634E+02  0.25500000920E-02 0.  1.
    10030    2    1    2    0    0  0.00000000000E+00  0.00000000000E+00  0.55720506846E+03  0.74741208969E+03  0.49814389839E+03 0.  0.
        4    1    3    3  502    0  0.23696484233E+03 -0.62793832096E+02  0.34468498575E+03  0.42297133963E+03  0.12699999809E+01 0.  1.
       -4    1    3    3    0  502 -0.23696484233E+03  0.62793832096E+02  0.21252008271E+03  0.32444075006E+03  0.12699999809E+01 0. -1.
</event>
<event>
 5   0  0.7812547E-02  0.4714067E+03  0.7818609E-02  0.1021524E+00
       -1   -1    0    0    0  501  0.00000000000E+00  0.00000000000E+00  0.83858307593E+03  0.83858307594E+03  0.50400001928E-02 0.  1.
        1   -1    0    0  501    0  0.00000000000E+00  0.00000000000E+00 -0.66249928723E+02  0.66249928915E+02  0.50400001928E-02 0. -1.
    10030    2    1    2    0    0  0.00000000000E+00  0.00000000000E+00  0.77233314720E+03  0.90483300486E+03  0.47140669958E+03 0.  0.
        4    1    3    3  502    0  0.17111460408E+03  0.76412749686E+02  0.11177951834E+03  0.21820950865E+03  0.12699999809E+01 0. -1.
       -4    1    3    3    0  502 -0.17111460408E+03 -0.76412749686E+02  0.66055362887E+03  0.68662349621E+03  0.12699999809E+01 0.  1.
</event>
<event>
 5   0  0.5006750E-02  0.5027939E+03  0.7818609E-02  0.1013052E+00
       -4   -1    0    0    0  501  0.00000000000E+00  0.00000000000E+00  0.68071188487E+03  0.68071306959E+03  0.12699999809E+01 0. -1.
        4   -1    0    0  501    0  0.00000000000E+00  0.00000000000E+00 -0.92838991424E+02  0.92847677561E+02  0.12699999809E+01 0.  1.
    10030    2    1    2    0    0  0.00000000000E+00  0.00000000000E+00  0.58787289345E+03  0.77356074715E+03  0.50279388488E+03 0.  0.
        3    1    3    3  502    0  0.11995867499E+03 -0.20894980354E+03  0.18352323237E+03  0.30287108004E+03  0.10100000352E+00 0. -1.
       -3    1    3    3    0  502 -0.11995867499E+03  0.20894980354E+03  0.40434966108E+03  0.47068966710E+03  0.10100000352E+00 0.  1.
</event>
<event>
 5   0  0.5006750E-02  0.5040507E+03  0.7818609E-02  0.1012727E+00
       -3   -1    0    0    0  501  0.00000000000E+00  0.00000000000E+00  0.38431982672E+03  0.38431984000E+03  0.10100000352E+00 0.  1.
        3   -1    0    0  501    0  0.00000000000E+00  0.00000000000E+00 -0.16527061144E+03  0.16527064230E+03  0.10100000352E+00 0. -1.
    10030    2    1    2    0    0  0.00000000000E+00  0.00000000000E+00  0.21904921528E+03  0.54959048230E+03  0.50405073110E+03 0.  0.
        4    1    3    3  502    0  0.22715408791E+02  0.24861924573E+03  0.71948680174E+02  0.25981867643E+03  0.12699999809E+01 0. -1.
       -4    1    3    3    0  502 -0.22715408791E+02 -0.24861924573E+03  0.14710053511E+03  0.28977180587E+03  0.12699999809E+01 0.  1.
</event>
<event>
 5   0  0.1279188E-01  0.5158855E+03  0.7818609E-02  0.1009714E+00
       -2   -1    0    0    0  501  0.00000000000E+00  0.00000000000E+00  0.49589080834E+03  0.49589080835E+03  0.25500000920E-02 0.  1.
        2   -1    0    0  501    0  0.00000000000E+00  0.00000000000E+00 -0.13417160585E+03  0.13417160588E+03  0.25500000920E-02 0. -1.
    10030    2    1    2    0    0  0.00000000000E+00  0.00000000000E+00  0.36171920249E+03  0.63006241423E+03  0.51588551479E+03 0.  0.
        2    1    3    3  502    0  0.61265081657E+02  0.24218283038E+03  0.25933401761E+03  0.36008341569E+03  0.25500000920E-02 0.  1.
       -2    1    3    3    0  502 -0.61265081657E+02 -0.24218283038E+03  0.10238518489E+03  0.26997899854E+03  0.25500000920E-02 0. -1.
</event>
<event>
 5   0  0.7781754E-02  0.5023683E+03  0.7818609E-02  0.1013163E+00
        1   -1    0    0  501    0  0.00000000000E+00  0.00000000000E+00  0.35177034215E+03  0.35177034219E+03  0.50400001928E-02 0.  1.
       -1   -1    0    0    0  501  0.00000000000E+00  0.00000000000E+00 -0.17935983694E+03  0.17935983701E+03  0.50400001928E-02 0. -1.
    10030    2    1    2    0    0  0.00000000000E+00  0.00000000000E+00  0.17241050522E+03  0.53113017919E+03  0.50236827621E+03 0.  0.
        2    1    3    3  502    0 -0.17180120194E+03 -0.23521211690E+02 -0.10592571227E+03  0.20319733491E+03  0.25500000920E-02 0. -1.
       -2    1    3    3    0  502  0.17180120194E+03  0.23521211690E+02  0.27833621749E+03  0.32793284428E+03  0.25500000920E-02 0.  1.
</event>
<event>
 5   0  0.1191894E-01  0.4996489E+03  0.7818609E-02  0.1013871E+00
       -2   -1    0    0    0  501  0.00000000000E+00  0.00000000000E+00  0.69104969187E+02  0.69104969234E+02  0.25500000920E-02 0.  1.
        2   -1    0    0  501    0  0.00000000000E+00  0.00000000000E+00 -0.90315131958E+03  0.90315131958E+03  0.25500000920E-02 0. -1.
    10030    2    1    2    0    0  0.00000000000E+00  0.00000000000E+00 -0.83404635039E+03  0.97225628882E+03  0.49964885324E+03 0.  0.
        3    1    3    3  502    0  0.11795429885E+02  0.52923413920E+02  0.57516926856E+02  0.79045727165E+02  0.10100000352E+00 0.  1.
       -3    1    3    3    0  502 -0.11795429885E+02 -0.52923413920E+02 -0.89156327725E+03  0.89321056165E+03  0.10100000352E+00 0. -1.
</event>
<event>
 5   0  0.1211345E-01  0.5013113E+03  0.7818609E-02  0.1013437E+00
        2   -1    0    0  501    0  0.00000000000E+00  0.00000000000E+00  0.14667002269E+03  0.14667002271E+03  0.25500000920E-02 0. -1.
       -2   -1    0    0    0  501  0.00000000000E+00  0.00000000000E+00 -0.42836463972E+03  0.42836463973E+03  0.25500000920E-02 0.  1.
    10030    2    1    2    0    0  0.00000000000E+00  0.00000000000E+00 -0.28169461703E+03  0.57503466243E+03  0.50131128626E+03 0.  0.
        5    1    3    3  502    0  0.16440308178E+02 -0.24935284928E+03 -0.11911256666E+03  0.27687004300E+03  0.46999998093E+01 0.  1.
       -5    1    3    3    0  502 -0.16440308178E+02  0.24935284928E+03 -0.16258205038E+03  0.29816461943E+03  0.46999998093E+01 0. -1.
</event>
<event>
 5   0  0.7602288E-02  0.5008415E+03  0.7818609E-02  0.1013559E+00
        1   -1    0    0  501    0  0.00000000000E+00  0.00000000000E+00  0.13254093712E+04  0.13254093712E+04  0.50400001928E-02 0. -1.
       -1   -1    0    0    0  501  0.00000000000E+00  0.00000000000E+00 -0.47314109415E+02  0.47314109684E+02  0.50400001928E-02 0.  1.
    10030    2    1    2    0    0  0.00000000000E+00  0.00000000000E+00  0.12780952617E+04  0.13727234808E+04  0.50084154859E+03 0.  0.
        5    1    3    3  502    0 -0.16639348778E+02 -0.13715619809E+03  0.66746136875E+02  0.15351165228E+03  0.46999998093E+01 0.  1.
       -5    1    3    3    0  502  0.16639348778E+02  0.13715619809E+03  0.12113491249E+04  0.12192118286E+04  0.46999998093E+01 0. -1.
</event>
<event>
 5   0  0.7531632E-02  0.5005791E+03  0.7818609E-02  0.1013628E+00
        1   -1    0    0  501    0  0.00000000000E+00  0.00000000000E+00  0.35837944517E+03  0.35837944520E+03  0.50400001928E-02 0. -1.
       -1   -1    0    0    0  501  0.00000000000E+00  0.00000000000E+00 -0.17480036929E+03  0.17480036936E+03  0.50400001928E-02 0.  1.
    10030    2    1    2    0    0  0.00000000000E+00  0.00000000000E+00  0.18357907588E+03  0.53317981456E+03  0.50057910219E+03 0.  0.
        3    1    3    3  502    0  0.91911420741E+01 -0.24754068466E+03  0.12995586543E+03  0.27973095077E+03  0.10100000352E+00 0. -1.
       -3    1    3    3    0  502 -0.91911420741E+01  0.24754068466E+03  0.53623210446E+02  0.25344886379E+03  0.10100000352E+00 0.  1.
</event>
<event>
 5   0  0.1191894E-01  0.5109401E+03  0.7818609E-02  0.1010962E+00
       -2   -1    0    0    0  501  0.00000000000E+00  0.00000000000E+00  0.44091819892E+02  0.44091819966E+02  0.25500000920E-02 0.  1.
        2   -1    0    0  501    0  0.00000000000E+00  0.00000000000E+00 -0.14802050959E+04  0.14802050959E+04  0.25500000920E-02 0. -1.
    10030    2    1    2    0    0  0.00000000000E+00  0.00000000000E+00 -0.14361132760E+04  0.15242969159E+04  0.51094006126E+03 0.  0.
        3    1    3    3  502    0  0.13200764174E+03 -0.21472107346E+03 -0.84227771578E+03  0.87918309672E+03  0.10100000352E+00 0. -1.
       -3    1    3    3    0  502 -0.13200764174E+03  0.21472107346E+03 -0.59383556027E+03  0.64511381918E+03  0.10100000352E+00 0.  1.
</event>
<event>
 5   0  0.1231822E-01  0.5021887E+03  0.7818609E-02  0.1013209E+00
        2   -1    0    0  501    0  0.00000000000E+00  0.00000000000E+00  0.51839161035E+03  0.51839161035E+03  0.25500000920E-02 0.  1.
       -2   -1    0    0    0  501  0.00000000000E+00  0.00000000000E+00 -0.12162305719E+03  0.12162305722E+03  0.25500000920E-02 0. -1.
    10030    2    1    2    0    0  0.00000000000E+00  0.00000000000E+00  0.39676855315E+03  0.64001466757E+03  0.50218869953E+03 0.  0.
        1    1    3    3  502    0 -0.21434233262E+03 -0.11965262652E+03  0.13107945948E+03  0.27828261051E+03  0.50400001928E-02 0.  1.
       -1    1    3    3    0  502  0.21434233262E+03  0.11965262652E+03  0.26568909368E+03  0.36173205707E+03  0.50400001928E-02 0. -1.
</event>
<event>
 5   0  0.1231822E-01  0.5011920E+03  0.7818609E-02  0.1013468E+00
        2   -1    0    0  501    0  0.00000000000E+00  0.00000000000E+00  0.11750790872E+04  0.11750790872E+04  0.25500000920E-02 0.  1.
       -2   -1    0    0    0  501  0.00000000000E+00  0.00000000000E+00 -0.53441820209E+02  0.53441820270E+02  0.25500000920E-02 0. -1.
    10030    2    1    2    0    0  0.00000000000E+00  0.00000000000E+00  0.11216372669E+04  0.12285209074E+04  0.50119204042E+03 0.  0.
        1    1    3    3  502    0 -0.11757574956E+03 -0.20851691383E+03  0.74252177492E+03  0.78015507849E+03  0.50400001928E-02 0.  1.
       -1    1    3    3    0  502  0.11757574956E+03  0.20851691383E+03  0.37911549202E+03  0.44836582894E+03  0.50400001928E-02 0. -1.
</event>
<event>
 5   0  0.1279188E-01  0.5024254E+03  0.7818609E-02  0.1013148E+00
       -2   -1    0    0    0  501  0.00000000000E+00  0.00000000000E+00  0.13450940758E+03  0.13450940760E+03  0.25500000920E-02 0.  1.
        2   -1    0    0  501    0  0.00000000000E+00  0.00000000000E+00 -0.46917025846E+03  0.46917025847E+03  0.25500000920E-02 0. -1.
    10030    2    1    2    0    0  0.00000000000E+00  0.00000000000E+00 -0.33466085088E+03  0.60367966607E+03  0.50242537169E+03 0.  0.
        2    1    3    3  502    0 -0.41851895531E+02  0.11610819239E+03  0.95569173165E+02  0.15609663791E+03  0.25500000920E-02 0.  1.
       -2    1    3    3    0  502  0.41851895531E+02 -0.11610819239E+03 -0.43023002405E+03  0.44758302816E+03  0.25500000920E-02 0. -1.
</event>
<event>
 5   0  0.7416638E-02  0.4837509E+03  0.7818609E-02  0.1018109E+00
       -1   -1    0    0    0  501  0.00000000000E+00  0.00000000000E+00  0.56003206889E+02  0.56003207115E+02  0.50400001928E-02 0. -1.
        1   -1    0    0  501    0  0.00000000000E+00  0.00000000000E+00 -0.10446497984E+04  0.10446497984E+04  0.50400001928E-02 0.  1.
    10030    2    1    2    0    0  0.00000000000E+00  0.00000000000E+00 -0.98864659149E+03  0.11006530055E+04  0.48375092317E+03 0.  0.
        1    1    3    3  502    0 -0.17714150883E+03  0.80059469835E+02 -0.82179380662E+03  0.84447243500E+03  0.50400001928E-02 0.  1.
       -1    1    3    3    0  502  0.17714150883E+03 -0.80059469835E+02 -0.16685278488E+03  0.25618057051E+03  0.50400001928E-02 0. -1.
</event>
<event>
 5   0  0.1231822E-01  0.4823953E+03  0.7818609E-02  0.1018479E+00
        2   -1    0    0  501    0  0.00000000000E+00  0.00000000000E+00  0.76021590704E+03  0.76021590704E+03  0.25500000920E-02 0. -1.
       -2   -1    0    0    0  501  0.00000000000E+00  0.00000000000E+00 -0.76526042118E+02  0.76526042161E+02  0.25500000920E-02 0.  1.
    10030    2    1    2    0    0  0.00000000000E+00  0.00000000000E+00  0.68368986492E+03  0.83674194920E+03  0.48239533389E+03 0.  0.
        1    1    3    3  502    0  0.58955477172E+02 -0.44587386099E+02 -0.56395526502E+02  0.92974398210E+02  0.50400001928E-02 0.  1.
       -1    1    3    3    0  502 -0.58955477172E+02  0.44587386099E+02  0.74008539142E+03  0.74376755099E+03  0.50400001928E-02 0. -1.
</event>
<event>
 5   0  0.1243803E-01  0.5007873E+03  0.7818609E-02  0.1013574E+00
       -2   -1    0    0    0  501  0.00000000000E+00  0.00000000000E+00  0.12139151543E+03  0.12139151546E+03  0.25500000920E-02 0.  1.
        2   -1    0    0  501    0  0.00000000000E+00  0.00000000000E+00 -0.51648561189E+03  0.51648561190E+03  0.25500000920E-02 0. -1.
    10030    2    1    2    0    0  0.00000000000E+00  0.00000000000E+00 -0.39509409647E+03  0.63787712736E+03  0.50078726476E+03 0.  0.
        4    1    3    3  502    0 -0.15692257473E+03 -0.19093587389E+03 -0.14637220933E+03  0.28724142975E+03  0.12699999809E+01 0.  1.
       -4    1    3    3    0  502  0.15692257473E+03  0.19093587389E+03 -0.24872188713E+03  0.35063569761E+03  0.12699999809E+01 0. -1.
</event>
<event>
 5   0  0.1191894E-01  0.4914773E+03  0.7818609E-02  0.1016028E+00
       -2   -1    0    0    0  501  0.00000000000E+00  0.00000000000E+00  0.27221598113E+03  0.27221598114E+03  0.25500000920E-02 0. -1.
        2   -1    0    0  501    0  0.00000000000E+00  0.00000000000E+00 -0.22183667449E+03  0.22183667450E+03  0.25500000920E-02 0.  1.
    10030    2    1    2    0    0  0.00000000000E+00  0.00000000000E+00  0.50379306641E+02  0.49405265564E+03  0.49147731586E+03 0.  0.
        3    1    3    3  502    0 -0.36086051895E+02 -0.19210343912E+03 -0.12452545895E+03  0.23175964832E+03  0.10100000352E+00 0.  1.
       -3    1    3    3    0  502  0.36086051895E+02  0.19210343912E+03  0.17490476559E+03  0.26229300732E+03  0.10100000352E+00 0. -1.
</event>
<event>
 5   0  0.7531632E-02  0.4998387E+03  0.7818609E-02  0.1013821E+00
       -1   -1    0    0    0  501  0.00000000000E+00  0.00000000000E+00  0.69127710323E+02  0.69127710506E+02  0.50400001928E-02 0.  1.
        1   -1    0    0  501    0  0.00000000000E+00  0.00000000000E+00 -0.90354028205E+03  0.90354028206E+03  0.50400001928E-02 0. -1.
    10030    2    1    2    0    0  0.00000000000E+00  0.00000000000E+00 -0.83441257173E+03  0.97266799257E+03  0.49983865788E+03 0.  0.
        3    1    3    3  502    0 -0.12074976350E+03 -0.17015491784E+03 -0.14949327957E+03  0.25667382470E+03  0.10100000352E+00 0.  1.
       -3    1    3    3    0  502  0.12074976350E+03  0.17015491784E+03 -0.68491929216E+03  0.71599416787E+03  0.10100000352E+00 0. -1.
</event>
<event>
 5   0  0.5006750E-02  0.4968160E+03  0.7818609E-02  0.1014613E+00
       -4   -1    0    0    0  501  0.00000000000E+00  0.00000000000E+00  0.20911412686E+03  0.20911798333E+03  0.12699999809E+01 0. -1.
        4   -1    0    0  501    0  0.00000000000E+00  0.00000000000E+00 -0.29507749367E+03  0.29508022667E+03  0.12699999809E+01 0.  1.
    10030    2    1    2    0    0  0.00000000000E+00  0.00000000000E+00 -0.85963366814E+02  0.50419821000E+03  0.49681599665E+03 0.  0.
        4    1    3    3  502    0 -0.12539918557E+03 -0.16494397466E+03 -0.18203385517E+03  0.27580683067E+03  0.12699999809E+01 0.  1.
       -4    1    3    3    0  502  0.12539918557E+03  0.16494397466E+03  0.96070488355E+02  0.22839137933E+03  0.12699999809E+01 0. -1.
</event>
<event>
 5   0  0.1231822E-01  0.4955821E+03  0.7818609E-02  0.1014939E+00
        2   -1    0    0  501    0  0.00000000000E+00  0.00000000000E+00  0.16858044930E+03  0.16858044932E+03  0.25500000920E-02 0.  1.
       -2   -1    0    0    0  501  0.00000000000E+00  0.00000000000E+00 -0.36422026239E+03  0.36422026240E+03  0.25500000920E-02 0. -1.
    10030    2    1    2    0    0  0.00000000000E+00  0.00000000000E+00 -0.19563981309E+03  0.53280071172E+03  0.49558214450E+03 0.  0.
        1    1    3    3  502    0  0.20736268679E+03  0.12942705207E+03 -0.14148765680E+03  0.28243477607E+03  0.50400001928E-02 0. -1.
       -1    1    3    3    0  502 -0.20736268679E+03 -0.12942705207E+03 -0.54152156287E+02  0.25036593565E+03  0.50400001928E-02 0.  1.
</event>
<event>
 5   0  0.1243803E-01  0.4994219E+03  0.7818609E-02  0.1013930E+00
        2   -1    0    0  501    0  0.00000000000E+00  0.00000000000E+00  0.12749141066E+04  0.12749141066E+04  0.25500000920E-02 0.  1.
       -2   -1    0    0    0  501  0.00000000000E+00  0.00000000000E+00 -0.48909617480E+02  0.48909617546E+02  0.25500000920E-02 0. -1.
    10030    2    1    2    0    0  0.00000000000E+00  0.00000000000E+00  0.12260044891E+04  0.13238237242E+04  0.49942191109E+03 0.  0.
        4    1    3    3  502    0  0.18637661570E+03 -0.11817140787E+03  0.92273003463E+03  0.94875342119E+03  0.12699999809E+01 0.  1.
       -4    1    3    3    0  502 -0.18637661570E+03  0.11817140787E+03  0.30327445452E+03  0.37507030299E+03  0.12699999809E+01 0. -1.
</event>
<event>
 5   0  0.1191894E-01  0.4983996E+03  0.7818609E-02  0.1014197E+00
        2   -1    0    0  501    0  0.00000000000E+00  0.00000000000E+00  0.10586268659E+04  0.10586268659E+04  0.25500000920E-02 0. -1.
       -2   -1    0    0    0  501  0.00000000000E+00  0.00000000000E+00 -0.58661396198E+02  0.58661396254E+02  0.25500000920E-02 0.  1.
    10030    2    1    2    0    0  0.00000000000E+00  0.00000000000E+00  0.99996546972E+03  0.11172882622E+04  0.49839955875E+03 0.  0.
        3    1    3    3  502    0  0.11026876779E+03  0.19762633341E+03  0.73386905273E+03  0.76797081036E+03  0.10100000352E+00 0. -1.
       -3    1    3    3    0  502 -0.11026876779E+03 -0.19762633341E+03  0.26609641698E+03  0.34931745181E+03  0.10100000352E+00 0.  1.
</event>
<event>
 5   0  0.7416638E-02  0.5038990E+03  0.7818609E-02  0.1012766E+00
       -1   -1    0    0    0  501  0.00000000000E+00  0.00000000000E+00  0.21733639501E+03  0.21733639507E+03  0.50400001928E-02 0. -1.
        1   -1    0    0  501    0  0.00000000000E+00  0.00000000000E+00 -0.29207514615E+03  0.29207514619E+03  0.50400001928E-02 0.  1.
    10030    2    1    2    0    0  0.00000000000E+00  0.00000000000E+00 -0.74738751133E+02  0.50941154126E+03  0.50389903498E+03 0.  0.
        1    1    3    3  502    0 -0.20836965535E+03  0.48282590320E+02 -0.17197795235E+03  0.27445498341E+03  0.50400001928E-02 0.  1.
       -1    1    3    3    0  502  0.20836965535E+03 -0.48282590320E+02  0.97239201219E+02  0.23495655785E+03  0.50400001928E-02 0. -1.
</event>
<event>
 5   0  0.1279188E-01  0.5020623E+03  0.7818609E-02  0.1013242E+00
       -2   -1    0    0    0  501  0.00000000000E+00  0.00000000000E+00  0.32471768855E+02  0.32471768955E+02  0.25500000920E-02 0. -1.
        2   -1    0    0  501    0  0.00000000000E+00  0.00000000000E+00 -0.19406593803E+04  0.19406593803E+04  0.25500000920E-02 0.  1.
    10030    2    1    2    0    0  0.00000000000E+00  0.00000000000E+00 -0.19081876114E+04  0.19731311492E+04  0.50206231853E+03 0.  0.
        2    1    3    3  502    0  0.95978133554E+02 -0.90758399451E+02 -0.17930265306E+04  0.17978857107E+04  0.25500000920E-02 0.  1.
       -2    1    3    3    0  502 -0.95978133554E+02  0.90758399451E+02 -0.11516108080E+03  0.17524543854E+03  0.25500000920E-02 0. -1.
</event>
<event>
 5   0  0.7812547E-02  0.4987303E+03  0.7818609E-02  0.1014111E+00
       -1   -1    0    0    0  501  0.00000000000E+00  0.00000000000E+00  0.29239620534E+03  0.29239620538E+03  0.50400001928E-02 0.  1.
        1   -1    0    0  501    0  0.00000000000E+00  0.00000000000E+00 -0.21266686624E+03  0.21266686630E+03  0.50400001928E-02 0. -1.
    10030    2    1    2    0    0  0.00000000000E+00  0.00000000000E+00  0.79729339096E+02  0.50506307168E+03  0.49873032679E+03 0.  0.
        4    1    3    3  502    0  0.70019150903E+02  0.11152710064E+03 -0.17457965584E+03  0.21867931956E+03  0.12699999809E+01 0. -1.
       -4    1    3    3    0  502 -0.70019150903E+02 -0.11152710064E+03  0.25430899494E+03  0.28638375212E+03  0.12699999809E+01 0.  1.
</event>
<event>
 5   0  0.7781754E-02  0.5000215E+03  0.7818609E-02  0.1013773E+00
        1   -1    0    0  501    0  0.00000000000E+00  0.00000000000E+00  0.87521252143E+02  0.87521252288E+02  0.50400001928E-02 0.  1.
       -1   -1    0    0    0  501  0.00000000000E+00  0.00000000000E+00 -0.71417368045E+03  0.71417368047E+03  0.50400001928E-02 0. -1.
    10030    2    1    2    0    0  0.00000000000E+00  0.00000000000E+00 -0.62665242831E+03  0.80169493276E+03  0.50002149884E+03 0.  0.
        2    1    3    3  502    0  0.21768949209E+03 -0.15451906091E+02 -0.11776115843E+03  0.24798219050E+03  0.25500000920E-02 0.  1.
       -2    1    3    3    0  502 -0.21768949209E+03  0.15451906091E+02 -0.50889126988E+03  0.55371274225E+03  0.25500000920E-02 0. -1.
</event>
<event>
 5   0  0.1211345E-01  0.5041791E+03  0.7818609E-02  0.1012694E+00
       -2   -1    0    0    0  501  0.00000000000E+00  0.00000000000E+00  0.98050068864E+02  0.98050068897E+02  0.25500000920E-02 0. -1.
        2   -1    0    0  501    0  0.00000000000E+00  0.00000000000E+00 -0.64812939165E+03  0.64812939165E+03  0.25500000920E-02 0.  1.
    10030    2    1    2    0    0  0.00000000000E+00  0.00000000000E+00 -0.55007932279E+03  0.74617946055E+03  0.50417906144E+03 0.  0.
        5    1    3    3  502    0  0.87897570278E+02 -0.31618413455E+02 -0.62150042035E+03  0.62849866303E+03  0.46999998093E+01 0.  1.
       -5    1    3    3    0  502 -0.87897570278E+02  0.31618413455E+02  0.71421097567E+02  0.11768079752E+03  0.46999998093E+01 0. -1.
</event>
<event>
 5   0  0.7416638E-02  0.4989503E+03  0.7818609E-02  0.1014053E+00
        1   -1    0    0  501    0  0.00000000000E+00  0.00000000000E+00  0.42204470654E+03  0.42204470657E+03  0.50400001928E-02 0.  1.
       -1   -1    0    0    0  501  0.00000000000E+00  0.00000000000E+00 -0.14746742254E+03  0.14746742263E+03  0.50400001928E-02 0. -1.
    10030    2    1    2    0    0  0.00000000000E+00  0.00000000000E+00  0.27457728400E+03  0.56951212919E+03  0.49895027849E+03 0.  0.
        1    1    3    3  502    0 -0.17331434749E+03 -0.13148986403E+02 -0.66981279877E+02  0.18627198063E+03  0.50400001928E-02 0. -1.
       -1    1    3    3    0  502  0.17331434749E+03  0.13148986403E+02  0.34155856387E+03  0.38324014856E+03  0.50400001928E-02 0.  1.
</event>
<event>
 5   0  0.1243803E-01  0.4985008E+03  0.7818609E-02  0.1014171E+00
        2   -1    0    0  501    0  0.00000000000E+00  0.00000000000E+00  0.30855768018E+03  0.30855768019E+03  0.25500000920E-02 0. -1.
       -2   -1    0    0    0  501  0.00000000000E+00  0.00000000000E+00 -0.20134242760E+03  0.20134242761E+03  0.25500000920E-02 0.  1.
    10030    2    1    2    0    0  0.00000000000E+00  0.00000000000E+00  0.10721525258E+03  0.50990010780E+03  0.49850076184E+03 0.  0.
        4    1    3    3  502    0 -0.17704807815E+03 -0.24601890658E+01 -0.12582342342E+03  0.21722159489E+03  0.12699999809E+01 0.  1.
       -4    1    3    3    0  502  0.17704807815E+03  0.24601890658E+01  0.23303867600E+03  0.29267851291E+03  0.12699999809E+01 0. -1.
</event>
<event>
 5   0  0.7602288E-02  0.4935134E+03  0.7818609E-02  0.1015486E+00
       -1   -1    0    0    0  501  0.00000000000E+00  0.00000000000E+00  0.15172027245E+03  0.15172027254E+03  0.50400001928E-02 0.  1.
        1   -1    0    0  501    0  0.00000000000E+00  0.00000000000E+00 -0.40132323072E+03  0.40132323076E+03  0.50400001928E-02 0. -1.
    10030    2    1    2    0    0  0.00000000000E+00  0.00000000000E+00 -0.24960295827E+03  0.55304350329E+03  0.49351340383E+03 0.  0.
        5    1    3    3  502    0 -0.87349356100E+02 -0.11944260782E+03 -0.34602301482E+03  0.37636480090E+03  0.46999998093E+01 0. -1.
       -5    1    3    3    0  502  0.87349356100E+02  0.11944260782E+03  0.96420056551E+02  0.17667870239E+03  0.46999998093E+01 0.  1.
</event>
<event>
 5   0  0.1191894E-01  0.5003455E+03  0.7818609E-02  0.1013689E+00
       -2   -1    0    0    0  501  0.00000000000E+00  0.00000000000E+00  0.65414750690E+02  0.65414750739E+02  0.25500000920E-02 0.  1.
        2   -1    0    0  501    0  0.00000000000E+00  0.00000000000E+00 -0.95676303944E+03  0.95676303944E+03  0.25500000920E-02 0. -1.
    10030    2    1    2    0    0  0.00000000000E+00  0.00000000000E+00 -0.89134828875E+03  0.10221777902E+04  0.50034554348E+03 0.  0.
        3    1    3    3  502    0  0.12913409553E+03 -0.13907012263E+02 -0.88248869771E+03  0.89199514091E+03  0.10100000352E+00 0. -1.
       -3    1    3    3    0  502 -0.12913409553E+03  0.13907012263E+02 -0.88595910443E+01  0.13018264928E+03  0.10100000352E+00 0.  1.
</event>
<event>
 5   0  0.1191894E-01  0.4987096E+03  0.7818609E-02  0.1014116E+00
       -2   -1    0    0    0  501  0.00000000000E+00  0.00000000000E+00  0.40648782756E+03  0.40648782756E+03  0.25500000920E-02 0.  1.
        2   -1    0    0  501    0  0.00000000000E+00  0.00000000000E+00 -0.15296354955E+03  0.15296354958E+03  0.25500000920E-02 0. -1.
    10030    2    1    2    0    0  0.00000000000E+00  0.00000000000E+00  0.25352427800E+03  0.55945137714E+03  0.49870961876E+03 0.  0.
        3    1    3    3  502    0  0.42278523234E+02 -0.19401875927E+03  0.29595312555E+03  0.35639727159E+03  0.10100000352E+00 0.  1.
       -3    1    3    3    0  502 -0.42278523234E+02  0.19401875927E+03 -0.42428847549E+02  0.20305410555E+03  0.10100000352E+00 0. -1.
</event>
<event>
 5   0  0.7531632E-02  0.4989763E+03  0.7818609E-02  0.1014046E+00
        1   -1    0    0  501    0  0.00000000000E+00  0.00000000000E+00  0.89969481003E+03  0.89969481004E+03  0.50400001928E-02 0.  1.
       -1   -1    0    0    0  501  0.00000000000E+00  0.00000000000E+00 -0.69183836254E+02  0.69183836438E+02  0.50400001928E-02 0. -1.
    10030    2    1    2    0    0  0.00000000000E+00  0.00000000000E+00  0.83051097378E+03  0.96887864648E+03  0.49897630610E+03 0.  0.
        3    1    3    3  502    0  0.87443788305E+01 -0.54207417345E+02 -0.57305865708E+02  0.79365488103E+02  0.10100000352E+00 0. -1.
       -3    1    3    3    0  502 -0.87443788305E+01  0.54207417345E+02  0.88781683948E+03  0.88951315838E+03  0.10100000352E+00 0.  1.
</event>
<event>
 5   0  0.1279188E-01  0.5086804E+03  0.7818609E-02  0.1011538E+00
        2   -1    0    0  501    0  0.00000000000E+00  0.00000000000E+00  0.13090853965E+04  0.13090853965E+04  0.25500000920E-02 0.  1.
       -2   -1    0    0    0  501  0.00000000000E+00  0.00000000000E+00 -0.49415365115E+02  0.49415365181E+02  0.25500000920E-02 0. -1.
    10030    2    1    2    0    0  0.00000000000E+00  0.00000000000E+00  0.12596700313E+04  0.13585007616E+04  0.50868038248E+03 0.  0.
        2    1    3    3  502    0 -0.63803000260E+01 -0.39733289393E+02 -0.40859195463E+02  0.57349074751E+02  0.25500000920E-02 0. -1.
       -2    1    3    3    0  502  0.63803000260E+01  0.39733289393E+02  0.13005292268E+04  0.13011516869E+04  0.25500000920E-02 0.  1.
</event>
<event>
 5   0  0.1243803E-01  0.5187326E+03  0.7818609E-02  0.1009002E+00
        2   -1    0    0  501    0  0.00000000000E+00  0.00000000000E+00  0.26356227042E+03  0.26356227043E+03  0.25500000920E-02 0.  1.
       -2   -1    0    0    0  501  0.00000000000E+00  0.00000000000E+00 -0.25523710495E+03  0.25523710496E+03  0.25500000920E-02 0. -1.
    10030    2    1    2    0    0  0.00000000000E+00  0.00000000000E+00  0.83251654687E+01  0.51879937539E+03  0.51873257419E+03 0.  0.
        4    1    3    3  502    0  0.24302690242E+03 -0.84579141008E+02  0.36625222090E+02  0.25992061516E+03  0.12699999809E+01 0.  1.
       -4    1    3    3    0  502 -0.24302690242E+03  0.84579141008E+02 -0.28300056621E+02  0.25887876023E+03  0.12699999809E+01 0. -1.
</event>
<event>
 5   0  0.1243803E-01  0.4970527E+03  0.7818609E-02  0.1014551E+00
       -2   -1    0    0    0  501  0.00000000000E+00  0.00000000000E+00  0.94483872410E+02  0.94483872444E+02  0.25500000920E-02 0. -1.
        2   -1    0    0  501    0  0.00000000000E+00  0.00000000000E+00 -0.65371316096E+03  0.65371316096E+03  0.25500000920E-02 0.  1.
    10030    2    1    2    0    0  0.00000000000E+00  0.00000000000E+00 -0.55922928855E+03  0.74819703340E+03  0.49705271715E+03 0.  0.
        4    1    3    3  502    0  0.15665032189E+03 -0.83580998767E+02 -0.54136940818E+03  0.56974341217E+03  0.12699999809E+01 0.  1.
       -4    1    3    3    0  502 -0.15665032189E+03  0.83580998767E+02 -0.17859880366E+02  0.17845362123E+03  0.12699999809E+01 0. -1.
</event>
<event>
 5   0  0.7781754E-02  0.4992365E+03  0.7818609E-02  0.1013978E+00
       -1   -1    0    0    0  501  0.00000000000E+00  0.00000000000E+00  0.71333933736E+02  0.71333933914E+02  0.50400001928E-02 0.  1.
        1   -1    0    0  501    0  0.00000000000E+00  0.00000000000E+00 -0.87348710343E+03  0.87348710344E+03  0.50400001928E-02 0. -1.
    10030    2    1    2    0    0  0.00000000000E+00  0.00000000000E+00 -0.80215316969E+03  0.94482103736E+03  0.49923650206E+03 0.  0.
        2    1    3    3  502    0  0.10924550928E+03  0.15074793932E+02  0.22729911069E+02  0.11259875476E+03  0.25500000920E-02 0.  1.
       -2    1    3    3    0  502 -0.10924550928E+03 -0.15074793932E+02 -0.82488308076E+03  0.83222228259E+03  0.25500000920E-02 0. -1.
</event>
<event>
 5   0  0.7531632E-02  0.4861923E+03  0.7818609E-02  0.1017447E+00
       -1   -1    0    0    0  501  0.00000000000E+00  0.00000000000E+00  0.86067448672E+02  0.86067448819E+02  0.50400001928E-02 0. -1.
        1   -1    0    0  501    0  0.00000000000E+00  0.00000000000E+00 -0.68662134000E+03  0.68662134002E+03  0.50400001928E-02 0.  1.
    10030    2    1    2    0    0  0.00000000000E+00  0.00000000000E+00 -0.60055389133E+03  0.77268878884E+03  0.48619233643E+03 0.  0.
        3    1    3    3  502    0 -0.16474688506E+03  0.34917351927E+02 -0.21656512094E+02  0.16979332237E+03  0.10100000352E+00 0. -1.
       -3    1    3    3    0  502  0.16474688506E+03 -0.34917351927E+02 -0.57889737924E+03  0.60289546647E+03  0.10100000352E+00 0.  1.
</event>
<event>
 5   0  0.7416638E-02  0.5038999E+03  0.7818609E-02  0.1012766E+00
        1   -1    0    0  501    0  0.00000000000E+00  0.00000000000E+00  0.13229599798E+04  0.13229599798E+04  0.50400001928E-02 0. -1.
       -1   -1    0    0    0  501  0.00000000000E+00  0.00000000000E+00 -0.47982393716E+02  0.47982393980E+02  0.50400001928E-02 0.  1.
    10030    2    1    2    0    0  0.00000000000E+00  0.00000000000E+00  0.12749775861E+04  0.13709423738E+04  0.50389993772E+03 0.  0.
        1    1    3    3  502    0  0.12458782157E+03  0.21657074034E+03  0.72580675365E+03  0.76760696618E+03  0.50400001928E-02 0.  1.
       -1    1    3    3    0  502 -0.12458782157E+03 -0.21657074034E+03  0.54917083244E+03  0.60333540762E+03  0.50400001928E-02 0. -1.
</event>
<event>
 5   0  0.7781754E-02  0.5024287E+03  0.7818609E-02  0.1013147E+00
        1   -1    0    0  501    0  0.00000000000E+00  0.00000000000E+00  0.10911664223E+04  0.10911664223E+04  0.50400001928E-02 0.  1.
       -1   -1    0    0    0  501  0.00000000000E+00  0.00000000000E+00 -0.57835950574E+02  0.57835950793E+02  0.50400001928E-02 0. -1.
    10030    2    1    2    0    0  0.00000000000E+00  0.00000000000E+00  0.10333304717E+04  0.11490023731E+04  0.50242869106E+03 0.  0.
        2    1    3    3  502    0 -0.19048394722E+03 -0.98417446210E+02  0.81605237878E+03  0.84374854832E+03  0.25500000920E-02 0.  1.
       -2    1    3    3    0  502  0.19048394722E+03  0.98417446210E+02  0.21727809294E+03  0.30525382478E+03  0.25500000920E-02 0. -1.
</event>
<event>
 5   0  0.7416638E-02  0.5030260E+03  0.7818609E-02  0.1012992E+00
       -1   -1    0    0    0  501  0.00000000000E+00  0.00000000000E+00  0.25936794797E+03  0.25936794802E+03  0.50400001928E-02 0.  1.
        1   -1    0    0  501    0  0.00000000000E+00  0.00000000000E+00 -0.24389594734E+03  0.24389594739E+03  0.50400001928E-02 0. -1.
    10030    2    1    2    0    0  0.00000000000E+00  0.00000000000E+00  0.15472000626E+02  0.50326389541E+03  0.50302600889E+03 0.  0.
        1    1    3    3  502    0  0.56081158613E+02 -0.63734755960E+01  0.25295000013E+03  0.25917063902E+03  0.50400001928E-02 0.  1.
       -1    1    3    3    0  502 -0.56081158613E+02  0.63734755960E+01 -0.23747799950E+03  0.24409325639E+03  0.50400001928E-02 0. -1.
</event>
<event>
 5   0  0.1279188E-01  0.4993425E+03  0.7818609E-02  0.1013951E+00
        2   -1    0    0  501    0  0.00000000000E+00  0.00000000000E+00  0.49824862261E+03  0.49824862262E+03  0.25500000920E-02 0.  1.
       -2   -1    0    0    0  501  0.00000000000E+00  0.00000000000E+00 -0.12510969519E+03  0.12510969522E+03  0.25500000920E-02 0. -1.
    10030    2    1    2    0    0  0.00000000000E+00  0.00000000000E+00  0.37313892742E+03  0.62335831784E+03  0.49934250095E+03 0.  0.
        2    1    3    3  502    0 -0.48190628963E+02 -0.13125665999E+03 -0.71647892605E+02  0.15711164194E+03  0.25500000920E-02 0. -1.
       -2    1    3    3    0  502  0.48190628963E+02  0.13125665999E+03  0.44478682002E+03  0.46624667590E+03  0.25500000920E-02 0.  1.
</event>
<event>
 5   0  0.7781754E-02  0.4651543E+03  0.7818609E-02  0.1023297E+00
       -1   -1    0    0    0  501  0.00000000000E+00  0.00000000000E+00  0.66163059678E+02  0.66163059870E+02  0.50400001928E-02 0.  1.
        1   -1    0    0  501    0  0.00000000000E+00  0.00000000000E+00 -0.81755787477E+03  0.81755787479E+03  0.50400001928E-02 0. -1.
    10030    2    1    2    0    0  0.00000000000E+00  0.00000000000E+00 -0.75139481510E+03  0.88372093466E+03  0.46515429935E+03 0.  0.
        2    1    3    3  502    0 -0.82827826404E+02 -0.17626440349E+03 -0.13416637718E+03  0.23649567763E+03  0.25500000920E-02 0.  1.
       -2    1    3    3    0  502  0.82827826404E+02  0.17626440349E+03 -0.61722843791E+03  0.64722525703E+03  0.25500000920E-02 0. -1.
</event>
<event>
 5   0  0.1243803E-01  0.4952539E+03  0.7818609E-02  0.1015025E+00
       -2   -1    0    0    0  501  0.00000000000E+00  0.00000000000E+00  0.10311312615E+03  0.10311312618E+03  0.25500000920E-02 0. -1.
        2   -1    0    0  501    0  0.00000000000E+00  0.00000000000E+00 -0.59467799290E+03  0.59467799291E+03  0.25500000920E-02 0.  1.
    10030    2    1    2    0    0  0.00000000000E+00  0.00000000000E+00 -0.49156486675E+03  0.69779111909E+03  0.49525390222E+03 0.  0.
        4    1    3    3  502    0  0.18082725246E+03 -0.15888174949E+03 -0.16392233191E+03  0.29122851741E+03  0.12699999809E+01 0. -1.
       -4    1    3    3    0  502 -0.18082725246E+03  0.15888174949E+03 -0.32764253484E+03  0.40656260168E+03  0.12699999809E+01 0.  1.
</event>
<event>
 5   0  0.7812547E-02  0.4698477E+03  0.7818609E-02  0.1021963E+00
        1   -1    0    0  501    0  0.00000000000E+00  0.00000000000E+00  0.13019017956E+03  0.13019017966E+03  0.50400001928E-02 0. -1.
       -1   -1    0    0    0  501  0.00000000000E+00  0.00000000000E+00 -0.42391222384E+03  0.42391222387E+03  0.50400001928E-02 0.  1.
    10030    2    1    2    0    0  0.00000000000E+00  0.00000000000E+00 -0.29372204428E+03  0.55410240353E+03  0.46984767138E+03 0.  0.
        4    1    3    3  502    0  0.16455607334E+03 -0.12181510048E+03 -0.11008401985E+02  0.20503760092E+03  0.12699999809E+01 0. -1.
       -4    1    3    3    0  502 -0.16455607334E+03  0.12181510048E+03 -0.28271364229E+03  0.34906480260E+03  0.12699999809E+01 0.  1.
</event>
<event>
 5   0  0.7531632E-02  0.5048529E+03  0.7818609E-02  0.1012520E+00
        1   -1    0    0  501    0  0.00000000000E+00  0.00000000000E+00  0.98341653342E+02  0.98341653472E+02  0.50400001928E-02 0.  1.
       -1   -1    0    0    0  501  0.00000000000E+00  0.00000000000E+00 -0.64793613765E+03  0.64793613767E+03  0.50400001928E-02 0. -1.
    10030    2    1    2    0    0  0.00000000000E+00  0.00000000000E+00 -0.54959448431E+03  0.74627779114E+03  0.50485289379E+03 0.  0.
        3    1    3    3  502    0 -0.34239145891E+02 -0.62148948081E+02 -0.63289087158E+03  0.63685608766E+03  0.10100000352E+00 0. -1.
       -3    1    3    3    0  502  0.34239145891E+02  0.62148948081E+02  0.83296387273E+02  0.10942170348E+03  0.10100000352E+00 0.  1.
</event>
<event>
 5   0  0.1279188E-01  0.4863955E+03  0.7818609E-02  0.1017392E+00
       -2   -1    0    0    0  501  0.00000000000E+00  0.00000000000E+00  0.84520335490E+02  0.84520335529E+02  0.25500000920E-02 0. -1.
        2   -1    0    0  501    0  0.00000000000E+00  0.00000000000E+00 -0.69977404171E+03  0.69977404172E+03  0.25500000920E-02 0.  1.
    10030    2    1    2    0    0  0.00000000000E+00  0.00000000000E+00 -0.61525370622E+03  0.78429437725E+03  0.48639546375E+03 0.  0.
        2    1    3    3  502    0  0.20729842004E+03 -0.10088268103E+03 -0.43247753954E+03  0.49008853536E+03  0.25500000920E-02 0.  1.
       -2    1    3    3    0  502 -0.20729842004E+03  0.10088268103E+03 -0.18277616669E+03  0.29420584188E+03  0.25500000920E-02 0. -1.
</event>
<event>
 5   0  0.1191894E-01  0.5017925E+03  0.7818609E-02  0.1013312E+00
       -2   -1    0    0    0  501  0.00000000000E+00  0.00000000000E+00  0.37448025651E+02  0.37448025738E+02  0.25500000920E-02 0.  1.
        2   -1    0    0  501    0  0.00000000000E+00  0.00000000000E+00 -0.16809679066E+04  0.16809679066E+04  0.25500000920E-02 0. -1.
    10030    2    1    2    0    0  0.00000000000E+00  0.00000000000E+00 -0.16435198809E+04  0.17184159323E+04  0.50179250437E+03 0.  0.
        3    1    3    3  502    0 -0.18641077743E+03 -0.10739081440E+02 -0.24785713796E+03  0.31031834759E+03  0.10100000352E+00 0.  1.
       -3    1    3    3    0  502  0.18641077743E+03  0.10739081440E+02 -0.13956627430E+04  0.14080975847E+04  0.10100000352E+00 0. -1.
</event>
<event>
 5   0  0.1211345E-01  0.5011814E+03  0.7818609E-02  0.1013471E+00
        2   -1    0    0  501    0  0.00000000000E+00  0.00000000000E+00  0.12664788168E+04  0.12664788168E+04  0.25500000920E-02 0. -1.
       -2   -1    0    0    0  501  0.00000000000E+00  0.00000000000E+00 -0.49582899906E+02  0.49582899971E+02  0.25500000920E-02 0.  1.
    10030    2    1    2    0    0  0.00000000000E+00  0.00000000000E+00  0.12168959169E+04  0.13160617168E+04  0.50118137416E+03 0.  0.
        5    1    3    3  502    0  0.16438293927E+03 -0.56824505594E+02  0.13488744810E+03  0.22015333023E+03  0.46999998093E+01 0.  1.
       -5    1    3    3    0  502 -0.16438293927E+03  0.56824505594E+02  0.10820084688E+04  0.10959083865E+04  0.46999998093E+01 0. -1.
</event>
<event>
 5   0  0.7812547E-02  0.5059581E+03  0.7818609E-02  0.1012235E+00
       -1   -1    0    0    0  501  0.00000000000E+00  0.00000000000E+00  0.31208350007E+03  0.31208350011E+03  0.50400001928E-02 0. -1.
        1   -1    0    0  501    0  0.00000000000E+00  0.00000000000E+00 -0.20506822258E+03  0.20506822264E+03  0.50400001928E-02 0.  1.
    10030    2    1    2    0    0  0.00000000000E+00  0.00000000000E+00  0.10701527749E+03  0.51715172275E+03  0.50595813535E+03 0.  0.
        4    1    3    3  502    0 -0.58281528350E+02  0.24338182971E+03  0.91275680525E+02  0.26639128051E+03  0.12699999809E+01 0. -1.
       -4    1    3    3    0  502  0.58281528350E+02 -0.24338182971E+03  0.15739596968E+02  0.25076044224E+03  0.12699999809E+01 0.  1.
</event>
<event>
 5   0  0.7416638E-02  0.4977007E+03  0.7818609E-02  0.1014381E+00
        1   -1    0    0  501    0  0.00000000000E+00  0.00000000000E+00  0.95982314214E+03  0.95982314215E+03  0.50400001928E-02 0. -1.
       -1   -1    0    0    0  501  0.00000000000E+00  0.00000000000E+00 -0.64518653884E+02  0.64518654081E+02  0.50400001928E-02 0.  1.
    10030    2    1    2    0    0  0.00000000000E+00  0.00000000000E+00  0.89530448826E+03  0.10243417962E+04  0.49770070205E+03 0.  0.
        1    1    3    3  502    0  0.16871669065E+03 -0.11478839088E+03  0.74078342247E+03  0.76837606380E+03  0.50400001928E-02 0. -1.
       -1    1    3    3    0  502 -0.16871669065E+03  0.11478839088E+03  0.15452106579E+03  0.25596573244E+03  0.50400001928E-02 0.  1.
</event>
<event>
 5   0  0.7531632E-02  0.5004740E+03  0.7818609E-02  0.1013655E+00
        1   -1    0    0  501    0  0.00000000000E+00  0.00000000000E+00  0.85960143097E+03  0.85960143098E+03  0.50400001928E-02 0. -1.
       -1   -1    0    0    0  501  0.00000000000E+00  0.00000000000E+00 -0.72846038197E+02  0.72846038372E+02  0.50400001928E-02 0.  1.
    10030    2    1    2    0    0  0.00000000000E+00  0.00000000000E+00  0.78675539277E+03  0.93244746935E+03  0.50047401037E+03 0.  0.
        3    1    3    3  502    0 -0.14831017925E+03  0.95867976310E+02  0.63062428160E+02  0.18751922088E+03  0.10100000352E+00 0.  1.
       -3    1    3    3    0  502  0.14831017925E+03 -0.95867976310E+02  0.72369296461E+03  0.74492824848E+03  0.10100000352E+00 0. -1.
</event>
<event>
 5   0  0.1191894E-01  0.5227260E+03  0.7818609E-02  0.1008012E+00
       -2   -1    0    0    0  501  0.00000000000E+00  0.00000000000E+00  0.65987643045E+02  0.65987643095E+02  0.25500000920E-02 0. -1.
        2   -1    0    0  501    0  0.00000000000E+00  0.00000000000E+00 -0.10352033348E+04  0.10352033348E+04  0.25500000920E-02 0.  1.
    10030    2    1    2    0    0  0.00000000000E+00  0.00000000000E+00 -0.96921569174E+03  0.11011909779E+04  0.52272603977E+03 0.  0.
        3    1    3    3  502    0 -0.73060844267E+02  0.13805589829E+03 -0.92606295400E+03  0.93914318557E+03  0.10100000352E+00 0.  1.
       -3    1    3    3    0  502  0.73060844267E+02 -0.13805589829E+03 -0.43152737735E+02  0.16204779231E+03  0.10100000352E+00 0. -1.
</event>
<event>
 5   0  0.1279188E-01  0.4995798E+03  0.7818609E-02  0.1013889E+00
        2   -1    0    0  501    0  0.00000000000E+00  0.00000000000E+00  0.34558140197E+03  0.34558140198E+03  0.25500000920E-02 0. -1.
       -2   -1    0    0    0  501  0.00000000000E+00  0.00000000000E+00 -0.18055082004E+03  0.18055082006E+03  0.25500000920E-02 0.  1.
    10030    2    1    2    0    0  0.00000000000E+00  0.00000000000E+00  0.16503058193E+03  0.52613222203E+03  0.49957984556E+03 0.  0.
        2    1    3    3  502    0  0.23585407498E+03 -0.16433156217E+02  0.16740862081E+03  0.28969439007E+03  0.25500000920E-02 0. -1.
       -2    1    3    3    0  502 -0.23585407498E+03  0.16433156217E+02 -0.23780388759E+01  0.23643783197E+03  0.25500000920E-02 0.  1.
</event>
<event>
 5   0  0.5006750E-02  0.4961933E+03  0.7818609E-02  0.1014777E+00
        4   -1    0    0  501    0  0.00000000000E+00  0.00000000000E+00  0.27656001800E+03  0.27656293399E+03  0.12699999809E+01 0. -1.
       -4   -1    0    0    0  501  0.00000000000E+00  0.00000000000E+00 -0.22255676762E+03  0.22256039116E+03  0.12699999809E+01 0.  1.
    10030    2    1    2    0    0  0.00000000000E+00  0.00000000000E+00  0.54003250380E+02  0.49912332515E+03  0.49619325132E+03 0.  0.
        4    1    3    3  502    0 -0.15438400364E+03 -0.19388753709E+03  0.38181442299E+02  0.25077127638E+03  0.12699999809E+01 0.  1.
       -4    1    3    3    0  502  0.15438400364E+03  0.19388753709E+03  0.15821808081E+02  0.24835204877E+03  0.12699999809E+01 0. -1.
</event>
<event>
 5   0  0.5006750E-02  0.4949491E+03  0.7818609E-02  0.1015106E+00
        4   -1    0    0  501    0  0.00000000000E+00  0.00000000000E+00  0.91025174758E+03  0.91025263354E+03  0.12699999809E+01 0.  1.
       -4   -1    0    0    0  501  0.00000000000E+00  0.00000000000E+00 -0.67275197196E+02  0.67287183458E+02  0.12699999809E+01 0. -1.
    10030    2    1    2    0    0  0.00000000000E+00  0.00000000000E+00  0.84297655039E+03  0.97753981700E+03  0.49494911791E+03 0.  0.
        3    1    3    3  502    0 -0.10327064799E+03  0.84679649862E+02  0.99979046572E+01  0.13392325465E+03  0.10100000352E+00 0. -1.
       -3    1    3    3    0  502  0.10327064799E+03 -0.84679649862E+02  0.83297864573E+03  0.84361656235E+03  0.10100000352E+00 0.  1.
</event>
<event>
 5   0  0.1231822E-01  0.5011355E+03  0.7818609E-02  0.1013483E+00
       -2   -1    0    0    0  501  0.00000000000E+00  0.00000000000E+00  0.84206025619E+02  0.84206025658E+02  0.25500000920E-02 0. -1.
        2   -1    0    0  501    0  0.00000000000E+00  0.00000000000E+00 -0.74560231403E+03  0.74560231403E+03  0.25500000920E-02 0.  1.
    10030    2    1    2    0    0  0.00000000000E+00  0.00000000000E+00 -0.66139628841E+03  0.82980833969E+03  0.50113554084E+03 0.  0.
        1    1    3    3  502    0  0.56586719661E+02  0.18418581741E+03 -0.59593370571E+03  0.62630939144E+03  0.50400001928E-02 0.  1.
       -1    1    3    3    0  502 -0.56586719661E+02 -0.18418581741E+03 -0.65462582693E+02  0.20349894824E+03  0.50400001928E-02 0. -1.
</event>
<event>
 5   0  0.7531632E-02  0.4980735E+03  0.7818609E-02  0.1014283E+00
       -1   -1    0    0    0  501  0.00000000000E+00  0.00000000000E+00  0.13196860725E+03  0.13196860735E+03  0.50400001928E-02 0. -1.
        1   -1    0    0  501    0  0.00000000000E+00  0.00000000000E+00 -0.46995497663E+03  0.46995497666E+03  0.50400001928E-02 0.  1.
    10030    2    1    2    0    0  0.00000000000E+00  0.00000000000E+00 -0.33798636938E+03  0.60192358401E+03  0.49807350371E+03 0.  0.
        3    1    3    3  502    0  0.34345724566E+02  0.24271334631E+03 -0.11590291792E+03  0.27115105358E+03  0.10100000352E+00 0. -1.
       -3    1    3    3    0  502 -0.34345724566E+02 -0.24271334631E+03 -0.22208345146E+03  0.33077253043E+03  0.10100000352E+00 0.  1.
</event>
<event>
 5   0  0.1231822E-01  0.4175475E+03  0.7818609E-02  0.1037867E+00
        2   -1    0    0  501    0  0.00000000000E+00  0.00000000000E+00  0.14065389264E+03  0.14065389266E+03  0.25500000920E-02 0.  1.
       -2   -1    0    0    0  501  0.00000000000E+00  0.00000000000E+00 -0.30988455306E+03  0.30988455307E+03  0.25500000920E-02 0. -1.
    10030    2    1    2    0    0  0.00000000000E+00  0.00000000000E+00 -0.16923066042E+03  0.45053844573E+03  0.41754745198E+03 0.  0.
        1    1    3    3  502    0  0.35585875275E+02 -0.56160902967E+02  0.12892553619E+03  0.14505928253E+03  0.50400001928E-02 0.  1.
       -1    1    3    3    0  502 -0.35585875275E+02  0.56160902967E+02 -0.29815619661E+03  0.30547916319E+03  0.50400001928E-02 0. -1.
</event>
<event>
 5   0  0.5006750E-02  0.4650679E+03  0.7818609E-02  0.1023322E+00
       -4   -1    0    0    0  501  0.00000000000E+00  0.00000000000E+00  0.24304915851E+03  0.24305247654E+03  0.12699999809E+01 0. -1.
        4   -1    0    0  501    0  0.00000000000E+00  0.00000000000E+00 -0.22246703622E+03  0.22247066122E+03  0.12699999809E+01 0.  1.
    10030    2    1    2    0    0  0.00000000000E+00  0.00000000000E+00  0.20582122292E+02  0.46552313777E+03  0.46506791766E+03 0.  0.
        1    1    3    3  502    0 -0.40468552141E+02  0.17996948267E+03 -0.13142903098E+03  0.22649571434E+03  0.50400001928E-02 0.  1.
       -1    1    3    3    0  502  0.40468552141E+02 -0.17996948267E+03  0.15201115328E+03  0.23902742343E+03  0.50400001928E-02 0. -1.
</event>
<event>
 5   0  0.7781754E-02  0.4988317E+03  0.7818609E-02  0.1014084E+00
        1   -1    0    0  501    0  0.00000000000E+00  0.00000000000E+00  0.20088077879E+03  0.20088077885E+03  0.50400001928E-02 0.  1.
       -1   -1    0    0    0  501  0.00000000000E+00  0.00000000000E+00 -0.30967748872E+03  0.30967748876E+03  0.50400001928E-02 0. -1.
    10030    2    1    2    0    0  0.00000000000E+00  0.00000000000E+00 -0.10879670994E+03  0.51055826761E+03  0.49883165551E+03 0.  0.
        2    1    3    3  502    0  0.95103038656E+02  0.12946249989E+03 -0.24967965635E+03  0.29689233342E+03  0.25500000920E-02 0. -1.
       -2    1    3    3    0  502 -0.95103038656E+02 -0.12946249989E+03  0.14088294641E+03  0.21366593420E+03  0.25500000920E-02 0.  1.
</event>
<event>
 5   0  0.1243803E-01  0.4986710E+03  0.7818609E-02  0.1014126E+00
       -2   -1    0    0    0  501  0.00000000000E+00  0.00000000000E+00  0.33953519977E+02  0.33953520073E+02  0.25500000920E-02 0. -1.
        2   -1    0    0  501    0  0.00000000000E+00  0.00000000000E+00 -0.18309789885E+04  0.18309789885E+04  0.25500000920E-02 0.  1.
    10030    2    1    2    0    0  0.00000000000E+00  0.00000000000E+00 -0.17970254685E+04  0.18649325086E+04  0.49867096067E+03 0.  0.
        4    1    3    3  502    0 -0.13036001202E+03 -0.26902914999E+02 -0.16869740253E+04  0.16922176203E+04  0.12699999809E+01 0.  1.
       -4    1    3    3    0  502  0.13036001202E+03  0.26902914999E+02 -0.11005144321E+03  0.17271488825E+03  0.12699999809E+01 0. -1.
</event>
<event>
 5   0  0.1279188E-01  0.4963564E+03  0.7818609E-02  0.1014734E+00
        2   -1    0    0  501    0  0.00000000000E+00  0.00000000000E+00  0.59394712640E+03  0.59394712641E+03  0.25500000920E-02 0.  1.
       -2   -1    0    0    0  501  0.00000000000E+00  0.00000000000E+00 -0.10370018867E+03  0.10370018871E+03  0.25500000920E-02 0. -1.
    10030    2    1    2    0    0  0.00000000000E+00  0.00000000000E+00  0.49024693773E+03  0.69764731511E+03  0.49635644081E+03 0.  0.
        2    1    3    3  502    0 -0.34309676312E+02  0.86566930597E+02 -0.78215537178E+02  0.12160862479E+03  0.25500000920E-02 0. -1.
       -2    1    3    3    0  502  0.34309676312E+02 -0.86566930597E+02  0.56846247491E+03  0.57603869032E+03  0.25500000920E-02 0.  1.
</event>
<event>
 5   0  0.7602288E-02  0.4991848E+03  0.7818609E-02  0.1013992E+00
        1   -1    0    0  501    0  0.00000000000E+00  0.00000000000E+00  0.74314058339E+03  0.74314058341E+03  0.50400001928E-02 0.  1.
       -1   -1    0    0    0  501  0.00000000000E+00  0.00000000000E+00 -0.83828506072E+02  0.83828506224E+02  0.50400001928E-02 0. -1.
    10030    2    1    2    0    0  0.00000000000E+00  0.00000000000E+00  0.65931207732E+03  0.82696908963E+03  0.49918479535E+03 0.  0.
        5    1    3    3  502    0  0.16820161603E+03  0.55589129251E+02  0.62083053405E+03  0.64562727400E+03  0.46999998093E+01 0.  1.
       -5    1    3    3    0  502 -0.16820161603E+03 -0.55589129251E+02  0.38481543266E+02  0.18134181563E+03  0.46999998093E+01 0. -1.
</event>
<event>
 5   0  0.1211345E-01  0.4957818E+03  0.7818609E-02  0.1014886E+00
       -2   -1    0    0    0  501  0.00000000000E+00  0.00000000000E+00  0.25276082593E+03  0.25276082594E+03  0.25500000920E-02 0. -1.
        2   -1    0    0  501    0  0.00000000000E+00  0.00000000000E+00 -0.24311482348E+03  0.24311482349E+03  0.25500000920E-02 0.  1.
    10030    2    1    2    0    0  0.00000000000E+00  0.00000000000E+00  0.96460024519E+01  0.49587564943E+03  0.49578182130E+03 0.  0.
        5    1    3    3  502    0 -0.26336857951E+02 -0.48322618644E+01  0.25126531560E+03  0.25273173458E+03  0.46999998093E+01 0. -1.
       -5    1    3    3    0  502  0.26336857951E+02  0.48322618644E+01 -0.24161931315E+03  0.24314391485E+03  0.46999998093E+01 0.  1.
</event>
<event>
 5   0  0.1279188E-01  0.4897116E+03  0.7818609E-02  0.1016500E+00
       -2   -1    0    0    0  501  0.00000000000E+00  0.00000000000E+00  0.12469696290E+03  0.12469696292E+03  0.25500000920E-02 0. -1.
        2   -1    0    0  501    0  0.00000000000E+00  0.00000000000E+00 -0.48080054790E+03  0.48080054791E+03  0.25500000920E-02 0.  1.
    10030    2    1    2    0    0  0.00000000000E+00  0.00000000000E+00 -0.35610358501E+03  0.60549751083E+03  0.48971162164E+03 0.  0.
        2    1    3    3  502    0 -0.21283092760E+03 -0.59075404538E+02 -0.47389831407E+02  0.22590419051E+03  0.25500000920E-02 0. -1.
       -2    1    3    3    0  502  0.21283092760E+03  0.59075404538E+02 -0.30871375360E+03  0.37959332032E+03  0.25500000920E-02 0.  1.
</event>
<event>
 5   0  0.5006750E-02  0.4987827E+03  0.7818609E-02  0.1014097E+00
        4   -1    0    0  501    0  0.00000000000E+00  0.00000000000E+00  0.46460392319E+02  0.46477746873E+02  0.12699999809E+01 0. -1.
       -4   -1    0    0    0  501  0.00000000000E+00  0.00000000000E+00 -0.13384218866E+04  0.13384224891E+04  0.12699999809E+01 0.  1.
    10030    2    1    2    0    0  0.00000000000E+00  0.00000000000E+00 -0.12919614942E+04  0.13849002360E+04  0.49878267912E+03 0.  0.
        2    1    3    3  502    0  0.75113795431E+02  0.20295305996E+02 -0.13038677278E+04  0.13061872122E+04  0.25500000920E-02 0.  1.
       -2    1    3    3    0  502 -0.75113795431E+02 -0.20295305996E+02  0.11906233545E+02  0.78713023784E+02  0.25500000920E-02 0. -1.
</event>
<event>
 5   0  0.7531632E-02  0.4925787E+03  0.7818609E-02  0.1015734E+00
       -1   -1    0    0    0  501  0.00000000000E+00  0.00000000000E+00  0.57734834114E+03  0.57734834116E+03  0.50400001928E-02 0.  1.
        1   -1    0    0  501    0  0.00000000000E+00  0.00000000000E+00 -0.10506384347E+03  0.10506384359E+03  0.50400001928E-02 0. -1.
    10030    2    1    2    0    0  0.00000000000E+00  0.00000000000E+00  0.47228449767E+03  0.68241218475E+03  0.49257866697E+03 0.  0.
        3    1    3    3  502    0  0.96548833774E+02 -0.13004397754E+03 -0.20903317510E+02  0.16330974338E+03  0.10100000352E+00 0. -1.
       -3    1    3    3    0  502 -0.96548833774E+02  0.13004397754E+03  0.49318781518E+03  0.51910244137E+03  0.10100000352E+00 0.  1.
</event>
<event>
 5   0  0.1231822E-01  0.5096626E+03  0.7818609E-02  0.1011287E+00
       -2   -1    0    0    0  501  0.00000000000E+00  0.00000000000E+00  0.39196029169E+02  0.39196029252E+02  0.25500000920E-02 0.  1.
        2   -1    0    0  501    0  0.00000000000E+00  0.00000000000E+00 -0.16567747303E+04  0.16567747303E+04  0.25500000920E-02 0. -1.
    10030    2    1    2    0    0  0.00000000000E+00  0.00000000000E+00 -0.16175787011E+04  0.16959707596E+04  0.50966259713E+03 0.  0.
        1    1    3    3  502    0 -0.20784285759E+03  0.13382144872E+03 -0.60279407963E+03  0.65151173133E+03  0.50400001928E-02 0.  1.
       -1    1    3    3    0  502  0.20784285759E+03 -0.13382144872E+03 -0.10147846215E+04  0.10444590282E+04  0.50400001928E-02 0. -1.
</event>
<event>
 5   0  0.7531632E-02  0.5081276E+03  0.7818609E-02  0.1011679E+00
        1   -1    0    0  501    0  0.00000000000E+00  0.00000000000E+00  0.25608361891E+03  0.25608361896E+03  0.50400001928E-02 0.  1.
       -1   -1    0    0    0  501  0.00000000000E+00  0.00000000000E+00 -0.25205988074E+03  0.25205988079E+03  0.50400001928E-02 0. -1.
    10030    2    1    2    0    0  0.00000000000E+00  0.00000000000E+00  0.40237381720E+01  0.50814349974E+03  0.50812756849E+03 0.  0.
        3    1    3    3  502    0  0.11267622017E+02  0.21742712299E+03  0.13296208241E+03  0.25510868013E+03  0.10100000352E+00 0.  1.
       -3    1    3    3    0  502 -0.11267622017E+02 -0.21742712299E+03 -0.12893834424E+03  0.25303481961E+03  0.10100000352E+00 0. -1.
</event>
<event>
 5   0  0.1279188E-01  0.5035384E+03  0.7818609E-02  0.1012859E+00
       -2   -1    0    0    0  501  0.00000000000E+00  0.00000000000E+00  0.53572071184E+02  0.53572071245E+02  0.25500000920E-02 0.  1.
        2   -1    0    0  501    0  0.00000000000E+00  0.00000000000E+00 -0.11832232348E+04  0.11832232348E+04  0.25500000920E-02 0. -1.
    10030    2    1    2    0    0  0.00000000000E+00  0.00000000000E+00 -0.11296511636E+04  0.12367953060E+04  0.50353835762E+03 0.  0.
        2    1    3    3  502    0 -0.45343124843E+02 -0.12545870067E+03 -0.10892812755E+04  0.10974195103E+04  0.25500000920E-02 0. -1.
       -2    1    3    3    0  502  0.45343124843E+02  0.12545870067E+03 -0.40369888078E+02  0.13937579566E+03  0.25500000920E-02 0.  1.
</event>
<event>
 5   0  0.1191894E-01  0.4996967E+03  0.7818609E-02  0.1013858E+00
       -2   -1    0    0    0  501  0.00000000000E+00  0.00000000000E+00  0.13545316322E+03  0.13545316325E+03  0.25500000920E-02 0. -1.
        2   -1    0    0  501    0  0.00000000000E+00  0.00000000000E+00 -0.46085443919E+03  0.46085443920E+03  0.25500000920E-02 0.  1.
    10030    2    1    2    0    0  0.00000000000E+00  0.00000000000E+00 -0.32540127597E+03  0.59630760245E+03  0.49969667433E+03 0.  0.
        3    1    3    3  502    0 -0.18842704284E+03  0.12294503294E+03 -0.33049132551E+02  0.22740379715E+03  0.10100000352E+00 0. -1.
       -3    1    3    3    0  502  0.18842704284E+03 -0.12294503294E+03 -0.29235214342E+03  0.36890380529E+03  0.10100000352E+00 0.  1.
</event>
<event>
 5   0  0.1231822E-01  0.5010538E+03  0.7818609E-02  0.1013504E+00
        2   -1    0    0  501    0  0.00000000000E+00  0.00000000000E+00  0.13371417251E+04  0.13371417251E+04  0.25500000920E-02 0.  1.
       -2   -1    0    0    0  501  0.00000000000E+00  0.00000000000E+00 -0.46938720962E+02  0.46938721031E+02  0.25500000920E-02 0. -1.
    10030    2    1    2    0    0  0.00000000000E+00  0.00000000000E+00  0.12902030041E+04  0.13840804461E+04  0.50105377903E+03 0.  0.
        1    1    3    3  502    0 -0.10443273245E+03  0.74169988548E+01  0.12738144625E+04  0.12781097341E+04  0.50400001928E-02 0.  1.
       -1    1    3    3    0  502  0.10443273245E+03 -0.74169988548E+01  0.16388541585E+02  0.10597071199E+03  0.50400001928E-02 0. -1.
</event>
<event>
 5   0  0.1211345E-01  0.4999349E+03  0.7818609E-02  0.1013796E+00
        2   -1    0    0  501    0  0.00000000000E+00  0.00000000000E+00  0.17372936585E+03  0.17372936587E+03  0.25500000920E-02 0.  1.
       -2   -1    0    0    0  501  0.00000000000E+00  0.00000000000E+00 -0.35966121008E+03  0.35966121009E+03  0.25500000920E-02 0. -1.
    10030    2    1    2    0    0  0.00000000000E+00  0.00000000000E+00 -0.18593184424E+03  0.53339057596E+03  0.49993485158E+03 0.  0.
        5    1    3    3  502    0  0.22512540479E+03 -0.87611709160E+02 -0.24613346237E+02  0.24286861937E+03  0.46999998093E+01 0. -1.
       -5    1    3    3    0  502 -0.22512540479E+03  0.87611709160E+02 -0.16131849800E+03  0.29052195659E+03  0.46999998093E+01 0.  1.
</event>
<event>
 5   0  0.7781754E-02  0.4369041E+03  0.7818609E-02  0.1031701E+00
       -1   -1    0    0    0  501  0.00000000000E+00  0.00000000000E+00  0.42613063174E+02  0.42613063472E+02  0.50400001928E-02 0. -1.
        1   -1    0    0  501    0  0.00000000000E+00  0.00000000000E+00 -0.11198749659E+04  0.11198749659E+04  0.50400001928E-02 0.  1.
    10030    2    1    2    0    0  0.00000000000E+00  0.00000000000E+00 -0.10772619027E+04  0.11624880294E+04  0.43690412151E+03 0.  0.
        2    1    3    3  502    0 -0.99480796153E+02 -0.73909974247E+02 -0.59977386439E+02  0.13768224282E+03  0.25500000920E-02 0. -1.
       -2    1    3    3    0  502  0.99480796153E+02  0.73909974247E+02 -0.10172845163E+04  0.10248057866E+04  0.25500000920E-02 0.  1.
</event>
<event>
 5   0  0.7531632E-02  0.4989727E+03  0.7818609E-02  0.1014047E+00
        1   -1    0    0  501    0  0.00000000000E+00  0.00000000000E+00  0.96769025194E+02  0.96769025325E+02  0.50400001928E-02 0.  1.
       -1   -1    0    0    0  501  0.00000000000E+00  0.00000000000E+00 -0.64321647716E+03  0.64321647717E+03  0.50400001928E-02 0. -1.
    10030    2    1    2    0    0  0.00000000000E+00  0.00000000000E+00 -0.54644745196E+03  0.73998550250E+03  0.49897267075E+03 0.  0.
        3    1    3    3  502    0 -0.15848910821E+03 -0.10935483007E+03 -0.50848735916E+03  0.54372482094E+03  0.10100000352E+00 0. -1.
       -3    1    3    3    0  502  0.15848910821E+03  0.10935483007E+03 -0.37960092802E+02  0.19626068156E+03  0.10100000352E+00 0.  1.
</event>
<event>
 5   0  0.5006750E-02  0.5044612E+03  0.7818609E-02  0.1012621E+00
       -3   -1    0    0    0  501  0.00000000000E+00  0.00000000000E+00  0.42697928069E+03  0.42697929264E+03  0.10100000352E+00 0.  1.
        3   -1    0    0  501    0  0.00000000000E+00  0.00000000000E+00 -0.14900082987E+03  0.14900086411E+03  0.10100000352E+00 0. -1.
    10030    2    1    2    0    0  0.00000000000E+00  0.00000000000E+00  0.27797845082E+03  0.57598015674E+03  0.50446121936E+03 0.  0.
        2    1    3    3  502    0 -0.87575294311E+02  0.16019680876E+03  0.33769652492E+03  0.38388981838E+03  0.25500000920E-02 0.  1.
       -2    1    3    3    0  502  0.87575294311E+02 -0.16019680876E+03 -0.59718074106E+02  0.19209033836E+03  0.25500000920E-02 0. -1.
</event>
<event>
 5   0  0.1243803E-01  0.4942201E+03  0.7818609E-02  0.1015299E+00
        2   -1    0    0  501    0  0.00000000000E+00  0.00000000000E+00  0.11115321367E+04  0.11115321367E+04  0.25500000920E-02 0.  1.
       -2   -1    0    0    0  501  0.00000000000E+00  0.00000000000E+00 -0.54936230728E+02  0.54936230787E+02  0.25500000920E-02 0. -1.
    10030    2    1    2    0    0  0.00000000000E+00  0.00000000000E+00  0.10565959059E+04  0.11664683675E+04  0.49422013702E+03 0.  0.
        4    1    3    3  502    0  0.14472409622E+02  0.56169815552E+02  0.10952289170E+04  0.10967645565E+04  0.12699999809E+01 0.  1.
       -4    1    3    3    0  502 -0.14472409622E+02 -0.56169815552E+02 -0.38633011068E+02  0.69703810969E+02  0.12699999809E+01 0. -1.
</event>
<event>
 5   0  0.7812547E-02  0.4962451E+03  0.7818609E-02  0.1014764E+00
       -1   -1    0    0    0  501  0.00000000000E+00  0.00000000000E+00  0.13704040173E+03  0.13704040182E+03  0.50400001928E-02 0. -1.
        1   -1    0    0  501    0  0.00000000000E+00  0.00000000000E+00 -0.44924568512E+03  0.44924568515E+03  0.50400001928E-02 0.  1.
    10030    2    1    2    0    0  0.00000000000E+00  0.00000000000E+00 -0.31220528339E+03  0.58628608698E+03  0.49624513782E+03 0.  0.
        4    1    3    3  502    0  0.44433717821E+02 -0.24245982736E+03 -0.12264307525E+03  0.27532537110E+03  0.12699999809E+01 0. -1.
       -4    1    3    3    0  502 -0.44433717821E+02  0.24245982736E+03 -0.18956220815E+03  0.31096071588E+03  0.12699999809E+01 0.  1.
</event>
<event>
 5   0  0.5006750E-02  0.5158685E+03  0.7818609E-02  0.1009718E+00
       -3   -1    0    0    0  501  0.00000000000E+00  0.00000000000E+00  0.36406762290E+02  0.36406902387E+02  0.10100000352E+00 0.  1.
        3   -1    0    0  501    0  0.00000000000E+00  0.00000000000E+00 -0.18274063347E+04  0.18274063375E+04  0.10100000352E+00 0. -1.
    10030    2    1    2    0    0  0.00000000000E+00  0.00000000000E+00 -0.17909995725E+04  0.18638132399E+04  0.51586851501E+03 0.  0.
        4    1    3    3  502    0  0.10041783666E+03  0.20921732389E+03 -0.48877531089E+03  0.54107166621E+03  0.12699999809E+01 0.  1.
       -4    1    3    3    0  502 -0.10041783666E+03 -0.20921732389E+03 -0.13022242616E+04  0.13227415737E+04  0.12699999809E+01 0. -1.
</event>
<event>
 5   0  0.7416638E-02  0.5039632E+03  0.7818609E-02  0.1012750E+00
        1   -1    0    0  501    0  0.00000000000E+00  0.00000000000E+00  0.94996856544E+02  0.94996856678E+02  0.50400001928E-02 0.  1.
       -1   -1    0    0    0  501  0.00000000000E+00  0.00000000000E+00 -0.66838773573E+03  0.66838773575E+03  0.50400001928E-02 0. -1.
    10030    2    1    2    0    0  0.00000000000E+00  0.00000000000E+00 -0.57339087918E+03  0.76338459243E+03  0.50396322844E+03 0.  0.
        1    1    3    3  502    0  0.12957697048E+03 -0.55597409462E+02 -0.60303598928E+03  0.61930095076E+03  0.50400001928E-02 0. -1.
       -1    1    3    3    0  502 -0.12957697048E+03  0.55597409462E+02  0.29645110096E+02  0.14408364167E+03  0.50400001928E-02 0.  1.
</event>
<event>
 5   0  0.1231822E-01  0.5021645E+03  0.7818609E-02  0.1013215E+00
        2   -1    0    0  501    0  0.00000000000E+00  0.00000000000E+00  0.12764162912E+04  0.12764162912E+04  0.25500000920E-02 0. -1.
       -2   -1    0    0    0  501  0.00000000000E+00  0.00000000000E+00 -0.49390080644E+02  0.49390080709E+02  0.25500000920E-02 0.  1.
    10030    2    1    2    0    0  0.00000000000E+00  0.00000000000E+00  0.12270262106E+04  0.13258063719E+04  0.50216452923E+03 0.  0.
        1    1    3    3  502    0 -0.20171042692E+03  0.12498307147E+03  0.39685008947E+03  0.46238280463E+03  0.50400001928E-02 0.  1.
       -1    1    3    3    0  502  0.20171042692E+03 -0.12498307147E+03  0.83017612111E+03  0.86342356730E+03  0.50400001928E-02 0. -1.
</event>
<event>
 5   0  0.7602288E-02  0.5087089E+03  0.7818609E-02  0.1011530E+00
        1   -1    0    0  501    0  0.00000000000E+00  0.00000000000E+00  0.65621087376E+03  0.65621087378E+03  0.50400001928E-02 0. -1.
       -1   -1    0    0    0  501  0.00000000000E+00  0.00000000000E+00 -0.98590525456E+02  0.98590525585E+02  0.50400001928E-02 0.  1.
    10030    2    1    2    0    0  0.00000000000E+00  0.00000000000E+00  0.55762034830E+03  0.75480139936E+03  0.50870885548E+03 0.  0.
        5    1    3    3  502    0  0.19508320979E+03 -0.14682135795E+03  0.17326373322E+03  0.29942675421E+03  0.46999998093E+01 0.  1.
       -5    1    3    3    0  502 -0.19508320979E+03  0.14682135795E+03  0.38435661508E+03  0.45537464515E+03  0.46999998093E+01 0. -1.
</event>
<event>
 5   0  0.1243803E-01  0.5016891E+03  0.7818609E-02  0.1013339E+00
        2   -1    0    0  501    0  0.00000000000E+00  0.00000000000E+00  0.14159312831E+04  0.14159312831E+04  0.25500000920E-02 0. -1.
       -2   -1    0    0    0  501  0.00000000000E+00  0.00000000000E+00 -0.44439301246E+02  0.44439301319E+02  0.25500000920E-02 0.  1.
    10030    2    1    2    0    0  0.00000000000E+00  0.00000000000E+00  0.13714919819E+04  0.14603705845E+04  0.50168913439E+03 0.  0.
        4    1    3    3  502    0 -0.20530774325E+03 -0.34651072999E+01  0.26635194495E+03  0.33631569676E+03  0.12699999809E+01 0.  1.
       -4    1    3    3    0  502  0.20530774325E+03  0.34651072999E+01  0.11051400369E+04  0.11240548877E+04  0.12699999809E+01 0. -1.
</event>
<event>
 5   0  0.1231822E-01  0.5079313E+03  0.7818609E-02  0.1011729E+00
        2   -1    0    0  501    0  0.00000000000E+00  0.00000000000E+00  0.12699291058E+04  0.12699291058E+04  0.25500000920E-02 0. -1.
       -2   -1    0    0    0  501  0.00000000000E+00  0.00000000000E+00 -0.50789098892E+02  0.50789098956E+02  0.25500000920E-02 0.  1.
    10030    2    1    2    0    0  0.00000000000E+00  0.00000000000E+00  0.12191400069E+04  0.13207182048E+04  0.50793131419E+03 0.  0.
        1    1    3    3  502    0  0.54644081077E+02  0.24215964850E+03  0.74889955890E+03  0.78897263597E+03  0.50400001928E-02 0. -1.
       -1    1    3    3    0  502 -0.54644081077E+02 -0.24215964850E+03  0.47024044800E+03  0.53174556879E+03  0.50400001928E-02 0.  1.
</event>
<event>
 5   0  0.1191894E-01  0.5218280E+03  0.7818609E-02  0.1008233E+00
       -2   -1    0    0    0  501  0.00000000000E+00  0.00000000000E+00  0.50798363752E+02  0.50798363816E+02  0.25500000920E-02 0. -1.
        2   -1    0    0  501    0  0.00000000000E+00  0.00000000000E+00 -0.13401242953E+04  0.13401242953E+04  0.25500000920E-02 0.  1.
    10030    2    1    2    0    0  0.00000000000E+00  0.00000000000E+00 -0.12893259315E+04  0.13909226591E+04  0.52182802328E+03 0.  0.
        3    1    3    3  502    0  0.72135089765E+02  0.22463020698E+03 -0.94164479922E+03  0.97075081208E+03  0.10100000352E+00 0.  1.
       -3    1    3    3    0  502 -0.72135089765E+02 -0.22463020698E+03 -0.34768113232E+03  0.42017184703E+03  0.10100000352E+00 0. -1.
</event>
<event>
 5   0  0.1279188E-01  0.4950783E+03  0.7818609E-02  0.1015072E+00
        2   -1    0    0  501    0  0.00000000000E+00  0.00000000000E+00  0.39084675646E+03  0.39084675647E+03  0.25500000920E-02 0.  1.
       -2   -1    0    0    0  501  0.00000000000E+00  0.00000000000E+00 -0.15677662390E+03  0.15677662392E+03  0.25500000920E-02 0. -1.
    10030    2    1    2    0    0  0.00000000000E+00  0.00000000000E+00  0.23407013256E+03  0.54762338038E+03  0.49507831682E+03 0.  0.
        2    1    3    3  502    0 -0.11015916387E+03  0.18158996703E+03  0.25767382684E+03  0.33392477978E+03  0.25500000920E-02 0.  1.
       -2    1    3    3    0  502  0.11015916387E+03 -0.18158996703E+03 -0.23603694273E+02  0.21369860060E+03  0.25500000920E-02 0. -1.
</event>
<event>
 5   0  0.1231822E-01  0.4992895E+03  0.7818609E-02  0.1013965E+00
       -2   -1    0    0    0  501  0.00000000000E+00  0.00000000000E+00  0.24425561596E+03  0.24425561598E+03  0.25500000920E-02 0.  1.
        2   -1    0    0  501    0  0.00000000000E+00  0.00000000000E+00 -0.25515280706E+03  0.25515280707E+03  0.25500000920E-02 0. -1.
    10030    2    1    2    0    0  0.00000000000E+00  0.00000000000E+00 -0.10897191097E+02  0.49940842305E+03  0.49928951946E+03 0.  0.
        1    1    3    3  502    0 -0.16983152979E+02 -0.77857392902E+02 -0.24208960469E+03  0.25486776540E+03  0.50400001928E-02 0. -1.
       -1    1    3    3    0  502  0.16983152979E+02  0.77857392902E+02  0.23119241360E+03  0.24454065765E+03  0.50400001928E-02 0.  1.
</event>
<event>
 5   0  0.1211345E-01  0.5266265E+03  0.7818609E-02  0.1007054E+00
        2   -1    0    0  501    0  0.00000000000E+00  0.00000000000E+00  0.21207399258E+04  0.21207399258E+04  0.25500000920E-02 0.  1.
       -2   -1    0    0    0  501  0.00000000000E+00  0.00000000000E+00 -0.32693241747E+02  0.32693241846E+02  0.25500000920E-02 0. -1.
    10030    2    1    2    0    0  0.00000000000E+00  0.00000000000E+00  0.20880466840E+04  0.21534331676E+04  0.52662648313E+03 0.  0.
        5    1    3    3  502    0 -0.14110003916E+03  0.82603542045E+02  0.20024672305E+03  0.25856025661E+03  0.46999998093E+01 0. -1.
       -5    1    3    3    0  502  0.14110003916E+03 -0.82603542045E+02  0.18877999610E+04  0.18948729110E+04  0.46999998093E+01 0.  1.
</event>
<event>
 5   0  0.5006750E-02  0.4998820E+03  0.7818609E-02  0.1013810E+00
        3   -1    0    0  501    0  0.00000000000E+00  0.00000000000E+00  0.12907264535E+03  0.12907268487E+03  0.10100000352E+00 0. -1.
       -3   -1    0    0    0  501  0.00000000000E+00  0.00000000000E+00 -0.48399485319E+03  0.48399486372E+03  0.10100000352E+00 0.  1.
    10030    2    1    2    0    0  0.00000000000E+00  0.00000000000E+00 -0.35492220784E+03  0.61306754859E+03  0.49988203160E+03 0.  0.
        1    1    3    3  502    0  0.22591248932E+03 -0.96911359642E+02 -0.12203747933E+03  0.27444746464E+03  0.50400001928E-02 0. -1.
       -1    1    3    3    0  502 -0.22591248932E+03  0.96911359642E+02 -0.23288472851E+03  0.33862008395E+03  0.50400001928E-02 0.  1.
</event>
<event>
 5   0  0.1279188E-01  0.5250623E+03  0.7818609E-02  0.1007437E+00
        2   -1    0    0  501    0  0.00000000000E+00  0.00000000000E+00  0.17181958523E+04  0.17181958523E+04  0.25500000920E-02 0.  1.
       -2   -1    0    0    0  501  0.00000000000E+00  0.00000000000E+00 -0.40113353567E+02  0.40113353649E+02  0.25500000920E-02 0. -1.
    10030    2    1    2    0    0  0.00000000000E+00  0.00000000000E+00  0.16780824988E+04  0.17583092060E+04  0.52506227362E+03 0.  0.
        2    1    3    3  502    0 -0.10333050616E+03  0.18177852712E+03  0.30742078312E+03  0.37179048444E+03  0.25500000920E-02 0. -1.
       -2    1    3    3    0  502  0.10333050616E+03 -0.18177852712E+03  0.13706617157E+04  0.13865187215E+04  0.25500000920E-02 0.  1.
</event>
<event>
 5   0  0.7531632E-02  0.5043727E+03  0.7818609E-02  0.1012644E+00
        1   -1    0    0  501    0  0.00000000000E+00  0.00000000000E+00  0.43770865071E+03  0.43770865074E+03  0.50400001928E-02 0. -1.
       -1   -1    0    0    0  501  0.00000000000E+00  0.00000000000E+00 -0.14529745490E+03  0.14529745499E+03  0.50400001928E-02 0.  1.
    10030    2    1    2    0    0  0.00000000000E+00  0.00000000000E+00  0.29241119581E+03  0.58300610573E+03  0.50437269145E+03 0.  0.
        3    1    3    3  502    0 -0.14158072328E+03  0.12709867063E+03  0.33753735862E+03  0.38746696885E+03  0.10100000352E+00 0.  1.
       -3    1    3    3    0  502  0.14158072328E+03 -0.12709867063E+03 -0.45126162817E+02  0.19553913688E+03  0.10100000352E+00 0. -1.
</event>
<event>
 5   0  0.7416638E-02  0.4833003E+03  0.7818609E-02  0.1018232E+00
       -1   -1    0    0    0  501  0.00000000000E+00  0.00000000000E+00  0.63928401261E+02  0.63928401459E+02  0.50400001928E-02 0.  1.
        1   -1    0    0  501    0  0.00000000000E+00  0.00000000000E+00 -0.91344062415E+03  0.91344062417E+03  0.50400001928E-02 0. -1.
    10030    2    1    2    0    0  0.00000000000E+00  0.00000000000E+00 -0.84951222289E+03  0.97736902562E+03  0.48330031596E+03 0.  0.
        1    1    3    3  502    0  0.11809410303E+03  0.90864459002E+02 -0.80948001839E+03  0.82307986689E+03  0.50400001928E-02 0. -1.
       -1    1    3    3    0  502 -0.11809410303E+03 -0.90864459002E+02 -0.40032204504E+02  0.15428915874E+03  0.50400001928E-02 0.  1.
</event>
<event>
 5   0  0.1243803E-01  0.5002616E+03  0.7818609E-02  0.1013711E+00
        2   -1    0    0  501    0  0.00000000000E+00  0.00000000000E+00  0.15269090475E+04  0.15269090475E+04  0.25500000920E-02 0. -1.
       -2   -1    0    0    0  501  0.00000000000E+00  0.00000000000E+00 -0.40975215206E+02  0.40975215285E+02  0.25500000920E-02 0.  1.
    10030    2    1    2    0    0  0.00000000000E+00  0.00000000000E+00  0.14859338323E+04  0.15678842628E+04  0.50026163909E+03 0.  0.
        4    1    3    3  502    0 -0.15448566935E+03  0.17028556109E+03  0.43427801540E+03  0.49138783248E+03  0.12699999809E+01 0.  1.
       -4    1    3    3    0  502  0.15448566935E+03 -0.17028556109E+03  0.10516558169E+04  0.10764964303E+04  0.12699999809E+01 0. -1.
</event>
<event>
 5   0  0.1211345E-01  0.4649917E+03  0.7818609E-02  0.1023343E+00
       -2   -1    0    0    0  501  0.00000000000E+00  0.00000000000E+00  0.53713063270E+02  0.53713063331E+02  0.25500000920E-02 0.  1.
        2   -1    0    0  501    0  0.00000000000E+00  0.00000000000E+00 -0.10063533731E+04  0.10063533731E+04  0.25500000920E-02 0. -1.
    10030    2    1    2    0    0  0.00000000000E+00  0.00000000000E+00 -0.95264030982E+03  0.10600664364E+04  0.46499170932E+03 0.  0.
        5    1    3    3  502    0  0.20382492983E+03 -0.11090408115E+03 -0.50757150829E+03  0.55811758910E+03  0.46999998093E+01 0. -1.
       -5    1    3    3    0  502 -0.20382492983E+03  0.11090408115E+03 -0.44506880153E+03  0.50194884732E+03  0.46999998093E+01 0.  1.
</event>
<event>
 5   0  0.1211345E-01  0.5033139E+03  0.7818609E-02  0.1012918E+00
        2   -1    0    0  501    0  0.00000000000E+00  0.00000000000E+00  0.67448341077E+03  0.67448341077E+03  0.25500000920E-02 0.  1.
       -2   -1    0    0    0  501  0.00000000000E+00  0.00000000000E+00 -0.93895908756E+02  0.93895908791E+02  0.25500000920E-02 0. -1.
    10030    2    1    2    0    0  0.00000000000E+00  0.00000000000E+00  0.58058750201E+03  0.76837931956E+03  0.50331394898E+03 0.  0.
        5    1    3    3  502    0  0.14086445991E+03 -0.14317252735E+03  0.58928545856E+02  0.20937008423E+03  0.46999998093E+01 0. -1.
       -5    1    3    3    0  502 -0.14086445991E+03  0.14317252735E+03  0.52165895615E+03  0.55900923533E+03  0.46999998093E+01 0.  1.
</event>
<event>
 5   0  0.7812547E-02  0.4969638E+03  0.7818609E-02  0.1014574E+00
        1   -1    0    0  501    0  0.00000000000E+00  0.00000000000E+00  0.10709679444E+04  0.10709679444E+04  0.50400001928E-02 0. -1.
       -1   -1    0    0    0  501  0.00000000000E+00  0.00000000000E+00 -0.57651823849E+02  0.57651824069E+02  0.50400001928E-02 0.  1.
    10030    2    1    2    0    0  0.00000000000E+00  0.00000000000E+00  0.10133161205E+04  0.11286197685E+04  0.49696380314E+03 0.  0.
        4    1    3    3  502    0  0.16256948573E+03  0.18454777821E+02  0.93136028248E+03  0.94562307776E+03  0.12699999809E+01 0. -1.
       -4    1    3    3    0  502 -0.16256948573E+03 -0.18454777821E+02  0.81955838045E+02  0.18299669069E+03  0.12699999809E+01 0.  1.
</event>
<event>
 5   0  0.7602288E-02  0.4886860E+03  0.7818609E-02  0.1016775E+00
        1   -1    0    0  501    0  0.00000000000E+00  0.00000000000E+00  0.41638498239E+03  0.41638498242E+03  0.50400001928E-02 0.  1.
       -1   -1    0    0    0  501  0.00000000000E+00  0.00000000000E+00 -0.14338535472E+03  0.14338535481E+03  0.50400001928E-02 0. -1.
    10030    2    1    2    0    0  0.00000000000E+00  0.00000000000E+00  0.27299962767E+03  0.55977033723E+03  0.48868602776E+03 0.  0.
        5    1    3    3  502    0  0.13753595799E+03 -0.13651952460E+03 -0.33891745616E+02  0.19678531642E+03  0.46999998093E+01 0. -1.
       -5    1    3    3    0  502 -0.13753595799E+03  0.13651952460E+03  0.30689137329E+03  0.36298502081E+03  0.46999998093E+01 0.  1.
</event>
<event>
 5   0  0.1231822E-01  0.4955290E+03  0.7818609E-02  0.1014953E+00
       -2   -1    0    0    0  501  0.00000000000E+00  0.00000000000E+00  0.13730343825E+03  0.13730343827E+03  0.25500000920E-02 0.  1.
        2   -1    0    0  501    0  0.00000000000E+00  0.00000000000E+00 -0.44709181763E+03  0.44709181764E+03  0.25500000920E-02 0. -1.
    10030    2    1    2    0    0  0.00000000000E+00  0.00000000000E+00 -0.30978837938E+03  0.58439525591E+03  0.49552898516E+03 0.  0.
        1    1    3    3  502    0 -0.72294336240E+02  0.18214167631E+03  0.23903373914E+02  0.19741690052E+03  0.50400001928E-02 0.  1.
       -1    1    3    3    0  502  0.72294336240E+02 -0.18214167631E+03 -0.33369175330E+03  0.38697835540E+03  0.50400001928E-02 0. -1.
</event>
<event>
 5   0  0.1243803E-01  0.5072883E+03  0.7818609E-02  0.1011894E+00
       -2   -1    0    0    0  501  0.00000000000E+00  0.00000000000E+00  0.72324483423E+03  0.72324483424E+03  0.25500000920E-02 0.  1.
        2   -1    0    0  501    0  0.00000000000E+00  0.00000000000E+00 -0.88953787595E+02  0.88953787632E+02  0.25500000920E-02 0. -1.
    10030    2    1    2    0    0  0.00000000000E+00  0.00000000000E+00  0.63429104664E+03  0.81219862187E+03  0.50728834948E+03 0.  0.
        4    1    3    3  502    0  0.26574580923E+02  0.13809763783E+03  0.65510398601E+03  0.67002985852E+03  0.12699999809E+01 0.  1.
       -4    1    3    3    0  502 -0.26574580923E+02 -0.13809763783E+03 -0.20812939370E+02  0.14216876335E+03  0.12699999809E+01 0. -1.
</event>
<event>
 5   0  0.1279188E-01  0.4987835E+03  0.7818609E-02  0.1014097E+00
       -2   -1    0    0    0  501  0.00000000000E+00  0.00000000000E+00  0.10819081166E+03  0.10819081169E+03  0.25500000920E-02 0. -1.
        2   -1    0    0  501    0  0.00000000000E+00  0.00000000000E+00 -0.57487555918E+03  0.57487555918E+03  0.25500000920E-02 0.  1.
    10030    2    1    2    0    0  0.00000000000E+00  0.00000000000E+00 -0.46668474752E+03  0.68306637087E+03  0.49878353366E+03 0.  0.
        2    1    3    3  502    0  0.54650135867E+02 -0.94418368989E+02  0.73780587074E+02  0.13170057247E+03  0.25500000920E-02 0. -1.
       -2    1    3    3    0  502 -0.54650135867E+02  0.94418368989E+02 -0.54046533459E+03  0.55136579841E+03  0.25500000920E-02 0.  1.
</event>
<event>
 5   0  0.1279188E-01  0.5043328E+03  0.7818609E-02  0.1012654E+00
       -2   -1    0    0    0  501  0.00000000000E+00  0.00000000000E+00  0.10826341074E+03  0.10826341077E+03  0.25500000920E-02 0.  1.
        2   -1    0    0  501    0  0.00000000000E+00  0.00000000000E+00 -0.58734426551E+03  0.58734426552E+03  0.25500000920E-02 0. -1.
    10030    2    1    2    0    0  0.00000000000E+00  0.00000000000E+00 -0.47908085477E+03  0.69560767628E+03  0.50433280073E+03 0.  0.
        2    1    3    3  502    0 -0.66470273557E+02  0.10703718180E+03 -0.54081596175E+03  0.55529916266E+03  0.25500000920E-02 0. -1.
       -2    1    3    3    0  502  0.66470273557E+02 -0.10703718180E+03  0.61735106977E+02  0.14030851362E+03  0.25500000920E-02 0.  1.
</event>
<event>
 5   0  0.5006750E-02  0.5005211E+03  0.7818609E-02  0.1013643E+00
        4   -1    0    0  501    0  0.00000000000E+00  0.00000000000E+00  0.17314364527E+03  0.17314830290E+03  0.12699999809E+01 0. -1.
       -4   -1    0    0    0  501  0.00000000000E+00  0.00000000000E+00 -0.36171411611E+03  0.36171634563E+03  0.12699999809E+01 0.  1.
    10030    2    1    2    0    0  0.00000000000E+00  0.00000000000E+00 -0.18857047084E+03  0.53486464853E+03  0.50052109824E+03 0.  0.
        4    1    3    3  502    0 -0.13020982514E+03 -0.17293958847E+03  0.39893185364E+02  0.22012673387E+03  0.12699999809E+01 0. -1.
       -4    1    3    3    0  502  0.13020982514E+03  0.17293958847E+03 -0.22846365620E+03  0.31473791467E+03  0.12699999809E+01 0.  1.
</event>
<event>
 5   0  0.7416638E-02  0.4987685E+03  0.7818609E-02  0.1014101E+00
       -1   -1    0    0    0  501  0.00000000000E+00  0.00000000000E+00  0.17941410410E+03  0.17941410417E+03  0.50400001928E-02 0.  1.
        1   -1    0    0  501    0  0.00000000000E+00  0.00000000000E+00 -0.34664224843E+03  0.34664224847E+03  0.50400001928E-02 0. -1.
    10030    2    1    2    0    0  0.00000000000E+00  0.00000000000E+00 -0.16722814433E+03  0.52605635264E+03  0.49876851734E+03 0.  0.
        1    1    3    3  502    0 -0.20466225057E+03 -0.51003166599E+02  0.56724051745E+02  0.21841606599E+03  0.50400001928E-02 0.  1.
       -1    1    3    3    0  502  0.20466225057E+03  0.51003166599E+02 -0.22395219608E+03  0.30764028664E+03  0.50400001928E-02 0. -1.
</event>
<event>
 5   0  0.1211345E-01  0.5380709E+03  0.7818609E-02  0.1004293E+00
        2   -1    0    0  501    0  0.00000000000E+00  0.00000000000E+00  0.27384662250E+03  0.27384662251E+03  0.25500000920E-02 0. -1.
       -2   -1    0    0    0  501  0.00000000000E+00  0.00000000000E+00 -0.26430877167E+03  0.26430877168E+03  0.25500000920E-02 0.  1.
    10030    2    1    2    0    0  0.00000000000E+00  0.00000000000E+00  0.95378508353E+01  0.53815539419E+03  0.53807086680E+03 0.  0.
        5    1    3    3  502    0  0.21642836952E+03  0.15366258836E+03 -0.38879014528E+02  0.26830411470E+03  0.46999998093E+01 0. -1.
       -5    1    3    3    0  502 -0.21642836952E+03 -0.15366258836E+03  0.48416865363E+02  0.26985127949E+03  0.46999998093E+01 0.  1.
</event>
<event>
 5   0  0.1231822E-01  0.4945533E+03  0.7818609E-02  0.1015210E+00
        2   -1    0    0  501    0  0.00000000000E+00  0.00000000000E+00  0.36922219573E+03  0.36922219574E+03  0.25500000920E-02 0. -1.
       -2   -1    0    0    0  501  0.00000000000E+00  0.00000000000E+00 -0.16560690556E+03  0.16560690558E+03  0.25500000920E-02 0.  1.
    10030    2    1    2    0    0  0.00000000000E+00  0.00000000000E+00  0.20361529017E+03  0.53482910132E+03  0.49455331485E+03 0.  0.
        1    1    3    3  502    0 -0.53314949877E+02  0.19254603979E+03  0.25937621238E+03  0.32740262811E+03  0.50400001928E-02 0. -1.
       -1    1    3    3    0  502  0.53314949877E+02 -0.19254603979E+03 -0.55760922206E+02  0.20742647321E+03  0.50400001928E-02 0.  1.
</event>
<event>
 5   0  0.7812547E-02  0.5013634E+03  0.7818609E-02  0.1013424E+00
        1   -1    0    0  501    0  0.00000000000E+00  0.00000000000E+00  0.27712961871E+03  0.27712961875E+03  0.50400001928E-02 0.  1.
       -1   -1    0    0    0  501  0.00000000000E+00  0.00000000000E+00 -0.22675788510E+03  0.22675788515E+03  0.50400001928E-02 0. -1.
    10030    2    1    2    0    0  0.00000000000E+00  0.00000000000E+00  0.50371733610E+02  0.50388750391E+03  0.50136344606E+03 0.  0.
        4    1    3    3  502    0 -0.17107618391E+03  0.65959447559E+02 -0.14661918071E+03  0.23476904923E+03  0.12699999809E+01 0. -1.
       -4    1    3    3    0  502  0.17107618391E+03 -0.65959447559E+02  0.19699091432E+03  0.26911845468E+03  0.12699999809E+01 0.  1.
</event>
<event>
 5   0  0.7531632E-02  0.4933627E+03  0.7818609E-02  0.1015526E+00
       -1   -1    0    0    0  501  0.00000000000E+00  0.00000000000E+00  0.13184455343E+03  0.13184455353E+03  0.50400001928E-02 0. -1.
        1   -1    0    0  501    0  0.00000000000E+00  0.00000000000E+00 -0.46154110672E+03  0.46154110675E+03  0.50400001928E-02 0.  1.
    10030    2    1    2    0    0  0.00000000000E+00  0.00000000000E+00 -0.32969655329E+03  0.59338566028E+03  0.49336267043E+03 0.  0.
        3    1    3    3  502    0 -0.10922562016E+03 -0.14899923136E+03 -0.36145319720E+03  0.40593032779E+03  0.10100000352E+00 0.  1.
       -3    1    3    3    0  502  0.10922562016E+03  0.14899923136E+03  0.31756643913E+02  0.18745533249E+03  0.10100000352E+00 0. -1.
</event>
<event>
 5   0  0.1211345E-01  0.4995406E+03  0.7818609E-02  0.1013899E+00
        2   -1    0    0  501    0  0.00000000000E+00  0.00000000000E+00  0.50222087393E+03  0.50222087394E+03  0.25500000920E-02 0.  1.
       -2   -1    0    0    0  501  0.00000000000E+00  0.00000000000E+00 -0.12421867709E+03  0.12421867711E+03  0.25500000920E-02 0. -1.
    10030    2    1    2    0    0  0.00000000000E+00  0.00000000000E+00  0.37800219684E+03  0.62643955105E+03  0.49954063929E+03 0.  0.
        5    1    3    3  502    0  0.21951128790E+03  0.11850113968E+03  0.17440916665E+03  0.30441480423E+03  0.46999998093E+01 0. -1.
       -5    1    3    3    0  502 -0.21951128790E+03 -0.11850113968E+03  0.20359303020E+03  0.32202474682E+03  0.46999998093E+01 0.  1.
</event>
<event>
 5   0  0.1211345E-01  0.4995315E+03  0.7818609E-02  0.1013901E+00
        2   -1    0    0  501    0  0.00000000000E+00  0.00000000000E+00  0.89522439869E+02  0.89522439905E+02  0.25500000920E-02 0. -1.
       -2   -1    0    0    0  501  0.00000000000E+00  0.00000000000E+00 -0.69684136872E+03  0.69684136872E+03  0.25500000920E-02 0.  1.
    10030    2    1    2    0    0  0.00000000000E+00  0.00000000000E+00 -0.60731892885E+03  0.78636380863E+03  0.49953153872E+03 0.  0.
        5    1    3    3  502    0  0.22842677508E+03  0.51181041524E+02 -0.16676213029E+03  0.28745432452E+03  0.46999998093E+01 0. -1.
       -5    1    3    3    0  502 -0.22842677508E+03 -0.51181041524E+02 -0.44055679855E+03  0.49890948411E+03  0.46999998093E+01 0.  1.
</event>
<event>
 5   0  0.1279188E-01  0.4999478E+03  0.7818609E-02  0.1013793E+00
       -2   -1    0    0    0  501  0.00000000000E+00  0.00000000000E+00  0.29523564942E+02  0.29523565053E+02  0.25500000920E-02 0. -1.
        2   -1    0    0  501    0  0.00000000000E+00  0.00000000000E+00 -0.21165112772E+04  0.21165112772E+04  0.25500000920E-02 0.  1.
    10030    2    1    2    0    0  0.00000000000E+00  0.00000000000E+00 -0.20869877122E+04  0.21460348422E+04  0.49994783033E+03 0.  0.
        2    1    3    3  502    0 -0.67224179999E+02 -0.23546655595E+03 -0.12591205155E+04  0.12827112153E+04  0.25500000920E-02 0.  1.
       -2    1    3    3    0  502  0.67224179999E+02  0.23546655595E+03 -0.82786719674E+03  0.86332362692E+03  0.25500000920E-02 0. -1.
</event>
<event>
 5   0  0.1243803E-01  0.4994237E+03  0.7818609E-02  0.1013929E+00
        2   -1    0    0  501    0  0.00000000000E+00  0.00000000000E+00  0.20690964666E+04  0.20690964666E+04  0.25500000920E-02 0.  1.
       -2   -1    0    0    0  501  0.00000000000E+00  0.00000000000E+00 -0.30136827694E+02  0.30136827802E+02  0.25500000920E-02 0. -1.
    10030    2    1    2    0    0  0.00000000000E+00  0.00000000000E+00  0.20389596389E+04  0.20992332944E+04  0.49942368310E+03 0.  0.
        4    1    3    3  502    0  0.16421376800E+03  0.36504561604E+01  0.22891186838E+03  0.28174765982E+03  0.12699999809E+01 0. -1.
       -4    1    3    3    0  502 -0.16421376800E+03 -0.36504561604E+01  0.18100477705E+04  0.18174856345E+04  0.12699999809E+01 0.  1.
</event>
<event>
 5   0  0.7416638E-02  0.4547167E+03  0.7818609E-02  0.1026325E+00
        1   -1    0    0  501    0  0.00000000000E+00  0.00000000000E+00  0.54562194636E+02  0.54562194869E+02  0.50400001928E-02 0. -1.
       -1   -1    0    0    0  501  0.00000000000E+00  0.00000000000E+00 -0.94739261050E+03  0.94739261051E+03  0.50400001928E-02 0.  1.
    10030    2    1    2    0    0  0.00000000000E+00  0.00000000000E+00 -0.89283041586E+03  0.10019548054E+04  0.45471670360E+03 0.  0.
        1    1    3    3  502    0  0.11383823216E+03 -0.17051728741E+03 -0.22988534056E+03  0.30803012554E+03  0.50400001928E-02 0. -1.
       -1    1    3    3    0  502 -0.11383823216E+03  0.17051728741E+03 -0.66294507530E+03  0.69392467984E+03  0.50400001928E-02 0.  1.
</event>
<event>
 5   0  0.7416638E-02  0.4995926E+03  0.7818609E-02  0.1013885E+00
       -1   -1    0    0    0  501  0.00000000000E+00  0.00000000000E+00  0.13456288785E+04  0.13456288785E+04  0.50400001928E-02 0.  1.
        1   -1    0    0  501    0  0.00000000000E+00  0.00000000000E+00 -0.46371029578E+02  0.46371029852E+02  0.50400001928E-02 0. -1.
    10030    2    1    2    0    0  0.00000000000E+00  0.00000000000E+00  0.12992578489E+04  0.13919999083E+04  0.49959262092E+03 0.  0.
        1    1    3    3  502    0  0.74961615522E+02 -0.98623548868E+02  0.12540141566E+04  0.12601179918E+04  0.50400001928E-02 0.  1.
       -1    1    3    3    0  502 -0.74961615522E+02  0.98623548868E+02  0.45243692255E+02  0.13188191653E+03  0.50400001928E-02 0. -1.
</event>
<event>
 5   0  0.7531632E-02  0.4981092E+03  0.7818609E-02  0.1014274E+00
       -1   -1    0    0    0  501  0.00000000000E+00  0.00000000000E+00  0.31032805306E+03  0.31032805310E+03  0.50400001928E-02 0. -1.
        1   -1    0    0  501    0  0.00000000000E+00  0.00000000000E+00 -0.19987939413E+03  0.19987939419E+03  0.50400001928E-02 0.  1.
    10030    2    1    2    0    0  0.00000000000E+00  0.00000000000E+00  0.11044865893E+03  0.51020744729E+03  0.49810915772E+03 0.  0.
        3    1    3    3  502    0 -0.23418312048E+03  0.11209066520E+02  0.14129379340E+03  0.27373586419E+03  0.10100000352E+00 0. -1.
       -3    1    3    3    0  502  0.23418312048E+03 -0.11209066520E+02 -0.30845134466E+02  0.23647158310E+03  0.10100000352E+00 0.  1.
</event>
<event>
 5   0  0.1231822E-01  0.5003513E+03  0.7818609E-02  0.1013687E+00
        2   -1    0    0  501    0  0.00000000000E+00  0.00000000000E+00  0.10940243400E+04  0.10940243400E+04  0.25500000920E-02 0. -1.
       -2   -1    0    0    0  501  0.00000000000E+00  0.00000000000E+00 -0.57208834442E+02  0.57208834499E+02  0.25500000920E-02 0.  1.
    10030    2    1    2    0    0  0.00000000000E+00  0.00000000000E+00  0.10368155056E+04  0.11512331745E+04  0.50035130610E+03 0.  0.
        1    1    3    3  502    0 -0.12678791010E+01  0.10197445087E+03 -0.72115951902E+01  0.10223699564E+03  0.50400001928E-02 0.  1.
       -1    1    3    3    0  502  0.12678791010E+01 -0.10197445087E+03  0.10440271008E+04  0.10489961789E+04  0.50400001928E-02 0. -1.
</event>
<event>
 5   0  0.7602288E-02  0.4993266E+03  0.7818609E-02  0.1013955E+00
        1   -1    0    0  501    0  0.00000000000E+00  0.00000000000E+00  0.71985435107E+03  0.71985435108E+03  0.50400001928E-02 0. -1.
       -1   -1    0    0    0  501  0.00000000000E+00  0.00000000000E+00 -0.86589393849E+02  0.86589393996E+02  0.50400001928E-02 0.  1.
    10030    2    1    2    0    0  0.00000000000E+00  0.00000000000E+00  0.63326495722E+03  0.80644374508E+03  0.49932655441E+03 0.  0.
        5    1    3    3  502    0  0.41460291509E+02  0.15819829663E+03  0.62120782545E+03  0.64239155445E+03  0.46999998093E+01 0. -1.
       -5    1    3    3    0  502 -0.41460291509E+02 -0.15819829663E+03  0.12057131768E+02  0.16405219063E+03  0.46999998093E+01 0.  1.
</event>
<event>
 5   0  0.1243803E-01  0.5011373E+03  0.7818609E-02  0.1013482E+00
        2   -1    0    0  501    0  0.00000000000E+00  0.00000000000E+00  0.15152282486E+03  0.15152282488E+03  0.25500000920E-02 0.  1.
       -2   -1    0    0    0  501  0.00000000000E+00  0.00000000000E+00 -0.41435775028E+03  0.41435775029E+03  0.25500000920E-02 0. -1.
    10030    2    1    2    0    0  0.00000000000E+00  0.00000000000E+00 -0.26283492542E+03  0.56588057518E+03  0.50113733381E+03 0.  0.
        4    1    3    3  502    0 -0.24670739701E+03 -0.30267611787E+02 -0.16716806236E+03  0.29954539228E+03  0.12699999809E+01 0. -1.
       -4    1    3    3    0  502  0.24670739701E+03  0.30267611787E+02 -0.95666863057E+02  0.26633518290E+03  0.12699999809E+01 0.  1.
</event>
<event>
 5   0  0.7812547E-02  0.5025958E+03  0.7818609E-02  0.1013104E+00
       -1   -1    0    0    0  501  0.00000000000E+00  0.00000000000E+00  0.23365720928E+03  0.23365720933E+03  0.50400001928E-02 0.  1.
        1   -1    0    0  501    0  0.00000000000E+00  0.00000000000E+00 -0.27027039946E+03  0.27027039950E+03  0.50400001928E-02 0. -1.
    10030    2    1    2    0    0  0.00000000000E+00  0.00000000000E+00 -0.36613190176E+02  0.50392760884E+03  0.50259577122E+03 0.  0.
        4    1    3    3  502    0 -0.23103019004E+02 -0.11518025472E+03 -0.24104110250E+03  0.26814672581E+03  0.12699999809E+01 0. -1.
       -4    1    3    3    0  502  0.23103019004E+02  0.11518025472E+03  0.20442791232E+03  0.23578088303E+03  0.12699999809E+01 0.  1.
</event>
<event>
 5   0  0.7602288E-02  0.4998701E+03  0.7818609E-02  0.1013813E+00
        1   -1    0    0  501    0  0.00000000000E+00  0.00000000000E+00  0.26037645490E+03  0.26037645494E+03  0.50400001928E-02 0.  1.
       -1   -1    0    0    0  501  0.00000000000E+00  0.00000000000E+00 -0.23991233663E+03  0.23991233668E+03  0.50400001928E-02 0. -1.
    10030    2    1    2    0    0  0.00000000000E+00  0.00000000000E+00  0.20464118264E+02  0.50028879163E+03  0.49987007801E+03 0.  0.
        5    1    3    3  502    0  0.11732413656E+03 -0.34082728963E+01  0.23102706130E+03  0.25917592942E+03  0.46999998093E+01 0.  1.
       -5    1    3    3    0  502 -0.11732413656E+03  0.34082728963E+01 -0.21056294303E+03  0.24111286220E+03  0.46999998093E+01 0. -1.
</event>
<event>
 5   0  0.1231822E-01  0.5001766E+03  0.7818609E-02  0.1013733E+00
        2   -1    0    0  501    0  0.00000000000E+00  0.00000000000E+00  0.16738163467E+04  0.16738163467E+04  0.25500000920E-02 0. -1.
       -2   -1    0    0    0  501  0.00000000000E+00  0.00000000000E+00 -0.37366197467E+02  0.37366197554E+02  0.25500000920E-02 0.  1.
    10030    2    1    2    0    0  0.00000000000E+00  0.00000000000E+00  0.16364501493E+04  0.17111825443E+04  0.50017657767E+03 0.  0.
        1    1    3    3  502    0  0.97343320221E+02 -0.15957610590E+03  0.24981968557E+03  0.31200982499E+03  0.50400001928E-02 0.  1.
       -1    1    3    3    0  502 -0.97343320221E+02  0.15957610590E+03  0.13866304637E+04  0.13991727193E+04  0.50400001928E-02 0. -1.
</event>
<event>
 5   0  0.7531632E-02  0.5064257E+03  0.7818609E-02  0.1012115E+00
       -1   -1    0    0    0  501  0.00000000000E+00  0.00000000000E+00  0.47886363605E+03  0.47886363608E+03  0.50400001928E-02 0.  1.
        1   -1    0    0  501    0  0.00000000000E+00  0.00000000000E+00 -0.13389354363E+03  0.13389354373E+03  0.50400001928E-02 0. -1.
    10030    2    1    2    0    0  0.00000000000E+00  0.00000000000E+00  0.34497009242E+03  0.61275717980E+03  0.50642570703E+03 0.  0.
        3    1    3    3  502    0  0.24964659276E+03  0.27259536689E+02  0.13327331784E+03  0.28430316753E+03  0.10100000352E+00 0.  1.
       -3    1    3    3    0  502 -0.24964659276E+03 -0.27259536689E+02  0.21169677457E+03  0.32845401228E+03  0.10100000352E+00 0. -1.
</event>
<event>
 5   0  0.1279188E-01  0.5010243E+03  0.7818609E-02  0.1013512E+00
       -2   -1    0    0    0  501  0.00000000000E+00  0.00000000000E+00  0.21305704181E+03  0.21305704182E+03  0.25500000920E-02 0.  1.
        2   -1    0    0  501    0  0.00000000000E+00  0.00000000000E+00 -0.29455179440E+03  0.29455179441E+03  0.25500000920E-02 0. -1.
    10030    2    1    2    0    0  0.00000000000E+00  0.00000000000E+00 -0.81494752589E+02  0.50760883623E+03  0.50102428676E+03 0.  0.
        2    1    3    3  502    0  0.16800864595E+03  0.17650533315E+03  0.18113448331E+02  0.24435452679E+03  0.25500000920E-02 0. -1.
       -2    1    3    3    0  502 -0.16800864595E+03 -0.17650533315E+03 -0.99608200920E+02  0.26325430945E+03  0.25500000920E-02 0.  1.
</event>
<event>
 5   0  0.1279188E-01  0.5045427E+03  0.7818609E-02  0.1012600E+00
        2   -1    0    0  501    0  0.00000000000E+00  0.00000000000E+00  0.46730193667E+03  0.46730193667E+03  0.25500000920E-02 0.  1.
       -2   -1    0    0    0  501  0.00000000000E+00  0.00000000000E+00 -0.13618782230E+03  0.13618782233E+03  0.25500000920E-02 0. -1.
    10030    2    1    2    0    0  0.00000000000E+00  0.00000000000E+00  0.33111411436E+03  0.60348975900E+03  0.50454269640E+03 0.  0.
        2    1    3    3  502    0  0.42898428848E+02 -0.24824956842E+03  0.18127625358E+03  0.31036946296E+03  0.25500000920E-02 0.  1.
       -2    1    3    3    0  502 -0.42898428848E+02  0.24824956842E+03  0.14983786078E+03  0.29312029604E+03  0.25500000920E-02 0. -1.
</event>
<event>
 5   0  0.1243803E-01  0.5000502E+03  0.7818609E-02  0.1013766E+00
       -2   -1    0    0    0  501  0.00000000000E+00  0.00000000000E+00  0.12568315798E+03  0.12568315801E+03  0.25500000920E-02 0.  1.
        2   -1    0    0  501    0  0.00000000000E+00  0.00000000000E+00 -0.49738202359E+03  0.49738202359E+03  0.25500000920E-02 0. -1.
    10030    2    1    2    0    0  0.00000000000E+00  0.00000000000E+00 -0.37169886561E+03  0.62306518160E+03  0.50005017131E+03 0.  0.
        4    1    3    3  502    0 -0.22178188466E+03  0.63778410021E+02 -0.30572551138E+03  0.38304646084E+03  0.12699999809E+01 0. -1.
       -4    1    3    3    0  502  0.22178188466E+03 -0.63778410021E+02 -0.65973354225E+02  0.24001872076E+03  0.12699999809E+01 0.  1.
</event>
<event>
 5   0  0.1211345E-01  0.5006338E+03  0.7818609E-02  0.1013614E+00
       -2   -1    0    0    0  501  0.00000000000E+00  0.00000000000E+00  0.53941708197E+03  0.53941708197E+03  0.25500000920E-02 0.  1.
        2   -1    0    0  501    0  0.00000000000E+00  0.00000000000E+00 -0.11615973542E+03  0.11615973545E+03  0.25500000920E-02 0. -1.
    10030    2    1    2    0    0  0.00000000000E+00  0.00000000000E+00  0.42325734655E+03  0.65557681742E+03  0.50063378045E+03 0.  0.
        5    1    3    3  502    0 -0.21487972233E+01 -0.22672925511E+03  0.35037127230E+03  0.41736421853E+03  0.46999998093E+01 0.  1.
       -5    1    3    3    0  502  0.21487972233E+01  0.22672925511E+03  0.72886074244E+02  0.23821259889E+03  0.46999998093E+01 0. -1.
</event>
<event>
 5   0  0.1231822E-01  0.5050237E+03  0.7818609E-02  0.1012476E+00
       -2   -1    0    0    0  501  0.00000000000E+00  0.00000000000E+00  0.10631499336E+03  0.10631499339E+03  0.25500000920E-02 0.  1.
        2   -1    0    0  501    0  0.00000000000E+00  0.00000000000E+00 -0.59974838386E+03  0.59974838386E+03  0.25500000920E-02 0. -1.
    10030    2    1    2    0    0  0.00000000000E+00  0.00000000000E+00 -0.49343339050E+03  0.70606337726E+03  0.50502374384E+03 0.  0.
        1    1    3    3  502    0 -0.14588094060E+03 -0.11613373384E+03 -0.48477624065E+03  0.51939993886E+03  0.50400001928E-02 0. -1.
       -1    1    3    3    0  502  0.14588094060E+03  0.11613373384E+03 -0.86571498494E+01  0.18666343839E+03  0.50400001928E-02 0.  1.
</event>
<event>
 5   0  0.1211345E-01  0.4992591E+03  0.7818609E-02  0.1013972E+00
        2   -1    0    0  501    0  0.00000000000E+00  0.00000000000E+00  0.33192434083E+03  0.33192434084E+03  0.25500000920E-02 0. -1.
       -2   -1    0    0    0  501  0.00000000000E+00  0.00000000000E+00 -0.18773829310E+03  0.18773829312E+03  0.25500000920E-02 0.  1.
    10030    2    1    2    0    0  0.00000000000E+00  0.00000000000E+00  0.14418604774E+03  0.51966263396E+03  0.49925908782E+03 0.  0.
        5    1    3    3  502    0 -0.76186353661E+02 -0.13556600346E+03 -0.13110374341E+03  0.20345216468E+03  0.46999998093E+01 0.  1.
       -5    1    3    3    0  502  0.76186353661E+02  0.13556600346E+03  0.27528979114E+03  0.31621046928E+03  0.46999998093E+01 0. -1.
</event>
<event>
 5   0  0.7781754E-02  0.5010326E+03  0.7818609E-02  0.1013510E+00
        1   -1    0    0  501    0  0.00000000000E+00  0.00000000000E+00  0.50733341850E+03  0.50733341852E+03  0.50400001928E-02 0.  1.
       -1   -1    0    0    0  501  0.00000000000E+00  0.00000000000E+00 -0.12370252392E+03  0.12370252402E+03  0.50400001928E-02 0. -1.
    10030    2    1    2    0    0  0.00000000000E+00  0.00000000000E+00  0.38363089458E+03  0.63103594254E+03  0.50103263118E+03 0.  0.
        2    1    3    3  502    0 -0.10739551602E+03  0.90100654544E+02 -0.69677189203E+02  0.15654659214E+03  0.25500000920E-02 0. -1.
       -2    1    3    3    0  502  0.10739551602E+03 -0.90100654544E+02  0.45330808378E+03  0.47448935040E+03  0.25500000920E-02 0.  1.
</event>
<event>
 5   0  0.7531632E-02  0.5024069E+03  0.7818609E-02  0.1013153E+00
        1   -1    0    0  501    0  0.00000000000E+00  0.00000000000E+00  0.62359564346E+03  0.62359564348E+03  0.50400001928E-02 0.  1.
       -1   -1    0    0    0  501  0.00000000000E+00  0.00000000000E+00 -0.10119247367E+03  0.10119247379E+03  0.50400001928E-02 0. -1.
    10030    2    1    2    0    0  0.00000000000E+00  0.00000000000E+00  0.52240316979E+03  0.72478811727E+03  0.50240694972E+03 0.  0.
        3    1    3    3  502    0  0.19398284317E+03 -0.14506889857E+03  0.16519505884E+03  0.29319574766E+03  0.10100000352E+00 0. -1.
       -3    1    3    3    0  502 -0.19398284317E+03  0.14506889857E+03  0.35720811095E+03  0.43159236961E+03  0.10100000352E+00 0.  1.
</event>
<event>
 5   0  0.1243803E-01  0.4954847E+03  0.7818609E-02  0.1014964E+00
       -2   -1    0    0    0  501  0.00000000000E+00  0.00000000000E+00  0.47246096566E+02  0.47246096635E+02  0.25500000920E-02 0.  1.
        2   -1    0    0  501    0  0.00000000000E+00  0.00000000000E+00 -0.12990762192E+04  0.12990762192E+04  0.25500000920E-02 0. -1.
    10030    2    1    2    0    0  0.00000000000E+00  0.00000000000E+00 -0.12518301227E+04  0.13463223159E+04  0.49548473457E+03 0.  0.
        4    1    3    3  502    0  0.17381237072E+03  0.13794096046E+03 -0.32657801742E+03  0.39483320928E+03  0.12699999809E+01 0. -1.
       -4    1    3    3    0  502 -0.17381237072E+03 -0.13794096046E+03 -0.92525210524E+03  0.95148910658E+03  0.12699999809E+01 0.  1.
</event>
<event>
 5   0  0.1279188E-01  0.5086669E+03  0.7818609E-02  0.1011541E+00
        2   -1    0    0  501    0  0.00000000000E+00  0.00000000000E+00  0.61878958254E+02  0.61878958307E+02  0.25500000920E-02 0.  1.
       -2   -1    0    0    0  501  0.00000000000E+00  0.00000000000E+00 -0.10453553793E+04  0.10453553793E+04  0.25500000920E-02 0. -1.
    10030    2    1    2    0    0  0.00000000000E+00  0.00000000000E+00 -0.98347642103E+03  0.11072343376E+04  0.50866689260E+03 0.  0.
        2    1    3    3  502    0 -0.15288015713E+03 -0.13368994276E+03 -0.82500063338E+03  0.84963014796E+03  0.25500000920E-02 0. -1.
       -2    1    3    3    0  502  0.15288015713E+03  0.13368994276E+03 -0.15847578765E+03  0.25760418963E+03  0.25500000920E-02 0.  1.
</event>
<event>
 5   0  0.7602288E-02  0.4970206E+03  0.7818609E-02  0.1014560E+00
        1   -1    0    0  501    0  0.00000000000E+00  0.00000000000E+00  0.88406006727E+03  0.88406006729E+03  0.50400001928E-02 0.  1.
       -1   -1    0    0    0  501  0.00000000000E+00  0.00000000000E+00 -0.69856532255E+02  0.69856532437E+02  0.50400001928E-02 0. -1.
    10030    2    1    2    0    0  0.00000000000E+00  0.00000000000E+00  0.81420353502E+03  0.95391659973E+03  0.49702060601E+03 0.  0.
        5    1    3    3  502    0 -0.11068152662E+03 -0.22239085203E+03  0.41710948455E+03  0.48550026108E+03  0.46999998093E+01 0. -1.
       -5    1    3    3    0  502  0.11068152662E+03  0.22239085203E+03  0.39709405047E+03  0.46841633865E+03  0.46999998093E+01 0.  1.
</event>
<event>
 5   0  0.7781754E-02  0.4980407E+03  0.7818609E-02  0.1014292E+00
        1   -1    0    0  501    0  0.00000000000E+00  0.00000000000E+00  0.46263401600E+03  0.46263401602E+03  0.50400001928E-02 0. -1.
       -1   -1    0    0    0  501  0.00000000000E+00  0.00000000000E+00 -0.13403930901E+03  0.13403930910E+03  0.50400001928E-02 0.  1.
    10030    2    1    2    0    0  0.00000000000E+00  0.00000000000E+00  0.32859470699E+03  0.59667332513E+03  0.49804073674E+03 0.  0.
        2    1    3    3  502    0 -0.95127264515E+02 -0.22831820904E+03  0.19886956851E+03  0.31737596998E+03  0.25500000920E-02 0. -1.
       -2    1    3    3    0  502  0.95127264515E+02  0.22831820904E+03  0.12972513848E+03  0.27929735515E+03  0.25500000920E-02 0.  1.
</event>
<event>
 5   0  0.1211345E-01  0.5026052E+03  0.7818609E-02  0.1013101E+00
        2   -1    0    0  501    0  0.00000000000E+00  0.00000000000E+00  0.22218741945E+03  0.22218741947E+03  0.25500000920E-02 0. -1.
       -2   -1    0    0    0  501  0.00000000000E+00  0.00000000000E+00 -0.28423297918E+03  0.28423297919E+03  0.25500000920E-02 0.  1.
    10030    2    1    2    0    0  0.00000000000E+00  0.00000000000E+00 -0.62045559730E+02  0.50642039866E+03  0.50260518173E+03 0.  0.
        5    1    3    3  502    0 -0.60934279631E+01  0.17434540709E+03 -0.21321976240E+03  0.27553258957E+03  0.46999998093E+01 0.  1.
       -5    1    3    3    0  502  0.60934279631E+01 -0.17434540709E+03  0.15117420267E+03  0.23088780909E+03  0.46999998093E+01 0. -1.
</event>
<event>
 5   0  0.5006750E-02  0.4828571E+03  0.7818609E-02  0.1018353E+00
        4   -1    0    0  501    0  0.00000000000E+00  0.00000000000E+00  0.86080832006E+02  0.86090200016E+02  0.12699999809E+01 0.  1.
       -4   -1    0    0    0  501  0.00000000000E+00  0.00000000000E+00 -0.67708109096E+03  0.67708228203E+03  0.12699999809E+01 0. -1.
    10030    2    1    2    0    0  0.00000000000E+00  0.00000000000E+00 -0.59100025896E+03  0.76317248205E+03  0.48285705055E+03 0.  0.
        5    1    3    3  502    0 -0.72696232846E+01 -0.15786515946E+03 -0.71168550172E+01  0.15826242643E+03  0.46999998093E+01 0.  1.
       -5    1    3    3    0  502  0.72696232846E+01  0.15786515946E+03 -0.58388340394E+03  0.60491005562E+03  0.46999998093E+01 0. -1.
</event>
<event>
 5   0  0.7416638E-02  0.5018185E+03  0.7818609E-02  0.1013305E+00
        1   -1    0    0  501    0  0.00000000000E+00  0.00000000000E+00  0.20554944757E+03  0.20554944763E+03  0.50400001928E-02 0.  1.
       -1   -1    0    0    0  501  0.00000000000E+00  0.00000000000E+00 -0.30627885250E+03  0.30627885255E+03  0.50400001928E-02 0. -1.
    10030    2    1    2    0    0  0.00000000000E+00  0.00000000000E+00 -0.10072940494E+03  0.51182830017E+03  0.50181848894E+03 0.  0.
        1    1    3    3  502    0 -0.19599383968E+03 -0.15262750377E+03 -0.86377773340E+02  0.26300163469E+03  0.50400001928E-02 0. -1.
       -1    1    3    3    0  502  0.19599383968E+03  0.15262750377E+03 -0.14351631600E+02  0.24882666548E+03  0.50400001928E-02 0.  1.
</event>
<event>
 5   0  0.7416638E-02  0.4979535E+03  0.7818609E-02  0.1014314E+00
       -1   -1    0    0    0  501  0.00000000000E+00  0.00000000000E+00  0.23699311167E+03  0.23699311172E+03  0.50400001928E-02 0. -1.
        1   -1    0    0  501    0  0.00000000000E+00  0.00000000000E+00 -0.26156638788E+03  0.26156638793E+03  0.50400001928E-02 0.  1.
    10030    2    1    2    0    0  0.00000000000E+00  0.00000000000E+00 -0.24573276209E+02  0.49855949965E+03  0.49795354080E+03 0.  0.
        1    1    3    3  502    0  0.15612638383E+03  0.70888859230E+01  0.18176286655E+03  0.23971533058E+03  0.50400001928E-02 0. -1.
       -1    1    3    3    0  502 -0.15612638383E+03 -0.70888859230E+01 -0.20633614276E+03  0.25884416908E+03  0.50400001928E-02 0.  1.
</event>
<event>
 5   0  0.1231822E-01  0.4959780E+03  0.7818609E-02  0.1014834E+00
        2   -1    0    0  501    0  0.00000000000E+00  0.00000000000E+00  0.15623407191E+04  0.15623407191E+04  0.25500000920E-02 0.  1.
       -2   -1    0    0    0  501  0.00000000000E+00  0.00000000000E+00 -0.39363082274E+02  0.39363082357E+02  0.25500000920E-02 0. -1.
    10030    2    1    2    0    0  0.00000000000E+00  0.00000000000E+00  0.15229776368E+04  0.16017038015E+04  0.49597800892E+03 0.  0.
        1    1    3    3  502    0  0.20248252137E+02 -0.24605231255E+03  0.68597270491E+03  0.72904751843E+03  0.50400001928E-02 0.  1.
       -1    1    3    3    0  502 -0.20248252137E+02  0.24605231255E+03  0.83700493191E+03  0.87265628302E+03  0.50400001928E-02 0. -1.
</event>
<event>
 5   0  0.5006750E-02  0.5006720E+03  0.7818609E-02  0.1013604E+00
       -3   -1    0    0    0  501  0.00000000000E+00  0.00000000000E+00  0.91766601512E+03  0.91766602068E+03  0.10100000352E+00 0. -1.
        3   -1    0    0  501    0  0.00000000000E+00  0.00000000000E+00 -0.68290727940E+02  0.68290802628E+02  0.10100000352E+00 0.  1.
    10030    2    1    2    0    0  0.00000000000E+00  0.00000000000E+00  0.84937528718E+03  0.98595682331E+03  0.50067202733E+03 0.  0.
        2    1    3    3  502    0 -0.40047542320E+01  0.24996548515E+03  0.45031369356E+03  0.51505456452E+03  0.25500000920E-02 0. -1.
       -2    1    3    3    0  502  0.40047542320E+01 -0.24996548515E+03  0.39906159362E+03  0.47090225879E+03  0.25500000920E-02 0.  1.
</event>
<event>
 5   0  0.1191894E-01  0.4970964E+03  0.7818609E-02  0.1014540E+00
       -2   -1    0    0    0  501  0.00000000000E+00  0.00000000000E+00  0.35841749416E+03  0.35841749417E+03  0.25500000920E-02 0. -1.
        2   -1    0    0  501    0  0.00000000000E+00  0.00000000000E+00 -0.17235827107E+03  0.17235827108E+03  0.25500000920E-02 0.  1.
    10030    2    1    2    0    0  0.00000000000E+00  0.00000000000E+00  0.18605922309E+03  0.53077576525E+03  0.49709644787E+03 0.  0.
        3    1    3    3  502    0  0.22585460014E+02 -0.95859534853E+02  0.33669488428E+03  0.35080280604E+03  0.10100000352E+00 0. -1.
       -3    1    3    3    0  502 -0.22585460014E+02  0.95859534853E+02 -0.15063566118E+03  0.17997295921E+03  0.10100000352E+00 0.  1.
</event>
<event>
 5   0  0.1211345E-01  0.5000639E+03  0.7818609E-02  0.1013762E+00
       -2   -1    0    0    0  501  0.00000000000E+00  0.00000000000E+00  0.40804948217E+02  0.40804948297E+02  0.25500000920E-02 0.  1.
        2   -1    0    0  501    0  0.00000000000E+00  0.00000000000E+00 -0.15320683782E+04  0.15320683782E+04  0.25500000920E-02 0. -1.
    10030    2    1    2    0    0  0.00000000000E+00  0.00000000000E+00 -0.14912634300E+04  0.15728733265E+04  0.50006387953E+03 0.  0.
        5    1    3    3  502    0  0.13632050265E+03  0.20864040011E+03 -0.68433501285E+03  0.72832039366E+03  0.46999998093E+01 0.  1.
       -5    1    3    3    0  502 -0.13632050265E+03 -0.20864040011E+03 -0.80692841713E+03  0.84455293284E+03  0.46999998093E+01 0. -1.
</event>
<event>
 5   0  0.1243803E-01  0.4975950E+03  0.7818609E-02  0.1014409E+00
        2   -1    0    0  501    0  0.00000000000E+00  0.00000000000E+00  0.11942930451E+04  0.11942930451E+04  0.25500000920E-02 0.  1.
       -2   -1    0    0    0  501  0.00000000000E+00  0.00000000000E+00 -0.51829983874E+02  0.51829983936E+02  0.25500000920E-02 0. -1.
    10030    2    1    2    0    0  0.00000000000E+00  0.00000000000E+00  0.11424630612E+04  0.12461230290E+04  0.49759497308E+03 0.  0.
        4    1    3    3  502    0  0.12804799263E+03 -0.20275146218E+03  0.40522639804E+03  0.47086568191E+03  0.12699999809E+01 0.  1.
       -4    1    3    3    0  502 -0.12804799263E+03  0.20275146218E+03  0.73723666319E+03  0.77525734714E+03  0.12699999809E+01 0. -1.
</event>
<event>
 5   0  0.1231822E-01  0.5036544E+03  0.7818609E-02  0.1012829E+00
        2   -1    0    0  501    0  0.00000000000E+00  0.00000000000E+00  0.33868725383E+03  0.33868725384E+03  0.25500000920E-02 0. -1.
       -2   -1    0    0    0  501  0.00000000000E+00  0.00000000000E+00 -0.18724335334E+03  0.18724335336E+03  0.25500000920E-02 0.  1.
    10030    2    1    2    0    0  0.00000000000E+00  0.00000000000E+00  0.15144390049E+03  0.52593060720E+03  0.50365439400E+03 0.  0.
        1    1    3    3  502    0  0.16515032889E+03 -0.11285992714E+03  0.23547516674E+03  0.30896690513E+03  0.50400001928E-02 0. -1.
       -1    1    3    3    0  502 -0.16515032889E+03  0.11285992714E+03 -0.84031266250E+02  0.21696370208E+03  0.50400001928E-02 0.  1.
</event>
<event>
 5   0  0.7781754E-02  0.4999962E+03  0.7818609E-02  0.1013780E+00
        1   -1    0    0  501    0  0.00000000000E+00  0.00000000000E+00  0.11246248247E+04  0.11246248247E+04  0.50400001928E-02 0.  1.
       -1   -1    0    0    0  501  0.00000000000E+00  0.00000000000E+00 -0.55573251151E+02  0.55573251380E+02  0.50400001928E-02 0. -1.
    10030    2    1    2    0    0  0.00000000000E+00  0.00000000000E+00  0.10690515735E+04  0.11801980761E+04  0.49999623188E+03 0.  0.
        2    1    3    3  502    0 -0.21581317012E+03  0.10720332330E+03  0.37739983616E+03  0.44777060339E+03  0.25500000920E-02 0. -1.
       -2    1    3    3    0  502  0.21581317012E+03 -0.10720332330E+03  0.69165173737E+03  0.73242747268E+03  0.25500000920E-02 0.  1.
</event>
<event>
 5   0  0.7531632E-02  0.5042343E+03  0.7818609E-02  0.1012680E+00
       -1   -1    0    0    0  501  0.00000000000E+00  0.00000000000E+00  0.42280203275E+02  0.42280203576E+02  0.50400001928E-02 0.  1.
        1   -1    0    0  501    0  0.00000000000E+00  0.00000000000E+00 -0.15033762144E+04  0.15033762144E+04  0.50400001928E-02 0. -1.
    10030    2    1    2    0    0  0.00000000000E+00  0.00000000000E+00 -0.14610960111E+04  0.15456564180E+04  0.50423427961E+03 0.  0.
        3    1    3    3  502    0 -0.14428771120E+03 -0.12020821831E+03 -0.12461664010E+04  0.12602379413E+04  0.10100000352E+00 0. -1.
       -3    1    3    3    0  502  0.14428771120E+03  0.12020821831E+03 -0.21492961009E+03  0.28541847671E+03  0.10100000352E+00 0.  1.
</event>
<event>
 5   0  0.5006750E-02  0.4786369E+03  0.7818609E-02  0.1019510E+00
       -3   -1    0    0    0  501  0.00000000000E+00  0.00000000000E+00  0.81840371350E+03  0.81840371973E+03  0.10100000352E+00 0. -1.
        3   -1    0    0  501    0  0.00000000000E+00  0.00000000000E+00 -0.69981692480E+02  0.69981765363E+02  0.10100000352E+00 0.  1.
    10030    2    1    2    0    0  0.00000000000E+00  0.00000000000E+00  0.74842202102E+03  0.88838548510E+03  0.47863686505E+03 0.  0.
        4    1    3    3  502    0 -0.44780575597E+01 -0.30018050896E+02 -0.66388933975E+02  0.73008491516E+02  0.12699999809E+01 0.  1.
       -4    1    3    3    0  502  0.44780575597E+01  0.30018050896E+02  0.81481095499E+03  0.81537699358E+03  0.12699999809E+01 0. -1.
</event>
<event>
 5   0  0.1191894E-01  0.4970921E+03  0.7818609E-02  0.1014541E+00
       -2   -1    0    0    0  501  0.00000000000E+00  0.00000000000E+00  0.26134386746E+02  0.26134386871E+02  0.25500000920E-02 0. -1.
        2   -1    0    0  501    0  0.00000000000E+00  0.00000000000E+00 -0.23637496700E+04  0.23637496700E+04  0.25500000920E-02 0.  1.
    10030    2    1    2    0    0  0.00000000000E+00  0.00000000000E+00 -0.23376152833E+04  0.23898840569E+04  0.49709213713E+03 0.  0.
        3    1    3    3  502    0 -0.80091048149E+02  0.23447246127E+03 -0.10746906717E+04  0.11028834758E+04  0.10100000352E+00 0.  1.
       -3    1    3    3    0  502  0.80091048149E+02 -0.23447246127E+03 -0.12629246115E+04  0.12870005811E+04  0.10100000352E+00 0. -1.
</event>
<event>
 5   0  0.1191894E-01  0.4989009E+03  0.7818609E-02  0.1014066E+00
       -2   -1    0    0    0  501  0.00000000000E+00  0.00000000000E+00  0.11788919799E+03  0.11788919802E+03  0.25500000920E-02 0. -1.
        2   -1    0    0  501    0  0.00000000000E+00  0.00000000000E+00 -0.52783052752E+03  0.52783052752E+03  0.25500000920E-02 0.  1.
    10030    2    1    2    0    0  0.00000000000E+00  0.00000000000E+00 -0.40994132952E+03  0.64571972554E+03  0.49890086220E+03 0.  0.
        3    1    3    3  502    0  0.18058713723E+03 -0.53945998722E+02  0.65315349921E+01  0.18858567300E+03  0.10100000352E+00 0. -1.
       -3    1    3    3    0  502 -0.18058713723E+03  0.53945998722E+02 -0.41647286452E+03  0.45713405254E+03  0.10100000352E+00 0.  1.
</event>
<event>
 5   0  0.7781754E-02  0.4936634E+03  0.7818609E-02  0.1015446E+00
        1   -1    0    0  501    0  0.00000000000E+00  0.00000000000E+00  0.14945785242E+04  0.14945785242E+04  0.50400001928E-02 0. -1.
       -1   -1    0    0    0  501  0.00000000000E+00  0.00000000000E+00 -0.40764586648E+02  0.40764586960E+02  0.50400001928E-02 0.  1.
    10030    2    1    2    0    0  0.00000000000E+00  0.00000000000E+00  0.14538139376E+04  0.15353431112E+04  0.49366335087E+03 0.  0.
        2    1    3    3  502    0  0.28536807063E+02 -0.16944847337E+03  0.12780073084E+04  0.12895075862E+04  0.25500000920E-02 0. -1.
       -2    1    3    3    0  502 -0.28536807063E+02  0.16944847337E+03  0.17580662915E+03  0.24583552499E+03  0.25500000920E-02 0.  1.
</event>
<event>
 5   0  0.7416638E-02  0.5182253E+03  0.7818609E-02  0.1009128E+00
       -1   -1    0    0    0  501  0.00000000000E+00  0.00000000000E+00  0.82991814075E+02  0.82991814228E+02  0.50400001928E-02 0. -1.
        1   -1    0    0  501    0  0.00000000000E+00  0.00000000000E+00 -0.80898785572E+03  0.80898785574E+03  0.50400001928E-02 0.  1.
    10030    2    1    2    0    0  0.00000000000E+00  0.00000000000E+00 -0.72599604165E+03  0.89197966997E+03  0.51822531697E+03 0.  0.
        1    1    3    3  502    0  0.22109782136E+03  0.63498024465E+02 -0.15772407572E+03  0.27891419793E+03  0.50400001928E-02 0. -1.
       -1    1    3    3    0  502 -0.22109782136E+03 -0.63498024465E+02 -0.56827196593E+03  0.61306547204E+03  0.50400001928E-02 0.  1.
</event>
<event>
 5   0  0.1211345E-01  0.4986962E+03  0.7818609E-02  0.1014120E+00
        2   -1    0    0  501    0  0.00000000000E+00  0.00000000000E+00  0.94172244656E+03  0.94172244656E+03  0.25500000920E-02 0.  1.
       -2   -1    0    0    0  501  0.00000000000E+00  0.00000000000E+00 -0.66022067481E+02  0.66022067530E+02  0.25500000920E-02 0. -1.
    10030    2    1    2    0    0  0.00000000000E+00  0.00000000000E+00  0.87570037908E+03  0.10077445141E+04  0.49869615175E+03 0.  0.
        5    1    3    3  502    0 -0.22696586027E+03  0.45533584025E+02  0.25082831468E+03  0.34135574178E+03  0.46999998093E+01 0. -1.
       -5    1    3    3    0  502  0.22696586027E+03 -0.45533584025E+02  0.62487206440E+03  0.66638877231E+03  0.46999998093E+01 0.  1.
</event>
<event>
 5   0  0.5006750E-02  0.4948009E+03  0.7818609E-02  0.1015145E+00
        3   -1    0    0  501    0  0.00000000000E+00  0.00000000000E+00  0.94935652867E+02  0.94935706593E+02  0.10100000352E+00 0.  1.
       -3   -1    0    0    0  501  0.00000000000E+00  0.00000000000E+00 -0.64472060027E+03  0.64472060818E+03  0.10100000352E+00 0. -1.
    10030    2    1    2    0    0  0.00000000000E+00  0.00000000000E+00 -0.54978494740E+03  0.73965631478E+03  0.49480094543E+03 0.  0.
        3    1    3    3  502    0  0.17473319409E+02 -0.23217135029E+03 -0.14984052040E+03  0.27687730955E+03  0.10100000352E+00 0. -1.
       -3    1    3    3    0  502 -0.17473319409E+02  0.23217135029E+03 -0.39994442700E+03  0.46277900523E+03  0.10100000352E+00 0.  1.
</event>
<event>
 5   0  0.7812547E-02  0.4984655E+03  0.7818609E-02  0.1014180E+00
        1   -1    0    0  501    0  0.00000000000E+00  0.00000000000E+00  0.13685166799E+03  0.13685166809E+03  0.50400001928E-02 0.  1.
       -1   -1    0    0    0  501  0.00000000000E+00  0.00000000000E+00 -0.45389995334E+03  0.45389995336E+03  0.50400001928E-02 0. -1.
    10030    2    1    2    0    0  0.00000000000E+00  0.00000000000E+00 -0.31704828534E+03  0.59075162145E+03  0.49846550834E+03 0.  0.
        4    1    3    3  502    0 -0.77022859187E+02 -0.15628622983E+03  0.52675216783E+02  0.18202801387E+03  0.12699999809E+01 0.  1.
       -4    1    3    3    0  502  0.77022859187E+02  0.15628622983E+03 -0.36972350213E+03  0.40872360758E+03  0.12699999809E+01 0. -1.
</event>
<event>
 5   0  0.7812547E-02  0.4951959E+03  0.7818609E-02  0.1015041E+00
       -1   -1    0    0    0  501  0.00000000000E+00  0.00000000000E+00  0.19714409722E+03  0.19714409728E+03  0.50400001928E-02 0.  1.
        1   -1    0    0  501    0  0.00000000000E+00  0.00000000000E+00 -0.31096413975E+03  0.31096413979E+03  0.50400001928E-02 0. -1.
    10030    2    1    2    0    0  0.00000000000E+00  0.00000000000E+00 -0.11382004254E+03  0.50810823707E+03  0.49519589911E+03 0.  0.
        4    1    3    3  502    0 -0.20930975998E+03  0.10388473065E+03 -0.14090114894E+03  0.27286875886E+03  0.12699999809E+01 0. -1.
       -4    1    3    3    0  502  0.20930975998E+03 -0.10388473065E+03  0.27081106403E+02  0.23523947822E+03  0.12699999809E+01 0.  1.
</event>
<event>
 5   0  0.1243803E-01  0.4941974E+03  0.7818609E-02  0.1015305E+00
        2   -1    0    0  501    0  0.00000000000E+00  0.00000000000E+00  0.28968461632E+03  0.28968461633E+03  0.25500000920E-02 0.  1.
       -2   -1    0    0    0  501  0.00000000000E+00  0.00000000000E+00 -0.21077327516E+03  0.21077327518E+03  0.25500000920E-02 0. -1.
    10030    2    1    2    0    0  0.00000000000E+00  0.00000000000E+00  0.78911341156E+02  0.50045789151E+03  0.49419743161E+03 0.  0.
        4    1    3    3  502    0 -0.21117414195E+03 -0.84402548048E+02 -0.58401037078E+02  0.23479906809E+03  0.12699999809E+01 0. -1.
       -4    1    3    3    0  502  0.21117414195E+03  0.84402548048E+02  0.13731237823E+03  0.26565882342E+03  0.12699999809E+01 0.  1.
</event>
<event>
 5   0  0.7416638E-02  0.5006247E+03  0.7818609E-02  0.1013616E+00
        1   -1    0    0  501    0  0.00000000000E+00  0.00000000000E+00  0.10346716493E+03  0.10346716505E+03  0.50400001928E-02 0.  1.
       -1   -1    0    0    0  501  0.00000000000E+00  0.00000000000E+00 -0.60556670114E+03  0.60556670116E+03  0.50400001928E-02 0. -1.
    10030    2    1    2    0    0  0.00000000000E+00  0.00000000000E+00 -0.50209953621E+03  0.70903386621E+03  0.50062468893E+03 0.  0.
        1    1    3    3  502    0  0.91424983761E+02  0.76780861938E+02  0.60543703124E+02  0.13386324525E+03  0.50400001928E-02 0.  1.
       -1    1    3    3    0  502 -0.91424983761E+02 -0.76780861938E+02 -0.56264323934E+03  0.57517062096E+03  0.50400001928E-02 0. -1.
</event>
<event>
 5   0  0.7416638E-02  0.5178912E+03  0.7818609E-02  0.1009212E+00
        1   -1    0    0  501    0  0.00000000000E+00  0.00000000000E+00  0.38890012845E+03  0.38890012849E+03  0.50400001928E-02 0.  1.
       -1   -1    0    0    0  501  0.00000000000E+00  0.00000000000E+00 -0.17241659578E+03  0.17241659585E+03  0.50400001928E-02 0. -1.
    10030    2    1    2    0    0  0.00000000000E+00  0.00000000000E+00  0.21648353267E+03  0.56131672434E+03  0.51789124834E+03 0.  0.
        1    1    3    3  502    0 -0.13668566142E+03 -0.11065569957E+03 -0.97761655410E+02  0.20120883475E+03  0.50400001928E-02 0. -1.
       -1    1    3    3    0  502  0.13668566142E+03  0.11065569957E+03  0.31424518808E+03  0.36010788959E+03  0.50400001928E-02 0.  1.
</event>
<event>
 5   0  0.7416638E-02  0.4970083E+03  0.7818609E-02  0.1014563E+00
       -1   -1    0    0    0  501  0.00000000000E+00  0.00000000000E+00  0.11127085109E+03  0.11127085121E+03  0.50400001928E-02 0. -1.
        1   -1    0    0  501    0  0.00000000000E+00  0.00000000000E+00 -0.55499086502E+03  0.55499086504E+03  0.50400001928E-02 0.  1.
    10030    2    1    2    0    0  0.00000000000E+00  0.00000000000E+00 -0.44372001392E+03  0.66626171625E+03  0.49700827335E+03 0.  0.
        1    1    3    3  502    0  0.11716030518E+03 -0.30763981571E+01  0.71894576763E+02  0.13749484182E+03  0.50400001928E-02 0. -1.
       -1    1    3    3    0  502 -0.11716030518E+03  0.30763981571E+01 -0.51561459069E+03  0.52876687442E+03  0.50400001928E-02 0.  1.
</event>
<event>
 5   0  0.7602288E-02  0.4989994E+03  0.7818609E-02  0.1014040E+00
        1   -1    0    0  501    0  0.00000000000E+00  0.00000000000E+00  0.19867406173E+03  0.19867406180E+03  0.50400001928E-02 0. -1.
       -1   -1    0    0    0  501  0.00000000000E+00  0.00000000000E+00 -0.31332780035E+03  0.31332780039E+03  0.50400001928E-02 0.  1.
    10030    2    1    2    0    0  0.00000000000E+00  0.00000000000E+00 -0.11465373862E+03  0.51200186219E+03  0.49899942595E+03 0.  0.
        5    1    3    3  502    0  0.13787288972E+03 -0.10993871498E+03 -0.23836869702E+03  0.29654203832E+03  0.46999998093E+01 0.  1.
       -5    1    3    3    0  502 -0.13787288972E+03  0.10993871498E+03  0.12371495840E+03  0.21545982387E+03  0.46999998093E+01 0. -1.
</event>
<event>
 5   0  0.7531632E-02  0.4583460E+03  0.7818609E-02  0.1025262E+00
       -1   -1    0    0    0  501  0.00000000000E+00  0.00000000000E+00  0.83196689167E+03  0.83196689168E+03  0.50400001928E-02 0.  1.
        1   -1    0    0  501    0  0.00000000000E+00  0.00000000000E+00 -0.63127837613E+02  0.63127837814E+02  0.50400001928E-02 0. -1.
    10030    2    1    2    0    0  0.00000000000E+00  0.00000000000E+00  0.76883905405E+03  0.89509472949E+03  0.45834603056E+03 0.  0.
        3    1    3    3  502    0  0.19968758785E+03  0.23809791613E+02  0.16979614910E+03  0.26319722903E+03  0.10100000352E+00 0. -1.
       -3    1    3    3    0  502 -0.19968758785E+03 -0.23809791613E+02  0.59904290495E+03  0.63189750046E+03  0.10100000352E+00 0.  1.
</event>
<event>
 5   0  0.7781754E-02  0.5033260E+03  0.7818609E-02  0.1012914E+00
       -1   -1    0    0    0  501  0.00000000000E+00  0.00000000000E+00  0.35833786184E+02  0.35833786539E+02  0.50400001928E-02 0. -1.
        1   -1    0    0  501    0  0.00000000000E+00  0.00000000000E+00 -0.17674453225E+04  0.17674453225E+04  0.50400001928E-02 0.  1.
    10030    2    1    2    0    0  0.00000000000E+00  0.00000000000E+00 -0.17316115363E+04  0.18032791090E+04  0.50332597034E+03 0.  0.
        2    1    3    3  502    0 -0.15487612601E+03 -0.15173266563E+03 -0.40804549085E+03  0.46207200612E+03  0.25500000920E-02 0. -1.
       -2    1    3    3    0  502  0.15487612601E+03  0.15173266563E+03 -0.13235660454E+04  0.13412071029E+04  0.25500000920E-02 0.  1.
</event>
<event>
 5   0  0.7781754E-02  0.4343564E+03  0.7818609E-02  0.1032493E+00
        1   -1    0    0  501    0  0.00000000000E+00  0.00000000000E+00  0.17655374226E+04  0.17655374226E+04  0.50400001928E-02 0. -1.
       -1   -1    0    0    0  501  0.00000000000E+00  0.00000000000E+00 -0.26715023695E+02  0.26715024170E+02  0.50400001928E-02 0.  1.
    10030    2    1    2    0    0  0.00000000000E+00  0.00000000000E+00  0.17388223989E+04  0.17922524468E+04  0.43435641822E+03 0.  0.
        2    1    3    3  502    0 -0.70102014523E+01  0.21060034063E+03  0.65245145907E+03  0.68563441632E+03  0.25500000920E-02 0.  1.
       -2    1    3    3    0  502  0.70102014523E+01 -0.21060034063E+03  0.10863709399E+04  0.11066180305E+04  0.25500000920E-02 0. -1.
</event>
<event>
 5   0  0.5006750E-02  0.4663925E+03  0.7818609E-02  0.1022943E+00
        4   -1    0    0  501    0  0.00000000000E+00  0.00000000000E+00  0.16000426229E+03  0.16000930239E+03  0.12699999809E+01 0. -1.
       -4   -1    0    0    0  501  0.00000000000E+00  0.00000000000E+00 -0.33985744232E+03  0.33985981521E+03  0.12699999809E+01 0.  1.
    10030    2    1    2    0    0  0.00000000000E+00  0.00000000000E+00 -0.17985318003E+03  0.49986911760E+03  0.46639250462E+03 0.  0.
        5    1    3    3  502    0  0.14163130186E+03 -0.45198591926E+02  0.10256440982E+03  0.18067619251E+03  0.46999998093E+01 0.  1.
       -5    1    3    3    0  502 -0.14163130186E+03  0.45198591926E+02 -0.28241758985E+03  0.31919292510E+03  0.46999998093E+01 0. -1.
</event>
<event>
 5   0  0.1211345E-01  0.4987792E+03  0.7818609E-02  0.1014098E+00
       -2   -1    0    0    0  501  0.00000000000E+00  0.00000000000E+00  0.31408975168E+03  0.31408975169E+03  0.25500000920E-02 0. -1.
        2   -1    0    0  501    0  0.00000000000E+00  0.00000000000E+00 -0.19801718113E+03  0.19801718114E+03  0.25500000920E-02 0.  1.
    10030    2    1    2    0    0  0.00000000000E+00  0.00000000000E+00  0.11607257056E+03  0.51210693284E+03  0.49877917862E+03 0.  0.
        5    1    3    3  502    0  0.12564308349E+03  0.10912056538E+03 -0.13261222577E+03  0.21284166566E+03  0.46999998093E+01 0. -1.
       -5    1    3    3    0  502 -0.12564308349E+03 -0.10912056538E+03  0.24868479633E+03  0.29926526718E+03  0.46999998093E+01 0.  1.
</event>
<event>
 5   0  0.7416638E-02  0.5017700E+03  0.7818609E-02  0.1013318E+00
       -1   -1    0    0    0  501  0.00000000000E+00  0.00000000000E+00  0.25542768124E+03  0.25542768129E+03  0.50400001928E-02 0. -1.
        1   -1    0    0  501    0  0.00000000000E+00  0.00000000000E+00 -0.24642307423E+03  0.24642307428E+03  0.50400001928E-02 0.  1.
    10030    2    1    2    0    0  0.00000000000E+00  0.00000000000E+00  0.90046070054E+01  0.50185075557E+03  0.50176996514E+03 0.  0.
        1    1    3    3  502    0  0.90179099616E+02  0.74507380015E+01 -0.22953428515E+03  0.24672610642E+03  0.50400001928E-02 0.  1.
       -1    1    3    3    0  502 -0.90179099616E+02 -0.74507380015E+01  0.23853889216E+03  0.25512464915E+03  0.50400001928E-02 0. -1.
</event>
<event>
 5   0  0.7602288E-02  0.4993650E+03  0.7818609E-02  0.1013945E+00
       -1   -1    0    0    0  501  0.00000000000E+00  0.00000000000E+00  0.10731952143E+03  0.10731952155E+03  0.50400001928E-02 0.  1.
        1   -1    0    0  501    0  0.00000000000E+00  0.00000000000E+00 -0.58089477652E+03  0.58089477654E+03  0.50400001928E-02 0. -1.
    10030    2    1    2    0    0  0.00000000000E+00  0.00000000000E+00 -0.47357525508E+03  0.68821429809E+03  0.49936499463E+03 0.  0.
        5    1    3    3  502    0  0.18479773760E+03 -0.16777457564E+03 -0.24306514003E+03  0.34842684218E+03  0.46999998093E+01 0.  1.
       -5    1    3    3    0  502 -0.18479773760E+03  0.16777457564E+03 -0.23051011505E+03  0.33978745591E+03  0.46999998093E+01 0. -1.
</event>
<event>
 5   0  0.1191894E-01  0.4966775E+03  0.7818609E-02  0.1014650E+00
        2   -1    0    0  501    0  0.00000000000E+00  0.00000000000E+00  0.17537747430E+03  0.17537747431E+03  0.25500000920E-02 0. -1.
       -2   -1    0    0    0  501  0.00000000000E+00  0.00000000000E+00 -0.35165362848E+03  0.35165362849E+03  0.25500000920E-02 0.  1.
    10030    2    1    2    0    0  0.00000000000E+00  0.00000000000E+00 -0.17627615419E+03  0.52703110281E+03  0.49667746153E+03 0.  0.
        3    1    3    3  502    0 -0.18305677138E+03  0.98740671933E+02 -0.23212382530E+03  0.31167448134E+03  0.10100000352E+00 0.  1.
       -3    1    3    3    0  502  0.18305677138E+03 -0.98740671933E+02  0.55847671115E+02  0.21535662147E+03  0.10100000352E+00 0. -1.
</event>
<event>
 5   0  0.7812547E-02  0.5005543E+03  0.7818609E-02  0.1013634E+00
        1   -1    0    0  501    0  0.00000000000E+00  0.00000000000E+00  0.32092861417E+03  0.32092861421E+03  0.50400001928E-02 0. -1.
       -1   -1    0    0    0  501  0.00000000000E+00  0.00000000000E+00 -0.19517940083E+03  0.19517940089E+03  0.50400001928E-02 0.  1.
    10030    2    1    2    0    0  0.00000000000E+00  0.00000000000E+00  0.12574921334E+03  0.51610801510E+03  0.50055431134E+03 0.  0.
        4    1    3    3  502    0  0.30573104639E+02  0.76144728184E+02 -0.18091322968E+03  0.19865533955E+03  0.12699999809E+01 0.  1.
       -4    1    3    3    0  502 -0.30573104639E+02 -0.76144728184E+02  0.30666244302E+03  0.31745267556E+03  0.12699999809E+01 0. -1.
</event>
<event>
 5   0  0.1243803E-01  0.4998231E+03  0.7818609E-02  0.1013825E+00
        2   -1    0    0  501    0  0.00000000000E+00  0.00000000000E+00  0.27336569547E+03  0.27336569548E+03  0.25500000920E-02 0.  1.
       -2   -1    0    0    0  501  0.00000000000E+00  0.00000000000E+00 -0.22846972438E+03  0.22846972439E+03  0.25500000920E-02 0. -1.
    10030    2    1    2    0    0  0.00000000000E+00  0.00000000000E+00  0.44895971089E+02  0.50183541988E+03  0.49982310913E+03 0.  0.
        4    1    3    3  502    0 -0.23734131399E+03  0.91460243357E+01 -0.55579910841E+02  0.24393705843E+03  0.12699999809E+01 0. -1.
       -4    1    3    3    0  502  0.23734131399E+03 -0.91460243357E+01  0.10047588193E+03  0.25789836145E+03  0.12699999809E+01 0.  1.
</event>
<event>
 5   0  0.1231822E-01  0.4992684E+03  0.7818609E-02  0.1013970E+00
       -2   -1    0    0    0  501  0.00000000000E+00  0.00000000000E+00  0.69420123752E+02  0.69420123799E+02  0.25500000920E-02 0. -1.
        2   -1    0    0  501    0  0.00000000000E+00  0.00000000000E+00 -0.89768263632E+03  0.89768263632E+03  0.25500000920E-02 0.  1.
    10030    2    1    2    0    0  0.00000000000E+00  0.00000000000E+00 -0.82826251257E+03  0.96710276012E+03  0.49926842371E+03 0.  0.
        1    1    3    3  502    0  0.44072978053E+02 -0.22878095198E+03 -0.58775408342E+03  0.63224837998E+03  0.50400001928E-02 0.  1.
       -1    1    3    3    0  502 -0.44072978053E+02  0.22878095198E+03 -0.24050842914E+03  0.33485438014E+03  0.50400001928E-02 0. -1.
</event>
<event>
 5   0  0.7531632E-02  0.4985385E+03  0.7818609E-02  0.1014161E+00
        1   -1    0    0  501    0  0.00000000000E+00  0.00000000000E+00  0.11752189723E+04  0.11752189723E+04  0.50400001928E-02 0. -1.
       -1   -1    0    0    0  501  0.00000000000E+00  0.00000000000E+00 -0.52871143672E+02  0.52871143913E+02  0.50400001928E-02 0.  1.
    10030    2    1    2    0    0  0.00000000000E+00  0.00000000000E+00  0.11223478286E+04  0.12280901162E+04  0.49853854930E+03 0.  0.
        3    1    3    3  502    0  0.19633226213E+03  0.71068209170E+02  0.22577298634E+03  0.30752316834E+03  0.10100000352E+00 0.  1.
       -3    1    3    3    0  502 -0.19633226213E+03 -0.71068209170E+02  0.89657484228E+03  0.92056694787E+03  0.10100000352E+00 0. -1.
</event>
<event>
 5   0  0.1191894E-01  0.5000918E+03  0.7818609E-02  0.1013755E+00
       -2   -1    0    0    0  501  0.00000000000E+00  0.00000000000E+00  0.10905825046E+03  0.10905825049E+03  0.25500000920E-02 0. -1.
        2   -1    0    0  501    0  0.00000000000E+00  0.00000000000E+00 -0.57329857957E+03  0.57329857957E+03  0.25500000920E-02 0.  1.
    10030    2    1    2    0    0  0.00000000000E+00  0.00000000000E+00 -0.46424032911E+03  0.68235683006E+03  0.50009175194E+03 0.  0.
        3    1    3    3  502    0  0.17672169308E+03  0.17165173881E+03 -0.29045880710E+03  0.38086901300E+03  0.10100000352E+00 0.  1.
       -3    1    3    3    0  502 -0.17672169308E+03 -0.17165173881E+03 -0.17378152201E+03  0.30148781706E+03  0.10100000352E+00 0. -1.
</event>
<event>
 5   0  0.7812547E-02  0.5001050E+03  0.7818609E-02  0.1013752E+00
        1   -1    0    0  501    0  0.00000000000E+00  0.00000000000E+00  0.54595561039E+03  0.54595561041E+03  0.50400001928E-02 0.  1.
       -1   -1    0    0    0  501  0.00000000000E+00  0.00000000000E+00 -0.11452627548E+03  0.11452627559E+03  0.50400001928E-02 0. -1.
    10030    2    1    2    0    0  0.00000000000E+00  0.00000000000E+00  0.43142933490E+03  0.66048188600E+03  0.50010503969E+03 0.  0.
        4    1    3    3  502    0  0.13290108429E+03  0.12452185576E+03  0.44199668160E+03  0.47804923409E+03  0.12699999809E+01 0.  1.
       -4    1    3    3    0  502 -0.13290108429E+03 -0.12452185576E+03 -0.10567346692E+02  0.18243265192E+03  0.12699999809E+01 0. -1.
</event>
<event>
 5   0  0.1279188E-01  0.5052934E+03  0.7818609E-02  0.1012406E+00
        2   -1    0    0  501    0  0.00000000000E+00  0.00000000000E+00  0.10315632011E+04  0.10315632011E+04  0.25500000920E-02 0. -1.
       -2   -1    0    0    0  501  0.00000000000E+00  0.00000000000E+00 -0.61877308436E+02  0.61877308489E+02  0.25500000920E-02 0.  1.
    10030    2    1    2    0    0  0.00000000000E+00  0.00000000000E+00  0.96968589269E+03  0.10934405096E+04  0.50529339753E+03 0.  0.
        2    1    3    3  502    0  0.16641907280E+03 -0.16256604093E+03  0.27163597100E+03  0.35764385386E+03  0.25500000920E-02 0.  1.
       -2    1    3    3    0  502 -0.16641907280E+03  0.16256604093E+03  0.69804992169E+03  0.73579665576E+03  0.25500000920E-02 0. -1.
</event>
<event>
 5   0  0.7812547E-02  0.4954956E+03  0.7818609E-02  0.1014961E+00
        1   -1    0    0  501    0  0.00000000000E+00  0.00000000000E+00  0.78399210987E+03  0.78399210989E+03  0.50400001928E-02 0.  1.
       -1   -1    0    0    0  501  0.00000000000E+00  0.00000000000E+00 -0.78290301791E+02  0.78290301954E+02  0.50400001928E-02 0. -1.
    10030    2    1    2    0    0  0.00000000000E+00  0.00000000000E+00  0.70570180808E+03  0.86228241184E+03  0.49549562646E+03 0.  0.
        4    1    3    3  502    0 -0.20681557164E+03  0.87312930289E+00  0.11548847954E+03  0.23688107740E+03  0.12699999809E+01 0. -1.
       -4    1    3    3    0  502  0.20681557164E+03 -0.87312930289E+00  0.59021332854E+03  0.62540133444E+03  0.12699999809E+01 0.  1.
</event>
<event>
 5   0  0.7812547E-02  0.5009934E+03  0.7818609E-02  0.1013520E+00
        1   -1    0    0  501    0  0.00000000000E+00  0.00000000000E+00  0.29626261783E+03  0.29626261788E+03  0.50400001928E-02 0.  1.
       -1   -1    0    0    0  501  0.00000000000E+00  0.00000000000E+00 -0.21180060386E+03  0.21180060392E+03  0.50400001928E-02 0. -1.
    10030    2    1    2    0    0  0.00000000000E+00  0.00000000000E+00  0.84462013978E+02  0.50806322179E+03  0.50099341865E+03 0.  0.
        4    1    3    3  502    0  0.22503778383E+03  0.10844963778E+03  0.61030688082E+02  0.25715692849E+03  0.12699999809E+01 0. -1.
       -4    1    3    3    0  502 -0.22503778383E+03 -0.10844963778E+03  0.23431325895E+02  0.25090629330E+03  0.12699999809E+01 0.  1.
</event>
<event>
 5   0  0.5006750E-02  0.5048500E+03  0.7818609E-02  0.1012521E+00
       -4   -1    0    0    0  501  0.00000000000E+00  0.00000000000E+00  0.10659774715E+04  0.10659782280E+04  0.12699999809E+01 0. -1.
        4   -1    0    0  501    0  0.00000000000E+00  0.00000000000E+00 -0.59767080170E+02  0.59780571861E+02  0.12699999809E+01 0.  1.
    10030    2    1    2    0    0  0.00000000000E+00  0.00000000000E+00  0.10062103913E+04  0.11257587999E+04  0.50485000140E+03 0.  0.
        5    1    3    3  502    0 -0.15616386839E+03 -0.19750515251E+03  0.54178278378E+03  0.59744967475E+03  0.46999998093E+01 0. -1.
       -5    1    3    3    0  502  0.15616386839E+03  0.19750515251E+03  0.46442760751E+03  0.52830912511E+03  0.46999998093E+01 0.  1.
</event>
<event>
 5   0  0.1279188E-01  0.4953231E+03  0.7818609E-02  0.1015007E+00
        2   -1    0    0  501    0  0.00000000000E+00  0.00000000000E+00  0.27739921873E+03  0.27739921874E+03  0.25500000920E-02 0.  1.
       -2   -1    0    0    0  501  0.00000000000E+00  0.00000000000E+00 -0.22111180978E+03  0.22111180979E+03  0.25500000920E-02 0. -1.
    10030    2    1    2    0    0  0.00000000000E+00  0.00000000000E+00  0.56287408956E+02  0.49851102853E+03  0.49532309977E+03 0.  0.
        2    1    3    3  502    0  0.20534221870E+03 -0.24225218773E+02 -0.10905665978E+03  0.23376407562E+03  0.25500000920E-02 0. -1.
       -2    1    3    3    0  502 -0.20534221870E+03  0.24225218773E+02  0.16534406873E+03  0.26474695291E+03  0.25500000920E-02 0.  1.
</event>
<event>
 5   0  0.1231822E-01  0.4975214E+03  0.7818609E-02  0.1014428E+00
       -2   -1    0    0    0  501  0.00000000000E+00  0.00000000000E+00  0.17051035962E+03  0.17051035964E+03  0.25500000920E-02 0. -1.
        2   -1    0    0  501    0  0.00000000000E+00  0.00000000000E+00 -0.36292153081E+03  0.36292153082E+03  0.25500000920E-02 0.  1.
    10030    2    1    2    0    0  0.00000000000E+00  0.00000000000E+00 -0.19241117119E+03  0.53343189046E+03  0.49752137940E+03 0.  0.
        1    1    3    3  502    0  0.16942933387E+03  0.16702146689E+03 -0.18301547422E+02  0.23861562447E+03  0.50400001928E-02 0. -1.
       -1    1    3    3    0  502 -0.16942933387E+03 -0.16702146689E+03 -0.17410962377E+03  0.29481626599E+03  0.50400001928E-02 0.  1.
</event>
<event>
 5   0  0.1211345E-01  0.5012269E+03  0.7818609E-02  0.1013459E+00
       -2   -1    0    0    0  501  0.00000000000E+00  0.00000000000E+00  0.16438195129E+03  0.16438195131E+03  0.25500000920E-02 0.  1.
        2   -1    0    0  501    0  0.00000000000E+00  0.00000000000E+00 -0.38208035059E+03  0.38208035060E+03  0.25500000920E-02 0. -1.
    10030    2    1    2    0    0  0.00000000000E+00  0.00000000000E+00 -0.21769839931E+03  0.54646230191E+03  0.50122694894E+03 0.  0.
        5    1    3    3  502    0  0.21370615504E+03  0.20713341029E+02  0.31981550946E+02  0.21712731932E+03  0.46999998093E+01 0.  1.
       -5    1    3    3    0  502 -0.21370615504E+03 -0.20713341029E+02 -0.24967995025E+03  0.32933498258E+03  0.46999998093E+01 0. -1.
</event>
<event>
 5   0  0.1231822E-01  0.4953440E+03  0.7818609E-02  0.1015001E+00
       -2   -1    0    0    0  501  0.00000000000E+00  0.00000000000E+00  0.54028505072E+02  0.54028505132E+02  0.25500000920E-02 0.  1.
        2   -1    0    0  501    0  0.00000000000E+00  0.00000000000E+00 -0.11353526801E+04  0.11353526801E+04  0.25500000920E-02 0. -1.
    10030    2    1    2    0    0  0.00000000000E+00  0.00000000000E+00 -0.10813241750E+04  0.11893811852E+04  0.49534395351E+03 0.  0.
        1    1    3    3  502    0 -0.85245191141E+02  0.36078547580E+02 -0.10922568140E+04  0.10961721361E+04  0.50400001928E-02 0. -1.
       -1    1    3    3    0  502  0.85245191141E+02 -0.36078547580E+02  0.10932639030E+02  0.93209049076E+02  0.50400001928E-02 0.  1.
</event>
<event>
 5   0  0.7416638E-02  0.5060025E+03  0.7818609E-02  0.1012224E+00
        1   -1    0    0  501    0  0.00000000000E+00  0.00000000000E+00  0.29832913042E+03  0.29832913046E+03  0.50400001928E-02 0.  1.
       -1   -1    0    0    0  501  0.00000000000E+00  0.00000000000E+00 -0.21456045950E+03  0.21456045956E+03  0.50400001928E-02 0. -1.
    10030    2    1    2    0    0  0.00000000000E+00  0.00000000000E+00  0.83768670917E+02  0.51288959002E+03  0.50600251119E+03 0.  0.
        1    1    3    3  502    0 -0.75611456266E+02 -0.14385882223E+03 -0.15465471842E+03  0.22434467903E+03  0.50400001928E-02 0. -1.
       -1    1    3    3    0  502  0.75611456266E+02  0.14385882223E+03  0.23842338934E+03  0.28854491100E+03  0.50400001928E-02 0.  1.
</event>
<event>
 5   0  0.1211345E-01  0.5062338E+03  0.7818609E-02  0.1012164E+00
       -2   -1    0    0    0  501  0.00000000000E+00  0.00000000000E+00  0.13461024913E+03  0.13461024915E+03  0.25500000920E-02 0.  1.
        2   -1    0    0  501    0  0.00000000000E+00  0.00000000000E+00 -0.47595304273E+03  0.47595304274E+03  0.25500000920E-02 0. -1.
    10030    2    1    2    0    0  0.00000000000E+00  0.00000000000E+00 -0.34134279360E+03  0.61056329189E+03  0.50623377076E+03 0.  0.
        5    1    3    3  502    0  0.23258062439E+03  0.33197395310E+01 -0.29092585058E+03  0.37251135291E+03  0.46999998093E+01 0. -1.
       -5    1    3    3    0  502 -0.23258062439E+03 -0.33197395310E+01 -0.50416943023E+02  0.23805193898E+03  0.46999998093E+01 0.  1.
</event>
<event>
 5   0  0.7602288E-02  0.5037008E+03  0.7818609E-02  0.1012817E+00
       -1   -1    0    0    0  501  0.00000000000E+00  0.00000000000E+00  0.68655971517E+03  0.68655971519E+03  0.50400001928E-02 0. -1.
        1   -1    0    0  501    0  0.00000000000E+00  0.00000000000E+00 -0.92386159710E+02  0.92386159847E+02  0.50400001928E-02 0.  1.
    10030    2    1    2    0    0  0.00000000000E+00  0.00000000000E+00  0.59417355546E+03  0.77894587504E+03  0.50370076656E+03 0.  0.
        5    1    3    3  502    0  0.33852030710E+02 -0.20821810910E+03  0.84453113633E+02  0.22727771413E+03  0.46999998093E+01 0.  1.
       -5    1    3    3    0  502 -0.33852030710E+02  0.20821810910E+03  0.50972044183E+03  0.55166816091E+03  0.46999998093E+01 0. -1.
</event>
<event>
 5   0  0.1243803E-01  0.4955288E+03  0.7818609E-02  0.1014953E+00
       -2   -1    0    0    0  501  0.00000000000E+00  0.00000000000E+00  0.92271304940E+02  0.92271304975E+02  0.25500000920E-02 0. -1.
        2   -1    0    0  501    0  0.00000000000E+00  0.00000000000E+00 -0.66529011429E+03  0.66529011430E+03  0.25500000920E-02 0.  1.
    10030    2    1    2    0    0  0.00000000000E+00  0.00000000000E+00 -0.57301880935E+03  0.75756141927E+03  0.49552875608E+03 0.  0.
        4    1    3    3  502    0 -0.13576100556E+03 -0.20034977914E+03 -0.20540418544E+03  0.31743279120E+03  0.12699999809E+01 0. -1.
       -4    1    3    3    0  502  0.13576100556E+03  0.20034977914E+03 -0.36761462391E+03  0.44012862807E+03  0.12699999809E+01 0.  1.
</event>
<event>
 5   0  0.1243803E-01  0.5070967E+03  0.7818609E-02  0.1011943E+00
       -2   -1    0    0    0  501  0.00000000000E+00  0.00000000000E+00  0.74278626685E+02  0.74278626729E+02  0.25500000920E-02 0. -1.
        2   -1    0    0  501    0  0.00000000000E+00  0.00000000000E+00 -0.86548124989E+03  0.86548124989E+03  0.25500000920E-02 0.  1.
    10030    2    1    2    0    0  0.00000000000E+00  0.00000000000E+00 -0.79120262320E+03  0.93975987662E+03  0.50709667199E+03 0.  0.
        4    1    3    3  502    0  0.55689075165E+02  0.56544415249E+02  0.50660750188E+02  0.94162989004E+02  0.12699999809E+01 0. -1.
       -4    1    3    3    0  502 -0.55689075165E+02 -0.56544415249E+02 -0.84186337339E+03  0.84559688762E+03  0.12699999809E+01 0.  1.
</event>
<event>
 5   0  0.5006750E-02  0.5000872E+03  0.7818609E-02  0.1013756E+00
        4   -1    0    0  501    0  0.00000000000E+00  0.00000000000E+00  0.14912073168E+03  0.14912613962E+03  0.12699999809E+01 0. -1.
       -4   -1    0    0    0  501  0.00000000000E+00  0.00000000000E+00 -0.41925567238E+03  0.41925759591E+03  0.12699999809E+01 0.  1.
    10030    2    1    2    0    0  0.00000000000E+00  0.00000000000E+00 -0.27013494070E+03  0.56838373552E+03  0.50008717702E+03 0.  0.
        3    1    3    3  502    0 -0.20785508959E+03 -0.84089892782E+02 -0.26084691592E+03  0.34397088842E+03  0.10100000352E+00 0. -1.
       -3    1    3    3    0  502  0.20785508959E+03  0.84089892782E+02 -0.92880247818E+01  0.22441284710E+03  0.10100000352E+00 0.  1.
</event>
<event>
 5   0  0.5006750E-02  0.4874460E+03  0.7818609E-02  0.1017109E+00
       -3   -1    0    0    0  501  0.00000000000E+00  0.00000000000E+00  0.72414266285E+02  0.72414336720E+02  0.10100000352E+00 0.  1.
        3   -1    0    0  501    0  0.00000000000E+00  0.00000000000E+00 -0.82029230469E+03  0.82029231091E+03  0.10100000352E+00 0. -1.
    10030    2    1    2    0    0  0.00000000000E+00  0.00000000000E+00 -0.74787803841E+03  0.89270664763E+03  0.48744599536E+03 0.  0.
        1    1    3    3  502    0 -0.18959573344E+03  0.15032771676E+03 -0.42751901276E+03  0.49124074634E+03  0.50400001928E-02 0.  1.
       -1    1    3    3    0  502  0.18959573344E+03 -0.15032771676E+03 -0.32035902565E+03  0.40146590129E+03  0.50400001928E-02 0. -1.
</event>
<event>
 5   0  0.7416638E-02  0.5049772E+03  0.7818609E-02  0.1012488E+00
       -1   -1    0    0    0  501  0.00000000000E+00  0.00000000000E+00  0.23898200349E+03  0.23898200354E+03  0.50400001928E-02 0. -1.
        1   -1    0    0  501    0  0.00000000000E+00  0.00000000000E+00 -0.26675851043E+03  0.26675851047E+03  0.50400001928E-02 0.  1.
    10030    2    1    2    0    0  0.00000000000E+00  0.00000000000E+00 -0.27776506939E+02  0.50574051401E+03  0.50497716104E+03 0.  0.
        1    1    3    3  502    0 -0.14637970272E+03 -0.11468364825E+03 -0.18494200801E+03  0.26226494790E+03  0.50400001928E-02 0.  1.
       -1    1    3    3    0  502  0.14637970272E+03  0.11468364825E+03  0.15716550107E+03  0.24347556612E+03  0.50400001928E-02 0. -1.
</event>
<event>
 5   0  0.7602288E-02  0.4959766E+03  0.7818609E-02  0.1014834E+00
        1   -1    0    0  501    0  0.00000000000E+00  0.00000000000E+00  0.39771555259E+03  0.39771555262E+03  0.50400001928E-02 0.  1.
       -1   -1    0    0    0  501  0.00000000000E+00  0.00000000000E+00 -0.15462856846E+03  0.15462856855E+03  0.50400001928E-02 0. -1.
    10030    2    1    2    0    0  0.00000000000E+00  0.00000000000E+00  0.24308698413E+03  0.55234412117E+03  0.49597655825E+03 0.  0.
        5    1    3    3  502    0  0.18300527227E+03  0.40778654382E+02 -0.59136574053E+02  0.19665465344E+03  0.46999998093E+01 0. -1.
       -5    1    3    3    0  502 -0.18300527227E+03 -0.40778654382E+02  0.30222355818E+03  0.35568946773E+03  0.46999998093E+01 0.  1.
</event>
<event>
 5   0  0.1243803E-01  0.4882456E+03  0.7818609E-02  0.1016893E+00
       -2   -1    0    0    0  501  0.00000000000E+00  0.00000000000E+00  0.22530705951E+03  0.22530705952E+03  0.25500000920E-02 0. -1.
        2   -1    0    0  501    0  0.00000000000E+00  0.00000000000E+00 -0.26450985738E+03  0.26450985739E+03  0.25500000920E-02 0.  1.
    10030    2    1    2    0    0  0.00000000000E+00  0.00000000000E+00 -0.39202797871E+02  0.48981691691E+03  0.48824558650E+03 0.  0.
        4    1    3    3  502    0 -0.23110152499E+03 -0.48161280141E+01 -0.98360205250E+02  0.25121196791E+03  0.12699999809E+01 0.  1.
       -4    1    3    3    0  502  0.23110152499E+03  0.48161280141E+01  0.59157407378E+02  0.23860494901E+03  0.12699999809E+01 0. -1.
</event>
<event>
 5   0  0.1211345E-01  0.5011021E+03  0.7818609E-02  0.1013492E+00
       -2   -1    0    0    0  501  0.00000000000E+00  0.00000000000E+00  0.83489119136E+02  0.83489119175E+02  0.25500000920E-02 0.  1.
        2   -1    0    0  501    0  0.00000000000E+00  0.00000000000E+00 -0.75190432047E+03  0.75190432047E+03  0.25500000920E-02 0. -1.
    10030    2    1    2    0    0  0.00000000000E+00  0.00000000000E+00 -0.66841520133E+03  0.83539343965E+03  0.50110210300E+03 0.  0.
        5    1    3    3  502    0  0.89580072027E+02 -0.46769081523E+02 -0.71634304465E+03  0.72345102385E+03  0.46999998093E+01 0. -1.
       -5    1    3    3    0  502 -0.89580072027E+02  0.46769081523E+02  0.47927843320E+02  0.11194241580E+03  0.46999998093E+01 0.  1.
</event>
<event>
 5   0  0.1231822E-01  0.4968906E+03  0.7818609E-02  0.1014594E+00
        2   -1    0    0  501    0  0.00000000000E+00  0.00000000000E+00  0.13171420346E+04  0.13171420346E+04  0.25500000920E-02 0. -1.
       -2   -1    0    0    0  501  0.00000000000E+00  0.00000000000E+00 -0.46862872014E+02  0.46862872083E+02  0.25500000920E-02 0.  1.
    10030    2    1    2    0    0  0.00000000000E+00  0.00000000000E+00  0.12702791626E+04  0.13640049067E+04  0.49689056598E+03 0.  0.
        1    1    3    3  502    0 -0.85538882129E+02 -0.17438931710E+03  0.10603749239E+04  0.10780183271E+04  0.50400001928E-02 0. -1.
       -1    1    3    3    0  502  0.85538882129E+02  0.17438931710E+03  0.20990423874E+03  0.28598657965E+03  0.50400001928E-02 0.  1.
</event>
<event>
 5   0  0.1231822E-01  0.5013237E+03  0.7818609E-02  0.1013434E+00
       -2   -1    0    0    0  501  0.00000000000E+00  0.00000000000E+00  0.11924960227E+03  0.11924960230E+03  0.25500000920E-02 0. -1.
        2   -1    0    0  501    0  0.00000000000E+00  0.00000000000E+00 -0.52688950746E+03  0.52688950747E+03  0.25500000920E-02 0.  1.
    10030    2    1    2    0    0  0.00000000000E+00  0.00000000000E+00 -0.40763990519E+03  0.64613910977E+03  0.50132370467E+03 0.  0.
        1    1    3    3  502    0 -0.49791124977E+02  0.81785054834E+02 -0.50239047865E+03  0.51143342126E+03  0.50400001928E-02 0.  1.
       -1    1    3    3    0  502  0.49791124977E+02 -0.81785054834E+02  0.94750573457E+02  0.13470568851E+03  0.50400001928E-02 0. -1.
</event>
<event>
 5   0  0.7602288E-02  0.4995596E+03  0.7818609E-02  0.1013894E+00
       -1   -1    0    0    0  501  0.00000000000E+00  0.00000000000E+00  0.38591027840E+03  0.38591027843E+03  0.50400001928E-02 0.  1.
        1   -1    0    0  501    0  0.00000000000E+00  0.00000000000E+00 -0.16166957453E+03  0.16166957460E+03  0.50400001928E-02 0. -1.
    10030    2    1    2    0    0  0.00000000000E+00  0.00000000000E+00  0.22424070388E+03  0.54757985304E+03  0.49955960824E+03 0.  0.
        5    1    3    3  502    0 -0.21017526532E+02  0.17350225345E+03 -0.83417721926E+02  0.19371467343E+03  0.46999998093E+01 0. -1.
       -5    1    3    3    0  502  0.21017526532E+02 -0.17350225345E+03  0.30765842580E+03  0.35386517961E+03  0.46999998093E+01 0.  1.
</event>
<event>
 5   0  0.7602288E-02  0.5593703E+03  0.7818609E-02  0.9993480E-01
        1   -1    0    0  501    0  0.00000000000E+00  0.00000000000E+00  0.52955078035E+03  0.52955078038E+03  0.50400001928E-02 0.  1.
       -1   -1    0    0    0  501  0.00000000000E+00  0.00000000000E+00 -0.14771724420E+03  0.14771724429E+03  0.50400001928E-02 0. -1.
    10030    2    1    2    0    0  0.00000000000E+00  0.00000000000E+00  0.38183353615E+03  0.67726802466E+03  0.55937029587E+03 0.  0.
        5    1    3    3  502    0 -0.53463654381E+01  0.25528929177E+03  0.52865320988E+02  0.26080268073E+03  0.46999998093E+01 0. -1.
       -5    1    3    3    0  502  0.53463654381E+01 -0.25528929177E+03  0.32896821516E+03  0.41646534393E+03  0.46999998093E+01 0.  1.
</event>
<event>
 5   0  0.1243803E-01  0.4833193E+03  0.7818609E-02  0.1018227E+00
        2   -1    0    0  501    0  0.00000000000E+00  0.00000000000E+00  0.90447874060E+03  0.90447874061E+03  0.25500000920E-02 0.  1.
       -2   -1    0    0    0  501  0.00000000000E+00  0.00000000000E+00 -0.64566900187E+02  0.64566900237E+02  0.25500000920E-02 0. -1.
    10030    2    1    2    0    0  0.00000000000E+00  0.00000000000E+00  0.83991184042E+03  0.96904564084E+03  0.48331930891E+03 0.  0.
        4    1    3    3  502    0  0.53763301916E+02 -0.92278224533E+02  0.85458833025E+03  0.86123666344E+03  0.12699999809E+01 0.  1.
       -4    1    3    3    0  502 -0.53763301916E+02  0.92278224533E+02 -0.14676489830E+02  0.10780897741E+03  0.12699999809E+01 0. -1.
</event>
<event>
 5   0  0.7812547E-02  0.5057241E+03  0.7818609E-02  0.1012296E+00
       -1   -1    0    0    0  501  0.00000000000E+00  0.00000000000E+00  0.25191022705E+03  0.25191022710E+03  0.50400001928E-02 0. -1.
        1   -1    0    0  501    0  0.00000000000E+00  0.00000000000E+00 -0.25381750685E+03  0.25381750690E+03  0.50400001928E-02 0.  1.
    10030    2    1    2    0    0  0.00000000000E+00  0.00000000000E+00 -0.19072797968E+01  0.50572773400E+03  0.50572413747E+03 0.  0.
        4    1    3    3  502    0 -0.75078887373E+02  0.24145553120E+03 -0.94835158984E+00  0.25286384706E+03  0.12699999809E+01 0. -1.
       -4    1    3    3    0  502  0.75078887373E+02 -0.24145553120E+03 -0.95892820695E+00  0.25286388694E+03  0.12699999809E+01 0.  1.
</event>
<event>
 5   0  0.1243803E-01  0.4994734E+03  0.7818609E-02  0.1013916E+00
        2   -1    0    0  501    0  0.00000000000E+00  0.00000000000E+00  0.83036860954E+03  0.83036860955E+03  0.25500000920E-02 0.  1.
       -2   -1    0    0    0  501  0.00000000000E+00  0.00000000000E+00 -0.75109331636E+02  0.75109331679E+02  0.25500000920E-02 0. -1.
    10030    2    1    2    0    0  0.00000000000E+00  0.00000000000E+00  0.75525927791E+03  0.90547794123E+03  0.49947344793E+03 0.  0.
        4    1    3    3  502    0  0.20247008138E+03 -0.11772134982E+01  0.64265102806E+03  0.67379334848E+03  0.12699999809E+01 0.  1.
       -4    1    3    3    0  502 -0.20247008138E+03  0.11772134982E+01  0.11260824985E+03  0.23168459275E+03  0.12699999809E+01 0. -1.
</event>
<event>
 5   0  0.7531632E-02  0.5033400E+03  0.7818609E-02  0.1012911E+00
        1   -1    0    0  501    0  0.00000000000E+00  0.00000000000E+00  0.29849185440E+03  0.29849185444E+03  0.50400001928E-02 0. -1.
       -1   -1    0    0    0  501  0.00000000000E+00  0.00000000000E+00 -0.21219267768E+03  0.21219267774E+03  0.50400001928E-02 0.  1.
    10030    2    1    2    0    0  0.00000000000E+00  0.00000000000E+00  0.86299176715E+02  0.51068453218E+03  0.50333998799E+03 0.  0.
        3    1    3    3  502    0  0.19497372101E+03  0.28566221753E+02 -0.11568178773E+03  0.22850178801E+03  0.10100000352E+00 0.  1.
       -3    1    3    3    0  502 -0.19497372101E+03 -0.28566221753E+02  0.20198096444E+03  0.28218274417E+03  0.10100000352E+00 0. -1.
</event>
<event>
 5   0  0.7812547E-02  0.4981157E+03  0.7818609E-02  0.1014272E+00
        1   -1    0    0  501    0  0.00000000000E+00  0.00000000000E+00  0.61595966526E+03  0.61595966528E+03  0.50400001928E-02 0. -1.
       -1   -1    0    0    0  501  0.00000000000E+00  0.00000000000E+00 -0.10070432942E+03  0.10070432955E+03  0.50400001928E-02 0.  1.
    10030    2    1    2    0    0  0.00000000000E+00  0.00000000000E+00  0.51525533584E+03  0.71666399482E+03  0.49811566967E+03 0.  0.
        4    1    3    3  502    0  0.12936052202E+03  0.15205857750E+03  0.47186252480E+03  0.51235906439E+03  0.12699999809E+01 0. -1.
       -4    1    3    3    0  502 -0.12936052202E+03 -0.15205857750E+03  0.43392811036E+02  0.20430493044E+03  0.12699999809E+01 0.  1.
</event>
<event>
 5   0  0.7781754E-02  0.5020822E+03  0.7818609E-02  0.1013237E+00
       -1   -1    0    0    0  501  0.00000000000E+00  0.00000000000E+00  0.77066398649E+02  0.77066398814E+02  0.50400001928E-02 0.  1.
        1   -1    0    0  501    0  0.00000000000E+00  0.00000000000E+00 -0.81775749380E+03  0.81775749382E+03  0.50400001928E-02 0. -1.
    10030    2    1    2    0    0  0.00000000000E+00  0.00000000000E+00 -0.74069109515E+03  0.89482389263E+03  0.50208216497E+03 0.  0.
        2    1    3    3  502    0 -0.18728274175E+03 -0.15579104614E+03 -0.47840121637E+03  0.53685510079E+03  0.25500000920E-02 0. -1.
       -2    1    3    3    0  502  0.18728274175E+03  0.15579104614E+03 -0.26228987879E+03  0.35796879184E+03  0.25500000920E-02 0.  1.
</event>
<event>
 5   0  0.1231822E-01  0.4918913E+03  0.7818609E-02  0.1015917E+00
       -2   -1    0    0    0  501  0.00000000000E+00  0.00000000000E+00  0.23408083666E+03  0.23408083668E+03  0.25500000920E-02 0.  1.
        2   -1    0    0  501    0  0.00000000000E+00  0.00000000000E+00 -0.25841180785E+03  0.25841180787E+03  0.25500000920E-02 0. -1.
    10030    2    1    2    0    0  0.00000000000E+00  0.00000000000E+00 -0.24330971190E+02  0.49249264455E+03  0.49189125706E+03 0.  0.
        1    1    3    3  502    0  0.65663578824E+02  0.11637139531E+03 -0.21890097017E+03  0.25645982531E+03  0.50400001928E-02 0. -1.
       -1    1    3    3    0  502 -0.65663578824E+02 -0.11637139531E+03  0.19456999898E+03  0.23603281924E+03  0.50400001928E-02 0.  1.
</event>
<event>
 5   0  0.7416638E-02  0.4982716E+03  0.7818609E-02  0.1014231E+00
       -1   -1    0    0    0  501  0.00000000000E+00  0.00000000000E+00  0.24468407193E+03  0.24468407198E+03  0.50400001928E-02 0.  1.
        1   -1    0    0  501    0  0.00000000000E+00  0.00000000000E+00 -0.25366855871E+03  0.25366855876E+03  0.50400001928E-02 0. -1.
    10030    2    1    2    0    0  0.00000000000E+00  0.00000000000E+00 -0.89844867799E+01  0.49835263074E+03  0.49827163632E+03 0.  0.
        1    1    3    3  502    0 -0.14267780521E+03 -0.12391078159E+02 -0.20838356901E+03  0.25285214410E+03  0.50400001928E-02 0. -1.
       -1    1    3    3    0  502  0.14267780521E+03  0.12391078159E+02  0.19939908223E+03  0.24550048663E+03  0.50400001928E-02 0.  1.
</event>
<event>
 5   0  0.1231822E-01  0.4948458E+03  0.7818609E-02  0.1015133E+00
       -2   -1    0    0    0  501  0.00000000000E+00  0.00000000000E+00  0.14846342234E+03  0.14846342237E+03  0.25500000920E-02 0. -1.
        2   -1    0    0  501    0  0.00000000000E+00  0.00000000000E+00 -0.41234455257E+03  0.41234455257E+03  0.25500000920E-02 0.  1.
    10030    2    1    2    0    0  0.00000000000E+00  0.00000000000E+00 -0.26388113022E+03  0.56080797494E+03  0.49484576776E+03 0.  0.
        1    1    3    3  502    0 -0.12866348660E+03 -0.11507525850E+03 -0.33283023650E+03  0.37493009249E+03  0.50400001928E-02 0.  1.
       -1    1    3    3    0  502  0.12866348660E+03  0.11507525850E+03  0.68949106280E+02  0.18587788245E+03  0.50400001928E-02 0. -1.
</event>
<event>
 5   0  0.1279188E-01  0.4858717E+03  0.7818609E-02  0.1017534E+00
       -2   -1    0    0    0  501  0.00000000000E+00  0.00000000000E+00  0.29976824778E+03  0.29976824779E+03  0.25500000920E-02 0. -1.
        2   -1    0    0  501    0  0.00000000000E+00  0.00000000000E+00 -0.19687815749E+03  0.19687815751E+03  0.25500000920E-02 0.  1.
    10030    2    1    2    0    0  0.00000000000E+00  0.00000000000E+00  0.10289009029E+03  0.49664640530E+03  0.48587167155E+03 0.  0.
        2    1    3    3  502    0 -0.17730194642E+03 -0.16589802503E+03  0.59342001112E+02  0.24995921270E+03  0.25500000920E-02 0. -1.
       -2    1    3    3    0  502  0.17730194642E+03  0.16589802503E+03  0.43548089177E+02  0.24668719259E+03  0.25500000920E-02 0.  1.
</event>
<event>
 5   0  0.1243803E-01  0.4956576E+03  0.7818609E-02  0.1014919E+00
        2   -1    0    0  501    0  0.00000000000E+00  0.00000000000E+00  0.10279776353E+03  0.10279776357E+03  0.25500000920E-02 0.  1.
       -2   -1    0    0    0  501  0.00000000000E+00  0.00000000000E+00 -0.59747515399E+03  0.59747515400E+03  0.25500000920E-02 0. -1.
    10030    2    1    2    0    0  0.00000000000E+00  0.00000000000E+00 -0.49467739046E+03  0.70027291756E+03  0.49565758185E+03 0.  0.
        4    1    3    3  502    0 -0.12422309864E+03 -0.12679324501E+03 -0.49167658439E+03  0.52273834923E+03  0.12699999809E+01 0. -1.
       -4    1    3    3    0  502  0.12422309864E+03  0.12679324501E+03 -0.30008060696E+01  0.17753456833E+03  0.12699999809E+01 0.  1.
</event>
<event>
 5   0  0.7781754E-02  0.4824845E+03  0.7818609E-02  0.1018455E+00
        1   -1    0    0  501    0  0.00000000000E+00  0.00000000000E+00  0.18377623792E+03  0.18377623799E+03  0.50400001928E-02 0.  1.
       -1   -1    0    0    0  501  0.00000000000E+00  0.00000000000E+00 -0.31667763284E+03  0.31667763288E+03  0.50400001928E-02 0. -1.
    10030    2    1    2    0    0  0.00000000000E+00  0.00000000000E+00 -0.13290139493E+03  0.50045387087E+03  0.48248450348E+03 0.  0.
        2    1    3    3  502    0  0.51501412534E+02  0.39564301561E+02 -0.30743985537E+03  0.31422443273E+03  0.25500000920E-02 0. -1.
       -2    1    3    3    0  502 -0.51501412534E+02 -0.39564301561E+02  0.17453846044E+03  0.18622943814E+03  0.25500000920E-02 0.  1.
</event>
<event>
 5   0  0.7416638E-02  0.4984677E+03  0.7818609E-02  0.1014180E+00
       -1   -1    0    0    0  501  0.00000000000E+00  0.00000000000E+00  0.12486227248E+03  0.12486227258E+03  0.50400001928E-02 0.  1.
        1   -1    0    0  501    0  0.00000000000E+00  0.00000000000E+00 -0.49748825945E+03  0.49748825947E+03  0.50400001928E-02 0. -1.
    10030    2    1    2    0    0  0.00000000000E+00  0.00000000000E+00 -0.37262598697E+03  0.62235053206E+03  0.49846771068E+03 0.  0.
        1    1    3    3  502    0  0.44244744434E+02  0.23613439775E+03 -0.10349070221E+03  0.26158627006E+03  0.50400001928E-02 0.  1.
       -1    1    3    3    0  502 -0.44244744434E+02 -0.23613439775E+03 -0.26913528475E+03  0.36076426200E+03  0.50400001928E-02 0. -1.
</event>
<event>
 5   0  0.1243803E-01  0.4990156E+03  0.7818609E-02  0.1014036E+00
       -2   -1    0    0    0  501  0.00000000000E+00  0.00000000000E+00  0.70944464077E+02  0.70944464123E+02  0.25500000920E-02 0.  1.
        2   -1    0    0  501    0  0.00000000000E+00  0.00000000000E+00 -0.87750520408E+03  0.87750520408E+03  0.25500000920E-02 0. -1.
    10030    2    1    2    0    0  0.00000000000E+00  0.00000000000E+00 -0.80656074000E+03  0.94844966821E+03  0.49901557672E+03 0.  0.
        4    1    3    3  502    0 -0.22148455204E+03  0.57212944299E+02 -0.59261894122E+03  0.63523818382E+03  0.12699999809E+01 0. -1.
       -4    1    3    3    0  502  0.22148455204E+03 -0.57212944299E+02 -0.21394179878E+03  0.31321148439E+03  0.12699999809E+01 0.  1.
</event>
<event>
 5   0  0.1211345E-01  0.4959523E+03  0.7818609E-02  0.1014841E+00
        2   -1    0    0  501    0  0.00000000000E+00  0.00000000000E+00  0.23382161101E+03  0.23382161102E+03  0.25500000920E-02 0. -1.
       -2   -1    0    0    0  501  0.00000000000E+00  0.00000000000E+00 -0.26298749988E+03  0.26298749989E+03  0.25500000920E-02 0.  1.
    10030    2    1    2    0    0  0.00000000000E+00  0.00000000000E+00 -0.29165888876E+02  0.49680911091E+03  0.49595225941E+03 0.  0.
        5    1    3    3  502    0 -0.14834049822E+03 -0.61648931258E+02 -0.20375989296E+03  0.25951045858E+03  0.46999998093E+01 0.  1.
       -5    1    3    3    0  502  0.14834049822E+03  0.61648931258E+02  0.17459400408E+03  0.23729865233E+03  0.46999998093E+01 0. -1.
</event>
<event>
 5   0  0.5006750E-02  0.4929094E+03  0.7818609E-02  0.1015646E+00
       -4   -1    0    0    0  501  0.00000000000E+00  0.00000000000E+00  0.27401160446E+03  0.27401454757E+03  0.12699999809E+01 0. -1.
        4   -1    0    0  501    0  0.00000000000E+00  0.00000000000E+00 -0.22166322114E+03  0.22166685928E+03  0.12699999809E+01 0.  1.
    10030    2    1    2    0    0  0.00000000000E+00  0.00000000000E+00  0.52348383321E+02  0.49568140685E+03  0.49290942764E+03 0.  0.
        1    1    3    3  502    0 -0.23039197291E+03 -0.29029566756E+02 -0.56853727890E+02  0.23907221363E+03  0.50400001928E-02 0.  1.
       -1    1    3    3    0  502  0.23039197291E+03  0.29029566756E+02  0.10920211121E+03  0.25660919322E+03  0.50400001928E-02 0. -1.
</event>
<event>
 5   0  0.5006750E-02  0.5085564E+03  0.7818609E-02  0.1011569E+00
        3   -1    0    0  501    0  0.00000000000E+00  0.00000000000E+00  0.68534300692E+03  0.68534301437E+03  0.10100000352E+00 0.  1.
       -3   -1    0    0    0  501  0.00000000000E+00  0.00000000000E+00 -0.94343096256E+02  0.94343150319E+02  0.10100000352E+00 0. -1.
    10030    2    1    2    0    0  0.00000000000E+00  0.00000000000E+00  0.59099991067E+03  0.77968616468E+03  0.50855640886E+03 0.  0.
        2    1    3    3  502    0  0.93830265710E+02  0.42689050179E+02 -0.60870690008E+02  0.11971513971E+03  0.25500000920E-02 0. -1.
       -2    1    3    3    0  502 -0.93830265710E+02 -0.42689050179E+02  0.65187060068E+03  0.65997102497E+03  0.25500000920E-02 0.  1.
</event>
<event>
 5   0  0.7531632E-02  0.5026737E+03  0.7818609E-02  0.1013083E+00
       -1   -1    0    0    0  501  0.00000000000E+00  0.00000000000E+00  0.92740889874E+02  0.92740890011E+02  0.50400001928E-02 0.  1.
        1   -1    0    0  501    0  0.00000000000E+00  0.00000000000E+00 -0.68114747276E+03  0.68114747278E+03  0.50400001928E-02 0. -1.
    10030    2    1    2    0    0  0.00000000000E+00  0.00000000000E+00 -0.58840658289E+03  0.77388836279E+03  0.50267374238E+03 0.  0.
        3    1    3    3  502    0  0.88111952134E+02 -0.15742655844E+03 -0.24790231984E+02  0.18210272709E+03  0.10100000352E+00 0.  1.
       -3    1    3    3    0  502 -0.88111952134E+02  0.15742655844E+03 -0.56361635090E+03  0.59178563570E+03  0.10100000352E+00 0. -1.
</event>
<event>
 5   0  0.1279188E-01  0.5015684E+03  0.7818609E-02  0.1013370E+00
       -2   -1    0    0    0  501  0.00000000000E+00  0.00000000000E+00  0.10723987360E+03  0.10723987363E+03  0.25500000920E-02 0. -1.
        2   -1    0    0  501    0  0.00000000000E+00  0.00000000000E+00 -0.58646755985E+03  0.58646755986E+03  0.25500000920E-02 0.  1.
    10030    2    1    2    0    0  0.00000000000E+00  0.00000000000E+00 -0.47922768625E+03  0.69370743349E+03  0.50156836824E+03 0.  0.
        2    1    3    3  502    0 -0.15744151418E+03  0.54833046540E+02  0.19498866016E+02  0.16785320719E+03  0.25500000920E-02 0. -1.
       -2    1    3    3    0  502  0.15744151418E+03 -0.54833046540E+02 -0.49872655227E+03  0.52585422631E+03  0.25500000920E-02 0.  1.
</event>
<event>
 5   0  0.1243803E-01  0.4446870E+03  0.7818609E-02  0.1029318E+00
       -2   -1    0    0    0  501  0.00000000000E+00  0.00000000000E+00  0.40588852335E+02  0.40588852415E+02  0.25500000920E-02 0.  1.
        2   -1    0    0  501    0  0.00000000000E+00  0.00000000000E+00 -0.12179853667E+04  0.12179853667E+04  0.25500000920E-02 0. -1.
    10030    2    1    2    0    0  0.00000000000E+00  0.00000000000E+00 -0.11773965143E+04  0.12585742191E+04  0.44468698316E+03 0.  0.
        4    1    3    3  502    0 -0.13932649735E+03  0.30566606780E+02 -0.10714096000E+04  0.10808636982E+04  0.12699999809E+01 0. -1.
       -4    1    3    3    0  502  0.13932649735E+03 -0.30566606780E+02 -0.10598691438E+03  0.17771052089E+03  0.12699999809E+01 0.  1.
</event>
<event>
 5   0  0.7416638E-02  0.4933373E+03  0.7818609E-02  0.1015533E+00
        1   -1    0    0  501    0  0.00000000000E+00  0.00000000000E+00  0.48152906021E+03  0.48152906024E+03  0.50400001928E-02 0.  1.
       -1   -1    0    0    0  501  0.00000000000E+00  0.00000000000E+00 -0.12635878393E+03  0.12635878403E+03  0.50400001928E-02 0. -1.
    10030    2    1    2    0    0  0.00000000000E+00  0.00000000000E+00  0.35517027628E+03  0.60788784427E+03  0.49333731468E+03 0.  0.
        1    1    3    3  502    0 -0.13578954812E+02 -0.24306393103E+03  0.12859141189E+03  0.27531838627E+03  0.50400001928E-02 0. -1.
       -1    1    3    3    0  502  0.13578954812E+02  0.24306393103E+03  0.22657886439E+03  0.33256945800E+03  0.50400001928E-02 0.  1.
</event>
<event>
 5   0  0.7416638E-02  0.5034536E+03  0.7818609E-02  0.1012881E+00
        1   -1    0    0  501    0  0.00000000000E+00  0.00000000000E+00  0.93251590217E+03  0.93251590218E+03  0.50400001928E-02 0. -1.
       -1   -1    0    0    0  501  0.00000000000E+00  0.00000000000E+00 -0.67952066714E+02  0.67952066901E+02  0.50400001928E-02 0.  1.
    10030    2    1    2    0    0  0.00000000000E+00  0.00000000000E+00  0.86456383545E+03  0.10004679691E+04  0.50345360420E+03 0.  0.
        1    1    3    3  502    0  0.19769595270E+03  0.12141920244E+03  0.62637923156E+03  0.66796500970E+03  0.50400001928E-02 0.  1.
       -1    1    3    3    0  502 -0.19769595270E+03 -0.12141920244E+03  0.23818460390E+03  0.33250295938E+03  0.50400001928E-02 0. -1.
</event>
<event>
 5   0  0.1191894E-01  0.5002759E+03  0.7818609E-02  0.1013707E+00
        2   -1    0    0  501    0  0.00000000000E+00  0.00000000000E+00  0.36065863262E+02  0.36065863352E+02  0.25500000920E-02 0.  1.
       -2   -1    0    0    0  501  0.00000000000E+00  0.00000000000E+00 -0.17348535928E+04  0.17348535928E+04  0.25500000920E-02 0. -1.
    10030    2    1    2    0    0  0.00000000000E+00  0.00000000000E+00 -0.16987877295E+04  0.17709194561E+04  0.50027589403E+03 0.  0.
        3    1    3    3  502    0 -0.21673911439E+03  0.81813857037E+02 -0.51544863582E+03  0.56511649885E+03  0.10100000352E+00 0.  1.
       -3    1    3    3    0  502  0.21673911439E+03 -0.81813857037E+02 -0.11833390937E+04  0.12058029573E+04  0.10100000352E+00 0. -1.
</event>
<event>
 5   0  0.7812547E-02  0.4920609E+03  0.7818609E-02  0.1015872E+00
       -1   -1    0    0    0  501  0.00000000000E+00  0.00000000000E+00  0.21812445766E+03  0.21812445771E+03  0.50400001928E-02 0. -1.
        1   -1    0    0  501    0  0.00000000000E+00  0.00000000000E+00 -0.27750665261E+03  0.27750665265E+03  0.50400001928E-02 0.  1.
    10030    2    1    2    0    0  0.00000000000E+00  0.00000000000E+00 -0.59382194951E+02  0.49563111037E+03  0.49206092355E+03 0.  0.
        4    1    3    3  502    0 -0.14169921177E+03  0.81589954126E+02  0.15547356977E+03  0.22563074043E+03  0.12699999809E+01 0.  1.
       -4    1    3    3    0  502  0.14169921177E+03 -0.81589954126E+02 -0.21485576472E+03  0.27000036994E+03  0.12699999809E+01 0. -1.
</event>
<event>
 5   0  0.7416638E-02  0.4991886E+03  0.7818609E-02  0.1013991E+00
        1   -1    0    0  501    0  0.00000000000E+00  0.00000000000E+00  0.11437875215E+03  0.11437875226E+03  0.50400001928E-02 0.  1.
       -1   -1    0    0    0  501  0.00000000000E+00  0.00000000000E+00 -0.54465813367E+03  0.54465813369E+03  0.50400001928E-02 0. -1.
    10030    2    1    2    0    0  0.00000000000E+00  0.00000000000E+00 -0.43027938152E+03  0.65903688595E+03  0.49918861253E+03 0.  0.
        1    1    3    3  502    0  0.17489542821E+03  0.13355303655E+03 -0.59642583227E+02  0.22799575027E+03  0.50400001928E-02 0.  1.
       -1    1    3    3    0  502 -0.17489542821E+03 -0.13355303655E+03 -0.37063679829E+03  0.43104113569E+03  0.50400001928E-02 0. -1.
</event>
<event>
 5   0  0.5006750E-02  0.4972007E+03  0.7818609E-02  0.1014512E+00
        3   -1    0    0  501    0  0.00000000000E+00  0.00000000000E+00  0.40581253295E+03  0.40581254551E+03  0.10100000352E+00 0.  1.
       -3   -1    0    0    0  501  0.00000000000E+00  0.00000000000E+00 -0.15229229059E+03  0.15229232408E+03  0.10100000352E+00 0. -1.
    10030    2    1    2    0    0  0.00000000000E+00  0.00000000000E+00  0.25352024236E+03  0.55810486960E+03  0.49720069608E+03 0.  0.
        2    1    3    3  502    0  0.35952824350E+02 -0.78668744323E+02  0.38837773918E+03  0.39789275592E+03  0.25500000920E-02 0.  1.
       -2    1    3    3    0  502 -0.35952824350E+02  0.78668744323E+02 -0.13485749683E+03  0.16021211368E+03  0.25500000920E-02 0. -1.
</event>
<event>
 5   0  0.7416638E-02  0.4981814E+03  0.7818609E-02  0.1014255E+00
        1   -1    0    0  501    0  0.00000000000E+00  0.00000000000E+00  0.60084717934E+03  0.60084717936E+03  0.50400001928E-02 0. -1.
       -1   -1    0    0    0  501  0.00000000000E+00  0.00000000000E+00 -0.10326450790E+03  0.10326450802E+03  0.50400001928E-02 0.  1.
    10030    2    1    2    0    0  0.00000000000E+00  0.00000000000E+00  0.49758267144E+03  0.70411168738E+03  0.49818144625E+03 0.  0.
        1    1    3    3  502    0 -0.59850035532E+02  0.53109894677E+02 -0.84605310179E+02  0.11645061701E+03  0.50400001928E-02 0.  1.
       -1    1    3    3    0  502  0.59850035532E+02 -0.53109894677E+02  0.58218798162E+03  0.58766107038E+03  0.50400001928E-02 0. -1.
</event>
<event>
 5   0  0.7531632E-02  0.4934001E+03  0.7818609E-02  0.1015516E+00
       -1   -1    0    0    0  501  0.00000000000E+00  0.00000000000E+00  0.14712730214E+03  0.14712730222E+03  0.50400001928E-02 0. -1.
        1   -1    0    0  501    0  0.00000000000E+00  0.00000000000E+00 -0.41366159830E+03  0.41366159833E+03  0.50400001928E-02 0.  1.
    10030    2    1    2    0    0  0.00000000000E+00  0.00000000000E+00 -0.26653429616E+03  0.56078890055E+03  0.49340010129E+03 0.  0.
        3    1    3    3  502    0 -0.70086483474E+02  0.18887738821E+03 -0.29510168186E+03  0.35731190266E+03  0.10100000352E+00 0.  1.
       -3    1    3    3    0  502  0.70086483474E+02 -0.18887738821E+03  0.28567385699E+02  0.20347699789E+03  0.10100000352E+00 0. -1.
</event>
<event>
 5   0  0.1211345E-01  0.5004606E+03  0.7818609E-02  0.1013659E+00
        2   -1    0    0  501    0  0.00000000000E+00  0.00000000000E+00  0.20881058736E+03  0.20881058737E+03  0.25500000920E-02 0.  1.
       -2   -1    0    0    0  501  0.00000000000E+00  0.00000000000E+00 -0.29986605585E+03  0.29986605586E+03  0.25500000920E-02 0. -1.
    10030    2    1    2    0    0  0.00000000000E+00  0.00000000000E+00 -0.91055468497E+02  0.50867664324E+03  0.50046061686E+03 0.  0.
        5    1    3    3  502    0 -0.87772759300E+02 -0.78169178109E+01  0.19247005161E+03  0.21173561874E+03  0.46999998093E+01 0.  1.
       -5    1    3    3    0  502  0.87772759300E+02  0.78169178109E+01 -0.28352552011E+03  0.29694102450E+03  0.46999998093E+01 0. -1.
</event>
<event>
 5   0  0.7812547E-02  0.5108104E+03  0.7818609E-02  0.1010995E+00
        1   -1    0    0  501    0  0.00000000000E+00  0.00000000000E+00  0.31943962559E+03  0.31943962563E+03  0.50400001928E-02 0.  1.
       -1   -1    0    0    0  501  0.00000000000E+00  0.00000000000E+00 -0.20420699413E+03  0.20420699419E+03  0.50400001928E-02 0. -1.
    10030    2    1    2    0    0  0.00000000000E+00  0.00000000000E+00  0.11523263147E+03  0.52364661982E+03  0.51081035923E+03 0.  0.
        4    1    3    3  502    0  0.20746290845E+03 -0.10541794177E+03 -0.50272833337E+02  0.23808143880E+03  0.12699999809E+01 0. -1.
       -4    1    3    3    0  502 -0.20746290845E+03  0.10541794177E+03  0.16550546481E+03  0.28556518102E+03  0.12699999809E+01 0.  1.
</event>
<event>
 5   0  0.7416638E-02  0.4407773E+03  0.7818609E-02  0.1030509E+00
        1   -1    0    0  501    0  0.00000000000E+00  0.00000000000E+00  0.56665376670E+02  0.56665376894E+02  0.50400001928E-02 0.  1.
       -1   -1    0    0    0  501  0.00000000000E+00  0.00000000000E+00 -0.85715761037E+03  0.85715761038E+03  0.50400001928E-02 0. -1.
    10030    2    1    2    0    0  0.00000000000E+00  0.00000000000E+00 -0.80049223370E+03  0.91382298728E+03  0.44077730870E+03 0.  0.
        1    1    3    3  502    0 -0.16241767827E+03 -0.14164362283E+03 -0.30459187245E+03  0.37312012394E+03  0.50400001928E-02 0. -1.
       -1    1    3    3    0  502  0.16241767827E+03  0.14164362283E+03 -0.49590036125E+03  0.54070286333E+03  0.50400001928E-02 0.  1.
</event>
<event>
 5   0  0.7416638E-02  0.5034693E+03  0.7818609E-02  0.1012877E+00
        1   -1    0    0  501    0  0.00000000000E+00  0.00000000000E+00  0.25034572457E+03  0.25034572462E+03  0.50400001928E-02 0.  1.
       -1   -1    0    0    0  501  0.00000000000E+00  0.00000000000E+00 -0.25313133058E+03  0.25313133063E+03  0.50400001928E-02 0. -1.
    10030    2    1    2    0    0  0.00000000000E+00  0.00000000000E+00 -0.27856060080E+01  0.50347705525E+03  0.50346934917E+03 0.  0.
        1    1    3    3  502    0  0.10958275008E+02  0.24452155706E+03  0.57425362614E+02  0.25141310220E+03  0.50400001928E-02 0.  1.
       -1    1    3    3    0  502 -0.10958275008E+02 -0.24452155706E+03 -0.60210968622E+02  0.25206395305E+03  0.50400001928E-02 0. -1.
</event>
<event>
 5   0  0.1211345E-01  0.4969778E+03  0.7818609E-02  0.1014571E+00
       -2   -1    0    0    0  501  0.00000000000E+00  0.00000000000E+00  0.33623474205E+03  0.33623474206E+03  0.25500000920E-02 0.  1.
        2   -1    0    0  501    0  0.00000000000E+00  0.00000000000E+00 -0.18364173186E+03  0.18364173188E+03  0.25500000920E-02 0. -1.
    10030    2    1    2    0    0  0.00000000000E+00  0.00000000000E+00  0.15259301019E+03  0.51987647393E+03  0.49697778762E+03 0.  0.
        5    1    3    3  502    0  0.19834993778E+03  0.92070296119E+02  0.19964922538E+03  0.29614445873E+03  0.46999998093E+01 0.  1.
       -5    1    3    3    0  502 -0.19834993778E+03 -0.92070296119E+02 -0.47056215187E+02  0.22373201521E+03  0.46999998093E+01 0. -1.
</event>
<event>
 5   0  0.5006750E-02  0.4988526E+03  0.7818609E-02  0.1014079E+00
       -3   -1    0    0    0  501  0.00000000000E+00  0.00000000000E+00  0.39992960876E+03  0.39992962151E+03  0.10100000352E+00 0. -1.
        3   -1    0    0  501    0  0.00000000000E+00  0.00000000000E+00 -0.15556102483E+03  0.15556105762E+03  0.10100000352E+00 0.  1.
    10030    2    1    2    0    0  0.00000000000E+00  0.00000000000E+00  0.24436858392E+03  0.55549067913E+03  0.49885257321E+03 0.  0.
        3    1    3    3  502    0 -0.59192805012E+02  0.18453165926E+03 -0.52671974450E+02  0.20082347604E+03  0.10100000352E+00 0.  1.
       -3    1    3    3    0  502  0.59192805012E+02 -0.18453165926E+03  0.29704055837E+03  0.35466720310E+03  0.10100000352E+00 0. -1.
</event>
<event>
 5   0  0.1243803E-01  0.4947142E+03  0.7818609E-02  0.1015168E+00
       -2   -1    0    0    0  501  0.00000000000E+00  0.00000000000E+00  0.11171175629E+03  0.11171175632E+03  0.25500000920E-02 0.  1.
        2   -1    0    0  501    0  0.00000000000E+00  0.00000000000E+00 -0.54770907136E+03  0.54770907136E+03  0.25500000920E-02 0. -1.
    10030    2    1    2    0    0  0.00000000000E+00  0.00000000000E+00 -0.43599731506E+03  0.65942082768E+03  0.49471422987E+03 0.  0.
        4    1    3    3  502    0  0.21663210668E+03  0.10890965215E+03 -0.28320547213E+03  0.37282399912E+03  0.12699999809E+01 0. -1.
       -4    1    3    3    0  502 -0.21663210668E+03 -0.10890965215E+03 -0.15279184293E+03  0.28659682856E+03  0.12699999809E+01 0.  1.
</event>
<event>
 5   0  0.7602288E-02  0.5009066E+03  0.7818609E-02  0.1013543E+00
       -1   -1    0    0    0  501  0.00000000000E+00  0.00000000000E+00  0.42823281253E+02  0.42823281550E+02  0.50400001928E-02 0. -1.
        1   -1    0    0  501    0  0.00000000000E+00  0.00000000000E+00 -0.14647839355E+04  0.14647839355E+04  0.50400001928E-02 0.  1.
    10030    2    1    2    0    0  0.00000000000E+00  0.00000000000E+00 -0.14219606542E+04  0.15076072170E+04  0.50090659678E+03 0.  0.
        5    1    3    3  502    0  0.23287093755E+03 -0.91439921987E+02 -0.67875599045E+03  0.72340992353E+03  0.46999998093E+01 0. -1.
       -5    1    3    3    0  502 -0.23287093755E+03  0.91439921987E+02 -0.74320466376E+03  0.78419729349E+03  0.46999998093E+01 0.  1.
</event>
<event>
 5   0  0.1243803E-01  0.4935094E+03  0.7818609E-02  0.1015487E+00
        2   -1    0    0  501    0  0.00000000000E+00  0.00000000000E+00  0.72938093365E+03  0.72938093366E+03  0.25500000920E-02 0. -1.
       -2   -1    0    0    0  501  0.00000000000E+00  0.00000000000E+00 -0.83478852525E+02  0.83478852564E+02  0.25500000920E-02 0.  1.
    10030    2    1    2    0    0  0.00000000000E+00  0.00000000000E+00  0.64590208113E+03  0.81285978622E+03  0.49350940584E+03 0.  0.
        4    1    3    3  502    0 -0.47437712251E+02 -0.11766953929E+03 -0.25634871522E+02  0.12944194281E+03  0.12699999809E+01 0.  1.
       -4    1    3    3    0  502  0.47437712251E+02  0.11766953929E+03  0.67153695265E+03  0.68341784341E+03  0.12699999809E+01 0. -1.
</event>
<event>
 5   0  0.7531632E-02  0.4805936E+03  0.7818609E-02  0.1018972E+00
        1   -1    0    0  501    0  0.00000000000E+00  0.00000000000E+00  0.52186467866E+03  0.52186467868E+03  0.50400001928E-02 0.  1.
       -1   -1    0    0    0  501  0.00000000000E+00  0.00000000000E+00 -0.11064661010E+03  0.11064661022E+03  0.50400001928E-02 0. -1.
    10030    2    1    2    0    0  0.00000000000E+00  0.00000000000E+00  0.41121806856E+03  0.63251128890E+03  0.48059362322E+03 0.  0.
        3    1    3    3  502    0 -0.10433640960E+03  0.15675277098E+03  0.91387436769E+01  0.18852332592E+03  0.10100000352E+00 0. -1.
       -3    1    3    3    0  502  0.10433640960E+03 -0.15675277098E+03  0.40207932488E+03  0.44398796298E+03  0.10100000352E+00 0.  1.
</event>
<event>
 5   0  0.1279188E-01  0.4929575E+03  0.7818609E-02  0.1015634E+00
       -2   -1    0    0    0  501  0.00000000000E+00  0.00000000000E+00  0.74714555717E+02  0.74714555760E+02  0.25500000920E-02 0.  1.
        2   -1    0    0  501    0  0.00000000000E+00  0.00000000000E+00 -0.81311841973E+03  0.81311841973E+03  0.25500000920E-02 0. -1.
    10030    2    1    2    0    0  0.00000000000E+00  0.00000000000E+00 -0.73840386401E+03  0.88783297549E+03  0.49295752959E+03 0.  0.
        2    1    3    3  502    0  0.82565175050E+02  0.13703307701E+02  0.48338803104E+02  0.96651066549E+02  0.25500000920E-02 0.  1.
       -2    1    3    3    0  502 -0.82565175050E+02 -0.13703307701E+02 -0.78674266711E+03  0.79118190894E+03  0.25500000920E-02 0. -1.
</event>
<event>
 5   0  0.1231822E-01  0.5053392E+03  0.7818609E-02  0.1012395E+00
       -2   -1    0    0    0  501  0.00000000000E+00  0.00000000000E+00  0.11568160502E+03  0.11568160504E+03  0.25500000920E-02 0. -1.
        2   -1    0    0  501    0  0.00000000000E+00  0.00000000000E+00 -0.55187611888E+03  0.55187611888E+03  0.25500000920E-02 0.  1.
    10030    2    1    2    0    0  0.00000000000E+00  0.00000000000E+00 -0.43619451386E+03  0.66755772393E+03  0.50533915428E+03 0.  0.
        1    1    3    3  502    0  0.14360896052E+03 -0.40972159154E+02 -0.48733588245E+03  0.50970433951E+03  0.50400001928E-02 0.  1.
       -1    1    3    3    0  502 -0.14360896052E+03  0.40972159154E+02  0.51141368587E+02  0.15785338442E+03  0.50400001928E-02 0. -1.
</event>
<event>
 5   0  0.5006750E-02  0.4301056E+03  0.7818609E-02  0.1033827E+00
        3   -1    0    0  501    0  0.00000000000E+00  0.00000000000E+00  0.14391908786E+03  0.14391912330E+03  0.10100000352E+00 0.  1.
       -3   -1    0    0    0  501  0.00000000000E+00  0.00000000000E+00 -0.32134507224E+03  0.32134508811E+03  0.10100000352E+00 0. -1.
    10030    2    1    2    0    0  0.00000000000E+00  0.00000000000E+00 -0.17742598438E+03  0.46526421142E+03  0.43010557599E+03 0.  0.
        1    1    3    3  502    0  0.14027062260E+03  0.77020194417E+02  0.66696207664E+02  0.17336764997E+03  0.50400001928E-02 0.  1.
       -1    1    3    3    0  502 -0.14027062260E+03 -0.77020194417E+02 -0.24412219204E+03  0.29189656145E+03  0.50400001928E-02 0. -1.
</event>
<event>
 5   0  0.7812547E-02  0.4993068E+03  0.7818609E-02  0.1013960E+00
        1   -1    0    0  501    0  0.00000000000E+00  0.00000000000E+00  0.24776690844E+03  0.24776690849E+03  0.50400001928E-02 0. -1.
       -1   -1    0    0    0  501  0.00000000000E+00  0.00000000000E+00 -0.25155430327E+03  0.25155430332E+03  0.50400001928E-02 0.  1.
    10030    2    1    2    0    0  0.00000000000E+00  0.00000000000E+00 -0.37873948294E+01  0.49932121181E+03  0.49930684774E+03 0.  0.
        4    1    3    3  502    0 -0.23410558648E+03  0.50181472509E+02  0.68830422391E+02  0.24912415730E+03  0.12699999809E+01 0.  1.
       -4    1    3    3    0  502  0.23410558648E+03 -0.50181472509E+02 -0.72617817220E+02  0.25019705451E+03  0.12699999809E+01 0. -1.
</event>
<event>
 5   0  0.1231822E-01  0.4931177E+03  0.7818609E-02  0.1015591E+00
       -2   -1    0    0    0  501  0.00000000000E+00  0.00000000000E+00  0.54181681203E+02  0.54181681263E+02  0.25500000920E-02 0. -1.
        2   -1    0    0  501    0  0.00000000000E+00  0.00000000000E+00 -0.11219895024E+04  0.11219895024E+04  0.25500000920E-02 0.  1.
    10030    2    1    2    0    0  0.00000000000E+00  0.00000000000E+00 -0.10678078212E+04  0.11761711836E+04  0.49311774483E+03 0.  0.
        1    1    3    3  502    0 -0.44921808727E+02 -0.16292522862E+03 -0.96209847822E+03  0.97682960686E+03  0.50400001928E-02 0.  1.
       -1    1    3    3    0  502  0.44921808727E+02  0.16292522862E+03 -0.10570934295E+03  0.19934157678E+03  0.50400001928E-02 0. -1.
</event>
<event>
 5   0  0.5006750E-02  0.4984819E+03  0.7818609E-02  0.1014176E+00
       -4   -1    0    0    0  501  0.00000000000E+00  0.00000000000E+00  0.44059665646E+03  0.44059848682E+03  0.12699999809E+01 0.  1.
        4   -1    0    0  501    0  0.00000000000E+00  0.00000000000E+00 -0.14098800721E+03  0.14099372708E+03  0.12699999809E+01 0. -1.
    10030    2    1    2    0    0  0.00000000000E+00  0.00000000000E+00  0.29960864925E+03  0.58159221390E+03  0.49848185580E+03 0.  0.
        4    1    3    3  502    0  0.62814470355E+02 -0.23117918782E+03  0.23004556369E+03  0.33213257720E+03  0.12699999809E+01 0.  1.
       -4    1    3    3    0  502 -0.62814470355E+02  0.23117918782E+03  0.69563085564E+02  0.24945963670E+03  0.12699999809E+01 0. -1.
</event>
<event>
 5   0  0.1243803E-01  0.4889928E+03  0.7818609E-02  0.1016693E+00
       -2   -1    0    0    0  501  0.00000000000E+00  0.00000000000E+00  0.61464975605E+02  0.61464975658E+02  0.25500000920E-02 0. -1.
        2   -1    0    0  501    0  0.00000000000E+00  0.00000000000E+00 -0.97256165421E+03  0.97256165421E+03  0.25500000920E-02 0.  1.
    10030    2    1    2    0    0  0.00000000000E+00  0.00000000000E+00 -0.91109667860E+03  0.10340266299E+04  0.48899275405E+03 0.  0.
        4    1    3    3  502    0  0.17495258637E+03 -0.45581596421E+02 -0.10749963365E+03  0.21034227712E+03  0.12699999809E+01 0.  1.
       -4    1    3    3    0  502 -0.17495258637E+03  0.45581596421E+02 -0.80359704496E+03  0.82368435275E+03  0.12699999809E+01 0. -1.
</event>
<event>
 5   0  0.1191894E-01  0.4537514E+03  0.7818609E-02  0.1026609E+00
        2   -1    0    0  501    0  0.00000000000E+00  0.00000000000E+00  0.39364966132E+03  0.39364966133E+03  0.25500000920E-02 0.  1.
       -2   -1    0    0    0  501  0.00000000000E+00  0.00000000000E+00 -0.13075732567E+03  0.13075732569E+03  0.25500000920E-02 0. -1.
    10030    2    1    2    0    0  0.00000000000E+00  0.00000000000E+00  0.26289233565E+03  0.52440698702E+03  0.45375137233E+03 0.  0.
        3    1    3    3  502    0  0.28397438372E+02  0.75792045568E+02  0.37639687464E+03  0.38500060535E+03  0.10100000352E+00 0.  1.
       -3    1    3    3    0  502 -0.28397438372E+02 -0.75792045568E+02 -0.11350453899E+03  0.13940638167E+03  0.10100000352E+00 0. -1.
</event>
<event>
 5   0  0.7781754E-02  0.4982055E+03  0.7818609E-02  0.1014248E+00
        1   -1    0    0  501    0  0.00000000000E+00  0.00000000000E+00  0.73175919820E+03  0.73175919821E+03  0.50400001928E-02 0. -1.
       -1   -1    0    0    0  501  0.00000000000E+00  0.00000000000E+00 -0.84798648223E+02  0.84798648372E+02  0.50400001928E-02 0.  1.
    10030    2    1    2    0    0  0.00000000000E+00  0.00000000000E+00  0.64696054997E+03  0.81655784659E+03  0.49820554353E+03 0.  0.
        2    1    3    3  502    0  0.10348353797E+03  0.12084068807E+03  0.63764191575E+03  0.65718987153E+03  0.25500000920E-02 0. -1.
       -2    1    3    3    0  502 -0.10348353797E+03 -0.12084068807E+03  0.93186342273E+01  0.15936797505E+03  0.25500000920E-02 0.  1.
</event>
<event>
 5   0  0.7812547E-02  0.4908849E+03  0.7818609E-02  0.1016186E+00
       -1   -1    0    0    0  501  0.00000000000E+00  0.00000000000E+00  0.65675427860E+02  0.65675428053E+02  0.50400001928E-02 0. -1.
        1   -1    0    0  501    0  0.00000000000E+00  0.00000000000E+00 -0.91726835255E+03  0.91726835256E+03  0.50400001928E-02 0.  1.
    10030    2    1    2    0    0  0.00000000000E+00  0.00000000000E+00 -0.85159292469E+03  0.98294378061E+03  0.49088488108E+03 0.  0.
        4    1    3    3  502    0  0.14069026273E+03  0.34966440756E+02 -0.82237100674E+03  0.83505214666E+03  0.12699999809E+01 0.  1.
       -4    1    3    3    0  502 -0.14069026273E+03 -0.34966440756E+02 -0.29221917943E+02  0.14789163396E+03  0.12699999809E+01 0. -1.
</event>
<event>
 5   0  0.7531632E-02  0.4871484E+03  0.7818609E-02  0.1017189E+00
       -1   -1    0    0    0  501  0.00000000000E+00  0.00000000000E+00  0.19435296237E+03  0.19435296243E+03  0.50400001928E-02 0. -1.
        1   -1    0    0  501    0  0.00000000000E+00  0.00000000000E+00 -0.30526106072E+03  0.30526106076E+03  0.50400001928E-02 0.  1.
    10030    2    1    2    0    0  0.00000000000E+00  0.00000000000E+00 -0.11090809835E+03  0.49961402319E+03  0.48714840233E+03 0.  0.
        3    1    3    3  502    0 -0.18561972366E+03  0.31854277327E+02 -0.21387021451E+03  0.28497342973E+03  0.10100000352E+00 0.  1.
       -3    1    3    3    0  502  0.18561972366E+03 -0.31854277327E+02  0.10296211616E+03  0.21464059346E+03  0.10100000352E+00 0. -1.
</event>
<event>
 5   0  0.7531632E-02  0.5436297E+03  0.7818609E-02  0.1002979E+00
        1   -1    0    0  501    0  0.00000000000E+00  0.00000000000E+00  0.42028885548E+03  0.42028885551E+03  0.50400001928E-02 0. -1.
       -1   -1    0    0    0  501  0.00000000000E+00  0.00000000000E+00 -0.17579175562E+03  0.17579175569E+03  0.50400001928E-02 0.  1.
    10030    2    1    2    0    0  0.00000000000E+00  0.00000000000E+00  0.24449709986E+03  0.59608061120E+03  0.54362971148E+03 0.  0.
        3    1    3    3  502    0 -0.83054645330E+02 -0.20969767637E+03 -0.44085088888E+02  0.22981447920E+03  0.10100000352E+00 0.  1.
       -3    1    3    3    0  502  0.83054645330E+02  0.20969767637E+03  0.28858218875E+03  0.36626613200E+03  0.10100000352E+00 0. -1.
</event>
<event>
 5   0  0.1191894E-01  0.4976827E+03  0.7818609E-02  0.1014386E+00
        2   -1    0    0  501    0  0.00000000000E+00  0.00000000000E+00  0.26239713764E+03  0.26239713765E+03  0.25500000920E-02 0.  1.
       -2   -1    0    0    0  501  0.00000000000E+00  0.00000000000E+00 -0.23598589715E+03  0.23598589716E+03  0.25500000920E-02 0. -1.
    10030    2    1    2    0    0  0.00000000000E+00  0.00000000000E+00  0.26411240492E+02  0.49838303482E+03  0.49768272601E+03 0.  0.
        3    1    3    3  502    0  0.11680960532E+03  0.21154158452E+03 -0.46272297886E+02  0.24603955298E+03  0.10100000352E+00 0. -1.
       -3    1    3    3    0  502 -0.11680960532E+03 -0.21154158452E+03  0.72683538378E+02  0.25234348184E+03  0.10100000352E+00 0.  1.
</event>
<event>
 5   0  0.1211345E-01  0.4974816E+03  0.7818609E-02  0.1014438E+00
       -2   -1    0    0    0  501  0.00000000000E+00  0.00000000000E+00  0.42294135849E+03  0.42294135850E+03  0.25500000920E-02 0.  1.
        2   -1    0    0  501    0  0.00000000000E+00  0.00000000000E+00 -0.14628976866E+03  0.14628976868E+03  0.25500000920E-02 0. -1.
    10030    2    1    2    0    0  0.00000000000E+00  0.00000000000E+00  0.27665158983E+03  0.56923112718E+03  0.49748163182E+03 0.  0.
        5    1    3    3  502    0  0.92857002119E+02  0.61284064441E+01 -0.12556623408E+03  0.15636159806E+03  0.46999998093E+01 0. -1.
       -5    1    3    3    0  502 -0.92857002119E+02 -0.61284064441E+01  0.40221782391E+03  0.41286952913E+03  0.46999998093E+01 0.  1.
</event>
<event>
 5   0  0.1279188E-01  0.5082854E+03  0.7818609E-02  0.1011639E+00
       -2   -1    0    0    0  501  0.00000000000E+00  0.00000000000E+00  0.86579484630E+02  0.86579484668E+02  0.25500000920E-02 0. -1.
        2   -1    0    0  501    0  0.00000000000E+00  0.00000000000E+00 -0.74600247879E+03  0.74600247880E+03  0.25500000920E-02 0.  1.
    10030    2    1    2    0    0  0.00000000000E+00  0.00000000000E+00 -0.65942299416E+03  0.83258196346E+03  0.50828539292E+03 0.  0.
        2    1    3    3  502    0 -0.19033964401E+03  0.16840209090E+03 -0.33013185201E+03  0.41662391197E+03  0.25500000920E-02 0. -1.
       -2    1    3    3    0  502  0.19033964401E+03 -0.16840209090E+03 -0.32929114215E+03  0.41595805150E+03  0.25500000920E-02 0.  1.
</event>
<event>
 5   0  0.7416638E-02  0.4966878E+03  0.7818609E-02  0.1014647E+00
       -1   -1    0    0    0  501  0.00000000000E+00  0.00000000000E+00  0.25188362483E+03  0.25188362488E+03  0.50400001928E-02 0. -1.
        1   -1    0    0  501    0  0.00000000000E+00  0.00000000000E+00 -0.24485388148E+03  0.24485388153E+03  0.50400001928E-02 0.  1.
    10030    2    1    2    0    0  0.00000000000E+00  0.00000000000E+00  0.70297433511E+01  0.49673750641E+03  0.49668776206E+03 0.  0.
        1    1    3    3  502    0 -0.15953398482E+03  0.11192712880E+03 -0.15043530006E+03  0.24619007698E+03  0.50400001928E-02 0.  1.
       -1    1    3    3    0  502  0.15953398482E+03 -0.11192712880E+03  0.15746504341E+03  0.25054742943E+03  0.50400001928E-02 0. -1.
</event>
<event>
 5   0  0.1279188E-01  0.5047802E+03  0.7818609E-02  0.1012539E+00
        2   -1    0    0  501    0  0.00000000000E+00  0.00000000000E+00  0.12011043102E+03  0.12011043104E+03  0.25500000920E-02 0.  1.
       -2   -1    0    0    0  501  0.00000000000E+00  0.00000000000E+00 -0.53035166035E+03  0.53035166035E+03  0.25500000920E-02 0. -1.
    10030    2    1    2    0    0  0.00000000000E+00  0.00000000000E+00 -0.41024122933E+03  0.65046209140E+03  0.50478021564E+03 0.  0.
        2    1    3    3  502    0  0.22146945872E+03  0.11408146139E+03 -0.15297644567E+03  0.29234413611E+03  0.25500000920E-02 0.  1.
       -2    1    3    3    0  502 -0.22146945872E+03 -0.11408146139E+03 -0.25726478366E+03  0.35811795529E+03  0.25500000920E-02 0. -1.
</event>
<event>
 5   0  0.7416638E-02  0.4778696E+03  0.7818609E-02  0.1019722E+00
        1   -1    0    0  501    0  0.00000000000E+00  0.00000000000E+00  0.11526288600E+04  0.11526288600E+04  0.50400001928E-02 0.  1.
       -1   -1    0    0    0  501  0.00000000000E+00  0.00000000000E+00 -0.49530104104E+02  0.49530104360E+02  0.50400001928E-02 0. -1.
    10030    2    1    2    0    0  0.00000000000E+00  0.00000000000E+00  0.11030987559E+04  0.12021589643E+04  0.47786955370E+03 0.  0.
        1    1    3    3  502    0  0.15583669967E+03  0.16665835627E+03  0.37313681571E+03  0.43736845787E+03  0.50400001928E-02 0. -1.
       -1    1    3    3    0  502 -0.15583669967E+03 -0.16665835627E+03  0.72996194015E+03  0.76479050646E+03  0.50400001928E-02 0.  1.
</event>
<event>
 5   0  0.7602288E-02  0.4939481E+03  0.7818609E-02  0.1015371E+00
        1   -1    0    0  501    0  0.00000000000E+00  0.00000000000E+00  0.29118880972E+03  0.29118880976E+03  0.50400001928E-02 0. -1.
       -1   -1    0    0    0  501  0.00000000000E+00  0.00000000000E+00 -0.20947294146E+03  0.20947294152E+03  0.50400001928E-02 0.  1.
    10030    2    1    2    0    0  0.00000000000E+00  0.00000000000E+00  0.81715868256E+02  0.50066175128E+03  0.49394808034E+03 0.  0.
        5    1    3    3  502    0  0.16879400648E+03 -0.18016012494E+03  0.35790047796E+02  0.24950371692E+03  0.46999998093E+01 0. -1.
       -5    1    3    3    0  502 -0.16879400648E+03  0.18016012494E+03  0.45925820460E+02  0.25115803436E+03  0.46999998093E+01 0.  1.
</event>
<event>
 5   0  0.1243803E-01  0.5033388E+03  0.7818609E-02  0.1012911E+00
       -2   -1    0    0    0  501  0.00000000000E+00  0.00000000000E+00  0.47438363476E+02  0.47438363544E+02  0.25500000920E-02 0. -1.
        2   -1    0    0  501    0  0.00000000000E+00  0.00000000000E+00 -0.13351530707E+04  0.13351530707E+04  0.25500000920E-02 0.  1.
    10030    2    1    2    0    0  0.00000000000E+00  0.00000000000E+00 -0.12877147072E+04  0.13825914342E+04  0.50333875953E+03 0.  0.
        4    1    3    3  502    0  0.62740479105E+02  0.24283031641E+03 -0.70101101992E+03  0.74452736231E+03  0.12699999809E+01 0. -1.
       -4    1    3    3    0  502 -0.62740479105E+02 -0.24283031641E+03 -0.58670368726E+03  0.63806407189E+03  0.12699999809E+01 0.  1.
</event>
<event>
 5   0  0.7416638E-02  0.4827395E+03  0.7818609E-02  0.1018385E+00
        1   -1    0    0  501    0  0.00000000000E+00  0.00000000000E+00  0.33405277174E+03  0.33405277178E+03  0.50400001928E-02 0.  1.
       -1   -1    0    0    0  501  0.00000000000E+00  0.00000000000E+00 -0.17440168629E+03  0.17440168637E+03  0.50400001928E-02 0. -1.
    10030    2    1    2    0    0  0.00000000000E+00  0.00000000000E+00  0.15965108544E+03  0.50845445814E+03  0.48273954357E+03 0.  0.
        1    1    3    3  502    0  0.52037593515E+02  0.98736680917E+02 -0.14559001496E+03  0.18344834635E+03  0.50400001928E-02 0. -1.
       -1    1    3    3    0  502 -0.52037593515E+02 -0.98736680917E+02  0.30524110041E+03  0.32500611179E+03  0.50400001928E-02 0.  1.
</event>
<event>
 5   0  0.7602288E-02  0.5045172E+03  0.7818609E-02  0.1012607E+00
       -1   -1    0    0    0  501  0.00000000000E+00  0.00000000000E+00  0.96021939755E+02  0.96021939887E+02  0.50400001928E-02 0. -1.
        1   -1    0    0  501    0  0.00000000000E+00  0.00000000000E+00 -0.66270687688E+03  0.66270687690E+03  0.50400001928E-02 0.  1.
    10030    2    1    2    0    0  0.00000000000E+00  0.00000000000E+00 -0.56668493712E+03  0.75872881678E+03  0.50451719441E+03 0.  0.
        5    1    3    3  502    0 -0.33717877505E+02  0.19279151820E+03 -0.52258016418E+03  0.55804801115E+03  0.46999998093E+01 0.  1.
       -5    1    3    3    0  502  0.33717877505E+02 -0.19279151820E+03 -0.44104772940E+02  0.20068080563E+03  0.46999998093E+01 0. -1.
</event>
<event>
 5   0  0.7416638E-02  0.5006346E+03  0.7818609E-02  0.1013613E+00
       -1   -1    0    0    0  501  0.00000000000E+00  0.00000000000E+00  0.18701459459E+03  0.18701459465E+03  0.50400001928E-02 0.  1.
        1   -1    0    0  501    0  0.00000000000E+00  0.00000000000E+00 -0.33504741749E+03  0.33504741753E+03  0.50400001928E-02 0. -1.
    10030    2    1    2    0    0  0.00000000000E+00  0.00000000000E+00 -0.14803282290E+03  0.52206201218E+03  0.50063462516E+03 0.  0.
        1    1    3    3  502    0  0.35496995633E+02 -0.22584093487E+03 -0.18033395692E+03  0.29117778178E+03  0.50400001928E-02 0. -1.
       -1    1    3    3    0  502 -0.35496995633E+02  0.22584093487E+03  0.32301134016E+02  0.23088423040E+03  0.50400001928E-02 0.  1.
</event>
<event>
 5   0  0.7781754E-02  0.4992575E+03  0.7818609E-02  0.1013973E+00
        1   -1    0    0  501    0  0.00000000000E+00  0.00000000000E+00  0.55160636636E+03  0.55160636638E+03  0.50400001928E-02 0.  1.
       -1   -1    0    0    0  501  0.00000000000E+00  0.00000000000E+00 -0.11296917655E+03  0.11296917666E+03  0.50400001928E-02 0. -1.
    10030    2    1    2    0    0  0.00000000000E+00  0.00000000000E+00  0.43863718981E+03  0.66457554305E+03  0.49925751685E+03 0.  0.
        2    1    3    3  502    0 -0.77821873931E+01  0.65253856986E+02  0.53988525060E+03  0.54387012431E+03  0.25500000920E-02 0.  1.
       -2    1    3    3    0  502  0.77821873931E+01 -0.65253856986E+02 -0.10124806079E+03  0.12070541874E+03  0.25500000920E-02 0. -1.
</event>
<event>
 5   0  0.7781754E-02  0.4967959E+03  0.7818609E-02  0.1014619E+00
       -1   -1    0    0    0  501  0.00000000000E+00  0.00000000000E+00  0.33508308208E+03  0.33508308212E+03  0.50400001928E-02 0. -1.
        1   -1    0    0  501    0  0.00000000000E+00  0.00000000000E+00 -0.18413805182E+03  0.18413805189E+03  0.50400001928E-02 0.  1.
    10030    2    1    2    0    0  0.00000000000E+00  0.00000000000E+00  0.15094503027E+03  0.51922113401E+03  0.49679591770E+03 0.  0.
        2    1    3    3  502    0  0.20962291320E+03  0.13263625024E+03  0.61949952825E+02  0.25567936420E+03  0.25500000920E-02 0. -1.
       -2    1    3    3    0  502 -0.20962291320E+03 -0.13263625024E+03  0.88995077441E+02  0.26354176981E+03  0.25500000920E-02 0.  1.
</event>
<event>
 5   0  0.5006750E-02  0.5033030E+03  0.7818609E-02  0.1012920E+00
       -3   -1    0    0    0  501  0.00000000000E+00  0.00000000000E+00  0.34315833665E+03  0.34315835151E+03  0.10100000352E+00 0.  1.
        3   -1    0    0  501    0  0.00000000000E+00  0.00000000000E+00 -0.18454594090E+03  0.18454596854E+03  0.10100000352E+00 0. -1.
    10030    2    1    2    0    0  0.00000000000E+00  0.00000000000E+00  0.15861239575E+03  0.52770432006E+03  0.50330304720E+03 0.  0.
        1    1    3    3  502    0 -0.58552364359E+02 -0.19096631622E+00 -0.17730450561E+03  0.18672253098E+03  0.50400001928E-02 0. -1.
       -1    1    3    3    0  502  0.58552364359E+02  0.19096631622E+00  0.33591690136E+03  0.34098178908E+03  0.50400001928E-02 0.  1.
</event>
<event>
 5   0  0.5006750E-02  0.4983712E+03  0.7818609E-02  0.1014205E+00
       -3   -1    0    0    0  501  0.00000000000E+00  0.00000000000E+00  0.91710413012E+03  0.91710413568E+03  0.10100000352E+00 0.  1.
        3   -1    0    0  501    0  0.00000000000E+00  0.00000000000E+00 -0.67705977105E+02  0.67706052438E+02  0.10100000352E+00 0. -1.
    10030    2    1    2    0    0  0.00000000000E+00  0.00000000000E+00  0.84939815302E+03  0.98481018812E+03  0.49837123139E+03 0.  0.
        3    1    3    3  502    0  0.12004984130E+03 -0.57203202982E+02  0.84112377826E+03  0.85157113113E+03  0.10100000352E+00 0.  1.
       -3    1    3    3    0  502 -0.12004984130E+03  0.57203202982E+02  0.82743747573E+01  0.13323905699E+03  0.10100000352E+00 0. -1.
</event>
<event>
 5   0  0.7602288E-02  0.5027120E+03  0.7818609E-02  0.1013073E+00
       -1   -1    0    0    0  501  0.00000000000E+00  0.00000000000E+00  0.33567138858E+02  0.33567139237E+02  0.50400001928E-02 0. -1.
        1   -1    0    0  501    0  0.00000000000E+00  0.00000000000E+00 -0.18821934872E+04  0.18821934872E+04  0.50400001928E-02 0.  1.
    10030    2    1    2    0    0  0.00000000000E+00  0.00000000000E+00 -0.18486263483E+04  0.19157606264E+04  0.50271204685E+03 0.  0.
        5    1    3    3  502    0 -0.17774492394E+03  0.15320395100E+03 -0.58148373054E+03  0.62706469161E+03  0.46999998093E+01 0. -1.
       -5    1    3    3    0  502  0.17774492394E+03 -0.15320395100E+03 -0.12671426178E+04  0.12886959348E+04  0.46999998093E+01 0.  1.
</event>
<event>
 5   0  0.1231822E-01  0.4886736E+03  0.7818609E-02  0.1016778E+00
        2   -1    0    0  501    0  0.00000000000E+00  0.00000000000E+00  0.64793948548E+03  0.64793948548E+03  0.25500000920E-02 0.  1.
       -2   -1    0    0    0  501  0.00000000000E+00  0.00000000000E+00 -0.92138967161E+02  0.92138967196E+02  0.25500000920E-02 0. -1.
    10030    2    1    2    0    0  0.00000000000E+00  0.00000000000E+00  0.55580051832E+03  0.74007845268E+03  0.48867361291E+03 0.  0.
        1    1    3    3  502    0  0.35889602086E+02  0.27536560356E+01  0.64390208226E+03  0.64490738694E+03  0.50400001928E-02 0.  1.
       -1    1    3    3    0  502 -0.35889602086E+02 -0.27536560356E+01 -0.88101563945E+02  0.95171065742E+02  0.50400001928E-02 0. -1.
</event>
<event>
 5   0  0.7781754E-02  0.5043779E+03  0.7818609E-02  0.1012642E+00
       -1   -1    0    0    0  501  0.00000000000E+00  0.00000000000E+00  0.19241952978E+03  0.19241952985E+03  0.50400001928E-02 0. -1.
        1   -1    0    0  501    0  0.00000000000E+00  0.00000000000E+00 -0.33052400648E+03  0.33052400652E+03  0.50400001928E-02 0.  1.
    10030    2    1    2    0    0  0.00000000000E+00  0.00000000000E+00 -0.13810447670E+03  0.52294353637E+03  0.50437792948E+03 0.  0.
        2    1    3    3  502    0  0.13237394921E+03 -0.71519175788E+02 -0.27889124492E+03  0.31688827911E+03  0.25500000920E-02 0.  1.
       -2    1    3    3    0  502 -0.13237394921E+03  0.71519175788E+02  0.14078676822E+03  0.20605525727E+03  0.25500000920E-02 0. -1.
</event>
<event>
 5   0  0.1191894E-01  0.4901708E+03  0.7818609E-02  0.1016377E+00
        2   -1    0    0  501    0  0.00000000000E+00  0.00000000000E+00  0.94701857155E+03  0.94701857156E+03  0.25500000920E-02 0.  1.
       -2   -1    0    0    0  501  0.00000000000E+00  0.00000000000E+00 -0.63427325935E+02  0.63427325987E+02  0.25500000920E-02 0. -1.
    10030    2    1    2    0    0  0.00000000000E+00  0.00000000000E+00  0.88359124562E+03  0.10104458975E+04  0.49017080954E+03 0.  0.
        3    1    3    3  502    0  0.11394466681E+02  0.20372264160E+03  0.16191260191E+03  0.26047734916E+03  0.10100000352E+00 0. -1.
       -3    1    3    3    0  502 -0.11394466681E+02 -0.20372264160E+03  0.72167864371E+03  0.74996854838E+03  0.10100000352E+00 0.  1.
</event>
<event>
 5   0  0.7812547E-02  0.5014620E+03  0.7818609E-02  0.1013398E+00
       -1   -1    0    0    0  501  0.00000000000E+00  0.00000000000E+00  0.34563806594E+03  0.34563806598E+03  0.50400001928E-02 0.  1.
        1   -1    0    0  501    0  0.00000000000E+00  0.00000000000E+00 -0.18188398043E+03  0.18188398050E+03  0.50400001928E-02 0. -1.
    10030    2    1    2    0    0  0.00000000000E+00  0.00000000000E+00  0.16375408551E+03  0.52752204647E+03  0.50146197163E+03 0.  0.
        4    1    3    3  502    0  0.14150927017E+03 -0.75045314053E+02 -0.12104034658E+03  0.20077114111E+03  0.12699999809E+01 0. -1.
       -4    1    3    3    0  502 -0.14150927017E+03  0.75045314053E+02  0.28479443209E+03  0.32675090536E+03  0.12699999809E+01 0.  1.
</event>
<event>
 5   0  0.1231822E-01  0.5197615E+03  0.7818609E-02  0.1008746E+00
       -2   -1    0    0    0  501  0.00000000000E+00  0.00000000000E+00  0.65231166466E+02  0.65231166516E+02  0.25500000920E-02 0.  1.
        2   -1    0    0  501    0  0.00000000000E+00  0.00000000000E+00 -0.10353640377E+04  0.10353640377E+04  0.25500000920E-02 0. -1.
    10030    2    1    2    0    0  0.00000000000E+00  0.00000000000E+00 -0.97013287121E+03  0.11005952042E+04  0.51976149886E+03 0.  0.
        1    1    3    3  502    0  0.78893518669E+02 -0.33819295976E+02 -0.10044805835E+04  0.10081414458E+04  0.50400001928E-02 0. -1.
       -1    1    3    3    0  502 -0.78893518669E+02  0.33819295976E+02  0.34347712328E+02  0.92453758365E+02  0.50400001928E-02 0.  1.
</event>
<event>
 5   0  0.7416638E-02  0.5029147E+03  0.7818609E-02  0.1013021E+00
        1   -1    0    0  501    0  0.00000000000E+00  0.00000000000E+00  0.96585402873E+03  0.96585402875E+03  0.50400001928E-02 0.  1.
       -1   -1    0    0    0  501  0.00000000000E+00  0.00000000000E+00 -0.65466207300E+02  0.65466207494E+02  0.50400001928E-02 0. -1.
    10030    2    1    2    0    0  0.00000000000E+00  0.00000000000E+00  0.90038782144E+03  0.10313202362E+04  0.50291470519E+03 0.  0.
        1    1    3    3  502    0  0.13223162621E+03 -0.88938895158E+02  0.51307930658E+02  0.16741515408E+03  0.50400001928E-02 0. -1.
       -1    1    3    3    0  502 -0.13223162621E+03  0.88938895158E+02  0.84907989078E+03  0.86390508216E+03  0.50400001928E-02 0.  1.
</event>
<event>
 5   0  0.1243803E-01  0.4264900E+03  0.7818609E-02  0.1034975E+00
        2   -1    0    0  501    0  0.00000000000E+00  0.00000000000E+00  0.68694895198E+03  0.68694895198E+03  0.25500000920E-02 0. -1.
       -2   -1    0    0    0  501  0.00000000000E+00  0.00000000000E+00 -0.66196232326E+02  0.66196232375E+02  0.25500000920E-02 0.  1.
    10030    2    1    2    0    0  0.00000000000E+00  0.00000000000E+00  0.62075271965E+03  0.75314518436E+03  0.42649001133E+03 0.  0.
        4    1    3    3  502    0  0.62162814729E+02 -0.13584034217E+03  0.57909159071E+03  0.59805141704E+03  0.12699999809E+01 0. -1.
       -4    1    3    3    0  502 -0.62162814729E+02  0.13584034217E+03  0.41661128940E+02  0.15509376731E+03  0.12699999809E+01 0.  1.
</event>
<event>
 5   0  0.5006750E-02  0.5102137E+03  0.7818609E-02  0.1011147E+00
        3   -1    0    0  501    0  0.00000000000E+00  0.00000000000E+00  0.30830399255E+03  0.30830400910E+03  0.10100000352E+00 0. -1.
       -3   -1    0    0    0  501  0.00000000000E+00  0.00000000000E+00 -0.21108875818E+03  0.21108878234E+03  0.10100000352E+00 0.  1.
    10030    2    1    2    0    0  0.00000000000E+00  0.00000000000E+00  0.97215234376E+02  0.51939279144E+03  0.51021374932E+03 0.  0.
        2    1    3    3  502    0  0.19719944479E+03 -0.15473447982E+03  0.32934301814E+00  0.25066010600E+03  0.25500000920E-02 0.  1.
       -2    1    3    3    0  502 -0.19719944479E+03  0.15473447982E+03  0.96885891358E+02  0.26873268543E+03  0.25500000920E-02 0. -1.
</event>
<event>
 5   0  0.1243803E-01  0.4989595E+03  0.7818609E-02  0.1014051E+00
       -2   -1    0    0    0  501  0.00000000000E+00  0.00000000000E+00  0.27106955986E+03  0.27106955987E+03  0.25500000920E-02 0. -1.
        2   -1    0    0  501    0  0.00000000000E+00  0.00000000000E+00 -0.22960947789E+03  0.22960947790E+03  0.25500000920E-02 0.  1.
    10030    2    1    2    0    0  0.00000000000E+00  0.00000000000E+00  0.41460081972E+02  0.50067903777E+03  0.49895947778E+03 0.  0.
        4    1    3    3  502    0 -0.13888195615E+03 -0.16099841062E+03  0.15167821058E+03  0.26118303626E+03  0.12699999809E+01 0. -1.
       -4    1    3    3    0  502  0.13888195615E+03  0.16099841062E+03 -0.11021812861E+03  0.23949600151E+03  0.12699999809E+01 0.  1.
</event>
<event>
 5   0  0.1211345E-01  0.4950229E+03  0.7818609E-02  0.1015086E+00
       -2   -1    0    0    0  501  0.00000000000E+00  0.00000000000E+00  0.22797387887E+03  0.22797387888E+03  0.25500000920E-02 0.  1.
        2   -1    0    0  501    0  0.00000000000E+00  0.00000000000E+00 -0.26872338809E+03  0.26872338810E+03  0.25500000920E-02 0. -1.
    10030    2    1    2    0    0  0.00000000000E+00  0.00000000000E+00 -0.40749509219E+02  0.49669726698E+03  0.49502288081E+03 0.  0.
        5    1    3    3  502    0 -0.76121720705E+02 -0.13506786738E+03  0.17315578732E+03  0.23247120648E+03  0.46999998093E+01 0.  1.
       -5    1    3    3    0  502  0.76121720705E+02  0.13506786738E+03 -0.21390529654E+03  0.26422606050E+03  0.46999998093E+01 0. -1.
</event>
<event>
 5   0  0.1279188E-01  0.5071069E+03  0.7818609E-02  0.1011940E+00
        2   -1    0    0  501    0  0.00000000000E+00  0.00000000000E+00  0.47508790548E+03  0.47508790548E+03  0.25500000920E-02 0. -1.
       -2   -1    0    0    0  501  0.00000000000E+00  0.00000000000E+00 -0.13532094103E+03  0.13532094105E+03  0.25500000920E-02 0.  1.
    10030    2    1    2    0    0  0.00000000000E+00  0.00000000000E+00  0.33976696445E+03  0.61040884654E+03  0.50710686231E+03 0.  0.
        2    1    3    3  502    0 -0.11098678886E+03 -0.25090403129E+02  0.44262839061E+03  0.45702022691E+03  0.25500000920E-02 0. -1.
       -2    1    3    3    0  502  0.11098678886E+03  0.25090403129E+02 -0.10286142616E+03  0.15338861962E+03  0.25500000920E-02 0.  1.
</event>
<event>
 5   0  0.1191894E-01  0.4980685E+03  0.7818609E-02  0.1014284E+00
        2   -1    0    0  501    0  0.00000000000E+00  0.00000000000E+00  0.25658323609E+03  0.25658323610E+03  0.25500000920E-02 0.  1.
       -2   -1    0    0    0  501  0.00000000000E+00  0.00000000000E+00 -0.24170737538E+03  0.24170737539E+03  0.25500000920E-02 0. -1.
    10030    2    1    2    0    0  0.00000000000E+00  0.00000000000E+00  0.14875860708E+02  0.49829061149E+03  0.49806851162E+03 0.  0.
        3    1    3    3  502    0 -0.88644130921E+02 -0.23229383022E+03 -0.67050230717E+01  0.24872308506E+03  0.10100000352E+00 0. -1.
       -3    1    3    3    0  502  0.88644130921E+02  0.23229383022E+03  0.21580883779E+02  0.24956752644E+03  0.10100000352E+00 0.  1.
</event>
<event>
 5   0  0.1191894E-01  0.4982463E+03  0.7818609E-02  0.1014238E+00
       -2   -1    0    0    0  501  0.00000000000E+00  0.00000000000E+00  0.99285085553E+02  0.99285085585E+02  0.25500000920E-02 0.  1.
        2   -1    0    0  501    0  0.00000000000E+00  0.00000000000E+00 -0.62509239274E+03  0.62509239275E+03  0.25500000920E-02 0. -1.
    10030    2    1    2    0    0  0.00000000000E+00  0.00000000000E+00 -0.52580730719E+03  0.72437747833E+03  0.49824633147E+03 0.  0.
        3    1    3    3  502    0  0.22486298608E+03 -0.10700003643E+03 -0.27318099353E+03  0.36964880053E+03  0.10100000352E+00 0.  1.
       -3    1    3    3    0  502 -0.22486298608E+03  0.10700003643E+03 -0.25262631366E+03  0.35472867781E+03  0.10100000352E+00 0. -1.
</event>
<event>
 5   0  0.1279188E-01  0.4999146E+03  0.7818609E-02  0.1013801E+00
       -2   -1    0    0    0  501  0.00000000000E+00  0.00000000000E+00  0.32868255842E+02  0.32868255941E+02  0.25500000920E-02 0.  1.
        2   -1    0    0  501    0  0.00000000000E+00  0.00000000000E+00 -0.19008810984E+04  0.19008810984E+04  0.25500000920E-02 0. -1.
    10030    2    1    2    0    0  0.00000000000E+00  0.00000000000E+00 -0.18680128426E+04  0.19337493544E+04  0.49991457816E+03 0.  0.
        2    1    3    3  502    0 -0.91185872464E+02 -0.23253140701E+03 -0.97129511359E+03  0.10028957654E+04  0.25500000920E-02 0. -1.
       -2    1    3    3    0  502  0.91185872464E+02  0.23253140701E+03 -0.89671772899E+03  0.93085358895E+03  0.25500000920E-02 0.  1.
</event>
<event>
 5   0  0.7602288E-02  0.4905672E+03  0.7818609E-02  0.1016271E+00
        1   -1    0    0  501    0  0.00000000000E+00  0.00000000000E+00  0.68629909500E+03  0.68629909502E+03  0.50400001928E-02 0.  1.
       -1   -1    0    0    0  501  0.00000000000E+00  0.00000000000E+00 -0.87664467661E+02  0.87664467806E+02  0.50400001928E-02 0. -1.
    10030    2    1    2    0    0  0.00000000000E+00  0.00000000000E+00  0.59863462734E+03  0.77396356282E+03  0.49056720185E+03 0.  0.
        5    1    3    3  502    0 -0.88302566294E+01  0.12159981705E+03 -0.36391746725E+02  0.12732218254E+03  0.46999998093E+01 0. -1.
       -5    1    3    3    0  502  0.88302566294E+01 -0.12159981705E+03  0.63502637406E+03  0.64664138028E+03  0.46999998093E+01 0.  1.
</event>
<event>
 5   0  0.1211345E-01  0.4992476E+03  0.7818609E-02  0.1013975E+00
        2   -1    0    0  501    0  0.00000000000E+00  0.00000000000E+00  0.35679262082E+03  0.35679262083E+03  0.25500000920E-02 0. -1.
       -2   -1    0    0    0  501  0.00000000000E+00  0.00000000000E+00 -0.17464501502E+03  0.17464501504E+03  0.25500000920E-02 0.  1.
    10030    2    1    2    0    0  0.00000000000E+00  0.00000000000E+00  0.18214760579E+03  0.53143763587E+03  0.49924764448E+03 0.  0.
        5    1    3    3  502    0 -0.97791862234E+02 -0.10165082831E+03  0.31024706734E+03  0.34083936394E+03  0.46999998093E+01 0. -1.
       -5    1    3    3    0  502  0.97791862234E+02  0.10165082831E+03 -0.12809946155E+03  0.19059827193E+03  0.46999998093E+01 0.  1.
</event>
<event>
 5   0  0.1191894E-01  0.5032369E+03  0.7818609E-02  0.1012937E+00
       -2   -1    0    0    0  501  0.00000000000E+00  0.00000000000E+00  0.10887446025E+03  0.10887446028E+03  0.25500000920E-02 0.  1.
        2   -1    0    0  501    0  0.00000000000E+00  0.00000000000E+00 -0.58151230998E+03  0.58151230999E+03  0.25500000920E-02 0. -1.
    10030    2    1    2    0    0  0.00000000000E+00  0.00000000000E+00 -0.47263784973E+03  0.69038677027E+03  0.50323687818E+03 0.  0.
        3    1    3    3  502    0  0.16187284678E+03  0.15886269426E+03 -0.38579635616E+03  0.44752543255E+03  0.10100000352E+00 0. -1.
       -3    1    3    3    0  502 -0.16187284678E+03 -0.15886269426E+03 -0.86841493577E+02  0.24286133772E+03  0.10100000352E+00 0.  1.
</event>
<event>
 5   0  0.7812547E-02  0.4394642E+03  0.7818609E-02  0.1030911E+00
        1   -1    0    0  501    0  0.00000000000E+00  0.00000000000E+00  0.35602963299E+03  0.35602963302E+03  0.50400001928E-02 0. -1.
       -1   -1    0    0    0  501  0.00000000000E+00  0.00000000000E+00 -0.13561286385E+03  0.13561286394E+03  0.50400001928E-02 0.  1.
    10030    2    1    2    0    0  0.00000000000E+00  0.00000000000E+00  0.22041676914E+03  0.49164249696E+03  0.43946421094E+03 0.  0.
        4    1    3    3  502    0  0.19879503848E+03  0.48789733482E+02  0.20845047042E+02  0.20575722176E+03  0.12699999809E+01 0.  1.
       -4    1    3    3    0  502 -0.19879503848E+03 -0.48789733482E+02  0.19957172210E+03  0.28588527521E+03  0.12699999809E+01 0. -1.
</event>
<event>
 5   0  0.1231822E-01  0.4962793E+03  0.7818609E-02  0.1014755E+00
        2   -1    0    0  501    0  0.00000000000E+00  0.00000000000E+00  0.43691479342E+03  0.43691479343E+03  0.25500000920E-02 0.  1.
       -2   -1    0    0    0  501  0.00000000000E+00  0.00000000000E+00 -0.14092746907E+03  0.14092746909E+03  0.25500000920E-02 0. -1.
    10030    2    1    2    0    0  0.00000000000E+00  0.00000000000E+00  0.29598732436E+03  0.57784226252E+03  0.49627934088E+03 0.  0.
        1    1    3    3  502    0 -0.16102677646E+03  0.21440447220E+02 -0.70407824970E+02  0.17704964659E+03  0.50400001928E-02 0. -1.
       -1    1    3    3    0  502  0.16102677646E+03 -0.21440447220E+02  0.36639514932E+03  0.40079261594E+03  0.50400001928E-02 0.  1.
</event>
<event>
 5   0  0.1279188E-01  0.5148839E+03  0.7818609E-02  0.1009965E+00
       -2   -1    0    0    0  501  0.00000000000E+00  0.00000000000E+00  0.48139681881E+03  0.48139681882E+03  0.25500000920E-02 0. -1.
        2   -1    0    0  501    0  0.00000000000E+00  0.00000000000E+00 -0.13767508999E+03  0.13767509002E+03  0.25500000920E-02 0.  1.
    10030    2    1    2    0    0  0.00000000000E+00  0.00000000000E+00  0.34372172882E+03  0.61907190884E+03  0.51488387181E+03 0.  0.
        2    1    3    3  502    0 -0.16328841750E+03  0.19903073138E+03  0.17173457394E+03  0.30946583530E+03  0.25500000920E-02 0. -1.
       -2    1    3    3    0  502  0.16328841750E+03 -0.19903073138E+03  0.17198715488E+03  0.30960607354E+03  0.25500000920E-02 0.  1.
</event>
<event>
 5   0  0.7781754E-02  0.4988078E+03  0.7818609E-02  0.1014091E+00
       -1   -1    0    0    0  501  0.00000000000E+00  0.00000000000E+00  0.62320892145E+02  0.62320892349E+02  0.50400001928E-02 0. -1.
        1   -1    0    0  501    0  0.00000000000E+00  0.00000000000E+00 -0.99809723744E+03  0.99809723745E+03  0.50400001928E-02 0.  1.
    10030    2    1    2    0    0  0.00000000000E+00  0.00000000000E+00 -0.93577634529E+03  0.10604181298E+04  0.49880782031E+03 0.  0.
        2    1    3    3  502    0 -0.88974595789E+02  0.55199765935E+02 -0.94910791899E+03  0.95486613447E+03  0.25500000920E-02 0.  1.
       -2    1    3    3    0  502  0.88974595789E+02 -0.55199765935E+02  0.13331573697E+02  0.10555199533E+03  0.25500000920E-02 0. -1.
</event>
<event>
 5   0  0.1211345E-01  0.5033207E+03  0.7818609E-02  0.1012916E+00
       -2   -1    0    0    0  501  0.00000000000E+00  0.00000000000E+00  0.66162474909E+02  0.66162474958E+02  0.25500000920E-02 0.  1.
        2   -1    0    0  501    0  0.00000000000E+00  0.00000000000E+00 -0.95723324083E+03  0.95723324083E+03  0.25500000920E-02 0. -1.
    10030    2    1    2    0    0  0.00000000000E+00  0.00000000000E+00 -0.89107076592E+03  0.10233957158E+04  0.50332065447E+03 0.  0.
        5    1    3    3  502    0  0.17174062093E+03 -0.14660287520E+03 -0.21981675627E+03  0.31516462401E+03  0.46999998093E+01 0.  1.
       -5    1    3    3    0  502 -0.17174062093E+03  0.14660287520E+03 -0.67125400965E+03  0.70823109178E+03  0.46999998093E+01 0. -1.
</event>
<event>
 5   0  0.7531632E-02  0.5131800E+03  0.7818609E-02  0.1010395E+00
        1   -1    0    0  501    0  0.00000000000E+00  0.00000000000E+00  0.57949282976E+03  0.57949282978E+03  0.50400001928E-02 0.  1.
       -1   -1    0    0    0  501  0.00000000000E+00  0.00000000000E+00 -0.11361389601E+03  0.11361389612E+03  0.50400001928E-02 0. -1.
    10030    2    1    2    0    0  0.00000000000E+00  0.00000000000E+00  0.46587893375E+03  0.69310672590E+03  0.51318003915E+03 0.  0.
        3    1    3    3  502    0  0.10404507987E+03  0.15230109346E+03  0.47385393405E+03  0.50848654135E+03  0.10100000352E+00 0.  1.
       -3    1    3    3    0  502 -0.10404507987E+03 -0.15230109346E+03 -0.79750003043E+01  0.18462018456E+03  0.10100000352E+00 0. -1.
</event>
<event>
 5   0  0.7531632E-02  0.4964969E+03  0.7818609E-02  0.1014697E+00
       -1   -1    0    0    0  501  0.00000000000E+00  0.00000000000E+00  0.40589947205E+02  0.40589947518E+02  0.50400001928E-02 0. -1.
        1   -1    0    0  501    0  0.00000000000E+00  0.00000000000E+00 -0.15182894208E+04  0.15182894208E+04  0.50400001928E-02 0.  1.
    10030    2    1    2    0    0  0.00000000000E+00  0.00000000000E+00 -0.14776994736E+04  0.15588793683E+04  0.49649687888E+03 0.  0.
        3    1    3    3  502    0  0.18031575568E+02 -0.21796679618E+03 -0.37011054316E+03  0.42990288009E+03  0.10100000352E+00 0. -1.
       -3    1    3    3    0  502 -0.18031575568E+02  0.21796679618E+03 -0.11075889304E+04  0.11289764882E+04  0.10100000352E+00 0.  1.
</event>
<event>
 5   0  0.7781754E-02  0.5074890E+03  0.7818609E-02  0.1011842E+00
       -1   -1    0    0    0  501  0.00000000000E+00  0.00000000000E+00  0.47684977909E+02  0.47684978175E+02  0.50400001928E-02 0. -1.
        1   -1    0    0  501    0  0.00000000000E+00  0.00000000000E+00 -0.13502422726E+04  0.13502422726E+04  0.50400001928E-02 0.  1.
    10030    2    1    2    0    0  0.00000000000E+00  0.00000000000E+00 -0.13025572946E+04  0.13979272507E+04  0.50748900729E+03 0.  0.
        2    1    3    3  502    0  0.20898948811E+03 -0.13539344690E+03 -0.51694352892E+03  0.57379317153E+03  0.25500000920E-02 0. -1.
       -2    1    3    3    0  502 -0.20898948811E+03  0.13539344690E+03 -0.78561376573E+03  0.82413407920E+03  0.25500000920E-02 0.  1.
</event>
<event>
 5   0  0.1243803E-01  0.5039220E+03  0.7818609E-02  0.1012760E+00
        2   -1    0    0  501    0  0.00000000000E+00  0.00000000000E+00  0.76845838788E+03  0.76845838788E+03  0.25500000920E-02 0. -1.
       -2   -1    0    0    0  501  0.00000000000E+00  0.00000000000E+00 -0.82612605980E+02  0.82612606019E+02  0.25500000920E-02 0.  1.
    10030    2    1    2    0    0  0.00000000000E+00  0.00000000000E+00  0.68584578190E+03  0.85107099390E+03  0.50392201789E+03 0.  0.
        4    1    3    3  502    0 -0.64309408329E+02  0.53318664423E+01 -0.68414256073E+02  0.94054516815E+02  0.12699999809E+01 0.  1.
       -4    1    3    3    0  502  0.64309408329E+02 -0.53318664423E+01  0.75426003797E+03  0.75701647709E+03  0.12699999809E+01 0. -1.
</event>
<event>
 5   0  0.1279188E-01  0.4978447E+03  0.7818609E-02  0.1014343E+00
       -2   -1    0    0    0  501  0.00000000000E+00  0.00000000000E+00  0.44300612375E+03  0.44300612375E+03  0.25500000920E-02 0. -1.
        2   -1    0    0  501    0  0.00000000000E+00  0.00000000000E+00 -0.13986789671E+03  0.13986789673E+03  0.25500000920E-02 0.  1.
    10030    2    1    2    0    0  0.00000000000E+00  0.00000000000E+00  0.30313822704E+03  0.58287402049E+03  0.49784469372E+03 0.  0.
        2    1    3    3  502    0 -0.15985443317E+03 -0.13995477187E+03  0.30341880332E+03  0.37041024310E+03  0.25500000920E-02 0. -1.
       -2    1    3    3    0  502  0.15985443317E+03  0.13995477187E+03 -0.28057628444E+00  0.21246377739E+03  0.25500000920E-02 0.  1.
</event>
<event>
 5   0  0.1243803E-01  0.5156118E+03  0.7818609E-02  0.1009782E+00
        2   -1    0    0  501    0  0.00000000000E+00  0.00000000000E+00  0.90442351912E+03  0.90442351912E+03  0.25500000920E-02 0.  1.
       -2   -1    0    0    0  501  0.00000000000E+00  0.00000000000E+00 -0.73487574857E+02  0.73487574901E+02  0.25500000920E-02 0. -1.
    10030    2    1    2    0    0  0.00000000000E+00  0.00000000000E+00  0.83093594426E+03  0.97791109402E+03  0.51561183496E+03 0.  0.
        4    1    3    3  502    0 -0.23616151474E+03 -0.27607930091E+01  0.21944326418E+03  0.32239237292E+03  0.12699999809E+01 0. -1.
       -4    1    3    3    0  502  0.23616151474E+03  0.27607930091E+01  0.61149268008E+03  0.65551872111E+03  0.12699999809E+01 0.  1.
</event>
<event>
 5   0  0.1231822E-01  0.5017397E+03  0.7818609E-02  0.1013326E+00
        2   -1    0    0  501    0  0.00000000000E+00  0.00000000000E+00  0.89778038144E+03  0.89778038144E+03  0.25500000920E-02 0. -1.
       -2   -1    0    0    0  501  0.00000000000E+00  0.00000000000E+00 -0.70101428776E+02  0.70101428823E+02  0.25500000920E-02 0.  1.
    10030    2    1    2    0    0  0.00000000000E+00  0.00000000000E+00  0.82767895266E+03  0.96788181027E+03  0.50173972333E+03 0.  0.
        1    1    3    3  502    0 -0.21302596433E+03 -0.72994957755E+02  0.62714899190E+03  0.66635139634E+03  0.50400001928E-02 0. -1.
       -1    1    3    3    0  502  0.21302596433E+03  0.72994957755E+02  0.20052996076E+03  0.30153041393E+03  0.50400001928E-02 0.  1.
</event>
<event>
 5   0  0.1191894E-01  0.5702140E+03  0.7818609E-02  0.9969205E-01
        2   -1    0    0  501    0  0.00000000000E+00  0.00000000000E+00  0.43568293961E+02  0.43568294036E+02  0.25500000920E-02 0.  1.
       -2   -1    0    0    0  501  0.00000000000E+00  0.00000000000E+00 -0.18657148450E+04  0.18657148450E+04  0.25500000920E-02 0. -1.
    10030    2    1    2    0    0  0.00000000000E+00  0.00000000000E+00 -0.18221465510E+04  0.19092831390E+04  0.57021404012E+03 0.  0.
        3    1    3    3  502    0  0.88358429767E+02 -0.20670717887E+02 -0.18160700584E+04  0.18183357660E+04  0.10100000352E+00 0. -1.
       -3    1    3    3    0  502 -0.88358429767E+02  0.20670717887E+02 -0.60764925793E+01  0.90947372980E+02  0.10100000352E+00 0.  1.
</event>
<event>
 5   0  0.7416638E-02  0.5003627E+03  0.7818609E-02  0.1013684E+00
       -1   -1    0    0    0  501  0.00000000000E+00  0.00000000000E+00  0.38025683150E+03  0.38025683153E+03  0.50400001928E-02 0.  1.
        1   -1    0    0  501    0  0.00000000000E+00  0.00000000000E+00 -0.16460116411E+03  0.16460116419E+03  0.50400001928E-02 0. -1.
    10030    2    1    2    0    0  0.00000000000E+00  0.00000000000E+00  0.21565566739E+03  0.54485799572E+03  0.50036273705E+03 0.  0.
        1    1    3    3  502    0 -0.13958873334E+03 -0.11394626958E+03  0.29681830707E+03  0.34723172992E+03  0.50400001928E-02 0.  1.
       -1    1    3    3    0  502  0.13958873334E+03  0.11394626958E+03 -0.81162639687E+02  0.19762626580E+03  0.50400001928E-02 0. -1.
</event>
<event>
 5   0  0.1279188E-01  0.5102798E+03  0.7818609E-02  0.1011130E+00
       -2   -1    0    0    0  501  0.00000000000E+00  0.00000000000E+00  0.81248675698E+02  0.81248675738E+02  0.25500000920E-02 0.  1.
        2   -1    0    0  501    0  0.00000000000E+00  0.00000000000E+00 -0.80119908676E+03  0.80119908676E+03  0.25500000920E-02 0. -1.
    10030    2    1    2    0    0  0.00000000000E+00  0.00000000000E+00 -0.71995041106E+03  0.88244776250E+03  0.51027978517E+03 0.  0.
        2    1    3    3  502    0 -0.15871479652E+03  0.17448805729E+03 -0.19177604522E+03  0.30399756627E+03  0.25500000920E-02 0.  1.
       -2    1    3    3    0  502  0.15871479652E+03 -0.17448805729E+03 -0.52817436584E+03  0.57845019622E+03  0.25500000920E-02 0. -1.
</event>
<event>
 5   0  0.7781754E-02  0.5013784E+03  0.7818609E-02  0.1013420E+00
       -1   -1    0    0    0  501  0.00000000000E+00  0.00000000000E+00  0.13708171207E+04  0.13708171207E+04  0.50400001928E-02 0. -1.
        1   -1    0    0  501    0  0.00000000000E+00  0.00000000000E+00 -0.45844980890E+02  0.45844981167E+02  0.50400001928E-02 0.  1.
    10030    2    1    2    0    0  0.00000000000E+00  0.00000000000E+00  0.13249721398E+04  0.14166621018E+04  0.50137843952E+03 0.  0.
        2    1    3    3  502    0  0.10394205880E+03  0.18071873589E+03  0.26911856595E+03  0.34042328891E+03  0.25500000920E-02 0.  1.
       -2    1    3    3    0  502 -0.10394205880E+03 -0.18071873589E+03  0.10558535738E+04  0.10762388129E+04  0.25500000920E-02 0. -1.
</event>
<event>
 5   0  0.1243803E-01  0.4955800E+03  0.7818609E-02  0.1014939E+00
       -2   -1    0    0    0  501  0.00000000000E+00  0.00000000000E+00  0.11938020396E+04  0.11938020396E+04  0.25500000920E-02 0.  1.
        2   -1    0    0  501    0  0.00000000000E+00  0.00000000000E+00 -0.51432208475E+02  0.51432208538E+02  0.25500000920E-02 0. -1.
    10030    2    1    2    0    0  0.00000000000E+00  0.00000000000E+00  0.11423698312E+04  0.12452342482E+04  0.49557996498E+03 0.  0.
        4    1    3    3  502    0  0.18360286595E+03  0.51388478757E+02  0.17351815940E+03  0.25780021853E+03  0.12699999809E+01 0. -1.
       -4    1    3    3    0  502 -0.18360286595E+03 -0.51388478757E+02  0.96885167177E+03  0.98743402966E+03  0.12699999809E+01 0.  1.
</event>
<event>
 5   0  0.1243803E-01  0.4512072E+03  0.7818609E-02  0.1027363E+00
        2   -1    0    0  501    0  0.00000000000E+00  0.00000000000E+00  0.93417843426E+03  0.93417843426E+03  0.25500000920E-02 0.  1.
       -2   -1    0    0    0  501  0.00000000000E+00  0.00000000000E+00 -0.54483149752E+02  0.54483149811E+02  0.25500000920E-02 0. -1.
    10030    2    1    2    0    0  0.00000000000E+00  0.00000000000E+00  0.87969528451E+03  0.98866158407E+03  0.45120719657E+03 0.  0.
        4    1    3    3  502    0  0.93194429183E+02  0.13292117579E+03  0.96584030234E+02  0.18890031340E+03  0.12699999809E+01 0. -1.
       -4    1    3    3    0  502 -0.93194429183E+02 -0.13292117579E+03  0.78311125427E+03  0.79976127068E+03  0.12699999809E+01 0.  1.
</event>
<event>
 5   0  0.7812547E-02  0.5098652E+03  0.7818609E-02  0.1011236E+00
       -1   -1    0    0    0  501  0.00000000000E+00  0.00000000000E+00  0.26040351345E+03  0.26040351350E+03  0.50400001928E-02 0.  1.
        1   -1    0    0  501    0  0.00000000000E+00  0.00000000000E+00 -0.24957665823E+03  0.24957665828E+03  0.50400001928E-02 0. -1.
    10030    2    1    2    0    0  0.00000000000E+00  0.00000000000E+00  0.10826855223E+02  0.50998017178E+03  0.50986523201E+03 0.  0.
        4    1    3    3  502    0  0.20080193141E+03 -0.13281913974E+03 -0.78430801155E+02  0.25321007683E+03  0.12699999809E+01 0. -1.
       -4    1    3    3    0  502 -0.20080193141E+03  0.13281913974E+03  0.89257656378E+02  0.25677009495E+03  0.12699999809E+01 0.  1.
</event>
<event>
 5   0  0.7531632E-02  0.4965310E+03  0.7818609E-02  0.1014688E+00
       -1   -1    0    0    0  501  0.00000000000E+00  0.00000000000E+00  0.28759375217E+03  0.28759375221E+03  0.50400001928E-02 0.  1.
        1   -1    0    0  501    0  0.00000000000E+00  0.00000000000E+00 -0.21431536609E+03  0.21431536615E+03  0.50400001928E-02 0. -1.
    10030    2    1    2    0    0  0.00000000000E+00  0.00000000000E+00  0.73278386079E+02  0.50190911837E+03  0.49653100732E+03 0.  0.
        3    1    3    3  502    0  0.23311767025E+02 -0.20898738538E+03  0.17004053712E+03  0.27043106367E+03  0.10100000352E+00 0. -1.
       -3    1    3    3    0  502 -0.23311767025E+02  0.20898738538E+03 -0.96762151043E+02  0.23147805470E+03  0.10100000352E+00 0.  1.
</event>
<event>
 5   0  0.1191894E-01  0.4986692E+03  0.7818609E-02  0.1014127E+00
        2   -1    0    0  501    0  0.00000000000E+00  0.00000000000E+00  0.96858266757E+03  0.96858266757E+03  0.25500000920E-02 0. -1.
       -2   -1    0    0    0  501  0.00000000000E+00  0.00000000000E+00 -0.64184236117E+02  0.64184236167E+02  0.25500000920E-02 0.  1.
    10030    2    1    2    0    0  0.00000000000E+00  0.00000000000E+00  0.90439843145E+03  0.10327669037E+04  0.49866918357E+03 0.  0.
        3    1    3    3  502    0  0.18396101741E+03 -0.41070881437E+02  0.79022577172E+03  0.81239476471E+03  0.10100000352E+00 0. -1.
       -3    1    3    3    0  502 -0.18396101741E+03  0.41070881437E+02  0.11417265973E+03  0.22037213903E+03  0.10100000352E+00 0.  1.
</event>
<event>
 5   0  0.7602288E-02  0.4651617E+03  0.7818609E-02  0.1023295E+00
       -1   -1    0    0    0  501  0.00000000000E+00  0.00000000000E+00  0.20481080725E+03  0.20481080731E+03  0.50400001928E-02 0. -1.
        1   -1    0    0  501    0  0.00000000000E+00  0.00000000000E+00 -0.26411619674E+03  0.26411619679E+03  0.50400001928E-02 0.  1.
    10030    2    1    2    0    0  0.00000000000E+00  0.00000000000E+00 -0.59305389491E+02  0.46892700410E+03  0.46516169872E+03 0.  0.
        5    1    3    3  502    0 -0.21725061987E+03  0.36222413183E+01 -0.11315317256E+03  0.24502384154E+03  0.46999998093E+01 0.  1.
       -5    1    3    3    0  502  0.21725061987E+03 -0.36222413183E+01  0.53847783072E+02  0.22390316256E+03  0.46999998093E+01 0. -1.
</event>
<event>
 5   0  0.7812547E-02  0.4939429E+03  0.7818609E-02  0.1015372E+00
       -1   -1    0    0    0  501  0.00000000000E+00  0.00000000000E+00  0.16166582763E+03  0.16166582771E+03  0.50400001928E-02 0. -1.
        1   -1    0    0  501    0  0.00000000000E+00  0.00000000000E+00 -0.37728995608E+03  0.37728995611E+03  0.50400001928E-02 0.  1.
    10030    2    1    2    0    0  0.00000000000E+00  0.00000000000E+00 -0.21562412844E+03  0.53895578382E+03  0.49394288348E+03 0.  0.
        4    1    3    3  502    0 -0.12261483125E+02  0.22600368231E+02  0.16019783756E+03  0.16225313763E+03  0.12699999809E+01 0. -1.
       -4    1    3    3    0  502  0.12261483125E+02 -0.22600368231E+02 -0.37582196600E+03  0.37670264619E+03  0.12699999809E+01 0.  1.
</event>
<event>
 5   0  0.5006750E-02  0.5007873E+03  0.7818609E-02  0.1013574E+00
        3   -1    0    0  501    0  0.00000000000E+00  0.00000000000E+00  0.33893571286E+03  0.33893572791E+03  0.10100000352E+00 0. -1.
       -3   -1    0    0    0  501  0.00000000000E+00  0.00000000000E+00 -0.18498192353E+03  0.18498195111E+03  0.10100000352E+00 0.  1.
    10030    2    1    2    0    0  0.00000000000E+00  0.00000000000E+00  0.15395378933E+03  0.52391767902E+03  0.50078734523E+03 0.  0.
        5    1    3    3  502    0  0.10503040086E+03  0.22707358929E+03  0.67555321469E+02  0.25919029981E+03  0.46999998093E+01 0.  1.
       -5    1    3    3    0  502 -0.10503040086E+03 -0.22707358929E+03  0.86398467861E+02  0.26472737921E+03  0.46999998093E+01 0. -1.
</event>
<event>
 5   0  0.1243803E-01  0.5054214E+03  0.7818609E-02  0.1012373E+00
        2   -1    0    0  501    0  0.00000000000E+00  0.00000000000E+00  0.25276998282E+03  0.25276998284E+03  0.25500000920E-02 0. -1.
       -2   -1    0    0    0  501  0.00000000000E+00  0.00000000000E+00 -0.25265143976E+03  0.25265143977E+03  0.25500000920E-02 0.  1.
    10030    2    1    2    0    0  0.00000000000E+00  0.00000000000E+00  0.11854306461E+00  0.50542142261E+03  0.50542140871E+03 0.  0.
        4    1    3    3  502    0  0.23848647722E+02  0.38817590903E+02  0.24862621872E+03  0.25276901095E+03  0.12699999809E+01 0. -1.
       -4    1    3    3    0  502 -0.23848647722E+02 -0.38817590903E+02 -0.24850767565E+03  0.25265241166E+03  0.12699999809E+01 0.  1.
</event>
<event>
 5   0  0.1231822E-01  0.5003664E+03  0.7818609E-02  0.1013683E+00
       -2   -1    0    0    0  501  0.00000000000E+00  0.00000000000E+00  0.82237908835E+03  0.82237908835E+03  0.25500000920E-02 0.  1.
        2   -1    0    0  501    0  0.00000000000E+00  0.00000000000E+00 -0.76110433346E+02  0.76110433389E+02  0.25500000920E-02 0. -1.
    10030    2    1    2    0    0  0.00000000000E+00  0.00000000000E+00  0.74626865500E+03  0.89848952174E+03  0.50036638101E+03 0.  0.
        1    1    3    3  502    0  0.18579766989E+03  0.74187652046E+01  0.72577542129E+02  0.19960789528E+03  0.50400001928E-02 0. -1.
       -1    1    3    3    0  502 -0.18579766989E+03 -0.74187652046E+01  0.67369111288E+03  0.69888162646E+03  0.50400001928E-02 0.  1.
</event>
<event>
 5   0  0.7781754E-02  0.4988891E+03  0.7818609E-02  0.1014069E+00
       -1   -1    0    0    0  501  0.00000000000E+00  0.00000000000E+00  0.70486411368E+02  0.70486411548E+02  0.50400001928E-02 0.  1.
        1   -1    0    0  501    0  0.00000000000E+00  0.00000000000E+00 -0.88275989339E+03  0.88275989341E+03  0.50400001928E-02 0. -1.
    10030    2    1    2    0    0  0.00000000000E+00  0.00000000000E+00 -0.81227348203E+03  0.95324630496E+03  0.49888907416E+03 0.  0.
        2    1    3    3  502    0 -0.16228114063E+03  0.18107529118E+03 -0.29976598321E+03  0.38598325660E+03  0.25500000920E-02 0. -1.
       -2    1    3    3    0  502  0.16228114063E+03 -0.18107529118E+03 -0.51250749882E+03  0.56726304836E+03  0.25500000920E-02 0.  1.
</event>
<event>
 5   0  0.1279188E-01  0.5061666E+03  0.7818609E-02  0.1012182E+00
        2   -1    0    0  501    0  0.00000000000E+00  0.00000000000E+00  0.44866964087E+03  0.44866964088E+03  0.25500000920E-02 0. -1.
       -2   -1    0    0    0  501  0.00000000000E+00  0.00000000000E+00 -0.14275796413E+03  0.14275796416E+03  0.25500000920E-02 0.  1.
    10030    2    1    2    0    0  0.00000000000E+00  0.00000000000E+00  0.30591167674E+03  0.59142760504E+03  0.50616663070E+03 0.  0.
        2    1    3    3  502    0  0.44191573869E+02 -0.24823260566E+03  0.12738737919E+03  0.28248870083E+03  0.25500000920E-02 0.  1.
       -2    1    3    3    0  502 -0.44191573869E+02  0.24823260566E+03  0.17852429755E+03  0.30893890421E+03  0.25500000920E-02 0. -1.
</event>
<event>
 5   0  0.5006750E-02  0.5003546E+03  0.7818609E-02  0.1013686E+00
        3   -1    0    0  501    0  0.00000000000E+00  0.00000000000E+00  0.84879195525E+02  0.84879255616E+02  0.10100000352E+00 0. -1.
       -3   -1    0    0    0  501  0.00000000000E+00  0.00000000000E+00 -0.73738499326E+03  0.73738500018E+03  0.10100000352E+00 0.  1.
    10030    2    1    2    0    0  0.00000000000E+00  0.00000000000E+00 -0.65250579773E+03  0.82226425579E+03  0.50035456456E+03 0.  0.
        4    1    3    3  502    0 -0.43458508773E+02 -0.23150767573E+03 -0.46475062554E+03  0.52103666161E+03  0.12699999809E+01 0.  1.
       -4    1    3    3    0  502  0.43458508773E+02  0.23150767573E+03 -0.18775517220E+03  0.30122759418E+03  0.12699999809E+01 0. -1.
</event>
<event>
 5   0  0.1231822E-01  0.4926154E+03  0.7818609E-02  0.1015725E+00
       -2   -1    0    0    0  501  0.00000000000E+00  0.00000000000E+00  0.11573856293E+03  0.11573856296E+03  0.25500000920E-02 0.  1.
        2   -1    0    0  501    0  0.00000000000E+00  0.00000000000E+00 -0.52417684231E+03  0.52417684232E+03  0.25500000920E-02 0. -1.
    10030    2    1    2    0    0  0.00000000000E+00  0.00000000000E+00 -0.40843827938E+03  0.63991540528E+03  0.49261536502E+03 0.  0.
        1    1    3    3  502    0  0.16290628734E+03  0.11764493035E+03 -0.38924889559E+03  0.43805649275E+03  0.50400001928E-02 0. -1.
       -1    1    3    3    0  502 -0.16290628734E+03 -0.11764493035E+03 -0.19189383785E+02  0.20185891253E+03  0.50400001928E-02 0.  1.
</event>
<event>
 5   0  0.1191894E-01  0.5025438E+03  0.7818609E-02  0.1013117E+00
       -2   -1    0    0    0  501  0.00000000000E+00  0.00000000000E+00  0.56837955794E+02  0.56837955851E+02  0.25500000920E-02 0. -1.
        2   -1    0    0  501    0  0.00000000000E+00  0.00000000000E+00 -0.11108345968E+04  0.11108345968E+04  0.25500000920E-02 0.  1.
    10030    2    1    2    0    0  0.00000000000E+00  0.00000000000E+00 -0.10539966410E+04  0.11676725527E+04  0.50254380006E+03 0.  0.
        3    1    3    3  502    0  0.12564745242E+03  0.14184901004E+03 -0.91040887485E+03  0.92992083187E+03  0.10100000352E+00 0.  1.
       -3    1    3    3    0  502 -0.12564745242E+03 -0.14184901004E+03 -0.14358776620E+03  0.23775172082E+03  0.10100000352E+00 0. -1.
</event>
<event>
 5   0  0.1279188E-01  0.5046351E+03  0.7818609E-02  0.1012576E+00
        2   -1    0    0  501    0  0.00000000000E+00  0.00000000000E+00  0.28010802343E+03  0.28010802344E+03  0.25500000920E-02 0.  1.
       -2   -1    0    0    0  501  0.00000000000E+00  0.00000000000E+00 -0.22728422606E+03  0.22728422608E+03  0.25500000920E-02 0. -1.
    10030    2    1    2    0    0  0.00000000000E+00  0.00000000000E+00  0.52823797367E+02  0.50739224952E+03  0.50463505755E+03 0.  0.
        2    1    3    3  502    0 -0.12433071344E+03 -0.15191727809E+03  0.18579344055E+03  0.27028908273E+03  0.25500000920E-02 0.  1.
       -2    1    3    3    0  502  0.12433071344E+03  0.15191727809E+03 -0.13296964319E+03  0.23710316679E+03  0.25500000920E-02 0. -1.
</event>
<event>
 5   0  0.7602288E-02  0.4982270E+03  0.7818609E-02  0.1014243E+00
       -1   -1    0    0    0  501  0.00000000000E+00  0.00000000000E+00  0.42907726259E+03  0.42907726262E+03  0.50400001928E-02 0. -1.
        1   -1    0    0  501    0  0.00000000000E+00  0.00000000000E+00 -0.14463019360E+03  0.14463019369E+03  0.50400001928E-02 0.  1.
    10030    2    1    2    0    0  0.00000000000E+00  0.00000000000E+00  0.28444706899E+03  0.57370745631E+03  0.49822696672E+03 0.  0.
        5    1    3    3  502    0  0.92461992370E+02  0.10364344541E+03 -0.95845074259E+02  0.16881810349E+03  0.46999998093E+01 0.  1.
       -5    1    3    3    0  502 -0.92461992370E+02 -0.10364344541E+03  0.38029214325E+03  0.40488935282E+03  0.46999998093E+01 0. -1.
</event>
<event>
 5   0  0.1243803E-01  0.5040058E+03  0.7818609E-02  0.1012739E+00
        2   -1    0    0  501    0  0.00000000000E+00  0.00000000000E+00  0.36967297841E+03  0.36967297842E+03  0.25500000920E-02 0. -1.
       -2   -1    0    0    0  501  0.00000000000E+00  0.00000000000E+00 -0.17178822955E+03  0.17178822957E+03  0.25500000920E-02 0.  1.
    10030    2    1    2    0    0  0.00000000000E+00  0.00000000000E+00  0.19788474886E+03  0.54146120799E+03  0.50400581934E+03 0.  0.
        4    1    3    3  502    0 -0.10381393369E+03 -0.22057727940E+03  0.30386365989E+02  0.24567582941E+03  0.12699999809E+01 0.  1.
       -4    1    3    3    0  502  0.10381393369E+03  0.22057727940E+03  0.16749838287E+03  0.29578537858E+03  0.12699999809E+01 0. -1.
</event>
<event>
 5   0  0.7531632E-02  0.5039491E+03  0.7818609E-02  0.1012753E+00
        1   -1    0    0  501    0  0.00000000000E+00  0.00000000000E+00  0.21021058570E+03  0.21021058576E+03  0.50400001928E-02 0. -1.
       -1   -1    0    0    0  501  0.00000000000E+00  0.00000000000E+00 -0.30203603071E+03  0.30203603075E+03  0.50400001928E-02 0.  1.
    10030    2    1    2    0    0  0.00000000000E+00  0.00000000000E+00 -0.91825445010E+02  0.51224661650E+03  0.50394908847E+03 0.  0.
        3    1    3    3  502    0 -0.21655447439E+03 -0.15993957827E+02 -0.17584348813E+03  0.27941472686E+03  0.10100000352E+00 0.  1.
       -3    1    3    3    0  502  0.21655447439E+03  0.15993957827E+02  0.84018043118E+02  0.23283188965E+03  0.10100000352E+00 0. -1.
</event>
<event>
 5   0  0.7416638E-02  0.4940102E+03  0.7818609E-02  0.1015354E+00
       -1   -1    0    0    0  501  0.00000000000E+00  0.00000000000E+00  0.57558228055E+02  0.57558228276E+02  0.50400001928E-02 0. -1.
        1   -1    0    0  501    0  0.00000000000E+00  0.00000000000E+00 -0.10599962798E+04  0.10599962798E+04  0.50400001928E-02 0.  1.
    10030    2    1    2    0    0  0.00000000000E+00  0.00000000000E+00 -0.10024380517E+04  0.11175545080E+04  0.49401015268E+03 0.  0.
        1    1    3    3  502    0  0.11935592143E+03  0.34645467066E+02 -0.18326749404E+02  0.12562648661E+03  0.50400001928E-02 0. -1.
       -1    1    3    3    0  502 -0.11935592143E+03 -0.34645467066E+02 -0.98411130230E+03  0.99192802144E+03  0.50400001928E-02 0.  1.
</event>
<event>
 5   0  0.1191894E-01  0.4986521E+03  0.7818609E-02  0.1014131E+00
        2   -1    0    0  501    0  0.00000000000E+00  0.00000000000E+00  0.94436832489E+03  0.94436832489E+03  0.25500000920E-02 0. -1.
       -2   -1    0    0    0  501  0.00000000000E+00  0.00000000000E+00 -0.65825452000E+02  0.65825452050E+02  0.25500000920E-02 0.  1.
    10030    2    1    2    0    0  0.00000000000E+00  0.00000000000E+00  0.87854287289E+03  0.10101937769E+04  0.49865207055E+03 0.  0.
        3    1    3    3  502    0  0.30563734429E+01  0.53171504624E+02 -0.54166949604E+02  0.75964590126E+02  0.10100000352E+00 0.  1.
       -3    1    3    3    0  502 -0.30563734429E+01 -0.53171504624E+02  0.93270982249E+03  0.93422918681E+03  0.10100000352E+00 0. -1.
</event>
<event>
 5   0  0.7602288E-02  0.5028679E+03  0.7818609E-02  0.1013033E+00
        1   -1    0    0  501    0  0.00000000000E+00  0.00000000000E+00  0.94693667342E+03  0.94693667344E+03  0.50400001928E-02 0. -1.
       -1   -1    0    0    0  501  0.00000000000E+00  0.00000000000E+00 -0.66761629929E+02  0.66761630119E+02  0.50400001928E-02 0.  1.
    10030    2    1    2    0    0  0.00000000000E+00  0.00000000000E+00  0.88017504349E+03  0.10136983036E+04  0.50286791848E+03 0.  0.
        5    1    3    3  502    0  0.88627865258E+02  0.43974429185E+02 -0.25776481916E+02  0.10234825812E+03  0.46999998093E+01 0.  1.
       -5    1    3    3    0  502 -0.88627865258E+02 -0.43974429185E+02  0.90595152541E+03  0.91135004543E+03  0.46999998093E+01 0. -1.
</event>
<event>
 5   0  0.7531632E-02  0.5021059E+03  0.7818609E-02  0.1013231E+00
       -1   -1    0    0    0  501  0.00000000000E+00  0.00000000000E+00  0.50335073554E+02  0.50335073807E+02  0.50400001928E-02 0.  1.
        1   -1    0    0  501    0  0.00000000000E+00  0.00000000000E+00 -0.12521603583E+04  0.12521603583E+04  0.50400001928E-02 0. -1.
    10030    2    1    2    0    0  0.00000000000E+00  0.00000000000E+00 -0.12018252847E+04  0.13024954321E+04  0.50210590081E+03 0.  0.
        3    1    3    3  502    0 -0.17607930412E+03  0.17862693947E+03 -0.57296541370E+03  0.62546053460E+03  0.10100000352E+00 0. -1.
       -3    1    3    3    0  502  0.17607930412E+03 -0.17862693947E+03 -0.62885987102E+03  0.67703489749E+03  0.10100000352E+00 0.  1.
</event>
<event>
 5   0  0.7812547E-02  0.4948345E+03  0.7818609E-02  0.1015136E+00
        1   -1    0    0  501    0  0.00000000000E+00  0.00000000000E+00  0.29714141138E+03  0.29714141142E+03  0.50400001928E-02 0. -1.
       -1   -1    0    0    0  501  0.00000000000E+00  0.00000000000E+00 -0.20601399313E+03  0.20601399319E+03  0.50400001928E-02 0.  1.
    10030    2    1    2    0    0  0.00000000000E+00  0.00000000000E+00  0.91127418244E+02  0.50315540461E+03  0.49483447216E+03 0.  0.
        4    1    3    3  502    0  0.18439666956E+03 -0.10698885937E+03 -0.82106094858E+02  0.22845518485E+03  0.12699999809E+01 0.  1.
       -4    1    3    3    0  502 -0.18439666956E+03  0.10698885937E+03  0.17323351310E+03  0.27470021976E+03  0.12699999809E+01 0. -1.
</event>
<event>
 5   0  0.7602288E-02  0.5000975E+03  0.7818609E-02  0.1013753E+00
       -1   -1    0    0    0  501  0.00000000000E+00  0.00000000000E+00  0.22425741001E+03  0.22425741006E+03  0.50400001928E-02 0.  1.
        1   -1    0    0  501    0  0.00000000000E+00  0.00000000000E+00 -0.27880625667E+03  0.27880625671E+03  0.50400001928E-02 0. -1.
    10030    2    1    2    0    0  0.00000000000E+00  0.00000000000E+00 -0.54548846662E+02  0.50306366678E+03  0.50009746666E+03 0.  0.
        5    1    3    3  502    0  0.37971971505E+01 -0.73584542393E+02  0.21304247814E+03  0.22547348198E+03  0.46999998093E+01 0.  1.
       -5    1    3    3    0  502 -0.37971971505E+01  0.73584542393E+02 -0.26759132480E+03  0.27759018479E+03  0.46999998093E+01 0. -1.
</event>
<event>
 5   0  0.7812547E-02  0.4952787E+03  0.7818609E-02  0.1015019E+00
       -1   -1    0    0    0  501  0.00000000000E+00  0.00000000000E+00  0.39822600316E+02  0.39822600635E+02  0.50400001928E-02 0.  1.
        1   -1    0    0  501    0  0.00000000000E+00  0.00000000000E+00 -0.15399606895E+04  0.15399606895E+04  0.50400001928E-02 0. -1.
    10030    2    1    2    0    0  0.00000000000E+00  0.00000000000E+00 -0.15001380892E+04  0.15797832902E+04  0.49527866620E+03 0.  0.
        4    1    3    3  502    0  0.13205094313E+03  0.12426038334E+03 -0.12880351630E+04  0.13007360564E+04  0.12699999809E+01 0. -1.
       -4    1    3    3    0  502 -0.13205094313E+03 -0.12426038334E+03 -0.21210292617E+03  0.27904723371E+03  0.12699999809E+01 0.  1.
</event>
<event>
 5   0  0.1191894E-01  0.5130749E+03  0.7818609E-02  0.1010421E+00
       -2   -1    0    0    0  501  0.00000000000E+00  0.00000000000E+00  0.34174154224E+02  0.34174154319E+02  0.25500000920E-02 0.  1.
        2   -1    0    0  501    0  0.00000000000E+00  0.00000000000E+00 -0.19257667839E+04  0.19257667839E+04  0.25500000920E-02 0. -1.
    10030    2    1    2    0    0  0.00000000000E+00  0.00000000000E+00 -0.18915926297E+04  0.19599409382E+04  0.51307485289E+03 0.  0.
        3    1    3    3  502    0 -0.20766537918E+03 -0.82106486723E+02 -0.46343187853E+03  0.51442735261E+03  0.10100000352E+00 0.  1.
       -3    1    3    3    0  502  0.20766537918E+03  0.82106486723E+02 -0.14281607511E+04  0.14455135856E+04  0.10100000352E+00 0. -1.
</event>
<event>
 5   0  0.7812547E-02  0.5017634E+03  0.7818609E-02  0.1013320E+00
       -1   -1    0    0    0  501  0.00000000000E+00  0.00000000000E+00  0.16036925808E+03  0.16036925816E+03  0.50400001928E-02 0. -1.
        1   -1    0    0  501    0  0.00000000000E+00  0.00000000000E+00 -0.39247931258E+03  0.39247931261E+03  0.50400001928E-02 0.  1.
    10030    2    1    2    0    0  0.00000000000E+00  0.00000000000E+00 -0.23211005449E+03  0.55284857077E+03  0.50176335539E+03 0.  0.
        4    1    3    3  502    0  0.24794632959E+02 -0.17133708093E+03  0.84004411179E+02  0.19243056702E+03  0.12699999809E+01 0. -1.
       -4    1    3    3    0  502 -0.24794632959E+02  0.17133708093E+03 -0.31611446567E+03  0.36041800376E+03  0.12699999809E+01 0.  1.
</event>
<event>
 5   0  0.1191894E-01  0.4967116E+03  0.7818609E-02  0.1014641E+00
        2   -1    0    0  501    0  0.00000000000E+00  0.00000000000E+00  0.17273247282E+03  0.17273247284E+03  0.25500000920E-02 0. -1.
       -2   -1    0    0    0  501  0.00000000000E+00  0.00000000000E+00 -0.35708743962E+03  0.35708743963E+03  0.25500000920E-02 0.  1.
    10030    2    1    2    0    0  0.00000000000E+00  0.00000000000E+00 -0.18435496681E+03  0.52981991247E+03  0.49671157211E+03 0.  0.
        3    1    3    3  502    0  0.26127772325E+02 -0.59368902041E+02 -0.34789290000E+03  0.35388812793E+03  0.10100000352E+00 0.  1.
       -3    1    3    3    0  502 -0.26127772325E+02  0.59368902041E+02  0.16353793320E+03  0.17593178454E+03  0.10100000352E+00 0. -1.
</event>
<event>
 5   0  0.1243803E-01  0.5160790E+03  0.7818609E-02  0.1009665E+00
        2   -1    0    0  501    0  0.00000000000E+00  0.00000000000E+00  0.57751887053E+03  0.57751887054E+03  0.25500000920E-02 0. -1.
       -2   -1    0    0    0  501  0.00000000000E+00  0.00000000000E+00 -0.11529384787E+03  0.11529384790E+03  0.25500000920E-02 0.  1.
    10030    2    1    2    0    0  0.00000000000E+00  0.00000000000E+00  0.46222502266E+03  0.69281271844E+03  0.51607895836E+03 0.  0.
        4    1    3    3  502    0 -0.19168437916E+03  0.82998706055E+02  0.43448921371E+03  0.48209353465E+03  0.12699999809E+01 0. -1.
       -4    1    3    3    0  502  0.19168437916E+03 -0.82998706055E+02  0.27735808948E+02  0.21071918379E+03  0.12699999809E+01 0.  1.
</event>
<event>
 5   0  0.7812547E-02  0.4988129E+03  0.7818609E-02  0.1014089E+00
        1   -1    0    0  501    0  0.00000000000E+00  0.00000000000E+00  0.49614109548E+03  0.49614109551E+03  0.50400001928E-02 0.  1.
       -1   -1    0    0    0  501  0.00000000000E+00  0.00000000000E+00 -0.12537478376E+03  0.12537478386E+03  0.50400001928E-02 0. -1.
    10030    2    1    2    0    0  0.00000000000E+00  0.00000000000E+00  0.37076631172E+03  0.62151587937E+03  0.49881292124E+03 0.  0.
        4    1    3    3  502    0  0.18616548015E+02  0.11594244767E+03  0.45953702384E+03  0.47430487686E+03  0.12699999809E+01 0.  1.
       -4    1    3    3    0  502 -0.18616548015E+02 -0.11594244767E+03 -0.88770712116E+02  0.14721100251E+03  0.12699999809E+01 0. -1.
</event>
<event>
 5   0  0.7416638E-02  0.4972886E+03  0.7818609E-02  0.1014489E+00
        1   -1    0    0  501    0  0.00000000000E+00  0.00000000000E+00  0.62825750760E+03  0.62825750762E+03  0.50400001928E-02 0. -1.
       -1   -1    0    0    0  501  0.00000000000E+00  0.00000000000E+00 -0.98405489915E+02  0.98405490044E+02  0.50400001928E-02 0.  1.
    10030    2    1    2    0    0  0.00000000000E+00  0.00000000000E+00  0.52985201769E+03  0.72666299767E+03  0.49728859984E+03 0.  0.
        1    1    3    3  502    0  0.14365693207E+03  0.12627420834E+03  0.32768836360E+02  0.19405227772E+03  0.50400001928E-02 0.  1.
       -1    1    3    3    0  502 -0.14365693207E+03 -0.12627420834E+03  0.49708318132E+03  0.53261071995E+03  0.50400001928E-02 0. -1.
</event>
<event>
 5   0  0.1279188E-01  0.5196953E+03  0.7818609E-02  0.1008762E+00
       -2   -1    0    0    0  501  0.00000000000E+00  0.00000000000E+00  0.13406708230E+03  0.13406708232E+03  0.25500000920E-02 0. -1.
        2   -1    0    0  501    0  0.00000000000E+00  0.00000000000E+00 -0.50363453068E+03  0.50363453068E+03  0.25500000920E-02 0.  1.
    10030    2    1    2    0    0  0.00000000000E+00  0.00000000000E+00 -0.36956744838E+03  0.63770161300E+03  0.51969534183E+03 0.  0.
        2    1    3    3  502    0  0.89284568353E+02  0.89337384466E+02  0.93865895750E+02  0.15736489062E+03  0.25500000920E-02 0. -1.
       -2    1    3    3    0  502 -0.89284568353E+02 -0.89337384466E+02 -0.46343334413E+03  0.48033672238E+03  0.25500000920E-02 0.  1.
</event>
<event>
 5   0  0.1191894E-01  0.4893638E+03  0.7818609E-02  0.1016593E+00
        2   -1    0    0  501    0  0.00000000000E+00  0.00000000000E+00  0.52042522933E+02  0.52042522996E+02  0.25500000920E-02 0.  1.
       -2   -1    0    0    0  501  0.00000000000E+00  0.00000000000E+00 -0.11503908910E+04  0.11503908910E+04  0.25500000920E-02 0. -1.
    10030    2    1    2    0    0  0.00000000000E+00  0.00000000000E+00 -0.10983483681E+04  0.12024334140E+04  0.48936384978E+03 0.  0.
        3    1    3    3  502    0 -0.75500462296E+02 -0.63237525862E+02 -0.10995392991E+04  0.11039411148E+04  0.10100000352E+00 0. -1.
       -3    1    3    3    0  502  0.75500462296E+02  0.63237525862E+02  0.11909310290E+01  0.98492299201E+02  0.10100000352E+00 0.  1.
</event>
<event>
 5   0  0.7812547E-02  0.5021972E+03  0.7818609E-02  0.1013207E+00
        1   -1    0    0  501    0  0.00000000000E+00  0.00000000000E+00  0.12483119558E+03  0.12483119568E+03  0.50400001928E-02 0.  1.
       -1   -1    0    0    0  501  0.00000000000E+00  0.00000000000E+00 -0.50508609091E+03  0.50508609094E+03  0.50400001928E-02 0. -1.
    10030    2    1    2    0    0  0.00000000000E+00  0.00000000000E+00 -0.38025489533E+03  0.62991728662E+03  0.50219717498E+03 0.  0.
        4    1    3    3  502    0 -0.24488642722E+03  0.42521289826E+02 -0.23485359983E+03  0.34195796318E+03  0.12699999809E+01 0. -1.
       -4    1    3    3    0  502  0.24488642722E+03 -0.42521289826E+02 -0.14540129550E+03  0.28795932344E+03  0.12699999809E+01 0.  1.
</event>
<event>
 5   0  0.7781754E-02  0.5002705E+03  0.7818609E-02  0.1013708E+00
       -1   -1    0    0    0  501  0.00000000000E+00  0.00000000000E+00  0.12092164032E+03  0.12092164043E+03  0.50400001928E-02 0. -1.
        1   -1    0    0  501    0  0.00000000000E+00  0.00000000000E+00 -0.51742306649E+03  0.51742306652E+03  0.50400001928E-02 0.  1.
    10030    2    1    2    0    0  0.00000000000E+00  0.00000000000E+00 -0.39650142617E+03  0.63834470695E+03  0.50027051075E+03 0.  0.
        2    1    3    3  502    0 -0.19958748080E+03 -0.11563442467E+03 -0.74793841070E+02  0.24248835298E+03  0.25500000920E-02 0. -1.
       -2    1    3    3    0  502  0.19958748080E+03  0.11563442467E+03 -0.32170758510E+03  0.39585635397E+03  0.25500000920E-02 0.  1.
</event>
<event>
 5   0  0.7416638E-02  0.4959970E+03  0.7818609E-02  0.1014829E+00
       -1   -1    0    0    0  501  0.00000000000E+00  0.00000000000E+00  0.25426084155E+03  0.25426084160E+03  0.50400001928E-02 0. -1.
        1   -1    0    0  501    0  0.00000000000E+00  0.00000000000E+00 -0.24189044034E+03  0.24189044040E+03  0.50400001928E-02 0.  1.
    10030    2    1    2    0    0  0.00000000000E+00  0.00000000000E+00  0.12370401205E+02  0.49615128199E+03  0.49599704414E+03 0.  0.
        1    1    3    3  502    0  0.66980913577E+02  0.10798408219E+03 -0.20685112250E+03  0.24276406591E+03  0.50400001928E-02 0.  1.
       -1    1    3    3    0  502 -0.66980913577E+02 -0.10798408219E+03  0.21922152371E+03  0.25338721608E+03  0.50400001928E-02 0. -1.
</event>
<event>
 5   0  0.1279188E-01  0.5037437E+03  0.7818609E-02  0.1012806E+00
       -2   -1    0    0    0  501  0.00000000000E+00  0.00000000000E+00  0.14810067667E+03  0.14810067669E+03  0.25500000920E-02 0.  1.
        2   -1    0    0  501    0  0.00000000000E+00  0.00000000000E+00 -0.42835336437E+03  0.42835336438E+03  0.25500000920E-02 0. -1.
    10030    2    1    2    0    0  0.00000000000E+00  0.00000000000E+00 -0.28025268770E+03  0.57645404107E+03  0.50374367738E+03 0.  0.
        2    1    3    3  502    0 -0.10895964953E+03 -0.19672815843E+03 -0.26992320422E+03  0.35132991579E+03  0.25500000920E-02 0. -1.
       -2    1    3    3    0  502  0.10895964953E+03  0.19672815843E+03 -0.10329483479E+02  0.22512412527E+03  0.25500000920E-02 0.  1.
</event>
<event>
 5   0  0.5006750E-02  0.5006730E+03  0.7818609E-02  0.1013603E+00
        3   -1    0    0  501    0  0.00000000000E+00  0.00000000000E+00  0.20483388804E+03  0.20483391294E+03  0.10100000352E+00 0. -1.
       -3   -1    0    0    0  501  0.00000000000E+00  0.00000000000E+00 -0.30594719919E+03  0.30594721586E+03  0.10100000352E+00 0.  1.
    10030    2    1    2    0    0  0.00000000000E+00  0.00000000000E+00 -0.10111331115E+03  0.51078112881E+03  0.50067300691E+03 0.  0.
        1    1    3    3  502    0 -0.68146380331E+02  0.21787636423E+03  0.54251701157E+02  0.23464289111E+03  0.50400001928E-02 0. -1.
       -1    1    3    3    0  502  0.68146380331E+02 -0.21787636423E+03 -0.15536501230E+03  0.27613823770E+03  0.50400001928E-02 0.  1.
</event>
<event>
 5   0  0.7531632E-02  0.5011723E+03  0.7818609E-02  0.1013473E+00
        1   -1    0    0  501    0  0.00000000000E+00  0.00000000000E+00  0.17435183975E+03  0.17435183982E+03  0.50400001928E-02 0. -1.
       -1   -1    0    0    0  501  0.00000000000E+00  0.00000000000E+00 -0.36015345423E+03  0.36015345426E+03  0.50400001928E-02 0.  1.
    10030    2    1    2    0    0  0.00000000000E+00  0.00000000000E+00 -0.18580161448E+03  0.53450529408E+03  0.50117229518E+03 0.  0.
        3    1    3    3  502    0  0.40674653503E+01 -0.64179406232E+02 -0.35120299709E+03  0.35704214853E+03  0.10100000352E+00 0.  1.
       -3    1    3    3    0  502 -0.40674653503E+01  0.64179406232E+02  0.16540138261E+03  0.17746314555E+03  0.10100000352E+00 0. -1.
</event>
<event>
 5   0  0.7416638E-02  0.5062484E+03  0.7818609E-02  0.1012161E+00
        1   -1    0    0  501    0  0.00000000000E+00  0.00000000000E+00  0.95066733107E+03  0.95066733108E+03  0.50400001928E-02 0.  1.
       -1   -1    0    0    0  501  0.00000000000E+00  0.00000000000E+00 -0.67396710420E+02  0.67396710608E+02  0.50400001928E-02 0. -1.
    10030    2    1    2    0    0  0.00000000000E+00  0.00000000000E+00  0.88327062065E+03  0.10180640417E+04  0.50624836166E+03 0.  0.
        1    1    3    3  502    0 -0.17355213552E+03 -0.18059337898E+03  0.36808836619E+03  0.44522281796E+03  0.50400001928E-02 0. -1.
       -1    1    3    3    0  502  0.17355213552E+03  0.18059337898E+03  0.51518225446E+03  0.57284122373E+03  0.50400001928E-02 0.  1.
</event>
<event>
 5   0  0.1191894E-01  0.4907497E+03  0.7818609E-02  0.1016222E+00
        2   -1    0    0  501    0  0.00000000000E+00  0.00000000000E+00  0.12089089981E+04  0.12089089981E+04  0.25500000920E-02 0.  1.
       -2   -1    0    0    0  501  0.00000000000E+00  0.00000000000E+00 -0.49804258180E+02  0.49804258245E+02  0.25500000920E-02 0. -1.
    10030    2    1    2    0    0  0.00000000000E+00  0.00000000000E+00  0.11591047399E+04  0.12587132564E+04  0.49074969547E+03 0.  0.
        3    1    3    3  502    0 -0.12119230954E+03 -0.15710265233E+03  0.94981977579E+03  0.97032285140E+03  0.10100000352E+00 0.  1.
       -3    1    3    3    0  502  0.12119230954E+03  0.15710265233E+03  0.20928496416E+03  0.28839040498E+03  0.10100000352E+00 0. -1.
</event>
<event>
 5   0  0.1191894E-01  0.4989720E+03  0.7818609E-02  0.1014048E+00
       -2   -1    0    0    0  501  0.00000000000E+00  0.00000000000E+00  0.90726984258E+03  0.90726984258E+03  0.25500000920E-02 0.  1.
        2   -1    0    0  501    0  0.00000000000E+00  0.00000000000E+00 -0.68605030481E+02  0.68605030528E+02  0.25500000920E-02 0. -1.
    10030    2    1    2    0    0  0.00000000000E+00  0.00000000000E+00  0.83866481210E+03  0.97587487311E+03  0.49897204422E+03 0.  0.
        3    1    3    3  502    0 -0.13065145398E+02 -0.22271441480E+03  0.20092565339E+03  0.30023913299E+03  0.10100000352E+00 0.  1.
       -3    1    3    3    0  502  0.13065145398E+02  0.22271441480E+03  0.63773915871E+03  0.67563574012E+03  0.10100000352E+00 0. -1.
</event>
<event>
 5   0  0.7416638E-02  0.5010502E+03  0.7818609E-02  0.1013505E+00
       -1   -1    0    0    0  501  0.00000000000E+00  0.00000000000E+00  0.50908269052E+03  0.50908269055E+03  0.50400001928E-02 0.  1.
        1   -1    0    0  501    0  0.00000000000E+00  0.00000000000E+00 -0.12328613184E+03  0.12328613195E+03  0.50400001928E-02 0. -1.
    10030    2    1    2    0    0  0.00000000000E+00  0.00000000000E+00  0.38579655868E+03  0.63236882249E+03  0.50105023997E+03 0.  0.
        1    1    3    3  502    0  0.21286499984E+03 -0.87605440519E+02  0.68107235456E+02  0.24005169633E+03  0.50400001928E-02 0. -1.
       -1    1    3    3    0  502 -0.21286499984E+03  0.87605440519E+02  0.31768932322E+03  0.39231712616E+03  0.50400001928E-02 0.  1.
</event>
<event>
 5   0  0.5006750E-02  0.5104557E+03  0.7818609E-02  0.1011085E+00
        3   -1    0    0  501    0  0.00000000000E+00  0.00000000000E+00  0.25048613994E+03  0.25048616030E+03  0.10100000352E+00 0.  1.
       -3   -1    0    0    0  501  0.00000000000E+00  0.00000000000E+00 -0.26005930757E+03  0.26005932718E+03  0.10100000352E+00 0. -1.
    10030    2    1    2    0    0  0.00000000000E+00  0.00000000000E+00 -0.95731676290E+01  0.51054548749E+03  0.51045572703E+03 0.  0.
        3    1    3    3  502    0 -0.77705188253E+02  0.17857011009E+03 -0.16978792907E+03  0.25836666109E+03  0.10100000352E+00 0. -1.
       -3    1    3    3    0  502  0.77705188253E+02 -0.17857011009E+03  0.16021476144E+03  0.25217882640E+03  0.10100000352E+00 0.  1.
</event>
<event>
 5   0  0.1231822E-01  0.4997017E+03  0.7818609E-02  0.1013857E+00
        2   -1    0    0  501    0  0.00000000000E+00  0.00000000000E+00  0.13464642672E+03  0.13464642674E+03  0.25500000920E-02 0.  1.
       -2   -1    0    0    0  501  0.00000000000E+00  0.00000000000E+00 -0.46362505393E+03  0.46362505393E+03  0.25500000920E-02 0. -1.
    10030    2    1    2    0    0  0.00000000000E+00  0.00000000000E+00 -0.32897862721E+03  0.59827148068E+03  0.49970173848E+03 0.  0.
        1    1    3    3  502    0  0.14326089593E+03  0.34043480592E+02  0.77175237943E+02  0.16624879022E+03  0.50400001928E-02 0.  1.
       -1    1    3    3    0  502 -0.14326089593E+03 -0.34043480592E+02 -0.40615386515E+03  0.43202269046E+03  0.50400001928E-02 0. -1.
</event>
<event>
 5   0  0.7781754E-02  0.4987383E+03  0.7818609E-02  0.1014109E+00
       -1   -1    0    0    0  501  0.00000000000E+00  0.00000000000E+00  0.20738588812E+03  0.20738588818E+03  0.50400001928E-02 0. -1.
        1   -1    0    0  501    0  0.00000000000E+00  0.00000000000E+00 -0.29985145904E+03  0.29985145908E+03  0.50400001928E-02 0.  1.
    10030    2    1    2    0    0  0.00000000000E+00  0.00000000000E+00 -0.92465570916E+02  0.50723734726E+03  0.49873825265E+03 0.  0.
        2    1    3    3  502    0 -0.56520439127E+02 -0.39472345502E+02 -0.28996715830E+03  0.29804962506E+03  0.25500000920E-02 0.  1.
       -2    1    3    3    0  502  0.56520439127E+02  0.39472345502E+02  0.19750158738E+03  0.20918772221E+03  0.25500000920E-02 0. -1.
</event>
<event>
 5   0  0.7416638E-02  0.4976391E+03  0.7818609E-02  0.1014397E+00
       -1   -1    0    0    0  501  0.00000000000E+00  0.00000000000E+00  0.80773760192E+02  0.80773760350E+02  0.50400001928E-02 0.  1.
        1   -1    0    0  501    0  0.00000000000E+00  0.00000000000E+00 -0.76647619429E+03  0.76647619430E+03  0.50400001928E-02 0. -1.
    10030    2    1    2    0    0  0.00000000000E+00  0.00000000000E+00 -0.68570243409E+03  0.84724995465E+03  0.49763908361E+03 0.  0.
        1    1    3    3  502    0  0.14807800502E+03  0.19634889572E+03 -0.40725986644E+03  0.47575264924E+03  0.50400001928E-02 0. -1.
       -1    1    3    3    0  502 -0.14807800502E+03 -0.19634889572E+03 -0.27844256765E+03  0.37149730541E+03  0.50400001928E-02 0.  1.
</event>
<event>
 5   0  0.5006750E-02  0.5005188E+03  0.7818609E-02  0.1013644E+00
       -4   -1    0    0    0  501  0.00000000000E+00  0.00000000000E+00  0.94403309634E+02  0.94411851850E+02  0.12699999809E+01 0.  1.
        4   -1    0    0  501    0  0.00000000000E+00  0.00000000000E+00 -0.66338854826E+03  0.66338976391E+03  0.12699999809E+01 0. -1.
    10030    2    1    2    0    0  0.00000000000E+00  0.00000000000E+00 -0.56898523862E+03  0.75780161576E+03  0.50051881790E+03 0.  0.
        2    1    3    3  502    0 -0.14985061791E+03 -0.18039186291E+03 -0.41677208028E+03  0.47822107733E+03  0.25500000920E-02 0. -1.
       -2    1    3    3    0  502  0.14985061791E+03  0.18039186291E+03 -0.15221315834E+03  0.27958053843E+03  0.25500000920E-02 0.  1.
</event>
<event>
 5   0  0.1231822E-01  0.4988318E+03  0.7818609E-02  0.1014084E+00
        2   -1    0    0  501    0  0.00000000000E+00  0.00000000000E+00  0.61987530000E+03  0.61987530000E+03  0.25500000920E-02 0.  1.
       -2   -1    0    0    0  501  0.00000000000E+00  0.00000000000E+00 -0.10035615381E+03  0.10035615384E+03  0.25500000920E-02 0. -1.
    10030    2    1    2    0    0  0.00000000000E+00  0.00000000000E+00  0.51951914619E+03  0.72023145385E+03  0.49883183926E+03 0.  0.
        1    1    3    3  502    0  0.13168125732E+03 -0.18255572084E+03  0.41487459781E+03  0.47200368290E+03  0.50400001928E-02 0.  1.
       -1    1    3    3    0  502 -0.13168125732E+03  0.18255572084E+03  0.10464454838E+03  0.24822777095E+03  0.50400001928E-02 0. -1.
</event>
<event>
 5   0  0.7781754E-02  0.4763708E+03  0.7818609E-02  0.1020137E+00
        1   -1    0    0  501    0  0.00000000000E+00  0.00000000000E+00  0.10585947487E+03  0.10585947499E+03  0.50400001928E-02 0.  1.
       -1   -1    0    0    0  501  0.00000000000E+00  0.00000000000E+00 -0.53592079510E+03  0.53592079513E+03  0.50400001928E-02 0. -1.
    10030    2    1    2    0    0  0.00000000000E+00  0.00000000000E+00 -0.43006132023E+03  0.64178027012E+03  0.47637083870E+03 0.  0.
        2    1    3    3  502    0 -0.40886401322E+02  0.23211733316E+03 -0.26135141373E+03  0.35192998683E+03  0.25500000920E-02 0.  1.
       -2    1    3    3    0  502  0.40886401322E+02 -0.23211733316E+03 -0.16870990650E+03  0.28985028329E+03  0.25500000920E-02 0. -1.
</event>
<event>
 5   0  0.7781754E-02  0.5010240E+03  0.7818609E-02  0.1013512E+00
       -1   -1    0    0    0  501  0.00000000000E+00  0.00000000000E+00  0.94114562106E+02  0.94114562241E+02  0.50400001928E-02 0. -1.
        1   -1    0    0  501    0  0.00000000000E+00  0.00000000000E+00 -0.66680713119E+03  0.66680713121E+03  0.50400001928E-02 0.  1.
    10030    2    1    2    0    0  0.00000000000E+00  0.00000000000E+00 -0.57269256908E+03  0.76092169345E+03  0.50102399631E+03 0.  0.
        2    1    3    3  502    0 -0.11523080832E+03 -0.21634320230E+03 -0.20781529056E+03  0.32135605699E+03  0.25500000920E-02 0.  1.
       -2    1    3    3    0  502  0.11523080832E+03  0.21634320230E+03 -0.36487727852E+03  0.43956563646E+03  0.25500000920E-02 0. -1.
</event>
<event>
 5   0  0.1279188E-01  0.5008650E+03  0.7818609E-02  0.1013553E+00
       -2   -1    0    0    0  501  0.00000000000E+00  0.00000000000E+00  0.25425594339E+03  0.25425594340E+03  0.25500000920E-02 0. -1.
        2   -1    0    0  501    0  0.00000000000E+00  0.00000000000E+00 -0.24666653004E+03  0.24666653005E+03  0.25500000920E-02 0.  1.
    10030    2    1    2    0    0  0.00000000000E+00  0.00000000000E+00  0.75894133466E+01  0.50092247345E+03  0.50086497703E+03 0.  0.
        2    1    3    3  502    0 -0.80400023177E+02 -0.21784274180E+03 -0.90007357143E+02  0.24904005346E+03  0.25500000920E-02 0.  1.
       -2    1    3    3    0  502  0.80400023177E+02  0.21784274180E+03  0.97596770490E+02  0.25188241999E+03  0.25500000920E-02 0. -1.
</event>
<event>
 5   0  0.5006750E-02  0.4963432E+03  0.7818609E-02  0.1014738E+00
       -3   -1    0    0    0  501  0.00000000000E+00  0.00000000000E+00  0.11282733466E+03  0.11282737986E+03  0.10100000352E+00 0.  1.
        3   -1    0    0  501    0  0.00000000000E+00  0.00000000000E+00 -0.54587051884E+03  0.54587052818E+03  0.10100000352E+00 0. -1.
    10030    2    1    2    0    0  0.00000000000E+00  0.00000000000E+00 -0.43304318418E+03  0.65869790805E+03  0.49634316224E+03 0.  0.
        2    1    3    3  502    0  0.69398088740E+02 -0.23288433210E+03 -0.28337811524E+03  0.37330197302E+03  0.25500000920E-02 0.  1.
       -2    1    3    3    0  502 -0.69398088740E+02  0.23288433210E+03 -0.14966506894E+03  0.28539593502E+03  0.25500000920E-02 0. -1.
</event>
<event>
 5   0  0.7416638E-02  0.5021230E+03  0.7818609E-02  0.1013226E+00
       -1   -1    0    0    0  501  0.00000000000E+00  0.00000000000E+00  0.65567056500E+02  0.65567056693E+02  0.50400001928E-02 0.  1.
        1   -1    0    0  501    0  0.00000000000E+00  0.00000000000E+00 -0.96133447105E+03  0.96133447106E+03  0.50400001928E-02 0. -1.
    10030    2    1    2    0    0  0.00000000000E+00  0.00000000000E+00 -0.89576741455E+03  0.10269015278E+04  0.50212297969E+03 0.  0.
        1    1    3    3  502    0  0.80803756398E+02  0.23684643162E+03 -0.48911163552E+03  0.54941393434E+03  0.50400001928E-02 0. -1.
       -1    1    3    3    0  502 -0.80803756398E+02 -0.23684643162E+03 -0.40665577902E+03  0.47748759341E+03  0.50400001928E-02 0.  1.
</event>
<event>
 5   0  0.1211345E-01  0.5008743E+03  0.7818609E-02  0.1013551E+00
        2   -1    0    0  501    0  0.00000000000E+00  0.00000000000E+00  0.12876926721E+04  0.12876926721E+04  0.25500000920E-02 0.  1.
       -2   -1    0    0    0  501  0.00000000000E+00  0.00000000000E+00 -0.48706312702E+02  0.48706312769E+02  0.25500000920E-02 0. -1.
    10030    2    1    2    0    0  0.00000000000E+00  0.00000000000E+00  0.12389863594E+04  0.13363989848E+04  0.50087428361E+03 0.  0.
        5    1    3    3  502    0  0.83731722612E+02  0.33927252079E+02  0.12425727580E+04  0.12458616331E+04  0.46999998093E+01 0.  1.
       -5    1    3    3    0  502 -0.83731722612E+02 -0.33927252079E+02 -0.35863986811E+01  0.90537351734E+02  0.46999998093E+01 0. -1.
</event>
<event>
 5   0  0.7531632E-02  0.4992805E+03  0.7818609E-02  0.1013967E+00
       -1   -1    0    0    0  501  0.00000000000E+00  0.00000000000E+00  0.75482482593E+03  0.75482482595E+03  0.50400001928E-02 0. -1.
        1   -1    0    0  501    0  0.00000000000E+00  0.00000000000E+00 -0.82562526114E+02  0.82562526268E+02  0.50400001928E-02 0.  1.
    10030    2    1    2    0    0  0.00000000000E+00  0.00000000000E+00  0.67226229982E+03  0.83738735222E+03  0.49928046016E+03 0.  0.
        3    1    3    3  502    0  0.16024003146E+03 -0.16396400602E+03  0.17044420188E+03  0.28567866407E+03  0.10100000352E+00 0.  1.
       -3    1    3    3    0  502 -0.16024003146E+03  0.16396400602E+03  0.50181809794E+03  0.55170868814E+03  0.10100000352E+00 0. -1.
</event>
<event>
 5   0  0.1279188E-01  0.4991983E+03  0.7818609E-02  0.1013988E+00
       -2   -1    0    0    0  501  0.00000000000E+00  0.00000000000E+00  0.21456849194E+03  0.21456849196E+03  0.25500000920E-02 0. -1.
        2   -1    0    0  501    0  0.00000000000E+00  0.00000000000E+00 -0.29034895938E+03  0.29034895939E+03  0.25500000920E-02 0.  1.
    10030    2    1    2    0    0  0.00000000000E+00  0.00000000000E+00 -0.75780467439E+02  0.50491745135E+03  0.49919831073E+03 0.  0.
        2    1    3    3  502    0  0.18027435082E+03 -0.15040267339E+03  0.47815022722E+02  0.23959566385E+03  0.25500000920E-02 0. -1.
       -2    1    3    3    0  502 -0.18027435082E+03  0.15040267339E+03 -0.12359549016E+03  0.26532178750E+03  0.25500000920E-02 0.  1.
</event>
<event>
 5   0  0.1279188E-01  0.4949966E+03  0.7818609E-02  0.1015093E+00
       -2   -1    0    0    0  501  0.00000000000E+00  0.00000000000E+00  0.81501672722E+02  0.81501672762E+02  0.25500000920E-02 0.  1.
        2   -1    0    0  501    0  0.00000000000E+00  0.00000000000E+00 -0.75158462226E+03  0.75158462226E+03  0.25500000920E-02 0. -1.
    10030    2    1    2    0    0  0.00000000000E+00  0.00000000000E+00 -0.67008294953E+03  0.83308629502E+03  0.49499658150E+03 0.  0.
        2    1    3    3  502    0 -0.15680706047E+03  0.49592654959E+02 -0.23763369546E+02  0.16617034446E+03  0.25500000920E-02 0.  1.
       -2    1    3    3    0  502  0.15680706047E+03 -0.49592654959E+02 -0.64631957999E+03  0.66691595057E+03  0.25500000920E-02 0. -1.
</event>
<event>
 5   0  0.7416638E-02  0.5021585E+03  0.7818609E-02  0.1013217E+00
       -1   -1    0    0    0  501  0.00000000000E+00  0.00000000000E+00  0.39997099655E+02  0.39997099973E+02  0.50400001928E-02 0.  1.
        1   -1    0    0  501    0  0.00000000000E+00  0.00000000000E+00 -0.15761339264E+04  0.15761339264E+04  0.50400001928E-02 0. -1.
    10030    2    1    2    0    0  0.00000000000E+00  0.00000000000E+00 -0.15361368267E+04  0.16161310263E+04  0.50215848489E+03 0.  0.
        1    1    3    3  502    0 -0.35340219033E+01 -0.17374190807E+03 -0.18482362698E+03  0.25368979689E+03  0.50400001928E-02 0.  1.
       -1    1    3    3    0  502  0.35340219033E+01  0.17374190807E+03 -0.13513131997E+04  0.13624412294E+04  0.50400001928E-02 0. -1.
</event>
<event>
 5   0  0.1191894E-01  0.5024773E+03  0.7818609E-02  0.1013134E+00
       -2   -1    0    0    0  501  0.00000000000E+00  0.00000000000E+00  0.69785537299E+02  0.69785537345E+02  0.25500000920E-02 0. -1.
        2   -1    0    0  501    0  0.00000000000E+00  0.00000000000E+00 -0.90449788867E+03  0.90449788867E+03  0.25500000920E-02 0.  1.
    10030    2    1    2    0    0  0.00000000000E+00  0.00000000000E+00 -0.83471235137E+03  0.97428342602E+03  0.50247734743E+03 0.  0.
        3    1    3    3  502    0 -0.21638833681E+03 -0.81193179866E+02 -0.60836701338E+03  0.65078927306E+03  0.10100000352E+00 0.  1.
       -3    1    3    3    0  502  0.21638833681E+03  0.81193179866E+02 -0.22634533800E+03  0.32349415296E+03  0.10100000352E+00 0. -1.
</event>
<event>
 5   0  0.1279188E-01  0.4993778E+03  0.7818609E-02  0.1013941E+00
       -2   -1    0    0    0  501  0.00000000000E+00  0.00000000000E+00  0.36396453467E+02  0.36396453556E+02  0.25500000920E-02 0.  1.
        2   -1    0    0  501    0  0.00000000000E+00  0.00000000000E+00 -0.17129288600E+04  0.17129288600E+04  0.25500000920E-02 0. -1.
    10030    2    1    2    0    0  0.00000000000E+00  0.00000000000E+00 -0.16765324065E+04  0.17493253136E+04  0.49937775531E+03 0.  0.
        2    1    3    3  502    0 -0.15369928469E+03 -0.12724534953E+03 -0.31246816396E+03  0.37074412009E+03  0.25500000920E-02 0. -1.
       -2    1    3    3    0  502  0.15369928469E+03  0.12724534953E+03 -0.13640642426E+04  0.13785811935E+04  0.25500000920E-02 0.  1.
</event>
<event>
 5   0  0.7531632E-02  0.4986378E+03  0.7818609E-02  0.1014135E+00
       -1   -1    0    0    0  501  0.00000000000E+00  0.00000000000E+00  0.90203899336E+03  0.90203899337E+03  0.50400001928E-02 0.  1.
        1   -1    0    0  501    0  0.00000000000E+00  0.00000000000E+00 -0.68910453683E+02  0.68910453868E+02  0.50400001928E-02 0. -1.
    10030    2    1    2    0    0  0.00000000000E+00  0.00000000000E+00  0.83312853967E+03  0.97094944724E+03  0.49863780991E+03 0.  0.
        3    1    3    3  502    0 -0.19754986403E+03  0.12828470813E+03  0.25745268209E+03  0.34894814634E+03  0.10100000352E+00 0. -1.
       -3    1    3    3    0  502  0.19754986403E+03 -0.12828470813E+03  0.57567585758E+03  0.62200130090E+03  0.10100000352E+00 0.  1.
</event>
<event>
 5   0  0.7531632E-02  0.4998492E+03  0.7818609E-02  0.1013818E+00
       -1   -1    0    0    0  501  0.00000000000E+00  0.00000000000E+00  0.45745533096E+02  0.45745533374E+02  0.50400001928E-02 0. -1.
        1   -1    0    0  501    0  0.00000000000E+00  0.00000000000E+00 -0.13654297834E+04  0.13654297834E+04  0.50400001928E-02 0.  1.
    10030    2    1    2    0    0  0.00000000000E+00  0.00000000000E+00 -0.13196842503E+04  0.14111753168E+04  0.49984923147E+03 0.  0.
        3    1    3    3  502    0  0.16493759107E+03  0.19522207461E+02 -0.13259997784E+03  0.21252832719E+03  0.10100000352E+00 0. -1.
       -3    1    3    3    0  502 -0.16493759107E+03 -0.19522207461E+02 -0.11870842725E+04  0.11986469896E+04  0.10100000352E+00 0.  1.
</event>
<event>
 5   0  0.7812547E-02  0.4812680E+03  0.7818609E-02  0.1018787E+00
        1   -1    0    0  501    0  0.00000000000E+00  0.00000000000E+00  0.22667010125E+03  0.22667010131E+03  0.50400001928E-02 0. -1.
       -1   -1    0    0    0  501  0.00000000000E+00  0.00000000000E+00 -0.25545808753E+03  0.25545808758E+03  0.50400001928E-02 0.  1.
    10030    2    1    2    0    0  0.00000000000E+00  0.00000000000E+00 -0.28787986281E+02  0.48212818889E+03  0.48126795278E+03 0.  0.
        4    1    3    3  502    0 -0.12503790688E+03  0.99639485353E+02  0.16576235384E+03  0.23030691707E+03  0.12699999809E+01 0. -1.
       -4    1    3    3    0  502  0.12503790688E+03 -0.99639485353E+02 -0.19455034012E+03  0.25182127182E+03  0.12699999809E+01 0.  1.
</event>
<event>
 5   0  0.1191894E-01  0.4986548E+03  0.7818609E-02  0.1014131E+00
       -2   -1    0    0    0  501  0.00000000000E+00  0.00000000000E+00  0.22322896675E+03  0.22322896676E+03  0.25500000920E-02 0.  1.
        2   -1    0    0  501    0  0.00000000000E+00  0.00000000000E+00 -0.27847711243E+03  0.27847711244E+03  0.25500000920E-02 0. -1.
    10030    2    1    2    0    0  0.00000000000E+00  0.00000000000E+00 -0.55248145682E+02  0.50170607920E+03  0.49865482281E+03 0.  0.
        3    1    3    3  502    0  0.57434854338E+02  0.51325673118E+02 -0.26620596437E+03  0.27712580696E+03  0.10100000352E+00 0. -1.
       -3    1    3    3    0  502 -0.57434854338E+02 -0.51325673118E+02  0.21095781869E+03  0.22458027224E+03  0.10100000352E+00 0.  1.
</event>
<event>
 5   0  0.1279188E-01  0.4978071E+03  0.7818609E-02  0.1014353E+00
       -2   -1    0    0    0  501  0.00000000000E+00  0.00000000000E+00  0.26806644898E+03  0.26806644899E+03  0.25500000920E-02 0.  1.
        2   -1    0    0  501    0  0.00000000000E+00  0.00000000000E+00 -0.23111052105E+03  0.23111052107E+03  0.25500000920E-02 0. -1.
    10030    2    1    2    0    0  0.00000000000E+00  0.00000000000E+00  0.36955927925E+02  0.49917697005E+03  0.49780709800E+03 0.  0.
        2    1    3    3  502    0  0.78737907456E+02  0.23318289768E+03 -0.18759854254E+02  0.24683163083E+03  0.25500000920E-02 0.  1.
       -2    1    3    3    0  502 -0.78737907456E+02 -0.23318289768E+03  0.55715782179E+02  0.25234533923E+03  0.25500000920E-02 0. -1.
</event>
<event>
 5   0  0.1243803E-01  0.5403081E+03  0.7818609E-02  0.1003762E+00
       -2   -1    0    0    0  501  0.00000000000E+00  0.00000000000E+00  0.21025457190E+03  0.21025457192E+03  0.25500000920E-02 0. -1.
        2   -1    0    0  501    0  0.00000000000E+00  0.00000000000E+00 -0.34711826188E+03  0.34711826189E+03  0.25500000920E-02 0.  1.
    10030    2    1    2    0    0  0.00000000000E+00  0.00000000000E+00 -0.13686368998E+03  0.55737283381E+03  0.54030806604E+03 0.  0.
        4    1    3    3  502    0  0.75021611343E+02 -0.87685647438E+01 -0.33600091440E+03  0.34438838145E+03  0.12699999809E+01 0.  1.
       -4    1    3    3    0  502 -0.75021611343E+02  0.87685647438E+01  0.19913722442E+03  0.21298445236E+03  0.12699999809E+01 0. -1.
</event>
<event>
 5   0  0.7781754E-02  0.5032474E+03  0.7818609E-02  0.1012935E+00
       -1   -1    0    0    0  501  0.00000000000E+00  0.00000000000E+00  0.10466143315E+03  0.10466143327E+03  0.50400001928E-02 0.  1.
        1   -1    0    0  501    0  0.00000000000E+00  0.00000000000E+00 -0.60494565837E+03  0.60494565839E+03  0.50400001928E-02 0. -1.
    10030    2    1    2    0    0  0.00000000000E+00  0.00000000000E+00 -0.50028422522E+03  0.70960709165E+03  0.50324737309E+03 0.  0.
        2    1    3    3  502    0  0.32184502974E+02  0.17920362150E+03 -0.49504050352E+03  0.52746078558E+03  0.25500000920E-02 0. -1.
       -2    1    3    3    0  502 -0.32184502974E+02 -0.17920362150E+03 -0.52437216982E+01  0.18214630607E+03  0.25500000920E-02 0.  1.
</event>
<event>
 5   0  0.7602288E-02  0.4984259E+03  0.7818609E-02  0.1014191E+00
       -1   -1    0    0    0  501  0.00000000000E+00  0.00000000000E+00  0.37191298796E+02  0.37191299138E+02  0.50400001928E-02 0.  1.
        1   -1    0    0  501    0  0.00000000000E+00  0.00000000000E+00 -0.16699361781E+04  0.16699361781E+04  0.50400001928E-02 0. -1.
    10030    2    1    2    0    0  0.00000000000E+00  0.00000000000E+00 -0.16327448793E+04  0.17071274773E+04  0.49842590490E+03 0.  0.
        5    1    3    3  502    0  0.39486600899E+02 -0.10680349276E+03 -0.15754555777E+04  0.15795722665E+04  0.46999998093E+01 0. -1.
       -5    1    3    3    0  502 -0.39486600899E+02  0.10680349276E+03 -0.57289301599E+02  0.12755521076E+03  0.46999998093E+01 0.  1.
</event>
<event>
 5   0  0.1191894E-01  0.5012223E+03  0.7818609E-02  0.1013460E+00
       -2   -1    0    0    0  501  0.00000000000E+00  0.00000000000E+00  0.15476066697E+03  0.15476066699E+03  0.25500000920E-02 0.  1.
        2   -1    0    0  501    0  0.00000000000E+00  0.00000000000E+00 -0.40582622570E+03  0.40582622571E+03  0.25500000920E-02 0. -1.
    10030    2    1    2    0    0  0.00000000000E+00  0.00000000000E+00 -0.25106555873E+03  0.56058689270E+03  0.50122225558E+03 0.  0.
        3    1    3    3  502    0 -0.12861157241E+03 -0.11203362227E+03  0.79826458287E+02  0.18832085047E+03  0.10100000352E+00 0.  1.
       -3    1    3    3    0  502  0.12861157241E+03  0.11203362227E+03 -0.33089201701E+03  0.37226604224E+03  0.10100000352E+00 0. -1.
</event>
<event>
 5   0  0.1279188E-01  0.5187344E+03  0.7818609E-02  0.1009001E+00
       -2   -1    0    0    0  501  0.00000000000E+00  0.00000000000E+00  0.32481908559E+03  0.32481908560E+03  0.25500000920E-02 0.  1.
        2   -1    0    0  501    0  0.00000000000E+00  0.00000000000E+00 -0.20710403281E+03  0.20710403282E+03  0.25500000920E-02 0. -1.
    10030    2    1    2    0    0  0.00000000000E+00  0.00000000000E+00  0.11771505278E+03  0.53192311843E+03  0.51873439279E+03 0.  0.
        2    1    3    3  502    0  0.32059963851E+02 -0.18215077253E+03 -0.12760237144E+03  0.22469782024E+03  0.25500000920E-02 0. -1.
       -2    1    3    3    0  502 -0.32059963851E+02  0.18215077253E+03  0.24531742422E+03  0.30722529819E+03  0.25500000920E-02 0.  1.
</event>
<event>
 5   0  0.7416638E-02  0.4997497E+03  0.7818609E-02  0.1013844E+00
       -1   -1    0    0    0  501  0.00000000000E+00  0.00000000000E+00  0.10519820378E+03  0.10519820390E+03  0.50400001928E-02 0. -1.
        1   -1    0    0  501    0  0.00000000000E+00  0.00000000000E+00 -0.59352200740E+03  0.59352200742E+03  0.50400001928E-02 0.  1.
    10030    2    1    2    0    0  0.00000000000E+00  0.00000000000E+00 -0.48832380362E+03  0.69872021133E+03  0.49974973390E+03 0.  0.
        1    1    3    3  502    0  0.33900703426E+02 -0.33398221546E+02 -0.58712758342E+03  0.58905305205E+03  0.50400001928E-02 0.  1.
       -1    1    3    3    0  502 -0.33900703426E+02  0.33398221546E+02  0.98803779798E+02  0.10966715927E+03  0.50400001928E-02 0. -1.
</event>
<event>
 5   0  0.7531632E-02  0.4988120E+03  0.7818609E-02  0.1014089E+00
       -1   -1    0    0    0  501  0.00000000000E+00  0.00000000000E+00  0.45830821613E+02  0.45830821891E+02  0.50400001928E-02 0.  1.
        1   -1    0    0  501    0  0.00000000000E+00  0.00000000000E+00 -0.13572386192E+04  0.13572386192E+04  0.50400001928E-02 0. -1.
    10030    2    1    2    0    0  0.00000000000E+00  0.00000000000E+00 -0.13114077976E+04  0.14030694411E+04  0.49881203371E+03 0.  0.
        3    1    3    3  502    0 -0.22123347102E+03 -0.64359895726E+02 -0.38712865042E+03  0.45050532411E+03  0.10100000352E+00 0.  1.
       -3    1    3    3    0  502  0.22123347102E+03  0.64359895726E+02 -0.92427914716E+03  0.95256411698E+03  0.10100000352E+00 0. -1.
</event>
<event>
 5   0  0.7812547E-02  0.4987213E+03  0.7818609E-02  0.1014113E+00
        1   -1    0    0  501    0  0.00000000000E+00  0.00000000000E+00  0.83028507847E+03  0.83028507849E+03  0.50400001928E-02 0. -1.
       -1   -1    0    0    0  501  0.00000000000E+00  0.00000000000E+00 -0.74890837981E+02  0.74890838150E+02  0.50400001928E-02 0.  1.
    10030    2    1    2    0    0  0.00000000000E+00  0.00000000000E+00  0.75539424049E+03  0.90517591664E+03  0.49872134654E+03 0.  0.
        4    1    3    3  502    0 -0.93948073193E+02  0.22402828132E+03  0.47979305508E+03  0.53778982874E+03  0.12699999809E+01 0. -1.
       -4    1    3    3    0  502  0.93948073193E+02 -0.22402828132E+03  0.27560118541E+03  0.36738608790E+03  0.12699999809E+01 0.  1.
</event>
<event>
 5   0  0.5006750E-02  0.4975120E+03  0.7818609E-02  0.1014430E+00
       -3   -1    0    0    0  501  0.00000000000E+00  0.00000000000E+00  0.14778924946E+03  0.14778928397E+03  0.10100000352E+00 0.  1.
        3   -1    0    0  501    0  0.00000000000E+00  0.00000000000E+00 -0.41870121265E+03  0.41870122483E+03  0.10100000352E+00 0. -1.
    10030    2    1    2    0    0  0.00000000000E+00  0.00000000000E+00 -0.27091196319E+03  0.56649050881E+03  0.49751201470E+03 0.  0.
        2    1    3    3  502    0 -0.79588664231E+02  0.10255665183E+03 -0.37707279757E+03  0.39879332615E+03  0.25500000920E-02 0. -1.
       -2    1    3    3    0  502  0.79588664231E+02 -0.10255665183E+03  0.10616083438E+03  0.16769718266E+03  0.25500000920E-02 0.  1.
</event>
<event>
 5   0  0.7416638E-02  0.4989640E+03  0.7818609E-02  0.1014050E+00
        1   -1    0    0  501    0  0.00000000000E+00  0.00000000000E+00  0.63731109250E+03  0.63731109252E+03  0.50400001928E-02 0. -1.
       -1   -1    0    0    0  501  0.00000000000E+00  0.00000000000E+00 -0.97662298529E+02  0.97662298659E+02  0.50400001928E-02 0.  1.
    10030    2    1    2    0    0  0.00000000000E+00  0.00000000000E+00  0.53964879397E+03  0.73497339118E+03  0.49896399159E+03 0.  0.
        1    1    3    3  502    0 -0.13363004505E+03  0.18838468138E+03  0.40875161095E+03  0.46949297822E+03  0.50400001928E-02 0.  1.
       -1    1    3    3    0  502  0.13363004505E+03 -0.18838468138E+03  0.13089718303E+03  0.26548041296E+03  0.50400001928E-02 0. -1.
</event>
<event>
 5   0  0.1191894E-01  0.5001253E+03  0.7818609E-02  0.1013746E+00
       -2   -1    0    0    0  501  0.00000000000E+00  0.00000000000E+00  0.46863852129E+02  0.46863852198E+02  0.25500000920E-02 0. -1.
        2   -1    0    0  501    0  0.00000000000E+00  0.00000000000E+00 -0.13343190485E+04  0.13343190485E+04  0.25500000920E-02 0.  1.
    10030    2    1    2    0    0  0.00000000000E+00  0.00000000000E+00 -0.12874551964E+04  0.13811829007E+04  0.50012530683E+03 0.  0.
        3    1    3    3  502    0  0.53469990538E+02  0.15353009716E+02  0.29557830887E+02  0.62995478911E+02  0.10100000352E+00 0. -1.
       -3    1    3    3    0  502 -0.53469990538E+02 -0.15353009716E+02 -0.13170130273E+04  0.13181874218E+04  0.10100000352E+00 0.  1.
</event>
<event>
 5   0  0.7781754E-02  0.4965668E+03  0.7818609E-02  0.1014679E+00
       -1   -1    0    0    0  501  0.00000000000E+00  0.00000000000E+00  0.19876506042E+03  0.19876506048E+03  0.50400001928E-02 0.  1.
        1   -1    0    0  501    0  0.00000000000E+00  0.00000000000E+00 -0.31013822827E+03  0.31013822831E+03  0.50400001928E-02 0. -1.
    10030    2    1    2    0    0  0.00000000000E+00  0.00000000000E+00 -0.11137316785E+03  0.50890328880E+03  0.49656678788E+03 0.  0.
        2    1    3    3  502    0 -0.12352745539E+03 -0.21514778948E+03 -0.45590956473E+02  0.25224222262E+03  0.25500000920E-02 0.  1.
       -2    1    3    3    0  502  0.12352745539E+03  0.21514778948E+03 -0.65782211379E+02  0.25666106618E+03  0.25500000920E-02 0. -1.
</event>
<event>
 5   0  0.5006750E-02  0.4996162E+03  0.7818609E-02  0.1013879E+00
        3   -1    0    0  501    0  0.00000000000E+00  0.00000000000E+00  0.49423053401E+02  0.49423156602E+02  0.10100000352E+00 0.  1.
       -3   -1    0    0    0  501  0.00000000000E+00  0.00000000000E+00 -0.12626500934E+04  0.12626500974E+04  0.10100000352E+00 0. -1.
    10030    2    1    2    0    0  0.00000000000E+00  0.00000000000E+00 -0.12132270400E+04  0.13120732540E+04  0.49961622610E+03 0.  0.
        5    1    3    3  502    0  0.46613496649E+02 -0.43138433817E+02 -0.12409731043E+04  0.12426061638E+04  0.46999998093E+01 0. -1.
       -5    1    3    3    0  502 -0.46613496649E+02  0.43138433817E+02  0.27746064363E+02  0.69467090251E+02  0.46999998093E+01 0.  1.
</event>
<event>
 5   0  0.1231822E-01  0.4981412E+03  0.7818609E-02  0.1014265E+00
        2   -1    0    0  501    0  0.00000000000E+00  0.00000000000E+00  0.93413288451E+03  0.93413288451E+03  0.25500000920E-02 0.  1.
       -2   -1    0    0    0  501  0.00000000000E+00  0.00000000000E+00 -0.66410434147E+02  0.66410434196E+02  0.25500000920E-02 0. -1.
    10030    2    1    2    0    0  0.00000000000E+00  0.00000000000E+00  0.86772245036E+03  0.10005433187E+04  0.49814122671E+03 0.  0.
        1    1    3    3  502    0  0.76272483281E+02  0.16297943011E+03  0.77975481134E+03  0.80024830657E+03  0.50400001928E-02 0.  1.
       -1    1    3    3    0  502 -0.76272483281E+02 -0.16297943011E+03  0.87967639021E+02  0.20029501213E+03  0.50400001928E-02 0. -1.
</event>
<event>
 5   0  0.7781754E-02  0.4993502E+03  0.7818609E-02  0.1013949E+00
       -1   -1    0    0    0  501  0.00000000000E+00  0.00000000000E+00  0.12253253147E+03  0.12253253157E+03  0.50400001928E-02 0. -1.
        1   -1    0    0  501    0  0.00000000000E+00  0.00000000000E+00 -0.50874377906E+03  0.50874377908E+03  0.50400001928E-02 0.  1.
    10030    2    1    2    0    0  0.00000000000E+00  0.00000000000E+00 -0.38621124759E+03  0.63127631066E+03  0.49935023043E+03 0.  0.
        2    1    3    3  502    0 -0.12126080785E+02  0.16218281241E+02 -0.50770388834E+03  0.50810757987E+03  0.25500000920E-02 0.  1.
       -2    1    3    3    0  502  0.12126080785E+02 -0.16218281241E+02  0.12149264075E+03  0.12316873079E+03  0.25500000920E-02 0. -1.
</event>
<event>
 5   0  0.7531632E-02  0.4932328E+03  0.7818609E-02  0.1015561E+00
       -1   -1    0    0    0  501  0.00000000000E+00  0.00000000000E+00  0.27481752396E+03  0.27481752401E+03  0.50400001928E-02 0. -1.
        1   -1    0    0  501    0  0.00000000000E+00  0.00000000000E+00 -0.22130917709E+03  0.22130917715E+03  0.50400001928E-02 0.  1.
    10030    2    1    2    0    0  0.00000000000E+00  0.00000000000E+00  0.53508346871E+02  0.49612670116E+03  0.49323276495E+03 0.  0.
        3    1    3    3  502    0 -0.90723244938E+02  0.18256095705E+03  0.16635036034E+03  0.26311910382E+03  0.10100000352E+00 0. -1.
       -3    1    3    3    0  502  0.90723244938E+02 -0.18256095705E+03 -0.11284201347E+03  0.23300759733E+03  0.10100000352E+00 0.  1.
</event>
<event>
 5   0  0.1231822E-01  0.4976029E+03  0.7818609E-02  0.1014406E+00
       -2   -1    0    0    0  501  0.00000000000E+00  0.00000000000E+00  0.46007025166E+02  0.46007025236E+02  0.25500000920E-02 0.  1.
        2   -1    0    0  501    0  0.00000000000E+00  0.00000000000E+00 -0.13454937546E+04  0.13454937546E+04  0.25500000920E-02 0. -1.
    10030    2    1    2    0    0  0.00000000000E+00  0.00000000000E+00 -0.12994867294E+04  0.13915007798E+04  0.49760291429E+03 0.  0.
        1    1    3    3  502    0  0.24681959515E+03  0.18358668008E+02 -0.72077498043E+03  0.76208498587E+03  0.50400001928E-02 0.  1.
       -1    1    3    3    0  502 -0.24681959515E+03 -0.18358668008E+02 -0.57871174898E+03  0.62941579395E+03  0.50400001928E-02 0. -1.
</event>
<event>
 5   0  0.7812547E-02  0.5038436E+03  0.7818609E-02  0.1012781E+00
       -1   -1    0    0    0  501  0.00000000000E+00  0.00000000000E+00  0.65748268969E+02  0.65748269162E+02  0.50400001928E-02 0.  1.
        1   -1    0    0  501    0  0.00000000000E+00  0.00000000000E+00 -0.96526650942E+03  0.96526650943E+03  0.50400001928E-02 0. -1.
    10030    2    1    2    0    0  0.00000000000E+00  0.00000000000E+00 -0.89951824045E+03  0.10310147786E+04  0.50384363524E+03 0.  0.
        4    1    3    3  502    0  0.42458722194E+02 -0.21850203497E+03 -0.20835560178E+03  0.30489268944E+03  0.12699999809E+01 0.  1.
       -4    1    3    3    0  502 -0.42458722194E+02  0.21850203497E+03 -0.69116263866E+03  0.72612208916E+03  0.12699999809E+01 0. -1.
</event>
<event>
 5   0  0.1279188E-01  0.5003112E+03  0.7818609E-02  0.1013698E+00
       -2   -1    0    0    0  501  0.00000000000E+00  0.00000000000E+00  0.29365084829E+02  0.29365084940E+02  0.25500000920E-02 0. -1.
        2   -1    0    0  501    0  0.00000000000E+00  0.00000000000E+00 -0.21310283890E+04  0.21310283890E+04  0.25500000920E-02 0.  1.
    10030    2    1    2    0    0  0.00000000000E+00  0.00000000000E+00 -0.21016633041E+04  0.21603934739E+04  0.50031122129E+03 0.  0.
        2    1    3    3  502    0  0.42343519655E+02 -0.21782056941E+03 -0.15495497763E+04  0.15653572382E+04  0.25500000920E-02 0.  1.
       -2    1    3    3    0  502 -0.42343519655E+02  0.21782056941E+03 -0.55211352786E+03  0.59503623568E+03  0.25500000920E-02 0. -1.
</event>
<event>
 5   0  0.7531632E-02  0.4902788E+03  0.7818609E-02  0.1016348E+00
       -1   -1    0    0    0  501  0.00000000000E+00  0.00000000000E+00  0.11769008325E+03  0.11769008335E+03  0.50400001928E-02 0. -1.
        1   -1    0    0  501    0  0.00000000000E+00  0.00000000000E+00 -0.51060647592E+03  0.51060647595E+03  0.50400001928E-02 0.  1.
    10030    2    1    2    0    0  0.00000000000E+00  0.00000000000E+00 -0.39291639268E+03  0.62829655930E+03  0.49027877253E+03 0.  0.
        3    1    3    3  502    0 -0.66079970670E+02 -0.22161034910E+03 -0.92224969565E+02  0.24896418330E+03  0.10100000352E+00 0. -1.
       -3    1    3    3    0  502  0.66079970670E+02  0.22161034910E+03 -0.30069142311E+03  0.37933237600E+03  0.10100000352E+00 0.  1.
</event>
<event>
 5   0  0.1191894E-01  0.5004460E+03  0.7818609E-02  0.1013663E+00
        2   -1    0    0  501    0  0.00000000000E+00  0.00000000000E+00  0.42410917478E+03  0.42410917479E+03  0.25500000920E-02 0.  1.
       -2   -1    0    0    0  501  0.00000000000E+00  0.00000000000E+00 -0.14763072362E+03  0.14763072364E+03  0.25500000920E-02 0. -1.
    10030    2    1    2    0    0  0.00000000000E+00  0.00000000000E+00  0.27647845116E+03  0.57173989843E+03  0.50044597860E+03 0.  0.
        3    1    3    3  502    0  0.18223551281E+03  0.17112980672E+03  0.15056199274E+03  0.29182891690E+03  0.10100000352E+00 0.  1.
       -3    1    3    3    0  502 -0.18223551281E+03 -0.17112980672E+03  0.12591645843E+03  0.27991098153E+03  0.10100000352E+00 0. -1.
</event>
<event>
 5   0  0.7781754E-02  0.5011043E+03  0.7818609E-02  0.1013491E+00
       -1   -1    0    0    0  501  0.00000000000E+00  0.00000000000E+00  0.26271430283E+03  0.26271430288E+03  0.50400001928E-02 0. -1.
        1   -1    0    0  501    0  0.00000000000E+00  0.00000000000E+00 -0.23895304855E+03  0.23895304860E+03  0.50400001928E-02 0.  1.
    10030    2    1    2    0    0  0.00000000000E+00  0.00000000000E+00  0.23761254281E+02  0.50166735148E+03  0.50110431483E+03 0.  0.
        2    1    3    3  502    0 -0.15224192270E+03 -0.87667235145E+02 -0.16696285644E+03  0.24236283251E+03  0.25500000920E-02 0.  1.
       -2    1    3    3    0  502  0.15224192270E+03  0.87667235145E+02  0.19072411072E+03  0.25930451898E+03  0.25500000920E-02 0. -1.
</event>
<event>
 5   0  0.1279188E-01  0.4932965E+03  0.7818609E-02  0.1015544E+00
       -2   -1    0    0    0  501  0.00000000000E+00  0.00000000000E+00  0.36939602247E+02  0.36939602335E+02  0.25500000920E-02 0.  1.
        2   -1    0    0  501    0  0.00000000000E+00  0.00000000000E+00 -0.16468875499E+04  0.16468875499E+04  0.25500000920E-02 0. -1.
    10030    2    1    2    0    0  0.00000000000E+00  0.00000000000E+00 -0.16099479477E+04  0.16838271523E+04  0.49329654820E+03 0.  0.
        2    1    3    3  502    0  0.45514622912E+02  0.81881271175E+02 -0.26151678533E+02  0.97262704900E+02  0.25500000920E-02 0.  1.
       -2    1    3    3    0  502 -0.45514622912E+02 -0.81881271175E+02 -0.15837962692E+04  0.15865644474E+04  0.25500000920E-02 0. -1.
</event>
<event>
 5   0  0.1231822E-01  0.4930043E+03  0.7818609E-02  0.1015621E+00
        2   -1    0    0  501    0  0.00000000000E+00  0.00000000000E+00  0.39071915415E+03  0.39071915416E+03  0.25500000920E-02 0. -1.
       -2   -1    0    0    0  501  0.00000000000E+00  0.00000000000E+00 -0.15551657436E+03  0.15551657438E+03  0.25500000920E-02 0.  1.
    10030    2    1    2    0    0  0.00000000000E+00  0.00000000000E+00  0.23520257979E+03  0.54623572854E+03  0.49300427746E+03 0.  0.
        1    1    3    3  502    0 -0.15311282763E+03  0.13592196544E+03  0.26970062729E+03  0.33861002209E+03  0.50400001928E-02 0. -1.
       -1    1    3    3    0  502  0.15311282763E+03 -0.13592196544E+03 -0.34498047497E+02  0.20762570645E+03  0.50400001928E-02 0.  1.
</event>
<event>
 5   0  0.7416638E-02  0.4925258E+03  0.7818609E-02  0.1015748E+00
       -1   -1    0    0    0  501  0.00000000000E+00  0.00000000000E+00  0.89695615689E+02  0.89695615830E+02  0.50400001928E-02 0.  1.
        1   -1    0    0  501    0  0.00000000000E+00  0.00000000000E+00 -0.67612467162E+03  0.67612467164E+03  0.50400001928E-02 0. -1.
    10030    2    1    2    0    0  0.00000000000E+00  0.00000000000E+00 -0.58642905593E+03  0.76582028747E+03  0.49252581157E+03 0.  0.
        1    1    3    3  502    0 -0.11197372480E+03  0.83250620556E+02 -0.60873192711E+03  0.62451848650E+03  0.50400001928E-02 0. -1.
       -1    1    3    3    0  502  0.11197372480E+03 -0.83250620556E+02  0.22302871182E+02  0.14130180097E+03  0.50400001928E-02 0.  1.
</event>
<event>
 5   0  0.7781754E-02  0.5174807E+03  0.7818609E-02  0.1009314E+00
       -1   -1    0    0    0  501  0.00000000000E+00  0.00000000000E+00  0.11296630731E+03  0.11296630742E+03  0.50400001928E-02 0. -1.
        1   -1    0    0  501    0  0.00000000000E+00  0.00000000000E+00 -0.59262432230E+03  0.59262432232E+03  0.50400001928E-02 0.  1.
    10030    2    1    2    0    0  0.00000000000E+00  0.00000000000E+00 -0.47965801499E+03  0.70559062974E+03  0.51748074885E+03 0.  0.
        2    1    3    3  502    0  0.98741384060E+02 -0.47970093313E+02 -0.55929698887E+03  0.56996851891E+03  0.25500000920E-02 0.  1.
       -2    1    3    3    0  502 -0.98741384060E+02  0.47970093313E+02  0.79638973882E+02  0.13562211083E+03  0.25500000920E-02 0. -1.
</event>
<event>
 5   0  0.1279188E-01  0.5014581E+03  0.7818609E-02  0.1013399E+00
        2   -1    0    0  501    0  0.00000000000E+00  0.00000000000E+00  0.38965226697E+03  0.38965226698E+03  0.25500000920E-02 0.  1.
       -2   -1    0    0    0  501  0.00000000000E+00  0.00000000000E+00 -0.16133631447E+03  0.16133631449E+03  0.25500000920E-02 0. -1.
    10030    2    1    2    0    0  0.00000000000E+00  0.00000000000E+00  0.22831595250E+03  0.55098858147E+03  0.50145811665E+03 0.  0.
        2    1    3    3  502    0  0.20806675902E+03 -0.12609102835E+03  0.47554418390E+02  0.24789543431E+03  0.25500000920E-02 0. -1.
       -2    1    3    3    0  502 -0.20806675902E+03  0.12609102835E+03  0.18076153411E+03  0.30309314716E+03  0.25500000920E-02 0.  1.
</event>
<event>
 5   0  0.1243803E-01  0.4945701E+03  0.7818609E-02  0.1015206E+00
        2   -1    0    0  501    0  0.00000000000E+00  0.00000000000E+00  0.25109047138E+03  0.25109047139E+03  0.25500000920E-02 0. -1.
       -2   -1    0    0    0  501  0.00000000000E+00  0.00000000000E+00 -0.24353732587E+03  0.24353732588E+03  0.25500000920E-02 0.  1.
    10030    2    1    2    0    0  0.00000000000E+00  0.00000000000E+00  0.75531455108E+01  0.49462779728E+03  0.49457012428E+03 0.  0.
        4    1    3    3  502    0 -0.35185498863E+02 -0.58060213956E+02  0.24158420176E+03  0.25094530722E+03  0.12699999809E+01 0. -1.
       -4    1    3    3    0  502  0.35185498863E+02  0.58060213956E+02 -0.23403105625E+03  0.24368249006E+03  0.12699999809E+01 0.  1.
</event>
<event>
 5   0  0.1191894E-01  0.4995698E+03  0.7818609E-02  0.1013891E+00
       -2   -1    0    0    0  501  0.00000000000E+00  0.00000000000E+00  0.44097095917E+02  0.44097095991E+02  0.25500000920E-02 0.  1.
        2   -1    0    0  501    0  0.00000000000E+00  0.00000000000E+00 -0.14148889929E+04  0.14148889929E+04  0.25500000920E-02 0. -1.
    10030    2    1    2    0    0  0.00000000000E+00  0.00000000000E+00 -0.13707918970E+04  0.14589860889E+04  0.49956979768E+03 0.  0.
        3    1    3    3  502    0 -0.22801680952E+03 -0.69814910201E+02 -0.46828193368E+03  0.52550334606E+03  0.10100000352E+00 0. -1.
       -3    1    3    3    0  502  0.22801680952E+03  0.69814910201E+02 -0.90250996331E+03  0.93348274284E+03  0.10100000352E+00 0.  1.
</event>
<event>
 5   0  0.1211345E-01  0.4993329E+03  0.7818609E-02  0.1013953E+00
        2   -1    0    0  501    0  0.00000000000E+00  0.00000000000E+00  0.22311181469E+04  0.22311181469E+04  0.25500000920E-02 0.  1.
       -2   -1    0    0    0  501  0.00000000000E+00  0.00000000000E+00 -0.27938155916E+02  0.27938156032E+02  0.25500000920E-02 0. -1.
    10030    2    1    2    0    0  0.00000000000E+00  0.00000000000E+00  0.22031799910E+04  0.22590563029E+04  0.49933286208E+03 0.  0.
        5    1    3    3  502    0 -0.20675801402E+03 -0.26291543698E+02  0.48009778646E+03  0.52340815450E+03  0.46999998093E+01 0. -1.
       -5    1    3    3    0  502  0.20675801402E+03  0.26291543698E+02  0.17230822045E+04  0.17356481484E+04  0.46999998093E+01 0.  1.
</event>
<event>
 5   0  0.7812547E-02  0.4970931E+03  0.7818609E-02  0.1014540E+00
       -1   -1    0    0    0  501  0.00000000000E+00  0.00000000000E+00  0.18598998939E+03  0.18598998946E+03  0.50400001928E-02 0.  1.
        1   -1    0    0  501    0  0.00000000000E+00  0.00000000000E+00 -0.33214356286E+03  0.33214356290E+03  0.50400001928E-02 0. -1.
    10030    2    1    2    0    0  0.00000000000E+00  0.00000000000E+00 -0.14615357347E+03  0.51813355236E+03  0.49709306075E+03 0.  0.
        4    1    3    3  502    0  0.39850474085E+02 -0.14870072147E+03  0.13030737418E+03  0.20169677617E+03  0.12699999809E+01 0.  1.
       -4    1    3    3    0  502 -0.39850474085E+02  0.14870072147E+03 -0.27646094765E+03  0.31643677619E+03  0.12699999809E+01 0. -1.
</event>
<event>
 5   0  0.7531632E-02  0.4998193E+03  0.7818609E-02  0.1013826E+00
        1   -1    0    0  501    0  0.00000000000E+00  0.00000000000E+00  0.33379029897E+03  0.33379029901E+03  0.50400001928E-02 0. -1.
       -1   -1    0    0    0  501  0.00000000000E+00  0.00000000000E+00 -0.18710798902E+03  0.18710798909E+03  0.50400001928E-02 0.  1.
    10030    2    1    2    0    0  0.00000000000E+00  0.00000000000E+00  0.14668230995E+03  0.52089828810E+03  0.49981929384E+03 0.  0.
        3    1    3    3  502    0 -0.39373885591E+02 -0.12123671745E+03 -0.15068046415E+03  0.19736579491E+03  0.10100000352E+00 0.  1.
       -3    1    3    3    0  502  0.39373885591E+02  0.12123671745E+03  0.29736277410E+03  0.32353249319E+03  0.10100000352E+00 0. -1.
</event>
<event>
 5   0  0.7812547E-02  0.4962254E+03  0.7818609E-02  0.1014769E+00
       -1   -1    0    0    0  501  0.00000000000E+00  0.00000000000E+00  0.63237316691E+03  0.63237316693E+03  0.50400001928E-02 0. -1.
        1   -1    0    0  501    0  0.00000000000E+00  0.00000000000E+00 -0.97347433718E+02  0.97347433849E+02  0.50400001928E-02 0.  1.
    10030    2    1    2    0    0  0.00000000000E+00  0.00000000000E+00  0.53502573320E+03  0.72972060078E+03  0.49622537221E+03 0.  0.
        4    1    3    3  502    0 -0.88845065846E+02  0.49649023483E+02 -0.65232381084E+02  0.12089395229E+03  0.12699999809E+01 0.  1.
       -4    1    3    3    0  502  0.88845065846E+02 -0.49649023483E+02  0.60025811428E+03  0.60882664849E+03  0.12699999809E+01 0. -1.
</event>
<event>
 5   0  0.1243803E-01  0.4995935E+03  0.7818609E-02  0.1013885E+00
       -2   -1    0    0    0  501  0.00000000000E+00  0.00000000000E+00  0.29384821244E+02  0.29384821354E+02  0.25500000920E-02 0. -1.
        2   -1    0    0  501    0  0.00000000000E+00  0.00000000000E+00 -0.21234915495E+04  0.21234915495E+04  0.25500000920E-02 0.  1.
    10030    2    1    2    0    0  0.00000000000E+00  0.00000000000E+00 -0.20941067283E+04  0.21528763709E+04  0.49959351363E+03 0.  0.
        4    1    3    3  502    0 -0.13047233213E+03 -0.21288416528E+03 -0.10787519007E+04  0.11072714091E+04  0.12699999809E+01 0. -1.
       -4    1    3    3    0  502  0.13047233213E+03  0.21288416528E+03 -0.10153548276E+04  0.10456049618E+04  0.12699999809E+01 0.  1.
</event>
<event>
 5   0  0.1243803E-01  0.5004787E+03  0.7818609E-02  0.1013654E+00
        2   -1    0    0  501    0  0.00000000000E+00  0.00000000000E+00  0.12658099625E+03  0.12658099627E+03  0.25500000920E-02 0.  1.
       -2   -1    0    0    0  501  0.00000000000E+00  0.00000000000E+00 -0.49470098131E+03  0.49470098132E+03  0.25500000920E-02 0. -1.
    10030    2    1    2    0    0  0.00000000000E+00  0.00000000000E+00 -0.36811998506E+03  0.62128197759E+03  0.50047874308E+03 0.  0.
        4    1    3    3  502    0 -0.19050251956E+03 -0.25676040695E+02  0.14822368885E+02  0.19279985618E+03  0.12699999809E+01 0.  1.
       -4    1    3    3    0  502  0.19050251956E+03  0.25676040695E+02 -0.38294235395E+03  0.42848212141E+03  0.12699999809E+01 0. -1.
</event>
<event>
 5   0  0.7602288E-02  0.4997771E+03  0.7818609E-02  0.1013837E+00
        1   -1    0    0  501    0  0.00000000000E+00  0.00000000000E+00  0.15084387527E+04  0.15084387527E+04  0.50400001928E-02 0. -1.
       -1   -1    0    0    0  501  0.00000000000E+00  0.00000000000E+00 -0.41396627701E+02  0.41396628008E+02  0.50400001928E-02 0.  1.
    10030    2    1    2    0    0  0.00000000000E+00  0.00000000000E+00  0.14670421250E+04  0.15498353807E+04  0.49977706110E+03 0.  0.
        5    1    3    3  502    0  0.15061004844E+03 -0.94457741077E+02  0.12778998111E+04  0.12902153575E+04  0.46999998093E+01 0. -1.
       -5    1    3    3    0  502 -0.15061004844E+03  0.94457741077E+02  0.18914231387E+03  0.25962002318E+03  0.46999998093E+01 0.  1.
</event>
<event>
 5   0  0.1279188E-01  0.4968466E+03  0.7818609E-02  0.1014605E+00
        2   -1    0    0  501    0  0.00000000000E+00  0.00000000000E+00  0.14643475048E+04  0.14643475048E+04  0.25500000920E-02 0.  1.
       -2   -1    0    0    0  501  0.00000000000E+00  0.00000000000E+00 -0.42144464564E+02  0.42144464641E+02  0.25500000920E-02 0. -1.
    10030    2    1    2    0    0  0.00000000000E+00  0.00000000000E+00  0.14222030402E+04  0.15064919694E+04  0.49684662255E+03 0.  0.
        2    1    3    3  502    0  0.16580231602E+03 -0.77998788951E+02  0.20246688766E+03  0.27306969748E+03  0.25500000920E-02 0. -1.
       -2    1    3    3    0  502 -0.16580231602E+03  0.77998788951E+02  0.12197361525E+04  0.12334222719E+04  0.25500000920E-02 0.  1.
</event>
<event>
 5   0  0.7781754E-02  0.5005886E+03  0.7818609E-02  0.1013625E+00
       -1   -1    0    0    0  501  0.00000000000E+00  0.00000000000E+00  0.14232816422E+03  0.14232816431E+03  0.50400001928E-02 0.  1.
        1   -1    0    0  501    0  0.00000000000E+00  0.00000000000E+00 -0.44016051292E+03  0.44016051295E+03  0.50400001928E-02 0. -1.
    10030    2    1    2    0    0  0.00000000000E+00  0.00000000000E+00 -0.29783234871E+03  0.58248867726E+03  0.50058860475E+03 0.  0.
        2    1    3    3  502    0  0.15344341677E+03  0.55898256016E+02  0.71794568097E+02  0.17839270499E+03  0.25500000920E-02 0.  1.
       -2    1    3    3    0  502 -0.15344341677E+03 -0.55898256016E+02 -0.36962691680E+03  0.40409597228E+03  0.25500000920E-02 0. -1.
</event>
<event>
 5   0  0.7531632E-02  0.4961646E+03  0.7818609E-02  0.1014785E+00
       -1   -1    0    0    0  501  0.00000000000E+00  0.00000000000E+00  0.34969744727E+03  0.34969744731E+03  0.50400001928E-02 0.  1.
        1   -1    0    0  501    0  0.00000000000E+00  0.00000000000E+00 -0.17599448791E+03  0.17599448799E+03  0.50400001928E-02 0. -1.
    10030    2    1    2    0    0  0.00000000000E+00  0.00000000000E+00  0.17370295936E+03  0.52569193529E+03  0.49616458231E+03 0.  0.
        3    1    3    3  502    0  0.24094038042E+02  0.19775832484E+03  0.24348699946E+03  0.31460261731E+03  0.10100000352E+00 0.  1.
       -3    1    3    3    0  502 -0.24094038042E+02 -0.19775832484E+03 -0.69784040101E+02  0.21108931798E+03  0.10100000352E+00 0. -1.
</event>
<event>
 5   0  0.1211345E-01  0.4908908E+03  0.7818609E-02  0.1016184E+00
       -2   -1    0    0    0  501  0.00000000000E+00  0.00000000000E+00  0.26103133247E+03  0.26103133248E+03  0.25500000920E-02 0. -1.
        2   -1    0    0  501    0  0.00000000000E+00  0.00000000000E+00 -0.23079011648E+03  0.23079011650E+03  0.25500000920E-02 0.  1.
    10030    2    1    2    0    0  0.00000000000E+00  0.00000000000E+00  0.30241215989E+02  0.49182144898E+03  0.49089082955E+03 0.  0.
        5    1    3    3  502    0 -0.21356945157E+03  0.12076230747E+03  0.20221043064E+02  0.24622434107E+03  0.46999998093E+01 0. -1.
       -5    1    3    3    0  502  0.21356945157E+03 -0.12076230747E+03  0.10020172925E+02  0.24559710791E+03  0.46999998093E+01 0.  1.
</event>
<event>
 5   0  0.1231822E-01  0.4999511E+03  0.7818609E-02  0.1013792E+00
        2   -1    0    0  501    0  0.00000000000E+00  0.00000000000E+00  0.85733526954E+03  0.85733526954E+03  0.25500000920E-02 0.  1.
       -2   -1    0    0    0  501  0.00000000000E+00  0.00000000000E+00 -0.72886053849E+02  0.72886053893E+02  0.25500000920E-02 0. -1.
    10030    2    1    2    0    0  0.00000000000E+00  0.00000000000E+00  0.78444921569E+03  0.93022132343E+03  0.49995113619E+03 0.  0.
        1    1    3    3  502    0 -0.13370448291E+03 -0.13636988411E+03  0.92126293644E+02  0.21203982656E+03  0.50400001928E-02 0. -1.
       -1    1    3    3    0  502  0.13370448291E+03  0.13636988411E+03  0.69232292204E+03  0.71818149688E+03  0.50400001928E-02 0.  1.
</event>
<event>
 5   0  0.7812547E-02  0.5132033E+03  0.7818609E-02  0.1010389E+00
        1   -1    0    0  501    0  0.00000000000E+00  0.00000000000E+00  0.51382048552E+03  0.51382048555E+03  0.50400001928E-02 0.  1.
       -1   -1    0    0    0  501  0.00000000000E+00  0.00000000000E+00 -0.12814670052E+03  0.12814670062E+03  0.50400001928E-02 0. -1.
    10030    2    1    2    0    0  0.00000000000E+00  0.00000000000E+00  0.38567378501E+03  0.64196718616E+03  0.51320327325E+03 0.  0.
        4    1    3    3  502    0  0.56228522752E+02  0.24772191268E+03  0.14747560897E+03  0.29373195423E+03  0.12699999809E+01 0. -1.
       -4    1    3    3    0  502 -0.56228522752E+02 -0.24772191268E+03  0.23819817604E+03  0.34823523194E+03  0.12699999809E+01 0.  1.
</event>
<event>
 5   0  0.7781754E-02  0.4920034E+03  0.7818609E-02  0.1015887E+00
        1   -1    0    0  501    0  0.00000000000E+00  0.00000000000E+00  0.14215820570E+03  0.14215820579E+03  0.50400001928E-02 0.  1.
       -1   -1    0    0    0  501  0.00000000000E+00  0.00000000000E+00 -0.42570055228E+03  0.42570055231E+03  0.50400001928E-02 0. -1.
    10030    2    1    2    0    0  0.00000000000E+00  0.00000000000E+00 -0.28354234658E+03  0.56785875810E+03  0.49200336061E+03 0.  0.
        2    1    3    3  502    0  0.14270168875E+03  0.17926489529E+03 -0.38427874790E+02  0.23232816494E+03  0.25500000920E-02 0. -1.
       -2    1    3    3    0  502 -0.14270168875E+03 -0.17926489529E+03 -0.24511447179E+03  0.33553059316E+03  0.25500000920E-02 0.  1.
</event>
<event>
 5   0  0.7531632E-02  0.4960865E+03  0.7818609E-02  0.1014805E+00
       -1   -1    0    0    0  501  0.00000000000E+00  0.00000000000E+00  0.62282603000E+02  0.62282603204E+02  0.50400001928E-02 0.  1.
        1   -1    0    0  501    0  0.00000000000E+00  0.00000000000E+00 -0.98784341263E+03  0.98784341264E+03  0.50400001928E-02 0. -1.
    10030    2    1    2    0    0  0.00000000000E+00  0.00000000000E+00 -0.92556080963E+03  0.10501260158E+04  0.49608652152E+03 0.  0.
        3    1    3    3  502    0  0.38189873891E+02 -0.21373548056E+03 -0.71665879920E+03  0.74882652650E+03  0.10100000352E+00 0. -1.
       -3    1    3    3    0  502 -0.38189873891E+02  0.21373548056E+03 -0.20890201043E+03  0.30129948935E+03  0.10100000352E+00 0.  1.
</event>
<event>
 5   0  0.1243803E-01  0.5017467E+03  0.7818609E-02  0.1013324E+00
        2   -1    0    0  501    0  0.00000000000E+00  0.00000000000E+00  0.13366602409E+04  0.13366602409E+04  0.25500000920E-02 0. -1.
       -2   -1    0    0    0  501  0.00000000000E+00  0.00000000000E+00 -0.47085587438E+02  0.47085587507E+02  0.25500000920E-02 0.  1.
    10030    2    1    2    0    0  0.00000000000E+00  0.00000000000E+00  0.12895746535E+04  0.13837458284E+04  0.50174667990E+03 0.  0.
        4    1    3    3  502    0  0.24327960815E+03 -0.44567435884E+02  0.52893775643E+03  0.58390751593E+03  0.12699999809E+01 0. -1.
       -4    1    3    3    0  502 -0.24327960815E+03  0.44567435884E+02  0.76063689704E+03  0.79983831248E+03  0.12699999809E+01 0.  1.
</event>
<event>
 5   0  0.7602288E-02  0.4971744E+03  0.7818609E-02  0.1014519E+00
       -1   -1    0    0    0  501  0.00000000000E+00  0.00000000000E+00  0.29877947353E+02  0.29877947778E+02  0.50400001928E-02 0.  1.
        1   -1    0    0  501    0  0.00000000000E+00  0.00000000000E+00 -0.20682680005E+04  0.20682680005E+04  0.50400001928E-02 0. -1.
    10030    2    1    2    0    0  0.00000000000E+00  0.00000000000E+00 -0.20383900531E+04  0.20981459483E+04  0.49717442768E+03 0.  0.
        5    1    3    3  502    0 -0.18086730591E+03  0.16989743685E+03 -0.10781852087E+04  0.11063830962E+04  0.46999998093E+01 0.  1.
       -5    1    3    3    0  502  0.18086730591E+03 -0.16989743685E+03 -0.96020484448E+03  0.99176285208E+03  0.46999998093E+01 0. -1.
</event>
<event>
 5   0  0.1191894E-01  0.5028067E+03  0.7818609E-02  0.1013049E+00
        2   -1    0    0  501    0  0.00000000000E+00  0.00000000000E+00  0.78267260722E+02  0.78267260764E+02  0.25500000920E-02 0.  1.
       -2   -1    0    0    0  501  0.00000000000E+00  0.00000000000E+00 -0.80753627205E+03  0.80753627206E+03  0.25500000920E-02 0. -1.
    10030    2    1    2    0    0  0.00000000000E+00  0.00000000000E+00 -0.72926901133E+03  0.88580353282E+03  0.50280673014E+03 0.  0.
        3    1    3    3  502    0  0.15968615108E+03  0.12519119876E+03 -0.62612433279E+03  0.65818249248E+03  0.10100000352E+00 0. -1.
       -3    1    3    3    0  502 -0.15968615108E+03 -0.12519119876E+03 -0.10314467854E+03  0.22762104034E+03  0.10100000352E+00 0.  1.
</event>
<event>
 5   0  0.1191894E-01  0.4996710E+03  0.7818609E-02  0.1013865E+00
       -2   -1    0    0    0  501  0.00000000000E+00  0.00000000000E+00  0.35883550200E+03  0.35883550201E+03  0.25500000920E-02 0. -1.
        2   -1    0    0  501    0  0.00000000000E+00  0.00000000000E+00 -0.17394534683E+03  0.17394534685E+03  0.25500000920E-02 0.  1.
    10030    2    1    2    0    0  0.00000000000E+00  0.00000000000E+00  0.18489015517E+03  0.53278084886E+03  0.49967095516E+03 0.  0.
        3    1    3    3  502    0 -0.68179285317E+02 -0.28174549774E+02 -0.16206718254E+03  0.17806740875E+03  0.10100000352E+00 0.  1.
       -3    1    3    3    0  502  0.68179285317E+02  0.28174549774E+02  0.34695733771E+03  0.35471344011E+03  0.10100000352E+00 0. -1.
</event>
<event>
 5   0  0.7602288E-02  0.5015882E+03  0.7818609E-02  0.1013365E+00
       -1   -1    0    0    0  501  0.00000000000E+00  0.00000000000E+00  0.55288935801E+02  0.55288936030E+02  0.50400001928E-02 0.  1.
        1   -1    0    0  501    0  0.00000000000E+00  0.00000000000E+00 -0.11376177251E+04  0.11376177251E+04  0.50400001928E-02 0. -1.
    10030    2    1    2    0    0  0.00000000000E+00  0.00000000000E+00 -0.10823287893E+04  0.11929066612E+04  0.50158817176E+03 0.  0.
        5    1    3    3  502    0  0.22496048744E+02  0.66076425959E+02 -0.11139419181E+04  0.11161365746E+04  0.46999998093E+01 0. -1.
       -5    1    3    3    0  502 -0.22496048744E+02 -0.66076425959E+02  0.31613128797E+02  0.76770086538E+02  0.46999998093E+01 0.  1.
</event>
<event>
 5   0  0.5006750E-02  0.5013285E+03  0.7818609E-02  0.1013433E+00
       -3   -1    0    0    0  501  0.00000000000E+00  0.00000000000E+00  0.30503394730E+03  0.30503396402E+03  0.10100000352E+00 0.  1.
        3   -1    0    0  501    0  0.00000000000E+00  0.00000000000E+00 -0.20598541852E+03  0.20598544328E+03  0.10100000352E+00 0. -1.
    10030    2    1    2    0    0  0.00000000000E+00  0.00000000000E+00  0.99048528782E+02  0.51101940730E+03  0.50132845878E+03 0.  0.
        1    1    3    3  502    0 -0.16114360273E+03  0.16068620210E+03 -0.57603639207E+02  0.23474559745E+03  0.50400001928E-02 0. -1.
       -1    1    3    3    0  502  0.16114360273E+03 -0.16068620210E+03  0.15665216799E+03  0.27627380985E+03  0.50400001928E-02 0.  1.
</event>
<event>
 5   0  0.5006750E-02  0.5073022E+03  0.7818609E-02  0.1011890E+00
       -3   -1    0    0    0  501  0.00000000000E+00  0.00000000000E+00  0.25928325328E+03  0.25928327295E+03  0.10100000352E+00 0. -1.
        3   -1    0    0  501    0  0.00000000000E+00  0.00000000000E+00 -0.24814124930E+03  0.24814126985E+03  0.10100000352E+00 0.  1.
    10030    2    1    2    0    0  0.00000000000E+00  0.00000000000E+00  0.11142003983E+02  0.50742454280E+03  0.50730220026E+03 0.  0.
        4    1    3    3  502    0  0.33055152534E+02  0.24599408535E+03  0.57847690969E+02  0.25486016045E+03  0.12699999809E+01 0.  1.
       -4    1    3    3    0  502 -0.33055152534E+02 -0.24599408535E+03 -0.46705686986E+02  0.25256438235E+03  0.12699999809E+01 0. -1.
</event>
<event>
 5   0  0.7602288E-02  0.5025005E+03  0.7818609E-02  0.1013128E+00
        1   -1    0    0  501    0  0.00000000000E+00  0.00000000000E+00  0.64687968234E+03  0.64687968236E+03  0.50400001928E-02 0. -1.
       -1   -1    0    0    0  501  0.00000000000E+00  0.00000000000E+00 -0.97586448742E+02  0.97586448872E+02  0.50400001928E-02 0.  1.
    10030    2    1    2    0    0  0.00000000000E+00  0.00000000000E+00  0.54929323360E+03  0.74446613123E+03  0.50250051152E+03 0.  0.
        5    1    3    3  502    0 -0.51228793948E+02 -0.65027897443E+02  0.62602562743E+03  0.63149282891E+03  0.46999998093E+01 0. -1.
       -5    1    3    3    0  502  0.51228793948E+02  0.65027897443E+02 -0.76732393831E+02  0.11297330232E+03  0.46999998093E+01 0.  1.
</event>
<event>
 5   0  0.1191894E-01  0.5020202E+03  0.7818609E-02  0.1013253E+00
       -2   -1    0    0    0  501  0.00000000000E+00  0.00000000000E+00  0.72769950400E+02  0.72769950445E+02  0.25500000920E-02 0.  1.
        2   -1    0    0  501    0  0.00000000000E+00  0.00000000000E+00 -0.86582551388E+03  0.86582551389E+03  0.25500000920E-02 0. -1.
    10030    2    1    2    0    0  0.00000000000E+00  0.00000000000E+00 -0.79305556348E+03  0.93859546433E+03  0.50202023753E+03 0.  0.
        3    1    3    3  502    0 -0.19645667324E+03 -0.15199126483E+03 -0.32887119927E+03  0.41213207222E+03  0.10100000352E+00 0.  1.
       -3    1    3    3    0  502  0.19645667324E+03  0.15199126483E+03 -0.46418436421E+03  0.52646339211E+03  0.10100000352E+00 0. -1.
</event>
<event>
 5   0  0.7602288E-02  0.4885174E+03  0.7818609E-02  0.1016820E+00
        1   -1    0    0  501    0  0.00000000000E+00  0.00000000000E+00  0.16954322348E+03  0.16954322356E+03  0.50400001928E-02 0.  1.
       -1   -1    0    0    0  501  0.00000000000E+00  0.00000000000E+00 -0.35190035444E+03  0.35190035448E+03  0.50400001928E-02 0. -1.
    10030    2    1    2    0    0  0.00000000000E+00  0.00000000000E+00 -0.18235713096E+03  0.52144357803E+03  0.48851743250E+03 0.  0.
        5    1    3    3  502    0  0.13553673517E+03 -0.14965786728E+03  0.55458077975E+02  0.20944061744E+03  0.46999998093E+01 0.  1.
       -5    1    3    3    0  502 -0.13553673517E+03  0.14965786728E+03 -0.23781520894E+03  0.31200296060E+03  0.46999998093E+01 0. -1.
</event>
<event>
 5   0  0.1279188E-01  0.4931398E+03  0.7818609E-02  0.1015585E+00
       -2   -1    0    0    0  501  0.00000000000E+00  0.00000000000E+00  0.72989145891E+02  0.72989145935E+02  0.25500000920E-02 0. -1.
        2   -1    0    0  501    0  0.00000000000E+00  0.00000000000E+00 -0.83295549767E+03  0.83295549767E+03  0.25500000920E-02 0.  1.
    10030    2    1    2    0    0  0.00000000000E+00  0.00000000000E+00 -0.75996635178E+03  0.90594464361E+03  0.49313977881E+03 0.  0.
        2    1    3    3  502    0 -0.18385342304E+03 -0.11385150427E+03 -0.59760307091E+03  0.63552629887E+03  0.25500000920E-02 0.  1.
       -2    1    3    3    0  502  0.18385342304E+03  0.11385150427E+03 -0.16236328086E+03  0.27041834473E+03  0.25500000920E-02 0. -1.
</event>
<event>
 5   0  0.1231822E-01  0.4333061E+03  0.7818609E-02  0.1032821E+00
        2   -1    0    0  501    0  0.00000000000E+00  0.00000000000E+00  0.19760502938E+04  0.19760502938E+04  0.25500000920E-02 0. -1.
       -2   -1    0    0    0  501  0.00000000000E+00  0.00000000000E+00 -0.23753722390E+02  0.23753722527E+02  0.25500000920E-02 0.  1.
    10030    2    1    2    0    0  0.00000000000E+00  0.00000000000E+00  0.19522965714E+04  0.19998040164E+04  0.43330612849E+03 0.  0.
        1    1    3    3  502    0  0.86817997770E+02  0.18823363009E+03  0.12669177527E+04  0.12837639411E+04  0.50400001928E-02 0. -1.
       -1    1    3    3    0  502 -0.86817997770E+02 -0.18823363009E+03  0.68537881874E+03  0.71604007530E+03  0.50400001928E-02 0.  1.
</event>
<event>
 5   0  0.7416638E-02  0.5015668E+03  0.7818609E-02  0.1013371E+00
       -1   -1    0    0    0  501  0.00000000000E+00  0.00000000000E+00  0.12099308531E+03  0.12099308542E+03  0.50400001928E-02 0. -1.
        1   -1    0    0  501    0  0.00000000000E+00  0.00000000000E+00 -0.51980097637E+03  0.51980097639E+03  0.50400001928E-02 0.  1.
    10030    2    1    2    0    0  0.00000000000E+00  0.00000000000E+00 -0.39880789106E+03  0.64079406181E+03  0.50156684069E+03 0.  0.
        1    1    3    3  502    0  0.35756747767E+02  0.24527044347E+03 -0.24815662069E+03  0.35073899679E+03  0.50400001928E-02 0. -1.
       -1    1    3    3    0  502 -0.35756747767E+02 -0.24527044347E+03 -0.15065127036E+03  0.29005506502E+03  0.50400001928E-02 0.  1.
</event>
<event>
 5   0  0.1243803E-01  0.4985659E+03  0.7818609E-02  0.1014154E+00
        2   -1    0    0  501    0  0.00000000000E+00  0.00000000000E+00  0.86950501074E+03  0.86950501074E+03  0.25500000920E-02 0. -1.
       -2   -1    0    0    0  501  0.00000000000E+00  0.00000000000E+00 -0.71468243593E+02  0.71468243638E+02  0.25500000920E-02 0.  1.
    10030    2    1    2    0    0  0.00000000000E+00  0.00000000000E+00  0.79803676714E+03  0.94097325438E+03  0.49856592718E+03 0.  0.
        4    1    3    3  502    0  0.12969137354E+03 -0.10743917373E+02 -0.22624311878E+01  0.13016149825E+03  0.12699999809E+01 0.  1.
       -4    1    3    3    0  502 -0.12969137354E+03  0.10743917373E+02  0.80029919833E+03  0.81081175613E+03  0.12699999809E+01 0. -1.
</event>
<event>
 5   0  0.1243803E-01  0.4998184E+03  0.7818609E-02  0.1013826E+00
       -2   -1    0    0    0  501  0.00000000000E+00  0.00000000000E+00  0.81814788214E+02  0.81814788253E+02  0.25500000920E-02 0.  1.
        2   -1    0    0  501    0  0.00000000000E+00  0.00000000000E+00 -0.76336587695E+03  0.76336587695E+03  0.25500000920E-02 0. -1.
    10030    2    1    2    0    0  0.00000000000E+00  0.00000000000E+00 -0.68155108873E+03  0.84518066521E+03  0.49981843732E+03 0.  0.
        4    1    3    3  502    0 -0.22012560393E+03  0.10458620437E+03 -0.43430725802E+03  0.49801401880E+03  0.12699999809E+01 0. -1.
       -4    1    3    3    0  502  0.22012560393E+03 -0.10458620437E+03 -0.24724383071E+03  0.34716664640E+03  0.12699999809E+01 0.  1.
</event>
<event>
 5   0  0.1211345E-01  0.5060404E+03  0.7818609E-02  0.1012214E+00
       -2   -1    0    0    0  501  0.00000000000E+00  0.00000000000E+00  0.14398004349E+03  0.14398004351E+03  0.25500000920E-02 0. -1.
        2   -1    0    0  501    0  0.00000000000E+00  0.00000000000E+00 -0.44463954027E+03  0.44463954027E+03  0.25500000920E-02 0.  1.
    10030    2    1    2    0    0  0.00000000000E+00  0.00000000000E+00 -0.30065949678E+03  0.58861958378E+03  0.50604039504E+03 0.  0.
        5    1    3    3  502    0  0.89559411573E+02 -0.21412545909E+03 -0.33277476787E+02  0.23452096045E+03  0.46999998093E+01 0. -1.
       -5    1    3    3    0  502 -0.89559411573E+02  0.21412545909E+03 -0.26738201999E+03  0.35409862333E+03  0.46999998093E+01 0.  1.
</event>
<event>
 5   0  0.5006750E-02  0.5077828E+03  0.7818609E-02  0.1011767E+00
        3   -1    0    0  501    0  0.00000000000E+00  0.00000000000E+00  0.62312439334E+03  0.62312440153E+03  0.10100000352E+00 0.  1.
       -3   -1    0    0    0  501  0.00000000000E+00  0.00000000000E+00 -0.10344776750E+03  0.10344781681E+03  0.10100000352E+00 0. -1.
    10030    2    1    2    0    0  0.00000000000E+00  0.00000000000E+00  0.51967662584E+03  0.72657221834E+03  0.50778282072E+03 0.  0.
        3    1    3    3  502    0  0.12210189264E+02 -0.14550487548E+03 -0.37356523759E+02  0.15071920110E+03  0.10100000352E+00 0. -1.
       -3    1    3    3    0  502 -0.12210189264E+02  0.14550487548E+03  0.55703314960E+03  0.57585301724E+03  0.10100000352E+00 0.  1.
</event>
<event>
 5   0  0.7812547E-02  0.5255809E+03  0.7818609E-02  0.1007310E+00
       -1   -1    0    0    0  501  0.00000000000E+00  0.00000000000E+00  0.37070381613E+03  0.37070381617E+03  0.50400001928E-02 0.  1.
        1   -1    0    0  501    0  0.00000000000E+00  0.00000000000E+00 -0.18629108969E+03  0.18629108976E+03  0.50400001928E-02 0. -1.
    10030    2    1    2    0    0  0.00000000000E+00  0.00000000000E+00  0.18441272644E+03  0.55699490593E+03  0.52558088964E+03 0.  0.
        4    1    3    3  502    0  0.21004366949E+03  0.55907792405E+02  0.24872683763E+03  0.33031905335E+03  0.12699999809E+01 0.  1.
       -4    1    3    3    0  502 -0.21004366949E+03 -0.55907792405E+02 -0.64314111195E+02  0.22667585258E+03  0.12699999809E+01 0. -1.
</event>
<event>
 5   0  0.7781754E-02  0.4926323E+03  0.7818609E-02  0.1015720E+00
       -1   -1    0    0    0  501  0.00000000000E+00  0.00000000000E+00  0.28731408082E+02  0.28731408524E+02  0.50400001928E-02 0. -1.
        1   -1    0    0  501    0  0.00000000000E+00  0.00000000000E+00 -0.21116840817E+04  0.21116840817E+04  0.50400001928E-02 0.  1.
    10030    2    1    2    0    0  0.00000000000E+00  0.00000000000E+00 -0.20829526736E+04  0.21404154902E+04  0.49263234799E+03 0.  0.
        2    1    3    3  502    0  0.16690915406E+03 -0.18090922561E+03 -0.10814971205E+04  0.11091541080E+04  0.25500000920E-02 0.  1.
       -2    1    3    3    0  502 -0.16690915406E+03  0.18090922561E+03 -0.10014555531E+04  0.10312613822E+04  0.25500000920E-02 0. -1.
</event>
<event>
 5   0  0.1191894E-01  0.4984077E+03  0.7818609E-02  0.1014195E+00
       -2   -1    0    0    0  501  0.00000000000E+00  0.00000000000E+00  0.13201071996E+03  0.13201071998E+03  0.25500000920E-02 0.  1.
        2   -1    0    0  501    0  0.00000000000E+00  0.00000000000E+00 -0.47043575998E+03  0.47043575999E+03  0.25500000920E-02 0. -1.
    10030    2    1    2    0    0  0.00000000000E+00  0.00000000000E+00 -0.33842504003E+03  0.60244647997E+03  0.49840771815E+03 0.  0.
        3    1    3    3  502    0  0.17784211930E+03  0.10341476271E+03  0.78718982611E+00  0.20572569702E+03  0.10100000352E+00 0.  1.
       -3    1    3    3    0  502 -0.17784211930E+03 -0.10341476271E+03 -0.33921222985E+03  0.39672078295E+03  0.10100000352E+00 0. -1.
</event>
<event>
 5   0  0.1231822E-01  0.4994354E+03  0.7818609E-02  0.1013926E+00
        2   -1    0    0  501    0  0.00000000000E+00  0.00000000000E+00  0.62636574273E+03  0.62636574274E+03  0.25500000920E-02 0. -1.
       -2   -1    0    0    0  501  0.00000000000E+00  0.00000000000E+00 -0.99556726897E+02  0.99556726930E+02  0.25500000920E-02 0.  1.
    10030    2    1    2    0    0  0.00000000000E+00  0.00000000000E+00  0.52680901584E+03  0.72592246967E+03  0.49943537400E+03 0.  0.
        1    1    3    3  502    0 -0.31704476657E+01  0.93103365647E+02  0.60016393452E+03  0.60735083498E+03  0.50400001928E-02 0. -1.
       -1    1    3    3    0  502  0.31704476657E+01 -0.93103365647E+02 -0.73354918678E+02  0.11857163469E+03  0.50400001928E-02 0.  1.
</event>
<event>
 5   0  0.1243803E-01  0.5057381E+03  0.7818609E-02  0.1012292E+00
        2   -1    0    0  501    0  0.00000000000E+00  0.00000000000E+00  0.10666257340E+04  0.10666257340E+04  0.25500000920E-02 0. -1.
       -2   -1    0    0    0  501  0.00000000000E+00  0.00000000000E+00 -0.59948624707E+02  0.59948624761E+02  0.25500000920E-02 0.  1.
    10030    2    1    2    0    0  0.00000000000E+00  0.00000000000E+00  0.10066771093E+04  0.11265743588E+04  0.50573805814E+03 0.  0.
        4    1    3    3  502    0  0.11322348348E+03  0.17036182934E+03  0.17219609873E+03  0.26738702180E+03  0.12699999809E+01 0.  1.
       -4    1    3    3    0  502 -0.11322348348E+03 -0.17036182934E+03  0.83448101055E+03  0.85918733695E+03  0.12699999809E+01 0. -1.
</event>
<event>
 5   0  0.7531632E-02  0.5039281E+03  0.7818609E-02  0.1012759E+00
        1   -1    0    0  501    0  0.00000000000E+00  0.00000000000E+00  0.15579183605E+04  0.15579183606E+04  0.50400001928E-02 0.  1.
       -1   -1    0    0    0  501  0.00000000000E+00  0.00000000000E+00 -0.40750462550E+02  0.40750462862E+02  0.50400001928E-02 0. -1.
    10030    2    1    2    0    0  0.00000000000E+00  0.00000000000E+00  0.15171678980E+04  0.15986688234E+04  0.50392814592E+03 0.  0.
        3    1    3    3  502    0  0.12835406396E+03 -0.11967048394E+03  0.13321691936E+04  0.13436779975E+04  0.10100000352E+00 0.  1.
       -3    1    3    3    0  502 -0.12835406396E+03  0.11967048394E+03  0.18499870443E+03  0.25499082592E+03  0.10100000352E+00 0. -1.
</event>
<event>
 5   0  0.7416638E-02  0.4991377E+03  0.7818609E-02  0.1014004E+00
       -1   -1    0    0    0  501  0.00000000000E+00  0.00000000000E+00  0.24405754978E+03  0.24405754983E+03  0.50400001928E-02 0. -1.
        1   -1    0    0  501    0  0.00000000000E+00  0.00000000000E+00 -0.25520463484E+03  0.25520463489E+03  0.50400001928E-02 0.  1.
    10030    2    1    2    0    0  0.00000000000E+00  0.00000000000E+00 -0.11147085058E+02  0.49926218472E+03  0.49913772808E+03 0.  0.
        1    1    3    3  502    0 -0.85257737111E+02  0.18918935639E+03  0.13310850776E+03  0.24653472204E+03  0.50400001928E-02 0. -1.
       -1    1    3    3    0  502  0.85257737111E+02 -0.18918935639E+03 -0.14425559281E+03  0.25272746268E+03  0.50400001928E-02 0.  1.
</event>
<event>
 5   0  0.7781754E-02  0.5008896E+03  0.7818609E-02  0.1013547E+00
       -1   -1    0    0    0  501  0.00000000000E+00  0.00000000000E+00  0.14826309727E+03  0.14826309736E+03  0.50400001928E-02 0. -1.
        1   -1    0    0  501    0  0.00000000000E+00  0.00000000000E+00 -0.42304922299E+03  0.42304922302E+03  0.50400001928E-02 0.  1.
    10030    2    1    2    0    0  0.00000000000E+00  0.00000000000E+00 -0.27478612571E+03  0.57131232037E+03  0.50088956121E+03 0.  0.
        2    1    3    3  502    0  0.72417492876E+02 -0.23763543827E+03 -0.17360033451E+03  0.30307090085E+03  0.25500000920E-02 0.  1.
       -2    1    3    3    0  502 -0.72417492876E+02  0.23763543827E+03 -0.10118579121E+03  0.26824141952E+03  0.25500000920E-02 0. -1.
</event>
<event>
 5   0  0.1231822E-01  0.5108094E+03  0.7818609E-02  0.1010995E+00
       -2   -1    0    0    0  501  0.00000000000E+00  0.00000000000E+00  0.67872487920E+03  0.67872487920E+03  0.25500000920E-02 0.  1.
        2   -1    0    0  501    0  0.00000000000E+00  0.00000000000E+00 -0.96108992936E+02  0.96108992970E+02  0.25500000920E-02 0. -1.
    10030    2    1    2    0    0  0.00000000000E+00  0.00000000000E+00  0.58261588626E+03  0.77483387217E+03  0.51080941509E+03 0.  0.
        1    1    3    3  502    0 -0.11781266606E+03  0.11481662533E+03 -0.50417139123E+01  0.16458463063E+03  0.50400001928E-02 0. -1.
       -1    1    3    3    0  502  0.11781266606E+03 -0.11481662533E+03  0.58765760017E+03  0.61024924154E+03  0.50400001928E-02 0.  1.
</event>
<event>
 5   0  0.1243803E-01  0.4997586E+03  0.7818609E-02  0.1013842E+00
       -2   -1    0    0    0  501  0.00000000000E+00  0.00000000000E+00  0.38932336974E+03  0.38932336975E+03  0.25500000920E-02 0. -1.
        2   -1    0    0  501    0  0.00000000000E+00  0.00000000000E+00 -0.16037995274E+03  0.16037995276E+03  0.25500000920E-02 0.  1.
    10030    2    1    2    0    0  0.00000000000E+00  0.00000000000E+00  0.22894341700E+03  0.54970332250E+03  0.49975859631E+03 0.  0.
        4    1    3    3  502    0 -0.21878286842E+03 -0.11209476654E+03  0.16374683731E+03  0.29537403378E+03  0.12699999809E+01 0. -1.
       -4    1    3    3    0  502  0.21878286842E+03  0.11209476654E+03  0.65196579694E+02  0.25432928873E+03  0.12699999809E+01 0.  1.
</event>
<event>
 5   0  0.7602288E-02  0.5011715E+03  0.7818609E-02  0.1013474E+00
       -1   -1    0    0    0  501  0.00000000000E+00  0.00000000000E+00  0.99696304851E+03  0.99696304852E+03  0.50400001928E-02 0.  1.
        1   -1    0    0  501    0  0.00000000000E+00  0.00000000000E+00 -0.62984505730E+02  0.62984505931E+02  0.50400001928E-02 0. -1.
    10030    2    1    2    0    0  0.00000000000E+00  0.00000000000E+00  0.93397854278E+03  0.10599475545E+04  0.50117152734E+03 0.  0.
        5    1    3    3  502    0  0.72946023181E+02 -0.17200011325E+03  0.11394017943E+03  0.21888265291E+03  0.46999998093E+01 0. -1.
       -5    1    3    3    0  502 -0.72946023181E+02  0.17200011325E+03  0.82003836335E+03  0.84106490155E+03  0.46999998093E+01 0.  1.
</event>
<event>
 5   0  0.1231822E-01  0.4934351E+03  0.7818609E-02  0.1015507E+00
       -2   -1    0    0    0  501  0.00000000000E+00  0.00000000000E+00  0.46193425641E+02  0.46193425711E+02  0.25500000920E-02 0. -1.
        2   -1    0    0  501    0  0.00000000000E+00  0.00000000000E+00 -0.13177104748E+04  0.13177104748E+04  0.25500000920E-02 0.  1.
    10030    2    1    2    0    0  0.00000000000E+00  0.00000000000E+00 -0.12715170491E+04  0.13639039005E+04  0.49343514622E+03 0.  0.
        1    1    3    3  502    0  0.10043568708E+03 -0.22532324765E+03 -0.64520013357E+03  0.69075401233E+03  0.50400001928E-02 0. -1.
       -1    1    3    3    0  502 -0.10043568708E+03  0.22532324765E+03 -0.62631691556E+03  0.67314988814E+03  0.50400001928E-02 0.  1.
</event>
<event>
 5   0  0.7416638E-02  0.5008086E+03  0.7818609E-02  0.1013568E+00
       -1   -1    0    0    0  501  0.00000000000E+00  0.00000000000E+00  0.23271337914E+03  0.23271337920E+03  0.50400001928E-02 0. -1.
        1   -1    0    0  501    0  0.00000000000E+00  0.00000000000E+00 -0.26944003550E+03  0.26944003554E+03  0.50400001928E-02 0.  1.
    10030    2    1    2    0    0  0.00000000000E+00  0.00000000000E+00 -0.36726656353E+02  0.50215341474E+03  0.50080855089E+03 0.  0.
        1    1    3    3  502    0 -0.79661308175E+02 -0.17690843246E+02 -0.25573394897E+03  0.26843759542E+03  0.50400001928E-02 0.  1.
       -1    1    3    3    0  502  0.79661308175E+02  0.17690843246E+02  0.21900729262E+03  0.23371581932E+03  0.50400001928E-02 0. -1.
</event>
<event>
 5   0  0.7602288E-02  0.5039410E+03  0.7818609E-02  0.1012755E+00
       -1   -1    0    0    0  501  0.00000000000E+00  0.00000000000E+00  0.33817679403E+03  0.33817679407E+03  0.50400001928E-02 0. -1.
        1   -1    0    0  501    0  0.00000000000E+00  0.00000000000E+00 -0.18773947014E+03  0.18773947021E+03  0.50400001928E-02 0.  1.
    10030    2    1    2    0    0  0.00000000000E+00  0.00000000000E+00  0.15043732389E+03  0.52591626428E+03  0.50394099715E+03 0.  0.
        5    1    3    3  502    0 -0.82015629323E+02  0.21386312707E+03  0.18468820062E+03  0.29427168063E+03  0.46999998093E+01 0. -1.
       -5    1    3    3    0  502  0.82015629323E+02 -0.21386312707E+03 -0.34250876732E+02  0.23164458364E+03  0.46999998093E+01 0.  1.
</event>
<event>
 5   0  0.7602288E-02  0.4967561E+03  0.7818609E-02  0.1014629E+00
       -1   -1    0    0    0  501  0.00000000000E+00  0.00000000000E+00  0.27154996625E+03  0.27154996629E+03  0.50400001928E-02 0. -1.
        1   -1    0    0  501    0  0.00000000000E+00  0.00000000000E+00 -0.22718343421E+03  0.22718343427E+03  0.50400001928E-02 0.  1.
    10030    2    1    2    0    0  0.00000000000E+00  0.00000000000E+00  0.44366532032E+02  0.49873340056E+03  0.49675609274E+03 0.  0.
        5    1    3    3  502    0 -0.18571478941E+02 -0.20647753485E+03 -0.11507849178E+03  0.23715611208E+03  0.46999998093E+01 0.  1.
       -5    1    3    3    0  502  0.18571478941E+02  0.20647753485E+03  0.15944502382E+03  0.26157728848E+03  0.46999998093E+01 0. -1.
</event>
<event>
 5   0  0.1211345E-01  0.4966286E+03  0.7818609E-02  0.1014663E+00
       -2   -1    0    0    0  501  0.00000000000E+00  0.00000000000E+00  0.46901823585E+02  0.46901823654E+02  0.25500000920E-02 0.  1.
        2   -1    0    0  501    0  0.00000000000E+00  0.00000000000E+00 -0.13146606782E+04  0.13146606782E+04  0.25500000920E-02 0. -1.
    10030    2    1    2    0    0  0.00000000000E+00  0.00000000000E+00 -0.12677588546E+04  0.13615625019E+04  0.49662856645E+03 0.  0.
        5    1    3    3  502    0  0.15968397808E+03 -0.69471538172E+02 -0.11190178024E+04  0.11324964457E+04  0.46999998093E+01 0. -1.
       -5    1    3    3    0  502 -0.15968397808E+03  0.69471538172E+02 -0.14874105227E+03  0.22906605620E+03  0.46999998093E+01 0.  1.
</event>
<event>
 5   0  0.1211345E-01  0.4966016E+03  0.7818609E-02  0.1014670E+00
       -2   -1    0    0    0  501  0.00000000000E+00  0.00000000000E+00  0.29553538430E+03  0.29553538431E+03  0.25500000920E-02 0. -1.
        2   -1    0    0  501    0  0.00000000000E+00  0.00000000000E+00 -0.20861557023E+03  0.20861557024E+03  0.25500000920E-02 0.  1.
    10030    2    1    2    0    0  0.00000000000E+00  0.00000000000E+00  0.86919814075E+02  0.50415095455E+03  0.49660158165E+03 0.  0.
        5    1    3    3  502    0  0.37512306952E+02 -0.24533734048E+03  0.49345358407E+02  0.25309017800E+03  0.46999998093E+01 0. -1.
       -5    1    3    3    0  502 -0.37512306952E+02  0.24533734048E+03  0.37574455667E+02  0.25106077655E+03  0.46999998093E+01 0.  1.
</event>
<event>
 5   0  0.1243803E-01  0.4956826E+03  0.7818609E-02  0.1014912E+00
       -2   -1    0    0    0  501  0.00000000000E+00  0.00000000000E+00  0.97613780846E+02  0.97613780880E+02  0.25500000920E-02 0. -1.
        2   -1    0    0  501    0  0.00000000000E+00  0.00000000000E+00 -0.62926889584E+03  0.62926889585E+03  0.25500000920E-02 0.  1.
    10030    2    1    2    0    0  0.00000000000E+00  0.00000000000E+00 -0.53165511500E+03  0.72688267673E+03  0.49568262470E+03 0.  0.
        4    1    3    3  502    0  0.19502999317E+03 -0.15139639499E+03 -0.29748801630E+03  0.38659836962E+03  0.12699999809E+01 0.  1.
       -4    1    3    3    0  502 -0.19502999317E+03  0.15139639499E+03 -0.23416709869E+03  0.34028430711E+03  0.12699999809E+01 0. -1.
</event>
<event>
 5   0  0.7416638E-02  0.4939692E+03  0.7818609E-02  0.1015365E+00
        1   -1    0    0  501    0  0.00000000000E+00  0.00000000000E+00  0.14114465623E+03  0.14114465632E+03  0.50400001928E-02 0.  1.
       -1   -1    0    0    0  501  0.00000000000E+00  0.00000000000E+00 -0.43219060042E+03  0.43219060045E+03  0.50400001928E-02 0. -1.
    10030    2    1    2    0    0  0.00000000000E+00  0.00000000000E+00 -0.29104594419E+03  0.57333525677E+03  0.49396920453E+03 0.  0.
        1    1    3    3  502    0 -0.39111517164E+02  0.14771317678E+02  0.13700779349E+03  0.14324467914E+03  0.50400001928E-02 0.  1.
       -1    1    3    3    0  502  0.39111517164E+02 -0.14771317678E+02 -0.42805373767E+03  0.43009057763E+03  0.50400001928E-02 0. -1.
</event>
<event>
 5   0  0.1211345E-01  0.4998918E+03  0.7818609E-02  0.1013807E+00
        2   -1    0    0  501    0  0.00000000000E+00  0.00000000000E+00  0.10402607064E+04  0.10402607064E+04  0.25500000920E-02 0.  1.
       -2   -1    0    0    0  501  0.00000000000E+00  0.00000000000E+00 -0.60055090258E+02  0.60055090312E+02  0.25500000920E-02 0. -1.
    10030    2    1    2    0    0  0.00000000000E+00  0.00000000000E+00  0.98020561616E+03  0.11003157967E+04  0.49989179088E+03 0.  0.
        5    1    3    3  502    0  0.91895121678E+02  0.14803252523E+03  0.88441775953E+03  0.90142953428E+03  0.46999998093E+01 0.  1.
       -5    1    3    3    0  502 -0.91895121678E+02 -0.14803252523E+03  0.95787856631E+02  0.19888626245E+03  0.46999998093E+01 0. -1.
</event>
<event>
 5   0  0.7531632E-02  0.4974020E+03  0.7818609E-02  0.1014459E+00
        1   -1    0    0  501    0  0.00000000000E+00  0.00000000000E+00  0.78044102970E+02  0.78044103133E+02  0.50400001928E-02 0.  1.
       -1   -1    0    0    0  501  0.00000000000E+00  0.00000000000E+00 -0.79252849531E+03  0.79252849532E+03  0.50400001928E-02 0. -1.
    10030    2    1    2    0    0  0.00000000000E+00  0.00000000000E+00 -0.71448439234E+03  0.87057259846E+03  0.49740195244E+03 0.  0.
        3    1    3    3  502    0  0.21283779886E+03  0.12608419263E+03 -0.40203647058E+03  0.47204924122E+03  0.10100000352E+00 0. -1.
       -3    1    3    3    0  502 -0.21283779886E+03 -0.12608419263E+03 -0.31244792175E+03  0.39852335724E+03  0.10100000352E+00 0.  1.
</event>
<event>
 5   0  0.1191894E-01  0.4921412E+03  0.7818609E-02  0.1015851E+00
       -2   -1    0    0    0  501  0.00000000000E+00  0.00000000000E+00  0.73380983599E+03  0.73380983600E+03  0.25500000920E-02 0. -1.
        2   -1    0    0  501    0  0.00000000000E+00  0.00000000000E+00 -0.82515585683E+02  0.82515585722E+02  0.25500000920E-02 0.  1.
    10030    2    1    2    0    0  0.00000000000E+00  0.00000000000E+00  0.65129425031E+03  0.81632542172E+03  0.49214123345E+03 0.  0.
        3    1    3    3  502    0 -0.54686469860E+02 -0.10050770195E+03 -0.35704318601E+02  0.11986332510E+03  0.10100000352E+00 0.  1.
       -3    1    3    3    0  502  0.54686469860E+02  0.10050770195E+03  0.68699856891E+03  0.69646209662E+03  0.10100000352E+00 0. -1.
</event>
<event>
 5   0  0.1211345E-01  0.5014039E+03  0.7818609E-02  0.1013413E+00
        2   -1    0    0  501    0  0.00000000000E+00  0.00000000000E+00  0.30956146261E+03  0.30956146262E+03  0.25500000920E-02 0. -1.
       -2   -1    0    0    0  501  0.00000000000E+00  0.00000000000E+00 -0.20303392384E+03  0.20303392385E+03  0.25500000920E-02 0.  1.
    10030    2    1    2    0    0  0.00000000000E+00  0.00000000000E+00  0.10652753877E+03  0.51259538647E+03  0.50140394266E+03 0.  0.
        5    1    3    3  502    0 -0.22798509781E+03  0.98881267390E+02  0.19749771154E+02  0.24933281638E+03  0.46999998093E+01 0. -1.
       -5    1    3    3    0  502  0.22798509781E+03 -0.98881267390E+02  0.86777767618E+02  0.26326257010E+03  0.46999998093E+01 0.  1.
</event>
<event>
 5   0  0.7812547E-02  0.4924363E+03  0.7818609E-02  0.1015772E+00
       -1   -1    0    0    0  501  0.00000000000E+00  0.00000000000E+00  0.53048136673E+02  0.53048136913E+02  0.50400001928E-02 0.  1.
        1   -1    0    0  501    0  0.00000000000E+00  0.00000000000E+00 -0.11427995323E+04  0.11427995323E+04  0.50400001928E-02 0. -1.
    10030    2    1    2    0    0  0.00000000000E+00  0.00000000000E+00 -0.10897513956E+04  0.11958476692E+04  0.49243633469E+03 0.  0.
        4    1    3    3  502    0  0.18284696797E+03  0.19243421052E+02 -0.14718758591E+03  0.23551883427E+03  0.12699999809E+01 0.  1.
       -4    1    3    3    0  502 -0.18284696797E+03 -0.19243421052E+02 -0.94256380973E+03  0.96032883497E+03  0.12699999809E+01 0. -1.
</event>
<event>
 5   0  0.1191894E-01  0.5012696E+03  0.7818609E-02  0.1013448E+00
        2   -1    0    0  501    0  0.00000000000E+00  0.00000000000E+00  0.48406836497E+03  0.48406836498E+03  0.25500000920E-02 0. -1.
       -2   -1    0    0    0  501  0.00000000000E+00  0.00000000000E+00 -0.12977053988E+03  0.12977053991E+03  0.25500000920E-02 0.  1.
    10030    2    1    2    0    0  0.00000000000E+00  0.00000000000E+00  0.35429782509E+03  0.61383890488E+03  0.50126964030E+03 0.  0.
        3    1    3    3  502    0  0.90734171392E+02 -0.62751621018E+02 -0.98439757640E+02  0.14785415748E+03  0.10100000352E+00 0.  1.
       -3    1    3    3    0  502 -0.90734171392E+02  0.62751621018E+02  0.45273758273E+03  0.46598474740E+03  0.10100000352E+00 0. -1.
</event>
<event>
 5   0  0.1279188E-01  0.4958830E+03  0.7818609E-02  0.1014859E+00
        2   -1    0    0  501    0  0.00000000000E+00  0.00000000000E+00  0.95275661226E+03  0.95275661227E+03  0.25500000920E-02 0.  1.
       -2   -1    0    0    0  501  0.00000000000E+00  0.00000000000E+00 -0.64523286486E+02  0.64523286536E+02  0.25500000920E-02 0. -1.
    10030    2    1    2    0    0  0.00000000000E+00  0.00000000000E+00  0.88823332578E+03  0.10172798988E+04  0.49588300181E+03 0.  0.
        2    1    3    3  502    0  0.17141296605E+03 -0.69748556980E+02  0.78262307001E+03  0.80420528216E+03  0.25500000920E-02 0.  1.
       -2    1    3    3    0  502 -0.17141296605E+03  0.69748556980E+02  0.10561025577E+03  0.21307461665E+03  0.25500000920E-02 0. -1.
</event>
<event>
 5   0  0.1243803E-01  0.5022763E+03  0.7818609E-02  0.1013186E+00
        2   -1    0    0  501    0  0.00000000000E+00  0.00000000000E+00  0.62499591196E+03  0.62499591196E+03  0.25500000920E-02 0. -1.
       -2   -1    0    0    0  501  0.00000000000E+00  0.00000000000E+00 -0.10091326749E+03  0.10091326752E+03  0.25500000920E-02 0.  1.
    10030    2    1    2    0    0  0.00000000000E+00  0.00000000000E+00  0.52408264447E+03  0.72590917948E+03  0.50227633691E+03 0.  0.
        4    1    3    3  502    0  0.17640524194E+03  0.77547320908E+02  0.49479372329E+03  0.53099419758E+03  0.12699999809E+01 0. -1.
       -4    1    3    3    0  502 -0.17640524194E+03 -0.77547320908E+02  0.29288921185E+02  0.19491498190E+03  0.12699999809E+01 0.  1.
</event>
<event>
 5   0  0.1211345E-01  0.5116418E+03  0.7818609E-02  0.1010784E+00
        2   -1    0    0  501    0  0.00000000000E+00  0.00000000000E+00  0.17961785862E+04  0.17961785862E+04  0.25500000920E-02 0. -1.
       -2   -1    0    0    0  501  0.00000000000E+00  0.00000000000E+00 -0.36435310363E+02  0.36435310452E+02  0.25500000920E-02 0.  1.
    10030    2    1    2    0    0  0.00000000000E+00  0.00000000000E+00  0.17597432758E+04  0.18326138966E+04  0.51164176662E+03 0.  0.
        5    1    3    3  502    0 -0.19111833891E+03 -0.12999434339E+03  0.48754291588E+03  0.53957847771E+03  0.46999998093E+01 0.  1.
       -5    1    3    3    0  502  0.19111833891E+03  0.12999434339E+03  0.12722003599E+04  0.12930354189E+04  0.46999998093E+01 0. -1.
</event>
<event>
 5   0  0.1231822E-01  0.5065624E+03  0.7818609E-02  0.1012080E+00
       -2   -1    0    0    0  501  0.00000000000E+00  0.00000000000E+00  0.83675381020E+02  0.83675381059E+02  0.25500000920E-02 0. -1.
        2   -1    0    0  501    0  0.00000000000E+00  0.00000000000E+00 -0.76666960670E+03  0.76666960671E+03  0.25500000920E-02 0.  1.
    10030    2    1    2    0    0  0.00000000000E+00  0.00000000000E+00 -0.68299422568E+03  0.85034498777E+03  0.50656242054E+03 0.  0.
        1    1    3    3  502    0 -0.14786057099E+03 -0.46578755744E+02 -0.52663332825E+01  0.15511306596E+03  0.50400001928E-02 0. -1.
       -1    1    3    3    0  502  0.14786057099E+03  0.46578755744E+02 -0.67772789240E+03  0.69523192181E+03  0.50400001928E-02 0.  1.
</event>
<event>
 5   0  0.1231822E-01  0.4992290E+03  0.7818609E-02  0.1013980E+00
        2   -1    0    0  501    0  0.00000000000E+00  0.00000000000E+00  0.36392398970E+03  0.36392398971E+03  0.25500000920E-02 0.  1.
       -2   -1    0    0    0  501  0.00000000000E+00  0.00000000000E+00 -0.17120995641E+03  0.17120995643E+03  0.25500000920E-02 0. -1.
    10030    2    1    2    0    0  0.00000000000E+00  0.00000000000E+00  0.19271403329E+03  0.53513394614E+03  0.49922904731E+03 0.  0.
        1    1    3    3  502    0 -0.67272183758E+02 -0.11048385046E+03 -0.13248030855E+03  0.18515739277E+03  0.50400001928E-02 0. -1.
       -1    1    3    3    0  502  0.67272183758E+02  0.11048385046E+03  0.32519434184E+03  0.34997655337E+03  0.50400001928E-02 0.  1.
</event>
<event>
 5   0  0.7416638E-02  0.5063943E+03  0.7818609E-02  0.1012123E+00
       -1   -1    0    0    0  501  0.00000000000E+00  0.00000000000E+00  0.18980480344E+03  0.18980480351E+03  0.50400001928E-02 0.  1.
        1   -1    0    0  501    0  0.00000000000E+00  0.00000000000E+00 -0.33776171283E+03  0.33776171287E+03  0.50400001928E-02 0. -1.
    10030    2    1    2    0    0  0.00000000000E+00  0.00000000000E+00 -0.14795690939E+03  0.52756651638E+03  0.50639429516E+03 0.  0.
        1    1    3    3  502    0  0.14023314272E+03  0.20333638689E+03 -0.13196314641E+03  0.28004516169E+03  0.50400001928E-02 0. -1.
       -1    1    3    3    0  502 -0.14023314272E+03 -0.20333638689E+03 -0.15993762989E+02  0.24752135469E+03  0.50400001928E-02 0.  1.
</event>
<event>
 5   0  0.7781754E-02  0.4860199E+03  0.7818609E-02  0.1017494E+00
       -1   -1    0    0    0  501  0.00000000000E+00  0.00000000000E+00  0.71647073101E+02  0.71647073278E+02  0.50400001928E-02 0. -1.
        1   -1    0    0  501    0  0.00000000000E+00  0.00000000000E+00 -0.82423232887E+03  0.82423232888E+03  0.50400001928E-02 0.  1.
    10030    2    1    2    0    0  0.00000000000E+00  0.00000000000E+00 -0.75258525577E+03  0.89587940216E+03  0.48601989262E+03 0.  0.
        2    1    3    3  502    0  0.23463451891E+02  0.22404963686E+03 -0.20830901772E+03  0.30682473860E+03  0.25500000920E-02 0. -1.
       -2    1    3    3    0  502 -0.23463451891E+02 -0.22404963686E+03 -0.54427623805E+03  0.58905466356E+03  0.25500000920E-02 0.  1.
</event>
<event>
 5   0  0.1231822E-01  0.5005979E+03  0.7818609E-02  0.1013623E+00
       -2   -1    0    0    0  501  0.00000000000E+00  0.00000000000E+00  0.99788663980E+02  0.99788664012E+02  0.25500000920E-02 0.  1.
        2   -1    0    0  501    0  0.00000000000E+00  0.00000000000E+00 -0.62782243744E+03  0.62782243744E+03  0.25500000920E-02 0. -1.
    10030    2    1    2    0    0  0.00000000000E+00  0.00000000000E+00 -0.52803377346E+03  0.72761110145E+03  0.50059789157E+03 0.  0.
        1    1    3    3  502    0  0.21192192302E+03 -0.95761274869E+02 -0.39855990171E+03  0.46144459960E+03  0.50400001928E-02 0. -1.
       -1    1    3    3    0  502 -0.21192192302E+03  0.95761274869E+02 -0.12947387174E+03  0.26616650186E+03  0.50400001928E-02 0.  1.
</event>
<event>
 5   0  0.7531632E-02  0.5029262E+03  0.7818609E-02  0.1013018E+00
       -1   -1    0    0    0  501  0.00000000000E+00  0.00000000000E+00  0.57606938603E+03  0.57606938605E+03  0.50400001928E-02 0. -1.
        1   -1    0    0  501    0  0.00000000000E+00  0.00000000000E+00 -0.10976748439E+03  0.10976748451E+03  0.50400001928E-02 0.  1.
    10030    2    1    2    0    0  0.00000000000E+00  0.00000000000E+00  0.46630190163E+03  0.68583687055E+03  0.50292618697E+03 0.  0.
        3    1    3    3  502    0  0.20724064056E+02  0.21453579260E+03  0.56508845053E+02  0.22281910355E+03  0.10100000352E+00 0.  1.
       -3    1    3    3    0  502 -0.20724064056E+02 -0.21453579260E+03  0.40979305658E+03  0.46301776700E+03  0.10100000352E+00 0. -1.
</event>
<event>
 5   0  0.1211345E-01  0.4978052E+03  0.7818609E-02  0.1014353E+00
       -2   -1    0    0    0  501  0.00000000000E+00  0.00000000000E+00  0.11345622485E+03  0.11345622488E+03  0.25500000920E-02 0.  1.
        2   -1    0    0  501    0  0.00000000000E+00  0.00000000000E+00 -0.54604758264E+03  0.54604758265E+03  0.25500000920E-02 0. -1.
    10030    2    1    2    0    0  0.00000000000E+00  0.00000000000E+00 -0.43259135779E+03  0.65950380753E+03  0.49780517204E+03 0.  0.
        5    1    3    3  502    0 -0.82300451206E+02  0.22566528326E+03 -0.30248276021E+03  0.38628499137E+03  0.46999998093E+01 0.  1.
       -5    1    3    3    0  502  0.82300451206E+02 -0.22566528326E+03 -0.13010859758E+03  0.27321881616E+03  0.46999998093E+01 0. -1.
</event>
<event>
 5   0  0.7531632E-02  0.4979389E+03  0.7818609E-02  0.1014318E+00
       -1   -1    0    0    0  501  0.00000000000E+00  0.00000000000E+00  0.50356578512E+02  0.50356578764E+02  0.50400001928E-02 0. -1.
        1   -1    0    0  501    0  0.00000000000E+00  0.00000000000E+00 -0.12309373004E+04  0.12309373004E+04  0.50400001928E-02 0.  1.
    10030    2    1    2    0    0  0.00000000000E+00  0.00000000000E+00 -0.11805807219E+04  0.12812938792E+04  0.49793891585E+03 0.  0.
        3    1    3    3  502    0 -0.70011417878E+01 -0.21445765872E+03 -0.91521343292E+03  0.94003018109E+03  0.10100000352E+00 0.  1.
       -3    1    3    3    0  502  0.70011417878E+01  0.21445765872E+03 -0.26536728897E+03  0.34126369808E+03  0.10100000352E+00 0. -1.
</event>
<event>
 5   0  0.1279188E-01  0.5011648E+03  0.7818609E-02  0.1013475E+00
       -2   -1    0    0    0  501  0.00000000000E+00  0.00000000000E+00  0.96086461914E+02  0.96086461948E+02  0.25500000920E-02 0.  1.
        2   -1    0    0  501    0  0.00000000000E+00  0.00000000000E+00 -0.65348999391E+03  0.65348999392E+03  0.25500000920E-02 0. -1.
    10030    2    1    2    0    0  0.00000000000E+00  0.00000000000E+00 -0.55740353200E+03  0.74957645587E+03  0.50116480892E+03 0.  0.
        2    1    3    3  502    0  0.30931847929E+02 -0.22866266188E+03 -0.42485047012E+03  0.48346800734E+03  0.25500000920E-02 0. -1.
       -2    1    3    3    0  502 -0.30931847929E+02  0.22866266188E+03 -0.13255306188E+03  0.26610844852E+03  0.25500000920E-02 0.  1.
</event>
<event>
 5   0  0.7812547E-02  0.5037067E+03  0.7818609E-02  0.1012816E+00
       -1   -1    0    0    0  501  0.00000000000E+00  0.00000000000E+00  0.12939566952E+03  0.12939566962E+03  0.50400001928E-02 0. -1.
        1   -1    0    0  501    0  0.00000000000E+00  0.00000000000E+00 -0.49020276791E+03  0.49020276794E+03  0.50400001928E-02 0.  1.
    10030    2    1    2    0    0  0.00000000000E+00  0.00000000000E+00 -0.36080709839E+03  0.61959843755E+03  0.50370672178E+03 0.  0.
        4    1    3    3  502    0 -0.12364977086E+03  0.75166657392E+02  0.73151286179E+02  0.16214812915E+03  0.12699999809E+01 0. -1.
       -4    1    3    3    0  502  0.12364977086E+03 -0.75166657392E+02 -0.43395838457E+03  0.45745030840E+03  0.12699999809E+01 0.  1.
</event>
<event>
 5   0  0.7602288E-02  0.5001018E+03  0.7818609E-02  0.1013752E+00
       -1   -1    0    0    0  501  0.00000000000E+00  0.00000000000E+00  0.12033090769E+03  0.12033090779E+03  0.50400001928E-02 0. -1.
        1   -1    0    0  501    0  0.00000000000E+00  0.00000000000E+00 -0.51961258450E+03  0.51961258452E+03  0.50400001928E-02 0.  1.
    10030    2    1    2    0    0  0.00000000000E+00  0.00000000000E+00 -0.39928167681E+03  0.63994349232E+03  0.50010180555E+03 0.  0.
        5    1    3    3  502    0 -0.66274145388E+02  0.73648485173E+02 -0.49336180525E+03  0.50323386471E+03  0.46999998093E+01 0.  1.
       -5    1    3    3    0  502  0.66274145388E+02 -0.73648485173E+02  0.94080128436E+02  0.13670962760E+03  0.46999998093E+01 0. -1.
</event>
<event>
 5   0  0.7416638E-02  0.4982174E+03  0.7818609E-02  0.1014245E+00
        1   -1    0    0  501    0  0.00000000000E+00  0.00000000000E+00  0.62468415914E+02  0.62468416117E+02  0.50400001928E-02 0. -1.
       -1   -1    0    0    0  501  0.00000000000E+00  0.00000000000E+00 -0.99338450790E+03  0.99338450791E+03  0.50400001928E-02 0.  1.
    10030    2    1    2    0    0  0.00000000000E+00  0.00000000000E+00 -0.93091609198E+03  0.10558529240E+04  0.49821744937E+03 0.  0.
        1    1    3    3  502    0  0.15130868870E+02  0.10254859952E+03  0.14590869406E+02  0.10468071432E+03  0.50400001928E-02 0. -1.
       -1    1    3    3    0  502 -0.15130868870E+02 -0.10254859952E+03 -0.94550696139E+03  0.95117220970E+03  0.50400001928E-02 0.  1.
</event>
<event>
 5   0  0.7781754E-02  0.5087351E+03  0.7818609E-02  0.1011524E+00
       -1   -1    0    0    0  501  0.00000000000E+00  0.00000000000E+00  0.47805957764E+02  0.47805958030E+02  0.50400001928E-02 0.  1.
        1   -1    0    0  501    0  0.00000000000E+00  0.00000000000E+00 -0.13534475090E+04  0.13534475090E+04  0.50400001928E-02 0. -1.
    10030    2    1    2    0    0  0.00000000000E+00  0.00000000000E+00 -0.13056415512E+04  0.14012534670E+04  0.50873511631E+03 0.  0.
        2    1    3    3  502    0  0.15275221070E+03  0.12207843799E+03 -0.20472277293E+03  0.28310386196E+03  0.25500000920E-02 0.  1.
       -2    1    3    3    0  502 -0.15275221070E+03 -0.12207843799E+03 -0.11009187783E+04  0.11181496050E+04  0.25500000920E-02 0. -1.
</event>
<event>
 5   0  0.1191894E-01  0.5043905E+03  0.7818609E-02  0.1012639E+00
        2   -1    0    0  501    0  0.00000000000E+00  0.00000000000E+00  0.87954677484E+03  0.87954677484E+03  0.25500000920E-02 0.  1.
       -2   -1    0    0    0  501  0.00000000000E+00  0.00000000000E+00 -0.72312760130E+02  0.72312760175E+02  0.25500000920E-02 0. -1.
    10030    2    1    2    0    0  0.00000000000E+00  0.00000000000E+00  0.80723401471E+03  0.95185953501E+03  0.50439054303E+03 0.  0.
        3    1    3    3  502    0 -0.10292047904E+03 -0.15903453249E+03  0.89431896864E+02  0.20948193695E+03  0.10100000352E+00 0. -1.
       -3    1    3    3    0  502  0.10292047904E+03  0.15903453249E+03  0.71780211784E+03  0.74237759806E+03  0.10100000352E+00 0.  1.
</event>
<event>
 5   0  0.1231822E-01  0.4938073E+03  0.7818609E-02  0.1015408E+00
        2   -1    0    0  501    0  0.00000000000E+00  0.00000000000E+00  0.76804700303E+03  0.76804700303E+03  0.25500000920E-02 0.  1.
       -2   -1    0    0    0  501  0.00000000000E+00  0.00000000000E+00 -0.79371997020E+02  0.79371997061E+02  0.25500000920E-02 0. -1.
    10030    2    1    2    0    0  0.00000000000E+00  0.00000000000E+00  0.68867500601E+03  0.84741900010E+03  0.49380734889E+03 0.  0.
        1    1    3    3  502    0  0.18748389264E+03  0.14822943810E+03  0.23800556290E+03  0.33729634495E+03  0.50400001928E-02 0.  1.
       -1    1    3    3    0  502 -0.18748389264E+03 -0.14822943810E+03  0.45066944311E+03  0.51012265515E+03  0.50400001928E-02 0. -1.
</event>
<event>
 5   0  0.5006750E-02  0.5163466E+03  0.7818609E-02  0.1009598E+00
        4   -1    0    0  501    0  0.00000000000E+00  0.00000000000E+00  0.31744418021E+03  0.31744672065E+03  0.12699999809E+01 0. -1.
       -4   -1    0    0    0  501  0.00000000000E+00  0.00000000000E+00 -0.20996375533E+03  0.20996759619E+03  0.12699999809E+01 0.  1.
    10030    2    1    2    0    0  0.00000000000E+00  0.00000000000E+00  0.10748042488E+03  0.52741431684E+03  0.51634660827E+03 0.  0.
        3    1    3    3  502    0 -0.88690142313E+02 -0.12788162389E+03  0.26415028027E+03  0.30658609206E+03  0.10100000352E+00 0. -1.
       -3    1    3    3    0  502  0.88690142313E+02  0.12788162389E+03 -0.15666985539E+03  0.22082822478E+03  0.10100000352E+00 0.  1.
</event>
<event>
 5   0  0.7781754E-02  0.5215168E+03  0.7818609E-02  0.1008310E+00
       -1   -1    0    0    0  501  0.00000000000E+00  0.00000000000E+00  0.68127350068E+02  0.68127350254E+02  0.50400001928E-02 0. -1.
        1   -1    0    0  501    0  0.00000000000E+00  0.00000000000E+00 -0.99805643850E+03  0.99805643851E+03  0.50400001928E-02 0.  1.
    10030    2    1    2    0    0  0.00000000000E+00  0.00000000000E+00 -0.92992908843E+03  0.10661837888E+04  0.52151678968E+03 0.  0.
        2    1    3    3  502    0  0.21957856040E+03  0.12175365679E+03 -0.60889082099E+03  0.65862487732E+03  0.25500000920E-02 0.  1.
       -2    1    3    3    0  502 -0.21957856040E+03 -0.12175365679E+03 -0.32103826744E+03  0.40755891144E+03  0.25500000920E-02 0. -1.
</event>
<event>
 5   0  0.7531632E-02  0.5081955E+03  0.7818609E-02  0.1011662E+00
        1   -1    0    0  501    0  0.00000000000E+00  0.00000000000E+00  0.10408665252E+03  0.10408665264E+03  0.50400001928E-02 0.  1.
       -1   -1    0    0    0  501  0.00000000000E+00  0.00000000000E+00 -0.62030690642E+03  0.62030690644E+03  0.50400001928E-02 0. -1.
    10030    2    1    2    0    0  0.00000000000E+00  0.00000000000E+00 -0.51622025390E+03  0.72439355908E+03  0.50819551149E+03 0.  0.
        3    1    3    3  502    0 -0.25074825792E+03  0.36544276991E+02 -0.23123471340E+03  0.34304471416E+03  0.10100000352E+00 0.  1.
       -3    1    3    3    0  502  0.25074825792E+03 -0.36544276991E+02 -0.28498554050E+03  0.38134884492E+03  0.10100000352E+00 0. -1.
</event>
<event>
 5   0  0.7812547E-02  0.4867574E+03  0.7818609E-02  0.1017294E+00
        1   -1    0    0  501    0  0.00000000000E+00  0.00000000000E+00  0.14867904339E+03  0.14867904348E+03  0.50400001928E-02 0.  1.
       -1   -1    0    0    0  501  0.00000000000E+00  0.00000000000E+00 -0.39839630790E+03  0.39839630794E+03  0.50400001928E-02 0. -1.
    10030    2    1    2    0    0  0.00000000000E+00  0.00000000000E+00 -0.24971726451E+03  0.54707535141E+03  0.48675736043E+03 0.  0.
        4    1    3    3  502    0  0.10551675547E+03  0.91915860171E+02 -0.34865454626E+03  0.37569125164E+03  0.12699999809E+01 0. -1.
       -4    1    3    3    0  502 -0.10551675547E+03 -0.91915860171E+02  0.98937281748E+02  0.17138409977E+03  0.12699999809E+01 0.  1.
</event>
<event>
 5   0  0.1279188E-01  0.5008761E+03  0.7818609E-02  0.1013551E+00
       -2   -1    0    0    0  501  0.00000000000E+00  0.00000000000E+00  0.53720470164E+02  0.53720470225E+02  0.25500000920E-02 0. -1.
        2   -1    0    0  501    0  0.00000000000E+00  0.00000000000E+00 -0.11675104446E+04  0.11675104446E+04  0.25500000920E-02 0.  1.
    10030    2    1    2    0    0  0.00000000000E+00  0.00000000000E+00 -0.11137899744E+04  0.12212309148E+04  0.50087607267E+03 0.  0.
        2    1    3    3  502    0 -0.15807999257E+03 -0.53914457734E+02 -0.10190527590E+03  0.19565463978E+03  0.25500000920E-02 0. -1.
       -2    1    3    3    0  502  0.15807999257E+03  0.53914457734E+02 -0.10118846985E+04  0.10255762750E+04  0.25500000920E-02 0.  1.
</event>
<event>
 5   0  0.1231822E-01  0.5033288E+03  0.7818609E-02  0.1012914E+00
        2   -1    0    0  501    0  0.00000000000E+00  0.00000000000E+00  0.69079163714E+03  0.69079163714E+03  0.25500000920E-02 0. -1.
       -2   -1    0    0    0  501  0.00000000000E+00  0.00000000000E+00 -0.91684633442E+02  0.91684633478E+02  0.25500000920E-02 0.  1.
    10030    2    1    2    0    0  0.00000000000E+00  0.00000000000E+00  0.59910700370E+03  0.78247627062E+03  0.50332883109E+03 0.  0.
        1    1    3    3  502    0 -0.37688595040E+02 -0.59364185015E+02  0.67520943037E+03  0.67886103994E+03  0.50400001928E-02 0. -1.
       -1    1    3    3    0  502  0.37688595040E+02  0.59364185015E+02 -0.76102426674E+02  0.10361523068E+03  0.50400001928E-02 0.  1.
</event>
<event>
 5   0  0.5006750E-02  0.5395279E+03  0.7818609E-02  0.1003947E+00
        3   -1    0    0  501    0  0.00000000000E+00  0.00000000000E+00  0.64771739019E+03  0.64771739806E+03  0.10100000352E+00 0.  1.
       -3   -1    0    0    0  501  0.00000000000E+00  0.00000000000E+00 -0.11235234297E+03  0.11235238837E+03  0.10100000352E+00 0. -1.
    10030    2    1    2    0    0  0.00000000000E+00  0.00000000000E+00  0.53536504722E+03  0.76006978643E+03  0.53952789221E+03 0.  0.
        2    1    3    3  502    0  0.12315094573E+03  0.60746498791E+02  0.59479686456E+03  0.61044213702E+03  0.25500000920E-02 0.  1.
       -2    1    3    3    0  502 -0.12315094573E+03 -0.60746498791E+02 -0.59431817347E+02  0.14962764941E+03  0.25500000920E-02 0. -1.
</event>
<event>
 5   0  0.7416638E-02  0.5008009E+03  0.7818609E-02  0.1013570E+00
       -1   -1    0    0    0  501  0.00000000000E+00  0.00000000000E+00  0.14599534499E+03  0.14599534508E+03  0.50400001928E-02 0. -1.
        1   -1    0    0  501    0  0.00000000000E+00  0.00000000000E+00 -0.42946831856E+03  0.42946831859E+03  0.50400001928E-02 0.  1.
    10030    2    1    2    0    0  0.00000000000E+00  0.00000000000E+00 -0.28347297357E+03  0.57546366367E+03  0.50080086008E+03 0.  0.
        1    1    3    3  502    0 -0.22224042537E+03  0.11372470343E+03 -0.16402582392E+03  0.29871154276E+03  0.50400001928E-02 0.  1.
       -1    1    3    3    0  502  0.22224042537E+03 -0.11372470343E+03 -0.11944714965E+03  0.27675212091E+03  0.50400001928E-02 0. -1.
</event>
<event>
 5   0  0.1279188E-01  0.4950340E+03  0.7818609E-02  0.1015083E+00
        2   -1    0    0  501    0  0.00000000000E+00  0.00000000000E+00  0.72044926222E+03  0.72044926222E+03  0.25500000920E-02 0.  1.
       -2   -1    0    0    0  501  0.00000000000E+00  0.00000000000E+00 -0.85036750455E+02  0.85036750493E+02  0.25500000920E-02 0. -1.
    10030    2    1    2    0    0  0.00000000000E+00  0.00000000000E+00  0.63541251176E+03  0.80548601271E+03  0.49503399537E+03 0.  0.
        2    1    3    3  502    0 -0.22180604995E+02  0.17725351594E+03  0.38930047699E+02  0.18282870882E+03  0.25500000920E-02 0. -1.
       -2    1    3    3    0  502  0.22180604995E+02 -0.17725351594E+03  0.59648246406E+03  0.62265730389E+03  0.25500000920E-02 0.  1.
</event>
<event>
 5   0  0.7416638E-02  0.5026387E+03  0.7818609E-02  0.1013092E+00
       -1   -1    0    0    0  501  0.00000000000E+00  0.00000000000E+00  0.19041992693E+03  0.19041992700E+03  0.50400001928E-02 0.  1.
        1   -1    0    0  501    0  0.00000000000E+00  0.00000000000E+00 -0.33169536903E+03  0.33169536907E+03  0.50400001928E-02 0. -1.
    10030    2    1    2    0    0  0.00000000000E+00  0.00000000000E+00 -0.14127544210E+03  0.52211529606E+03  0.50263866927E+03 0.  0.
        1    1    3    3  502    0  0.13387300940E+01 -0.43611163062E+02 -0.32773104537E+03  0.33062269110E+03  0.50400001928E-02 0. -1.
       -1    1    3    3    0  502 -0.13387300940E+01  0.43611163062E+02  0.18645560327E+03  0.19149260497E+03  0.50400001928E-02 0.  1.
</event>
<event>
 5   0  0.1231822E-01  0.4730789E+03  0.7818609E-02  0.1021055E+00
       -2   -1    0    0    0  501  0.00000000000E+00  0.00000000000E+00  0.80362377419E+02  0.80362377459E+02  0.25500000920E-02 0. -1.
        2   -1    0    0  501    0  0.00000000000E+00  0.00000000000E+00 -0.69623262411E+03  0.69623262412E+03  0.25500000920E-02 0.  1.
    10030    2    1    2    0    0  0.00000000000E+00  0.00000000000E+00 -0.61587024669E+03  0.77659500158E+03  0.47307888952E+03 0.  0.
        1    1    3    3  502    0  0.23650853388E+03  0.38157505689E+01 -0.30752521186E+03  0.38797242493E+03  0.50400001928E-02 0.  1.
       -1    1    3    3    0  502 -0.23650853388E+03 -0.38157505689E+01 -0.30834503483E+03  0.38862257665E+03  0.50400001928E-02 0. -1.
</event>
<event>
 5   0  0.7531632E-02  0.5080283E+03  0.7818609E-02  0.1011704E+00
        1   -1    0    0  501    0  0.00000000000E+00  0.00000000000E+00  0.10679297469E+04  0.10679297469E+04  0.50400001928E-02 0.  1.
       -1   -1    0    0    0  501  0.00000000000E+00  0.00000000000E+00 -0.60418953070E+02  0.60418953280E+02  0.50400001928E-02 0. -1.
    10030    2    1    2    0    0  0.00000000000E+00  0.00000000000E+00  0.10075107938E+04  0.11283487002E+04  0.50802833537E+03 0.  0.
        3    1    3    3  502    0  0.20775201184E+03 -0.10555237434E+03  0.72829956159E+03  0.76467147440E+03  0.10100000352E+00 0.  1.
       -3    1    3    3    0  502 -0.20775201184E+03  0.10555237434E+03  0.27921123226E+03  0.36367722581E+03  0.10100000352E+00 0. -1.
</event>
<event>
 5   0  0.1211345E-01  0.5027357E+03  0.7818609E-02  0.1013067E+00
        2   -1    0    0  501    0  0.00000000000E+00  0.00000000000E+00  0.14102446831E+03  0.14102446833E+03  0.25500000920E-02 0. -1.
       -2   -1    0    0    0  501  0.00000000000E+00  0.00000000000E+00 -0.44804850340E+03  0.44804850341E+03  0.25500000920E-02 0.  1.
    10030    2    1    2    0    0  0.00000000000E+00  0.00000000000E+00 -0.30702403509E+03  0.58907297174E+03  0.50273572373E+03 0.  0.
        5    1    3    3  502    0 -0.13670635136E+03 -0.17499148229E+03 -0.15599936769E+02  0.22265689614E+03  0.46999998093E+01 0. -1.
       -5    1    3    3    0  502  0.13670635136E+03  0.17499148229E+03 -0.29142409832E+03  0.36641607560E+03  0.46999998093E+01 0.  1.
</event>
<event>
 5   0  0.1231822E-01  0.5002029E+03  0.7818609E-02  0.1013726E+00
        2   -1    0    0  501    0  0.00000000000E+00  0.00000000000E+00  0.11126518521E+04  0.11126518521E+04  0.25500000920E-02 0.  1.
       -2   -1    0    0    0  501  0.00000000000E+00  0.00000000000E+00 -0.56217695596E+02  0.56217695654E+02  0.25500000920E-02 0. -1.
    10030    2    1    2    0    0  0.00000000000E+00  0.00000000000E+00  0.10564341565E+04  0.11688695478E+04  0.50020285151E+03 0.  0.
        1    1    3    3  502    0 -0.19558789990E+03  0.14069597160E+03  0.37144747842E+03  0.44274508722E+03  0.50400001928E-02 0. -1.
       -1    1    3    3    0  502  0.19558789990E+03 -0.14069597160E+03  0.68498667813E+03  0.72612446058E+03  0.50400001928E-02 0.  1.
</event>
<event>
 5   0  0.7781754E-02  0.5054201E+03  0.7818609E-02  0.1012374E+00
        1   -1    0    0  501    0  0.00000000000E+00  0.00000000000E+00  0.38011690055E+03  0.38011690059E+03  0.50400001928E-02 0.  1.
       -1   -1    0    0    0  501  0.00000000000E+00  0.00000000000E+00 -0.16800717769E+03  0.16800717776E+03  0.50400001928E-02 0. -1.
    10030    2    1    2    0    0  0.00000000000E+00  0.00000000000E+00  0.21210972287E+03  0.54812407835E+03  0.50542009332E+03 0.  0.
        2    1    3    3  502    0  0.71551352340E+02 -0.16256334473E+03 -0.88900287737E+02  0.19861948101E+03  0.25500000920E-02 0. -1.
       -2    1    3    3    0  502 -0.71551352340E+02  0.16256334473E+03  0.30101001060E+03  0.34950459734E+03  0.25500000920E-02 0.  1.
</event>
<event>
 5   0  0.1279188E-01  0.4993222E+03  0.7818609E-02  0.1013956E+00
       -2   -1    0    0    0  501  0.00000000000E+00  0.00000000000E+00  0.75596950718E+02  0.75596950761E+02  0.25500000920E-02 0. -1.
        2   -1    0    0  501    0  0.00000000000E+00  0.00000000000E+00 -0.82451299762E+03  0.82451299762E+03  0.25500000920E-02 0.  1.
    10030    2    1    2    0    0  0.00000000000E+00  0.00000000000E+00 -0.74891604690E+03  0.90010994839E+03  0.49932221448E+03 0.  0.
        2    1    3    3  502    0  0.15166977068E+03  0.13014069980E+03 -0.64419785974E+03  0.67448588094E+03  0.25500000920E-02 0.  1.
       -2    1    3    3    0  502 -0.15166977068E+03 -0.13014069980E+03 -0.10471818716E+03  0.22562406744E+03  0.25500000920E-02 0. -1.
</event>
<event>
 5   0  0.1231822E-01  0.5028426E+03  0.7818609E-02  0.1013040E+00
       -2   -1    0    0    0  501  0.00000000000E+00  0.00000000000E+00  0.56602395493E+02  0.56602395550E+02  0.25500000920E-02 0.  1.
        2   -1    0    0  501    0  0.00000000000E+00  0.00000000000E+00 -0.11167844024E+04  0.11167844024E+04  0.25500000920E-02 0. -1.
    10030    2    1    2    0    0  0.00000000000E+00  0.00000000000E+00 -0.10601820069E+04  0.11733867979E+04  0.50284260941E+03 0.  0.
        1    1    3    3  502    0 -0.70643665640E+02 -0.20676275542E+03 -0.23984072775E+03  0.32444558748E+03  0.50400001928E-02 0.  1.
       -1    1    3    3    0  502  0.70643665640E+02  0.20676275542E+03 -0.82034127913E+03  0.84894121045E+03  0.50400001928E-02 0. -1.
</event>
<event>
 5   0  0.7781754E-02  0.4984520E+03  0.7818609E-02  0.1014184E+00
        1   -1    0    0  501    0  0.00000000000E+00  0.00000000000E+00  0.57779766612E+03  0.57779766614E+03  0.50400001928E-02 0. -1.
       -1   -1    0    0    0  501  0.00000000000E+00  0.00000000000E+00 -0.10750060979E+03  0.10750060991E+03  0.50400001928E-02 0.  1.
    10030    2    1    2    0    0  0.00000000000E+00  0.00000000000E+00  0.47029705633E+03  0.68529827605E+03  0.49845200969E+03 0.  0.
        2    1    3    3  502    0  0.72660301618E+02 -0.23465870448E+03  0.17731680062E+03  0.30296117706E+03  0.25500000920E-02 0.  1.
       -2    1    3    3    0  502 -0.72660301618E+02  0.23465870448E+03  0.29298025571E+03  0.38233709899E+03  0.25500000920E-02 0. -1.
</event>
<event>
 5   0  0.7812547E-02  0.5034963E+03  0.7818609E-02  0.1012870E+00
        1   -1    0    0  501    0  0.00000000000E+00  0.00000000000E+00  0.12340020008E+04  0.12340020008E+04  0.50400001928E-02 0.  1.
       -1   -1    0    0    0  501  0.00000000000E+00  0.00000000000E+00 -0.51359013445E+02  0.51359013692E+02  0.50400001928E-02 0. -1.
    10030    2    1    2    0    0  0.00000000000E+00  0.00000000000E+00  0.11826429873E+04  0.12853610145E+04  0.50349627809E+03 0.  0.
        4    1    3    3  502    0  0.43096205261E+02  0.33094197639E+01  0.12244503542E+04  0.12252136621E+04  0.12699999809E+01 0.  1.
       -4    1    3    3    0  502 -0.43096205261E+02 -0.33094197639E+01 -0.41807366860E+02  0.60147352317E+02  0.12699999809E+01 0. -1.
</event>
<event>
 5   0  0.1211345E-01  0.5045861E+03  0.7818609E-02  0.1012589E+00
       -2   -1    0    0    0  501  0.00000000000E+00  0.00000000000E+00  0.27102741581E+03  0.27102741582E+03  0.25500000920E-02 0.  1.
        2   -1    0    0  501    0  0.00000000000E+00  0.00000000000E+00 -0.23485363807E+03  0.23485363808E+03  0.25500000920E-02 0. -1.
    10030    2    1    2    0    0  0.00000000000E+00  0.00000000000E+00  0.36173777740E+02  0.50588105390E+03  0.50458606649E+03 0.  0.
        5    1    3    3  502    0 -0.58422207025E+01 -0.23311420921E+03 -0.78354158307E+02  0.24604436632E+03  0.46999998093E+01 0. -1.
       -5    1    3    3    0  502  0.58422207025E+01  0.23311420921E+03  0.11452793605E+03  0.25983668758E+03  0.46999998093E+01 0.  1.
</event>
<event>
 5   0  0.7531632E-02  0.4930063E+03  0.7818609E-02  0.1015621E+00
       -1   -1    0    0    0  501  0.00000000000E+00  0.00000000000E+00  0.64788136367E+02  0.64788136563E+02  0.50400001928E-02 0. -1.
        1   -1    0    0  501    0  0.00000000000E+00  0.00000000000E+00 -0.93788475571E+03  0.93788475573E+03  0.50400001928E-02 0.  1.
    10030    2    1    2    0    0  0.00000000000E+00  0.00000000000E+00 -0.87309661935E+03  0.10026728923E+04  0.49300631053E+03 0.  0.
        3    1    3    3  502    0 -0.19962403816E+03  0.13705192888E+03 -0.53042956912E+03  0.58308535037E+03  0.10100000352E+00 0.  1.
       -3    1    3    3    0  502  0.19962403816E+03 -0.13705192888E+03 -0.34266705023E+03  0.41958754192E+03  0.10100000352E+00 0. -1.
</event>
<event>
 5   0  0.7416638E-02  0.5003702E+03  0.7818609E-02  0.1013682E+00
        1   -1    0    0  501    0  0.00000000000E+00  0.00000000000E+00  0.13551480556E+04  0.13551480556E+04  0.50400001928E-02 0.  1.
       -1   -1    0    0    0  501  0.00000000000E+00  0.00000000000E+00 -0.46188745412E+02  0.46188745687E+02  0.50400001928E-02 0. -1.
    10030    2    1    2    0    0  0.00000000000E+00  0.00000000000E+00  0.13089593102E+04  0.14013368013E+04  0.50037021787E+03 0.  0.
        1    1    3    3  502    0 -0.46508795379E+02 -0.20240905212E+03  0.10451618034E+04  0.10655964000E+04  0.50400001928E-02 0.  1.
       -1    1    3    3    0  502  0.46508795379E+02  0.20240905212E+03  0.26379750673E+03  0.33574040122E+03  0.50400001928E-02 0. -1.
</event>
<event>
 5   0  0.1191894E-01  0.4938177E+03  0.7818609E-02  0.1015405E+00
       -2   -1    0    0    0  501  0.00000000000E+00  0.00000000000E+00  0.14869353090E+03  0.14869353093E+03  0.25500000920E-02 0.  1.
        2   -1    0    0  501    0  0.00000000000E+00  0.00000000000E+00 -0.40999746806E+03  0.40999746807E+03  0.25500000920E-02 0. -1.
    10030    2    1    2    0    0  0.00000000000E+00  0.00000000000E+00 -0.26130393716E+03  0.55869099899E+03  0.49381766350E+03 0.  0.
        3    1    3    3  502    0  0.14251706156E+03  0.21724928652E+02 -0.35743719134E+03  0.38541463557E+03  0.10100000352E+00 0. -1.
       -3    1    3    3    0  502 -0.14251706156E+03 -0.21724928652E+02  0.96133254183E+02  0.17327636342E+03  0.10100000352E+00 0.  1.
</event>
<event>
 5   0  0.1211345E-01  0.4996177E+03  0.7818609E-02  0.1013879E+00
        2   -1    0    0  501    0  0.00000000000E+00  0.00000000000E+00  0.16526191002E+04  0.16526191002E+04  0.25500000920E-02 0.  1.
       -2   -1    0    0    0  501  0.00000000000E+00  0.00000000000E+00 -0.37760941962E+02  0.37760942048E+02  0.25500000920E-02 0. -1.
    10030    2    1    2    0    0  0.00000000000E+00  0.00000000000E+00  0.16148581582E+04  0.16903800422E+04  0.49961766982E+03 0.  0.
        5    1    3    3  502    0  0.74569173379E+02 -0.61470823973E+02  0.28207124540E+02  0.10078172300E+03  0.46999998093E+01 0. -1.
       -5    1    3    3    0  502 -0.74569173379E+02  0.61470823973E+02  0.15866510337E+04  0.15895983192E+04  0.46999998093E+01 0.  1.
</event>
<event>
 5   0  0.7602288E-02  0.4770622E+03  0.7818609E-02  0.1019946E+00
        1   -1    0    0  501    0  0.00000000000E+00  0.00000000000E+00  0.28978527281E+03  0.28978527285E+03  0.50400001928E-02 0.  1.
       -1   -1    0    0    0  501  0.00000000000E+00  0.00000000000E+00 -0.19634226737E+03  0.19634226743E+03  0.50400001928E-02 0. -1.
    10030    2    1    2    0    0  0.00000000000E+00  0.00000000000E+00  0.93443005437E+02  0.48612754028E+03  0.47706224977E+03 0.  0.
        5    1    3    3  502    0 -0.12418500196E+02 -0.18356948451E+03  0.20133821677E+03  0.27278405804E+03  0.46999998093E+01 0.  1.
       -5    1    3    3    0  502  0.12418500196E+02  0.18356948451E+03 -0.10789521133E+03  0.21334348225E+03  0.46999998093E+01 0. -1.
</event>
<event>
 5   0  0.7781754E-02  0.5032575E+03  0.7818609E-02  0.1012932E+00
       -1   -1    0    0    0  501  0.00000000000E+00  0.00000000000E+00  0.95293311053E+02  0.95293311186E+02  0.50400001928E-02 0. -1.
        1   -1    0    0  501    0  0.00000000000E+00  0.00000000000E+00 -0.66444361827E+03  0.66444361828E+03  0.50400001928E-02 0.  1.
    10030    2    1    2    0    0  0.00000000000E+00  0.00000000000E+00 -0.56915030721E+03  0.75973692947E+03  0.50325751838E+03 0.  0.
        2    1    3    3  502    0  0.61294595782E+02  0.23384917323E+03 -0.17917503896E+03  0.30090888635E+03  0.25500000920E-02 0. -1.
       -2    1    3    3    0  502 -0.61294595782E+02 -0.23384917323E+03 -0.38997526826E+03  0.45882804312E+03  0.25500000920E-02 0.  1.
</event>
<event>
 5   0  0.1243803E-01  0.4702928E+03  0.7818609E-02  0.1021838E+00
        2   -1    0    0  501    0  0.00000000000E+00  0.00000000000E+00  0.11188680422E+04  0.11188680422E+04  0.25500000920E-02 0.  1.
       -2   -1    0    0    0  501  0.00000000000E+00  0.00000000000E+00 -0.49419446507E+02  0.49419446572E+02  0.25500000920E-02 0. -1.
    10030    2    1    2    0    0  0.00000000000E+00  0.00000000000E+00  0.10694485957E+04  0.11682874887E+04  0.47029284238E+03 0.  0.
        4    1    3    3  502    0 -0.45324435664E+02  0.79594173297E+01  0.11075643148E+04  0.11085206272E+04  0.12699999809E+01 0.  1.
       -4    1    3    3    0  502  0.45324435664E+02 -0.79594173297E+01 -0.38115719092E+02  0.59766861507E+02  0.12699999809E+01 0. -1.
</event>
<event>
 5   0  0.1211345E-01  0.5008007E+03  0.7818609E-02  0.1013570E+00
       -2   -1    0    0    0  501  0.00000000000E+00  0.00000000000E+00  0.35327351890E+02  0.35327351982E+02  0.25500000920E-02 0.  1.
        2   -1    0    0  501    0  0.00000000000E+00  0.00000000000E+00 -0.17748382923E+04  0.17748382923E+04  0.25500000920E-02 0. -1.
    10030    2    1    2    0    0  0.00000000000E+00  0.00000000000E+00 -0.17395109405E+04  0.18101656443E+04  0.50080070681E+03 0.  0.
        5    1    3    3  502    0 -0.13724100804E+03  0.10883566956E+03 -0.15163238485E+04  0.15264142298E+04  0.46999998093E+01 0. -1.
       -5    1    3    3    0  502  0.13724100804E+03 -0.10883566956E+03 -0.22318709193E+03  0.28375141456E+03  0.46999998093E+01 0.  1.
</event>
<event>
 5   0  0.7812547E-02  0.4984051E+03  0.7818609E-02  0.1014196E+00
       -1   -1    0    0    0  501  0.00000000000E+00  0.00000000000E+00  0.68931500017E+03  0.68931500019E+03  0.50400001928E-02 0.  1.
        1   -1    0    0  501    0  0.00000000000E+00  0.00000000000E+00 -0.90092195708E+02  0.90092195849E+02  0.50400001928E-02 0. -1.
    10030    2    1    2    0    0  0.00000000000E+00  0.00000000000E+00  0.59922280447E+03  0.77940719604E+03  0.49840506403E+03 0.  0.
        4    1    3    3  502    0  0.11466783666E+03 -0.21698655842E+03  0.23201586427E+03  0.33773488637E+03  0.12699999809E+01 0. -1.
       -4    1    3    3    0  502 -0.11466783666E+03  0.21698655842E+03  0.36720694020E+03  0.44167230967E+03  0.12699999809E+01 0.  1.
</event>
<event>
 5   0  0.1279188E-01  0.4934052E+03  0.7818609E-02  0.1015515E+00
        2   -1    0    0  501    0  0.00000000000E+00  0.00000000000E+00  0.69252913574E+03  0.69252913574E+03  0.25500000920E-02 0.  1.
       -2   -1    0    0    0  501  0.00000000000E+00  0.00000000000E+00 -0.87883908764E+02  0.87883908801E+02  0.25500000920E-02 0. -1.
    10030    2    1    2    0    0  0.00000000000E+00  0.00000000000E+00  0.60464522698E+03  0.78041304455E+03  0.49340517791E+03 0.  0.
        2    1    3    3  502    0  0.13054642610E+03 -0.10766136035E+02 -0.28336773421E+02  0.13401959479E+03  0.25500000920E-02 0. -1.
       -2    1    3    3    0  502 -0.13054642610E+03  0.10766136035E+02  0.63298200040E+03  0.64639344976E+03  0.25500000920E-02 0.  1.
</event>
<event>
 5   0  0.5006750E-02  0.4982990E+03  0.7818609E-02  0.1014224E+00
        3   -1    0    0  501    0  0.00000000000E+00  0.00000000000E+00  0.61218819633E+02  0.61218902949E+02  0.10100000352E+00 0.  1.
       -3   -1    0    0    0  501  0.00000000000E+00  0.00000000000E+00 -0.10139925500E+04  0.10139925551E+04  0.10100000352E+00 0. -1.
    10030    2    1    2    0    0  0.00000000000E+00  0.00000000000E+00 -0.95277373042E+03  0.10752114580E+04  0.49829900472E+03 0.  0.
        1    1    3    3  502    0 -0.22132919443E+03  0.11086713445E+03 -0.41545761577E+03  0.48361468582E+03  0.50400001928E-02 0.  1.
       -1    1    3    3    0  502  0.22132919443E+03 -0.11086713445E+03 -0.53731611464E+03  0.59159677221E+03  0.50400001928E-02 0. -1.
</event>
<event>
 5   0  0.7781754E-02  0.5031750E+03  0.7818609E-02  0.1012954E+00
        1   -1    0    0  501    0  0.00000000000E+00  0.00000000000E+00  0.71843665571E+03  0.71843665572E+03  0.50400001928E-02 0.  1.
       -1   -1    0    0    0  501  0.00000000000E+00  0.00000000000E+00 -0.88102786447E+02  0.88102786591E+02  0.50400001928E-02 0. -1.
    10030    2    1    2    0    0  0.00000000000E+00  0.00000000000E+00  0.63033386926E+03  0.80653944232E+03  0.50317500462E+03 0.  0.
        2    1    3    3  502    0  0.18458420627E+03  0.16964009099E+03  0.34906294095E+03  0.42976042911E+03  0.25500000920E-02 0. -1.
       -2    1    3    3    0  502 -0.18458420627E+03 -0.16964009099E+03  0.28127092831E+03  0.37677901321E+03  0.25500000920E-02 0.  1.
</event>
<event>
 5   0  0.1231822E-01  0.5013958E+03  0.7818609E-02  0.1013415E+00
       -2   -1    0    0    0  501  0.00000000000E+00  0.00000000000E+00  0.15590043687E+03  0.15590043689E+03  0.25500000920E-02 0. -1.
        2   -1    0    0  501    0  0.00000000000E+00  0.00000000000E+00 -0.40313823998E+03  0.40313823999E+03  0.25500000920E-02 0.  1.
    10030    2    1    2    0    0  0.00000000000E+00  0.00000000000E+00 -0.24723780312E+03  0.55903867688E+03  0.50139576280E+03 0.  0.
        1    1    3    3  502    0  0.13385182023E+03  0.67381068435E+02  0.10046660314E+03  0.18041634220E+03  0.50400001928E-02 0. -1.
       -1    1    3    3    0  502 -0.13385182023E+03 -0.67381068435E+02 -0.34770440625E+03  0.37862233467E+03  0.50400001928E-02 0.  1.
</event>
<event>
 5   0  0.7416638E-02  0.5023663E+03  0.7818609E-02  0.1013163E+00
        1   -1    0    0  501    0  0.00000000000E+00  0.00000000000E+00  0.48177550311E+03  0.48177550313E+03  0.50400001928E-02 0. -1.
       -1   -1    0    0    0  501  0.00000000000E+00  0.00000000000E+00 -0.13095929592E+03  0.13095929602E+03  0.50400001928E-02 0.  1.
    10030    2    1    2    0    0  0.00000000000E+00  0.00000000000E+00  0.35081620718E+03  0.61273479915E+03  0.50236632338E+03 0.  0.
        1    1    3    3  502    0  0.18167390718E+03 -0.17344983715E+03  0.17339426118E+03  0.30521439087E+03  0.50400001928E-02 0.  1.
       -1    1    3    3    0  502 -0.18167390718E+03  0.17344983715E+03  0.17742194600E+03  0.30752040828E+03  0.50400001928E-02 0. -1.
</event>
<event>
 5   0  0.7531632E-02  0.4902705E+03  0.7818609E-02  0.1016350E+00
        1   -1    0    0  501    0  0.00000000000E+00  0.00000000000E+00  0.58751189891E+03  0.58751189894E+03  0.50400001928E-02 0. -1.
       -1   -1    0    0    0  501  0.00000000000E+00  0.00000000000E+00 -0.10228098697E+03  0.10228098710E+03  0.50400001928E-02 0.  1.
    10030    2    1    2    0    0  0.00000000000E+00  0.00000000000E+00  0.48523091194E+03  0.68979288603E+03  0.49027052504E+03 0.  0.
        3    1    3    3  502    0  0.22808754936E+03 -0.70988819759E+02  0.16519479976E+03  0.29043531943E+03  0.10100000352E+00 0.  1.
       -3    1    3    3    0  502 -0.22808754936E+03  0.70988819759E+02  0.32003611219E+03  0.39935756661E+03  0.10100000352E+00 0. -1.
</event>
<event>
 5   0  0.1243803E-01  0.5109853E+03  0.7818609E-02  0.1010951E+00
        2   -1    0    0  501    0  0.00000000000E+00  0.00000000000E+00  0.61787755548E+03  0.61787755549E+03  0.25500000920E-02 0. -1.
       -2   -1    0    0    0  501  0.00000000000E+00  0.00000000000E+00 -0.10564631993E+03  0.10564631996E+03  0.25500000920E-02 0.  1.
    10030    2    1    2    0    0  0.00000000000E+00  0.00000000000E+00  0.51223123555E+03  0.72352387545E+03  0.51098528322E+03 0.  0.
        4    1    3    3  502    0 -0.23091168178E+03 -0.10072832790E+03  0.31633008840E+03  0.40439181316E+03  0.12699999809E+01 0. -1.
       -4    1    3    3    0  502  0.23091168178E+03  0.10072832790E+03  0.19590114715E+03  0.31913206229E+03  0.12699999809E+01 0.  1.
</event>
<event>
 5   0  0.1231822E-01  0.5026966E+03  0.7818609E-02  0.1013077E+00
       -2   -1    0    0    0  501  0.00000000000E+00  0.00000000000E+00  0.42779873073E+02  0.42779873149E+02  0.25500000920E-02 0.  1.
        2   -1    0    0  501    0  0.00000000000E+00  0.00000000000E+00 -0.14767686929E+04  0.14767686929E+04  0.25500000920E-02 0. -1.
    10030    2    1    2    0    0  0.00000000000E+00  0.00000000000E+00 -0.14339888199E+04  0.15195485661E+04  0.50269663735E+03 0.  0.
        1    1    3    3  502    0  0.49487690312E+02 -0.11031707515E+03 -0.50901324936E+02  0.13118625487E+03  0.50400001928E-02 0.  1.
       -1    1    3    3    0  502 -0.49487690312E+02  0.11031707515E+03 -0.13830874949E+04  0.13883623112E+04  0.50400001928E-02 0. -1.
</event>
<event>
 5   0  0.5006750E-02  0.4975552E+03  0.7818609E-02  0.1014419E+00
       -4   -1    0    0    0  501  0.00000000000E+00  0.00000000000E+00  0.87269615069E+02  0.87278855482E+02  0.12699999809E+01 0. -1.
        4   -1    0    0  501    0  0.00000000000E+00  0.00000000000E+00 -0.70913769609E+03  0.70913883332E+03  0.12699999809E+01 0.  1.
    10030    2    1    2    0    0  0.00000000000E+00  0.00000000000E+00 -0.62186808103E+03  0.79641768880E+03  0.49755524803E+03 0.  0.
        2    1    3    3  502    0 -0.49504241230E+02  0.24359302312E+03 -0.29476217538E+03  0.38558134142E+03  0.25500000920E-02 0. -1.
       -2    1    3    3    0  502  0.49504241230E+02 -0.24359302312E+03 -0.32710590564E+03  0.41083634738E+03  0.25500000920E-02 0.  1.
</event>
<event>
 5   0  0.7812547E-02  0.4876429E+03  0.7818609E-02  0.1017056E+00
       -1   -1    0    0    0  501  0.00000000000E+00  0.00000000000E+00  0.10217815315E+03  0.10217815327E+03  0.50400001928E-02 0.  1.
        1   -1    0    0  501    0  0.00000000000E+00  0.00000000000E+00 -0.58181626503E+03  0.58181626505E+03  0.50400001928E-02 0. -1.
    10030    2    1    2    0    0  0.00000000000E+00  0.00000000000E+00 -0.47963811188E+03  0.68399441832E+03  0.48764294922E+03 0.  0.
        4    1    3    3  502    0  0.22490364828E+03 -0.75678765878E+02 -0.31839738991E+03  0.39709877539E+03  0.12699999809E+01 0.  1.
       -4    1    3    3    0  502 -0.22490364828E+03  0.75678765878E+02 -0.16124072197E+03  0.28689564294E+03  0.12699999809E+01 0. -1.
</event>
<event>
 5   0  0.7602288E-02  0.4989165E+03  0.7818609E-02  0.1014062E+00
        1   -1    0    0  501    0  0.00000000000E+00  0.00000000000E+00  0.10205742510E+04  0.10205742510E+04  0.50400001928E-02 0.  1.
       -1   -1    0    0    0  501  0.00000000000E+00  0.00000000000E+00 -0.60974902274E+02  0.60974902482E+02  0.50400001928E-02 0. -1.
    10030    2    1    2    0    0  0.00000000000E+00  0.00000000000E+00  0.95959934875E+03  0.10815491535E+04  0.49891648736E+03 0.  0.
        5    1    3    3  502    0  0.15814428955E+03  0.13811352672E+03  0.77162690615E+03  0.79969690188E+03  0.46999998093E+01 0.  1.
       -5    1    3    3    0  502 -0.15814428955E+03 -0.13811352672E+03  0.18797244260E+03  0.28185225164E+03  0.46999998093E+01 0. -1.
</event>
<event>
 5   0  0.1279188E-01  0.4971561E+03  0.7818609E-02  0.1014524E+00
       -2   -1    0    0    0  501  0.00000000000E+00  0.00000000000E+00  0.53062301642E+03  0.53062301643E+03  0.25500000920E-02 0. -1.
        2   -1    0    0  501    0  0.00000000000E+00  0.00000000000E+00 -0.11645001100E+03  0.11645001103E+03  0.25500000920E-02 0.  1.
    10030    2    1    2    0    0  0.00000000000E+00  0.00000000000E+00  0.41417300542E+03  0.64707302746E+03  0.49715613688E+03 0.  0.
        2    1    3    3  502    0 -0.17528790385E+03  0.21541028453E+02 -0.20596000170E+02  0.17780343183E+03  0.25500000920E-02 0.  1.
       -2    1    3    3    0  502  0.17528790385E+03 -0.21541028453E+02  0.43476900559E+03  0.46926959562E+03  0.25500000920E-02 0. -1.
</event>
<event>
 5   0  0.7812547E-02  0.4981034E+03  0.7818609E-02  0.1014275E+00
        1   -1    0    0  501    0  0.00000000000E+00  0.00000000000E+00  0.12488381957E+04  0.12488381957E+04  0.50400001928E-02 0. -1.
       -1   -1    0    0    0  501  0.00000000000E+00  0.00000000000E+00 -0.49667554809E+02  0.49667555065E+02  0.50400001928E-02 0.  1.
    10030    2    1    2    0    0  0.00000000000E+00  0.00000000000E+00  0.11991706409E+04  0.12985057508E+04  0.49810336159E+03 0.  0.
        4    1    3    3  502    0 -0.53828202354E+02 -0.55753876217E+02 -0.17425369100E+02  0.79443227969E+02  0.12699999809E+01 0.  1.
       -4    1    3    3    0  502  0.53828202354E+02  0.55753876217E+02  0.12165960100E+04  0.12190625228E+04  0.12699999809E+01 0. -1.
</event>
<event>
 5   0  0.1211345E-01  0.4983444E+03  0.7818609E-02  0.1014212E+00
        2   -1    0    0  501    0  0.00000000000E+00  0.00000000000E+00  0.13940811994E+04  0.13940811994E+04  0.25500000920E-02 0. -1.
       -2   -1    0    0    0  501  0.00000000000E+00  0.00000000000E+00 -0.44535984407E+02  0.44535984480E+02  0.25500000920E-02 0.  1.
    10030    2    1    2    0    0  0.00000000000E+00  0.00000000000E+00  0.13495452150E+04  0.14386171839E+04  0.49834437336E+03 0.  0.
        5    1    3    3  502    0 -0.14077324525E+03 -0.19755427977E+03  0.51096423092E+03  0.56564240940E+03  0.46999998093E+01 0.  1.
       -5    1    3    3    0  502  0.14077324525E+03  0.19755427977E+03  0.83858098410E+03  0.87297477451E+03  0.46999998093E+01 0. -1.
</event>
<event>
 5   0  0.7602288E-02  0.4985781E+03  0.7818609E-02  0.1014151E+00
       -1   -1    0    0    0  501  0.00000000000E+00  0.00000000000E+00  0.74537065837E+02  0.74537066007E+02  0.50400001928E-02 0.  1.
        1   -1    0    0  501    0  0.00000000000E+00  0.00000000000E+00 -0.83374658693E+03  0.83374658694E+03  0.50400001928E-02 0. -1.
    10030    2    1    2    0    0  0.00000000000E+00  0.00000000000E+00 -0.75920952109E+03  0.90828365295E+03  0.49857807543E+03 0.  0.
        5    1    3    3  502    0  0.22950393670E+03 -0.34102778635E+02 -0.54545266639E+03  0.59276956546E+03  0.46999998093E+01 0. -1.
       -5    1    3    3    0  502 -0.22950393670E+03  0.34102778635E+02 -0.21375685470E+03  0.31551408749E+03  0.46999998093E+01 0.  1.
</event>
<event>
 5   0  0.7812547E-02  0.4994497E+03  0.7818609E-02  0.1013923E+00
        1   -1    0    0  501    0  0.00000000000E+00  0.00000000000E+00  0.11678321948E+03  0.11678321959E+03  0.50400001928E-02 0. -1.
       -1   -1    0    0    0  501  0.00000000000E+00  0.00000000000E+00 -0.53400220375E+03  0.53400220378E+03  0.50400001928E-02 0.  1.
    10030    2    1    2    0    0  0.00000000000E+00  0.00000000000E+00 -0.41721898427E+03  0.65078542336E+03  0.49944968358E+03 0.  0.
        4    1    3    3  502    0  0.19772383923E+03  0.10976604230E+03 -0.34661477816E+03  0.41386799584E+03  0.12699999809E+01 0.  1.
       -4    1    3    3    0  502 -0.19772383923E+03 -0.10976604230E+03 -0.70604206119E+02  0.23691742753E+03  0.12699999809E+01 0. -1.
</event>
<event>
 5   0  0.1279188E-01  0.5032598E+03  0.7818609E-02  0.1012932E+00
        2   -1    0    0  501    0  0.00000000000E+00  0.00000000000E+00  0.17871932228E+03  0.17871932230E+03  0.25500000920E-02 0.  1.
       -2   -1    0    0    0  501  0.00000000000E+00  0.00000000000E+00 -0.35428511140E+03  0.35428511141E+03  0.25500000920E-02 0. -1.
    10030    2    1    2    0    0  0.00000000000E+00  0.00000000000E+00 -0.17556578912E+03  0.53300443371E+03  0.50325975405E+03 0.  0.
        2    1    3    3  502    0 -0.16526253503E+02  0.25626595187E+02  0.17675524907E+03  0.17936626638E+03  0.25500000920E-02 0.  1.
       -2    1    3    3    0  502  0.16526253503E+02 -0.25626595187E+02 -0.35232103819E+03  0.35363816733E+03  0.25500000920E-02 0. -1.
</event>
<event>
 5   0  0.7602288E-02  0.4975852E+03  0.7818609E-02  0.1014411E+00
        1   -1    0    0  501    0  0.00000000000E+00  0.00000000000E+00  0.15792852023E+04  0.15792852023E+04  0.50400001928E-02 0. -1.
       -1   -1    0    0    0  501  0.00000000000E+00  0.00000000000E+00 -0.39193521061E+02  0.39193521385E+02  0.50400001928E-02 0.  1.
    10030    2    1    2    0    0  0.00000000000E+00  0.00000000000E+00  0.15400916812E+04  0.16184787237E+04  0.49758516097E+03 0.  0.
        5    1    3    3  502    0  0.58257187219E+02 -0.24066895663E+03  0.69305915767E+03  0.73598133982E+03  0.46999998093E+01 0. -1.
       -5    1    3    3    0  502 -0.58257187219E+02  0.24066895663E+03  0.84703252357E+03  0.88249738386E+03  0.46999998093E+01 0.  1.
</event>
<event>
 5   0  0.1231822E-01  0.5003353E+03  0.7818609E-02  0.1013691E+00
       -2   -1    0    0    0  501  0.00000000000E+00  0.00000000000E+00  0.46722388511E+02  0.46722388581E+02  0.25500000920E-02 0.  1.
        2   -1    0    0  501    0  0.00000000000E+00  0.00000000000E+00 -0.13394834104E+04  0.13394834104E+04  0.25500000920E-02 0. -1.
    10030    2    1    2    0    0  0.00000000000E+00  0.00000000000E+00 -0.12927610219E+04  0.13862057990E+04  0.50033534497E+03 0.  0.
        1    1    3    3  502    0  0.22548945010E+03 -0.60756831551E+02 -0.39784813076E+03  0.46132420255E+03  0.50400001928E-02 0.  1.
       -1    1    3    3    0  502 -0.22548945010E+03  0.60756831551E+02 -0.89491289116E+03  0.92488159646E+03  0.50400001928E-02 0. -1.
</event>
<event>
 5   0  0.7416638E-02  0.5003916E+03  0.7818609E-02  0.1013677E+00
        1   -1    0    0  501    0  0.00000000000E+00  0.00000000000E+00  0.33301897345E+03  0.33301897348E+03  0.50400001928E-02 0.  1.
       -1   -1    0    0    0  501  0.00000000000E+00  0.00000000000E+00 -0.18797107307E+03  0.18797107314E+03  0.50400001928E-02 0. -1.
    10030    2    1    2    0    0  0.00000000000E+00  0.00000000000E+00  0.14504790038E+03  0.52099004662E+03  0.50039158194E+03 0.  0.
        1    1    3    3  502    0 -0.10656066363E+03  0.10093466366E+03  0.28348496598E+03  0.31922829970E+03  0.50400001928E-02 0.  1.
       -1    1    3    3    0  502  0.10656066363E+03 -0.10093466366E+03 -0.13843706561E+03  0.20176174692E+03  0.50400001928E-02 0. -1.
</event>
<event>
 5   0  0.7781754E-02  0.5010407E+03  0.7818609E-02  0.1013508E+00
        1   -1    0    0  501    0  0.00000000000E+00  0.00000000000E+00  0.85007520615E+03  0.85007520617E+03  0.50400001928E-02 0.  1.
       -1   -1    0    0    0  501  0.00000000000E+00  0.00000000000E+00 -0.73829283846E+02  0.73829284018E+02  0.50400001928E-02 0. -1.
    10030    2    1    2    0    0  0.00000000000E+00  0.00000000000E+00  0.77624592231E+03  0.92390449019E+03  0.50104069205E+03 0.  0.
        2    1    3    3  502    0 -0.69149239776E+02  0.82879064358E+02 -0.28752699986E+02  0.11170172082E+03  0.25500000920E-02 0. -1.
       -2    1    3    3    0  502  0.69149239776E+02 -0.82879064358E+02  0.80499862229E+03  0.81220276937E+03  0.25500000920E-02 0.  1.
</event>
<event>
 5   0  0.1243803E-01  0.4896318E+03  0.7818609E-02  0.1016521E+00
        2   -1    0    0  501    0  0.00000000000E+00  0.00000000000E+00  0.76723724387E+03  0.76723724387E+03  0.25500000920E-02 0. -1.
       -2   -1    0    0    0  501  0.00000000000E+00  0.00000000000E+00 -0.78117715195E+02  0.78117715236E+02  0.25500000920E-02 0.  1.
    10030    2    1    2    0    0  0.00000000000E+00  0.00000000000E+00  0.68911952867E+03  0.84535495911E+03  0.48963178215E+03 0.  0.
        4    1    3    3  502    0  0.20160565313E+03 -0.10539745675E+03  0.18841070587E+03  0.29538732243E+03  0.12699999809E+01 0.  1.
       -4    1    3    3    0  502 -0.20160565313E+03  0.10539745675E+03  0.50070882281E+03  0.54996763668E+03  0.12699999809E+01 0. -1.
</event>
<event>
 5   0  0.1279188E-01  0.5013610E+03  0.7818609E-02  0.1013424E+00
       -2   -1    0    0    0  501  0.00000000000E+00  0.00000000000E+00  0.67323678146E+02  0.67323678194E+02  0.25500000920E-02 0. -1.
        2   -1    0    0  501    0  0.00000000000E+00  0.00000000000E+00 -0.93341165355E+03  0.93341165356E+03  0.25500000920E-02 0.  1.
    10030    2    1    2    0    0  0.00000000000E+00  0.00000000000E+00 -0.86608797541E+03  0.10007353318E+04  0.50136097083E+03 0.  0.
        2    1    3    3  502    0 -0.86132949654E+02 -0.12338169400E+03 -0.83324219411E+03  0.84671983648E+03  0.25500000920E-02 0.  1.
       -2    1    3    3    0  502  0.86132949654E+02  0.12338169400E+03 -0.32845781297E+02  0.15401549528E+03  0.25500000920E-02 0. -1.
</event>
<event>
 5   0  0.1243803E-01  0.4989257E+03  0.7818609E-02  0.1014060E+00
        2   -1    0    0  501    0  0.00000000000E+00  0.00000000000E+00  0.68046401082E+03  0.68046401083E+03  0.25500000920E-02 0.  1.
       -2   -1    0    0    0  501  0.00000000000E+00  0.00000000000E+00 -0.91454804617E+02  0.91454804652E+02  0.25500000920E-02 0. -1.
    10030    2    1    2    0    0  0.00000000000E+00  0.00000000000E+00  0.58900920621E+03  0.77191881548E+03  0.49892565849E+03 0.  0.
        4    1    3    3  502    0  0.95055321250E+02 -0.13158701140E+03  0.14432279406E+01  0.16234023369E+03  0.12699999809E+01 0. -1.
       -4    1    3    3    0  502 -0.95055321250E+02  0.13158701140E+03  0.58756597826E+03  0.60957858179E+03  0.12699999809E+01 0.  1.
</event>
<event>
 5   0  0.5006750E-02  0.5086127E+03  0.7818609E-02  0.1011555E+00
       -4   -1    0    0    0  501  0.00000000000E+00  0.00000000000E+00  0.23136076604E+03  0.23136425170E+03  0.12699999809E+01 0. -1.
        4   -1    0    0  501    0  0.00000000000E+00  0.00000000000E+00 -0.27952061032E+03  0.27952349543E+03  0.12699999809E+01 0.  1.
    10030    2    1    2    0    0  0.00000000000E+00  0.00000000000E+00 -0.48159844279E+02  0.51088774712E+03  0.50861274027E+03 0.  0.
        3    1    3    3  502    0  0.12529919827E+03 -0.16894758968E+03  0.11948784432E+03  0.24191017401E+03  0.10100000352E+00 0. -1.
       -3    1    3    3    0  502 -0.12529919827E+03  0.16894758968E+03 -0.16764768860E+03  0.26897757312E+03  0.10100000352E+00 0.  1.
</event>
<event>
 5   0  0.1231822E-01  0.4971813E+03  0.7818609E-02  0.1014517E+00
       -2   -1    0    0    0  501  0.00000000000E+00  0.00000000000E+00  0.48822466027E+02  0.48822466093E+02  0.25500000920E-02 0. -1.
        2   -1    0    0  501    0  0.00000000000E+00  0.00000000000E+00 -0.12657554232E+04  0.12657554232E+04  0.25500000920E-02 0.  1.
    10030    2    1    2    0    0  0.00000000000E+00  0.00000000000E+00 -0.12169329572E+04  0.13145778893E+04  0.49718125947E+03 0.  0.
        1    1    3    3  502    0  0.16701547536E+03 -0.16769674550E+02 -0.12364398055E+03  0.20847835606E+03  0.50400001928E-02 0. -1.
       -1    1    3    3    0  502 -0.16701547536E+03  0.16769674550E+02 -0.10932889766E+04  0.11060995332E+04  0.50400001928E-02 0.  1.
</event>
<event>
 5   0  0.7812547E-02  0.5011210E+03  0.7818609E-02  0.1013487E+00
       -1   -1    0    0    0  501  0.00000000000E+00  0.00000000000E+00  0.13260819365E+03  0.13260819375E+03  0.50400001928E-02 0.  1.
        1   -1    0    0  501    0  0.00000000000E+00  0.00000000000E+00 -0.47342891234E+03  0.47342891236E+03  0.50400001928E-02 0. -1.
    10030    2    1    2    0    0  0.00000000000E+00  0.00000000000E+00 -0.34082071869E+03  0.60603710611E+03  0.50112095515E+03 0.  0.
        4    1    3    3  502    0 -0.15518082231E+03 -0.16647573123E+02 -0.40746002607E+03  0.43632959451E+03  0.12699999809E+01 0. -1.
       -4    1    3    3    0  502  0.15518082231E+03  0.16647573123E+02  0.66639307382E+02  0.16970751160E+03  0.12699999809E+01 0.  1.
</event>
<event>
 5   0  0.7781754E-02  0.4998669E+03  0.7818609E-02  0.1013814E+00
        1   -1    0    0  501    0  0.00000000000E+00  0.00000000000E+00  0.24076423605E+03  0.24076423610E+03  0.50400001928E-02 0. -1.
       -1   -1    0    0    0  501  0.00000000000E+00  0.00000000000E+00 -0.25945187030E+03  0.25945187035E+03  0.50400001928E-02 0.  1.
    10030    2    1    2    0    0  0.00000000000E+00  0.00000000000E+00 -0.18687634251E+02  0.50021610644E+03  0.49986690776E+03 0.  0.
        2    1    3    3  502    0  0.62124451934E+02  0.33424958571E+02  0.23059452333E+03  0.24114416763E+03  0.25500000920E-02 0. -1.
       -2    1    3    3    0  502 -0.62124451934E+02 -0.33424958571E+02 -0.24928215759E+03  0.25907193881E+03  0.25500000920E-02 0.  1.
</event>
<event>
 5   0  0.7812547E-02  0.4993547E+03  0.7818609E-02  0.1013947E+00
        1   -1    0    0  501    0  0.00000000000E+00  0.00000000000E+00  0.19022353254E+03  0.19022353261E+03  0.50400001928E-02 0. -1.
       -1   -1    0    0    0  501  0.00000000000E+00  0.00000000000E+00 -0.32771330157E+03  0.32771330161E+03  0.50400001928E-02 0.  1.
    10030    2    1    2    0    0  0.00000000000E+00  0.00000000000E+00 -0.13748976902E+03  0.51793683422E+03  0.49935471125E+03 0.  0.
        4    1    3    3  502    0 -0.18856242017E+03 -0.14437469676E+03  0.11176542065E+02  0.23775274417E+03  0.12699999809E+01 0. -1.
       -4    1    3    3    0  502  0.18856242017E+03  0.14437469676E+03 -0.14866631109E+03  0.28018409005E+03  0.12699999809E+01 0.  1.
</event>
<event>
 5   0  0.1231822E-01  0.5383324E+03  0.7818609E-02  0.1004231E+00
        2   -1    0    0  501    0  0.00000000000E+00  0.00000000000E+00  0.57618495723E+03  0.57618495723E+03  0.25500000920E-02 0.  1.
       -2   -1    0    0    0  501  0.00000000000E+00  0.00000000000E+00 -0.12574164091E+03  0.12574164094E+03  0.25500000920E-02 0. -1.
    10030    2    1    2    0    0  0.00000000000E+00  0.00000000000E+00  0.45044331631E+03  0.70192659817E+03  0.53833239547E+03 0.  0.
        1    1    3    3  502    0 -0.51755015692E+02 -0.17960312909E+03  0.47776807281E+03  0.51302845638E+03  0.50400001928E-02 0.  1.
       -1    1    3    3    0  502  0.51755015692E+02  0.17960312909E+03 -0.27324756501E+02  0.18889814179E+03  0.50400001928E-02 0. -1.
</event>
<event>
 5   0  0.7416638E-02  0.4708745E+03  0.7818609E-02  0.1021674E+00
       -1   -1    0    0    0  501  0.00000000000E+00  0.00000000000E+00  0.43052769179E+02  0.43052769474E+02  0.50400001928E-02 0. -1.
        1   -1    0    0  501    0  0.00000000000E+00  0.00000000000E+00 -0.12875061439E+04  0.12875061439E+04  0.50400001928E-02 0.  1.
    10030    2    1    2    0    0  0.00000000000E+00  0.00000000000E+00 -0.12444533747E+04  0.13305589133E+04  0.47087452694E+03 0.  0.
        1    1    3    3  502    0  0.17435817409E+03  0.62091463139E+02 -0.21104256323E+03  0.28070462444E+03  0.50400001928E-02 0. -1.
       -1    1    3    3    0  502 -0.17435817409E+03 -0.62091463139E+02 -0.10334108115E+04  0.10498542889E+04  0.50400001928E-02 0.  1.
</event>
<event>
 5   0  0.7602288E-02  0.4989777E+03  0.7818609E-02  0.1014046E+00
        1   -1    0    0  501    0  0.00000000000E+00  0.00000000000E+00  0.37283507277E+03  0.37283507280E+03  0.50400001928E-02 0.  1.
       -1   -1    0    0    0  501  0.00000000000E+00  0.00000000000E+00 -0.16694966049E+03  0.16694966056E+03  0.50400001928E-02 0. -1.
    10030    2    1    2    0    0  0.00000000000E+00  0.00000000000E+00  0.20588541228E+03  0.53978473336E+03  0.49897771031E+03 0.  0.
        5    1    3    3  502    0  0.23031333513E+03  0.94782560111E+02  0.87850682549E+02  0.26413594693E+03  0.46999998093E+01 0. -1.
       -5    1    3    3    0  502 -0.23031333513E+03 -0.94782560111E+02  0.11803472973E+03  0.27564878643E+03  0.46999998093E+01 0.  1.
</event>
<event>
 5   0  0.7531632E-02  0.4992043E+03  0.7818609E-02  0.1013987E+00
       -1   -1    0    0    0  501  0.00000000000E+00  0.00000000000E+00  0.77967516505E+02  0.77967516668E+02  0.50400001928E-02 0. -1.
        1   -1    0    0  501    0  0.00000000000E+00  0.00000000000E+00 -0.79906648876E+03  0.79906648877E+03  0.50400001928E-02 0.  1.
    10030    2    1    2    0    0  0.00000000000E+00  0.00000000000E+00 -0.72109897225E+03  0.87703400544E+03  0.49920428576E+03 0.  0.
        3    1    3    3  502    0 -0.11667381467E+03  0.21071357728E+02  0.25338941778E+02  0.12123882760E+03  0.10100000352E+00 0. -1.
       -3    1    3    3    0  502  0.11667381467E+03 -0.21071357728E+02 -0.74643791403E+03  0.75579517784E+03  0.10100000352E+00 0.  1.
</event>
<event>
 5   0  0.1279188E-01  0.4928628E+03  0.7818609E-02  0.1015659E+00
       -2   -1    0    0    0  501  0.00000000000E+00  0.00000000000E+00  0.31909624071E+03  0.31909624072E+03  0.25500000920E-02 0. -1.
        2   -1    0    0  501    0  0.00000000000E+00  0.00000000000E+00 -0.19031383950E+03  0.19031383952E+03  0.25500000920E-02 0.  1.
    10030    2    1    2    0    0  0.00000000000E+00  0.00000000000E+00  0.12878240121E+03  0.50941008024E+03  0.49286278312E+03 0.  0.
        2    1    3    3  502    0 -0.21679548399E+03  0.68317475782E+02 -0.33993256132E+02  0.22983276713E+03  0.25500000920E-02 0.  1.
       -2    1    3    3    0  502  0.21679548399E+03 -0.68317475782E+02  0.16277565734E+03  0.27957731311E+03  0.25500000920E-02 0. -1.
</event>
<event>
 5   0  0.1243803E-01  0.5038757E+03  0.7818609E-02  0.1012772E+00
       -2   -1    0    0    0  501  0.00000000000E+00  0.00000000000E+00  0.80693467593E+02  0.80693467633E+02  0.25500000920E-02 0. -1.
        2   -1    0    0  501    0  0.00000000000E+00  0.00000000000E+00 -0.78659006931E+03  0.78659006931E+03  0.25500000920E-02 0.  1.
    10030    2    1    2    0    0  0.00000000000E+00  0.00000000000E+00 -0.70589660172E+03  0.86728353695E+03  0.50387570009E+03 0.  0.
        4    1    3    3  502    0  0.13453510680E+03  0.18434314955E+02 -0.71820326611E+03  0.73092890440E+03  0.12699999809E+01 0.  1.
       -4    1    3    3    0  502 -0.13453510680E+03 -0.18434314955E+02  0.12306664397E+02  0.13635463255E+03  0.12699999809E+01 0. -1.
</event>
<event>
 5   0  0.5006750E-02  0.5043054E+03  0.7818609E-02  0.1012661E+00
        3   -1    0    0  501    0  0.00000000000E+00  0.00000000000E+00  0.82348210710E+03  0.82348211329E+03  0.10100000352E+00 0. -1.
       -3   -1    0    0    0  501  0.00000000000E+00  0.00000000000E+00 -0.77209881521E+02  0.77209947581E+02  0.10100000352E+00 0.  1.
    10030    2    1    2    0    0  0.00000000000E+00  0.00000000000E+00  0.74627222558E+03  0.90069206087E+03  0.50430541723E+03 0.  0.
        1    1    3    3  502    0  0.13606849767E+03 -0.15137424188E+03  0.63895819017E+03  0.67059403962E+03  0.50400001928E-02 0. -1.
       -1    1    3    3    0  502 -0.13606849767E+03  0.15137424188E+03  0.10731403541E+03  0.23009802125E+03  0.50400001928E-02 0.  1.
</event>
<event>
 5   0  0.1243803E-01  0.5060694E+03  0.7818609E-02  0.1012207E+00
       -2   -1    0    0    0  501  0.00000000000E+00  0.00000000000E+00  0.11380395111E+03  0.11380395114E+03  0.25500000920E-02 0. -1.
        2   -1    0    0  501    0  0.00000000000E+00  0.00000000000E+00 -0.56260394111E+03  0.56260394111E+03  0.25500000920E-02 0.  1.
    10030    2    1    2    0    0  0.00000000000E+00  0.00000000000E+00 -0.44879999000E+03  0.67640789225E+03  0.50606936844E+03 0.  0.
        4    1    3    3  502    0  0.20922553126E+03 -0.11991718996E+03 -0.12200032783E+03  0.27026125928E+03  0.12699999809E+01 0.  1.
       -4    1    3    3    0  502 -0.20922553126E+03  0.11991718996E+03 -0.32679966217E+03  0.40614663297E+03  0.12699999809E+01 0. -1.
</event>
<event>
 5   0  0.5006750E-02  0.4923337E+03  0.7818609E-02  0.1015800E+00
        3   -1    0    0  501    0  0.00000000000E+00  0.00000000000E+00  0.16408812243E+03  0.16408815351E+03  0.10100000352E+00 0. -1.
       -3   -1    0    0    0  501  0.00000000000E+00  0.00000000000E+00 -0.36930224673E+03  0.36930226054E+03  0.10100000352E+00 0.  1.
    10030    2    1    2    0    0  0.00000000000E+00  0.00000000000E+00 -0.20521412430E+03  0.53339041406E+03  0.49233372523E+03 0.  0.
        1    1    3    3  502    0  0.14919332257E+03 -0.18548780632E+03 -0.17055699345E+03  0.29283794466E+03  0.50400001928E-02 0.  1.
       -1    1    3    3    0  502 -0.14919332257E+03  0.18548780632E+03 -0.34657130853E+02  0.24055246940E+03  0.50400001928E-02 0. -1.
</event>
<event>
 5   0  0.7602288E-02  0.5014198E+03  0.7818609E-02  0.1013409E+00
       -1   -1    0    0    0  501  0.00000000000E+00  0.00000000000E+00  0.17316458870E+03  0.17316458878E+03  0.50400001928E-02 0.  1.
        1   -1    0    0  501    0  0.00000000000E+00  0.00000000000E+00 -0.36298098163E+03  0.36298098166E+03  0.50400001928E-02 0. -1.
    10030    2    1    2    0    0  0.00000000000E+00  0.00000000000E+00 -0.18981639292E+03  0.53614557044E+03  0.50141979387E+03 0.  0.
        5    1    3    3  502    0 -0.12596843936E+03  0.20316585788E+03 -0.17555687665E+03  0.29662555598E+03  0.46999998093E+01 0.  1.
       -5    1    3    3    0  502  0.12596843936E+03 -0.20316585788E+03 -0.14259516278E+02  0.23952001446E+03  0.46999998093E+01 0. -1.
</event>
<event>
 5   0  0.7416638E-02  0.4990045E+03  0.7818609E-02  0.1014039E+00
       -1   -1    0    0    0  501  0.00000000000E+00  0.00000000000E+00  0.16159756367E+03  0.16159756375E+03  0.50400001928E-02 0. -1.
        1   -1    0    0  501    0  0.00000000000E+00  0.00000000000E+00 -0.38522463166E+03  0.38522463170E+03  0.50400001928E-02 0.  1.
    10030    2    1    2    0    0  0.00000000000E+00  0.00000000000E+00 -0.22362706799E+03  0.54682219545E+03  0.49900445679E+03 0.  0.
        1    1    3    3  502    0  0.34110351073E+02  0.24251591315E+03 -0.16406822301E+03  0.29478104757E+03  0.50400001928E-02 0. -1.
       -1    1    3    3    0  502 -0.34110351073E+02 -0.24251591315E+03 -0.59558844976E+02  0.25204114787E+03  0.50400001928E-02 0.  1.
</event>
<event>
 5   0  0.7781754E-02  0.4995910E+03  0.7818609E-02  0.1013886E+00
        1   -1    0    0  501    0  0.00000000000E+00  0.00000000000E+00  0.18702965554E+03  0.18702965560E+03  0.50400001928E-02 0.  1.
       -1   -1    0    0    0  501  0.00000000000E+00  0.00000000000E+00 -0.33362512365E+03  0.33362512369E+03  0.50400001928E-02 0. -1.
    10030    2    1    2    0    0  0.00000000000E+00  0.00000000000E+00 -0.14659546811E+03  0.52065477929E+03  0.49959100065E+03 0.  0.
        2    1    3    3  502    0 -0.17893447254E+03  0.76322692343E+01  0.10817615165E+03  0.20923163429E+03  0.25500000920E-02 0.  1.
       -2    1    3    3    0  502  0.17893447254E+03 -0.76322692343E+01 -0.25477161976E+03  0.31142314500E+03  0.25500000920E-02 0. -1.
</event>
<event>
 5   0  0.1211345E-01  0.5007034E+03  0.7818609E-02  0.1013595E+00
        2   -1    0    0  501    0  0.00000000000E+00  0.00000000000E+00  0.27640712763E+03  0.27640712764E+03  0.25500000920E-02 0. -1.
       -2   -1    0    0    0  501  0.00000000000E+00  0.00000000000E+00 -0.22675239768E+03  0.22675239769E+03  0.25500000920E-02 0.  1.
    10030    2    1    2    0    0  0.00000000000E+00  0.00000000000E+00  0.49654729949E+02  0.50315952533E+03  0.50070342093E+03 0.  0.
        5    1    3    3  502    0  0.20083431496E+03 -0.11195347326E+03 -0.74581526653E+02  0.24176951081E+03  0.46999998093E+01 0. -1.
       -5    1    3    3    0  502 -0.20083431496E+03  0.11195347326E+03  0.12423625660E+03  0.26139001452E+03  0.46999998093E+01 0.  1.
</event>
<event>
 5   0  0.7531632E-02  0.5000475E+03  0.7818609E-02  0.1013767E+00
        1   -1    0    0  501    0  0.00000000000E+00  0.00000000000E+00  0.87732678919E+02  0.87732679064E+02  0.50400001928E-02 0.  1.
       -1   -1    0    0    0  501  0.00000000000E+00  0.00000000000E+00 -0.71252672517E+03  0.71252672519E+03  0.50400001928E-02 0. -1.
    10030    2    1    2    0    0  0.00000000000E+00  0.00000000000E+00 -0.62479404625E+03  0.80025940425E+03  0.50004751160E+03 0.  0.
        3    1    3    3  502    0  0.27629965839E+02  0.81048328859E+02  0.63534613276E+02  0.10662506229E+03  0.10100000352E+00 0.  1.
       -3    1    3    3    0  502 -0.27629965839E+02 -0.81048328859E+02 -0.68832865952E+03  0.69363434196E+03  0.10100000352E+00 0. -1.
</event>
<event>
 5   0  0.7781754E-02  0.5012965E+03  0.7818609E-02  0.1013441E+00
       -1   -1    0    0    0  501  0.00000000000E+00  0.00000000000E+00  0.54707561299E+02  0.54707561531E+02  0.50400001928E-02 0. -1.
        1   -1    0    0  501    0  0.00000000000E+00  0.00000000000E+00 -0.11483706388E+04  0.11483706388E+04  0.50400001928E-02 0.  1.
    10030    2    1    2    0    0  0.00000000000E+00  0.00000000000E+00 -0.10936630775E+04  0.12030782004E+04  0.50129654802E+03 0.  0.
        2    1    3    3  502    0  0.12596737057E+03  0.58967566848E+01 -0.10666927733E+04  0.10741210466E+04  0.25500000920E-02 0.  1.
       -2    1    3    3    0  502 -0.12596737057E+03 -0.58967566848E+01 -0.26970304244E+02  0.12895715376E+03  0.25500000920E-02 0. -1.
</event>
<event>
 5   0  0.1191894E-01  0.4988482E+03  0.7818609E-02  0.1014080E+00
       -2   -1    0    0    0  501  0.00000000000E+00  0.00000000000E+00  0.51595176253E+02  0.51595176316E+02  0.25500000920E-02 0. -1.
        2   -1    0    0  501    0  0.00000000000E+00  0.00000000000E+00 -0.12057790852E+04  0.12057790852E+04  0.25500000920E-02 0.  1.
    10030    2    1    2    0    0  0.00000000000E+00  0.00000000000E+00 -0.11541839089E+04  0.12573742615E+04  0.49884821124E+03 0.  0.
        3    1    3    3  502    0 -0.13567643011E+03 -0.19975149598E+02 -0.11022226413E+04  0.11107213249E+04  0.10100000352E+00 0.  1.
       -3    1    3    3    0  502  0.13567643011E+03  0.19975149598E+02 -0.51961267610E+02  0.14665293663E+03  0.10100000352E+00 0. -1.
</event>
<event>
 5   0  0.7531632E-02  0.4981962E+03  0.7818609E-02  0.1014251E+00
       -1   -1    0    0    0  501  0.00000000000E+00  0.00000000000E+00  0.11680301211E+03  0.11680301222E+03  0.50400001928E-02 0.  1.
        1   -1    0    0  501    0  0.00000000000E+00  0.00000000000E+00 -0.53123507144E+03  0.53123507146E+03  0.50400001928E-02 0. -1.
    10030    2    1    2    0    0  0.00000000000E+00  0.00000000000E+00 -0.41443205932E+03  0.64803808368E+03  0.49819617231E+03 0.  0.
        3    1    3    3  502    0  0.20699004276E+02 -0.20062684807E+03 -0.17062189567E+02  0.20241222656E+03  0.10100000352E+00 0. -1.
       -3    1    3    3    0  502 -0.20699004276E+02  0.20062684807E+03 -0.39736986976E+03  0.44562585712E+03  0.10100000352E+00 0.  1.
</event>
<event>
 5   0  0.7531632E-02  0.5164920E+03  0.7818609E-02  0.1009562E+00
        1   -1    0    0  501    0  0.00000000000E+00  0.00000000000E+00  0.10179237440E+04  0.10179237440E+04  0.50400001928E-02 0.  1.
       -1   -1    0    0    0  501  0.00000000000E+00  0.00000000000E+00 -0.65516695181E+02  0.65516695375E+02  0.50400001928E-02 0. -1.
    10030    2    1    2    0    0  0.00000000000E+00  0.00000000000E+00  0.95240704878E+03  0.10834404394E+04  0.51649201257E+03 0.  0.
        3    1    3    3  502    0  0.54736552695E+02 -0.18223544804E+03  0.10994686087E+03  0.21975934824E+03  0.10100000352E+00 0. -1.
       -3    1    3    3    0  502 -0.54736552695E+02  0.18223544804E+03  0.84246018791E+03  0.86368109111E+03  0.10100000352E+00 0.  1.
</event>
<event>
 5   0  0.7416638E-02  0.4782252E+03  0.7818609E-02  0.1019624E+00
       -1   -1    0    0    0  501  0.00000000000E+00  0.00000000000E+00  0.17262346540E+03  0.17262346547E+03  0.50400001928E-02 0.  1.
        1   -1    0    0  501    0  0.00000000000E+00  0.00000000000E+00 -0.33121120141E+03  0.33121120145E+03  0.50400001928E-02 0. -1.
    10030    2    1    2    0    0  0.00000000000E+00  0.00000000000E+00 -0.15858773601E+03  0.50383466692E+03  0.47822515783E+03 0.  0.
        1    1    3    3  502    0 -0.11855370767E+03  0.12787056467E+03  0.93079987834E+02  0.19766068671E+03  0.50400001928E-02 0.  1.
       -1    1    3    3    0  502  0.11855370767E+03 -0.12787056467E+03 -0.25166772384E+03  0.30617398021E+03  0.50400001928E-02 0. -1.
</event>
<event>
 5   0  0.5006750E-02  0.4941653E+03  0.7818609E-02  0.1015313E+00
       -4   -1    0    0    0  501  0.00000000000E+00  0.00000000000E+00  0.98042067222E+02  0.98050292428E+02  0.12699999809E+01 0. -1.
        4   -1    0    0  501    0  0.00000000000E+00  0.00000000000E+00 -0.62265533843E+03  0.62265663361E+03  0.12699999809E+01 0.  1.
    10030    2    1    2    0    0  0.00000000000E+00  0.00000000000E+00 -0.52461327121E+03  0.72070692603E+03  0.49416534572E+03 0.  0.
        2    1    3    3  502    0  0.43975332417E+02  0.19258763113E+03 -0.45858205329E+02  0.20279743719E+03  0.25500000920E-02 0. -1.
       -2    1    3    3    0  502 -0.43975332417E+02 -0.19258763113E+03 -0.47875506588E+03  0.51790948885E+03  0.25500000920E-02 0.  1.
</event>
<event>
 5   0  0.7812547E-02  0.4995049E+03  0.7818609E-02  0.1013908E+00
       -1   -1    0    0    0  501  0.00000000000E+00  0.00000000000E+00  0.96368568072E+02  0.96368568204E+02  0.50400001928E-02 0.  1.
        1   -1    0    0  501    0  0.00000000000E+00  0.00000000000E+00 -0.64726792413E+03  0.64726792415E+03  0.50400001928E-02 0. -1.
    10030    2    1    2    0    0  0.00000000000E+00  0.00000000000E+00 -0.55089935606E+03  0.74363649235E+03  0.49950488712E+03 0.  0.
        4    1    3    3  502    0 -0.18752218846E+03  0.15357025665E+03 -0.36509989317E+03  0.43823274613E+03  0.12699999809E+01 0. -1.
       -4    1    3    3    0  502  0.18752218846E+03 -0.15357025665E+03 -0.18579946289E+03  0.30540374622E+03  0.12699999809E+01 0.  1.
</event>
<event>
 5   0  0.7781754E-02  0.5015014E+03  0.7818609E-02  0.1013388E+00
        1   -1    0    0  501    0  0.00000000000E+00  0.00000000000E+00  0.34442981080E+03  0.34442981084E+03  0.50400001928E-02 0. -1.
       -1   -1    0    0    0  501  0.00000000000E+00  0.00000000000E+00 -0.18255072422E+03  0.18255072429E+03  0.50400001928E-02 0.  1.
    10030    2    1    2    0    0  0.00000000000E+00  0.00000000000E+00  0.16187908658E+03  0.52698053513E+03  0.50150139156E+03 0.  0.
        2    1    3    3  502    0 -0.19131868721E+03  0.14973175536E+03  0.15709362828E+02  0.24345271148E+03  0.25500000920E-02 0. -1.
       -2    1    3    3    0  502  0.19131868721E+03 -0.14973175536E+03  0.14616972375E+03  0.28352782365E+03  0.25500000920E-02 0.  1.
</event>
<event>
 5   0  0.1191894E-01  0.4957791E+03  0.7818609E-02  0.1014887E+00
       -2   -1    0    0    0  501  0.00000000000E+00  0.00000000000E+00  0.39087913016E+02  0.39087913099E+02  0.25500000920E-02 0.  1.
        2   -1    0    0  501    0  0.00000000000E+00  0.00000000000E+00 -0.15720777276E+04  0.15720777276E+04  0.25500000920E-02 0. -1.
    10030    2    1    2    0    0  0.00000000000E+00  0.00000000000E+00 -0.15329898146E+04  0.16111656407E+04  0.49577913445E+03 0.  0.
        3    1    3    3  502    0 -0.52769017784E+02 -0.13780553444E+02 -0.15523385607E+04  0.15532963304E+04  0.10100000352E+00 0. -1.
       -3    1    3    3    0  502  0.52769017784E+02  0.13780553444E+02  0.19348746134E+02  0.57869310253E+02  0.10100000352E+00 0.  1.
</event>
<event>
 5   0  0.1243803E-01  0.5089933E+03  0.7818609E-02  0.1011458E+00
        2   -1    0    0  501    0  0.00000000000E+00  0.00000000000E+00  0.16107708668E+04  0.16107708668E+04  0.25500000920E-02 0.  1.
       -2   -1    0    0    0  501  0.00000000000E+00  0.00000000000E+00 -0.40209664771E+02  0.40209664852E+02  0.25500000920E-02 0. -1.
    10030    2    1    2    0    0  0.00000000000E+00  0.00000000000E+00  0.15705612020E+04  0.16509805317E+04  0.50899334631E+03 0.  0.
        4    1    3    3  502    0  0.10866001400E+03  0.22241172760E+03  0.59357836285E+03  0.64312585157E+03  0.12699999809E+01 0.  1.
       -4    1    3    3    0  502 -0.10866001400E+03 -0.22241172760E+03  0.97698283920E+03  0.10078546801E+04  0.12699999809E+01 0. -1.
</event>
<event>
 5   0  0.1243803E-01  0.4984469E+03  0.7818609E-02  0.1014185E+00
       -2   -1    0    0    0  501  0.00000000000E+00  0.00000000000E+00  0.75334325529E+02  0.75334325572E+02  0.25500000920E-02 0.  1.
        2   -1    0    0  501    0  0.00000000000E+00  0.00000000000E+00 -0.82448908358E+03  0.82448908358E+03  0.25500000920E-02 0. -1.
    10030    2    1    2    0    0  0.00000000000E+00  0.00000000000E+00 -0.74915475805E+03  0.89982340915E+03  0.49844690405E+03 0.  0.
        4    1    3    3  502    0  0.66595562539E+02  0.81413349553E+02 -0.78245145883E+03  0.78949034241E+03  0.12699999809E+01 0. -1.
       -4    1    3    3    0  502 -0.66595562539E+02 -0.81413349553E+02  0.33296700776E+02  0.11033306675E+03  0.12699999809E+01 0.  1.
</event>
<event>
 5   0  0.7602288E-02  0.5003943E+03  0.7818609E-02  0.1013676E+00
       -1   -1    0    0    0  501  0.00000000000E+00  0.00000000000E+00  0.87894144383E+02  0.87894144528E+02  0.50400001928E-02 0. -1.
        1   -1    0    0  501    0  0.00000000000E+00  0.00000000000E+00 -0.71220471833E+03  0.71220471835E+03  0.50400001928E-02 0.  1.
    10030    2    1    2    0    0  0.00000000000E+00  0.00000000000E+00 -0.62431057395E+03  0.80009886288E+03  0.50039434213E+03 0.  0.
        5    1    3    3  502    0  0.90544301561E+02 -0.16638629050E+02  0.59752776250E+02  0.10985262304E+03  0.46999998093E+01 0. -1.
       -5    1    3    3    0  502 -0.90544301561E+02  0.16638629050E+02 -0.68406335020E+03  0.69024623983E+03  0.46999998093E+01 0.  1.
</event>
<event>
 5   0  0.7531632E-02  0.4963981E+03  0.7818609E-02  0.1014723E+00
        1   -1    0    0  501    0  0.00000000000E+00  0.00000000000E+00  0.84040105086E+02  0.84040105237E+02  0.50400001928E-02 0.  1.
       -1   -1    0    0    0  501  0.00000000000E+00  0.00000000000E+00 -0.73301632788E+03  0.73301632790E+03  0.50400001928E-02 0. -1.
    10030    2    1    2    0    0  0.00000000000E+00  0.00000000000E+00 -0.64897622280E+03  0.81705643314E+03  0.49639810352E+03 0.  0.
        3    1    3    3  502    0 -0.19109268971E+03  0.13698210463E+03 -0.19361282750E+03  0.30457585299E+03  0.10100000352E+00 0.  1.
       -3    1    3    3    0  502  0.19109268971E+03 -0.13698210463E+03 -0.45536339530E+03  0.51248058015E+03  0.10100000352E+00 0. -1.
</event>
<event>
 5   0  0.1243803E-01  0.4969067E+03  0.7818609E-02  0.1014589E+00
       -2   -1    0    0    0  501  0.00000000000E+00  0.00000000000E+00  0.96191771198E+02  0.96191771232E+02  0.25500000920E-02 0. -1.
        2   -1    0    0  501    0  0.00000000000E+00  0.00000000000E+00 -0.64172907126E+03  0.64172907127E+03  0.25500000920E-02 0.  1.
    10030    2    1    2    0    0  0.00000000000E+00  0.00000000000E+00 -0.54553730007E+03  0.73792084250E+03  0.49690665525E+03 0.  0.
        4    1    3    3  502    0  0.25381181531E+02  0.92474372987E+02 -0.61313436846E+03  0.62058930117E+03  0.12699999809E+01 0.  1.
       -4    1    3    3    0  502 -0.25381181531E+02 -0.92474372987E+02  0.67597068398E+02  0.11733154133E+03  0.12699999809E+01 0. -1.
</event>
<event>
 5   0  0.5006750E-02  0.4684690E+03  0.7818609E-02  0.1022353E+00
       -3   -1    0    0    0  501  0.00000000000E+00  0.00000000000E+00  0.34073711135E+03  0.34073712632E+03  0.10100000352E+00 0.  1.
        3   -1    0    0  501    0  0.00000000000E+00  0.00000000000E+00 -0.16102086879E+03  0.16102090046E+03  0.10100000352E+00 0. -1.
    10030    2    1    2    0    0  0.00000000000E+00  0.00000000000E+00  0.17971624257E+03  0.50175802678E+03  0.46846898467E+03 0.  0.
        1    1    3    3  502    0 -0.32624875561E+02 -0.18159472519E+03 -0.64704188389E+02  0.19551894728E+03  0.50400001928E-02 0. -1.
       -1    1    3    3    0  502  0.32624875561E+02  0.18159472519E+03  0.24442043096E+03  0.30623907951E+03  0.50400001928E-02 0.  1.
</event>
<event>
 5   0  0.1211345E-01  0.4970003E+03  0.7818609E-02  0.1014565E+00
        2   -1    0    0  501    0  0.00000000000E+00  0.00000000000E+00  0.10374091291E+03  0.10374091294E+03  0.25500000920E-02 0. -1.
       -2   -1    0    0    0  501  0.00000000000E+00  0.00000000000E+00 -0.59525517447E+03  0.59525517448E+03  0.25500000920E-02 0.  1.
    10030    2    1    2    0    0  0.00000000000E+00  0.00000000000E+00 -0.49151426157E+03  0.69899608741E+03  0.49700026247E+03 0.  0.
        5    1    3    3  502    0  0.61764033106E+01  0.24674993952E+03 -0.20581489921E+03  0.32141179714E+03  0.46999998093E+01 0.  1.
       -5    1    3    3    0  502 -0.61764033106E+01 -0.24674993952E+03 -0.28569936236E+03  0.37758429027E+03  0.46999998093E+01 0. -1.
</event>
<event>
 5   0  0.7602288E-02  0.4995157E+03  0.7818609E-02  0.1013905E+00
        1   -1    0    0  501    0  0.00000000000E+00  0.00000000000E+00  0.58009979815E+03  0.58009979818E+03  0.50400001928E-02 0. -1.
       -1   -1    0    0    0  501  0.00000000000E+00  0.00000000000E+00 -0.10753148103E+03  0.10753148114E+03  0.50400001928E-02 0.  1.
    10030    2    1    2    0    0  0.00000000000E+00  0.00000000000E+00  0.47256831713E+03  0.68763127932E+03  0.49951572743E+03 0.  0.
        5    1    3    3  502    0 -0.10195102881E+03 -0.20871854580E+03  0.36244717351E+03  0.43052001954E+03  0.46999998093E+01 0. -1.
       -5    1    3    3    0  502  0.10195102881E+03  0.20871854580E+03  0.11012114362E+03  0.25711125978E+03  0.46999998093E+01 0.  1.
</event>
<event>
 5   0  0.7531632E-02  0.5055367E+03  0.7818609E-02  0.1012344E+00
        1   -1    0    0  501    0  0.00000000000E+00  0.00000000000E+00  0.14076705767E+04  0.14076705768E+04  0.50400001928E-02 0.  1.
       -1   -1    0    0    0  501  0.00000000000E+00  0.00000000000E+00 -0.45388340712E+02  0.45388340992E+02  0.50400001928E-02 0. -1.
    10030    2    1    2    0    0  0.00000000000E+00  0.00000000000E+00  0.13622822360E+04  0.14530589177E+04  0.50553667308E+03 0.  0.
        3    1    3    3  502    0 -0.24725879030E+03  0.57148088419E+01  0.83110781545E+03  0.86712731448E+03  0.10100000352E+00 0. -1.
       -3    1    3    3    0  502  0.24725879030E+03 -0.57148088419E+01  0.53117442059E+03  0.58593160327E+03  0.10100000352E+00 0.  1.
</event>
<event>
 5   0  0.1279188E-01  0.5028419E+03  0.7818609E-02  0.1013040E+00
       -2   -1    0    0    0  501  0.00000000000E+00  0.00000000000E+00  0.33943934512E+03  0.33943934513E+03  0.25500000920E-02 0. -1.
        2   -1    0    0  501    0  0.00000000000E+00  0.00000000000E+00 -0.18622616238E+03  0.18622616240E+03  0.25500000920E-02 0.  1.
    10030    2    1    2    0    0  0.00000000000E+00  0.00000000000E+00  0.15321318274E+03  0.52566550753E+03  0.50284187021E+03 0.  0.
        2    1    3    3  502    0  0.18824807526E+03  0.12253538440E+03 -0.41481817482E+02  0.22841409645E+03  0.25500000920E-02 0.  1.
       -2    1    3    3    0  502 -0.18824807526E+03 -0.12253538440E+03  0.19469500022E+03  0.29725141107E+03  0.25500000920E-02 0. -1.
</event>
<event>
 5   0  0.1211345E-01  0.5255202E+03  0.7818609E-02  0.1007324E+00
        2   -1    0    0  501    0  0.00000000000E+00  0.00000000000E+00  0.15239259401E+04  0.15239259401E+04  0.25500000920E-02 0. -1.
       -2   -1    0    0    0  501  0.00000000000E+00  0.00000000000E+00 -0.45305913626E+02  0.45305913697E+02  0.25500000920E-02 0.  1.
    10030    2    1    2    0    0  0.00000000000E+00  0.00000000000E+00  0.14786200265E+04  0.15692318538E+04  0.52552015023E+03 0.  0.
        5    1    3    3  502    0 -0.73594432083E+02  0.15526390719E+03  0.14586033692E+03  0.22543369135E+03  0.46999998093E+01 0.  1.
       -5    1    3    3    0  502  0.73594432083E+02 -0.15526390719E+03  0.13327596896E+04  0.13437981625E+04  0.46999998093E+01 0. -1.
</event>
<event>
 5   0  0.1231822E-01  0.4855502E+03  0.7818609E-02  0.1017621E+00
        2   -1    0    0  501    0  0.00000000000E+00  0.00000000000E+00  0.28060131689E+04  0.28060131689E+04  0.25500000920E-02 0.  1.
       -2   -1    0    0    0  501  0.00000000000E+00  0.00000000000E+00 -0.21004802577E+02  0.21004802732E+02  0.25500000920E-02 0. -1.
    10030    2    1    2    0    0  0.00000000000E+00  0.00000000000E+00  0.27850083663E+04  0.28270179716E+04  0.48555021516E+03 0.  0.
        1    1    3    3  502    0 -0.18315747231E+03 -0.10165850016E+02  0.46659865928E+03  0.50136245675E+03  0.50400001928E-02 0. -1.
       -1    1    3    3    0  502  0.18315747231E+03  0.10165850016E+02  0.23184097070E+04  0.23256555149E+04  0.50400001928E-02 0.  1.
</event>
<event>
 5   0  0.1243803E-01  0.5037687E+03  0.7818609E-02  0.1012800E+00
        2   -1    0    0  501    0  0.00000000000E+00  0.00000000000E+00  0.83550858526E+03  0.83550858527E+03  0.25500000920E-02 0. -1.
       -2   -1    0    0    0  501  0.00000000000E+00  0.00000000000E+00 -0.75936642144E+02  0.75936642187E+02  0.25500000920E-02 0.  1.
    10030    2    1    2    0    0  0.00000000000E+00  0.00000000000E+00  0.75957194312E+03  0.91144522745E+03  0.50376866305E+03 0.  0.
        4    1    3    3  502    0 -0.14289720229E+03 -0.13984716375E+03  0.10262590596E+03  0.22474547627E+03  0.12699999809E+01 0.  1.
       -4    1    3    3    0  502  0.14289720229E+03  0.13984716375E+03  0.65694603716E+03  0.68669975118E+03  0.12699999809E+01 0. -1.
</event>
<event>
 5   0  0.1211345E-01  0.4990154E+03  0.7818609E-02  0.1014036E+00
       -2   -1    0    0    0  501  0.00000000000E+00  0.00000000000E+00  0.85854339982E+02  0.85854340019E+02  0.25500000920E-02 0. -1.
        2   -1    0    0  501    0  0.00000000000E+00  0.00000000000E+00 -0.72511283641E+03  0.72511283641E+03  0.25500000920E-02 0.  1.
    10030    2    1    2    0    0  0.00000000000E+00  0.00000000000E+00 -0.63925849642E+03  0.81096717643E+03  0.49901536649E+03 0.  0.
        5    1    3    3  502    0  0.34578544956E+02 -0.45587163855E+02 -0.71423299339E+03  0.71653661743E+03  0.46999998093E+01 0.  1.
       -5    1    3    3    0  502 -0.34578544956E+02  0.45587163855E+02  0.74974496963E+02  0.94430558998E+02  0.46999998093E+01 0. -1.
</event>
<event>
 5   0  0.1191894E-01  0.5177556E+03  0.7818609E-02  0.1009246E+00
        2   -1    0    0  501    0  0.00000000000E+00  0.00000000000E+00  0.14559486960E+04  0.14559486960E+04  0.25500000920E-02 0.  1.
       -2   -1    0    0    0  501  0.00000000000E+00  0.00000000000E+00 -0.46030273475E+02  0.46030273546E+02  0.25500000920E-02 0. -1.
    10030    2    1    2    0    0  0.00000000000E+00  0.00000000000E+00  0.14099184225E+04  0.15019789695E+04  0.51775560527E+03 0.  0.
        3    1    3    3  502    0 -0.89591494069E+02  0.85466115650E+02  0.13644793822E+04  0.13700857957E+04  0.10100000352E+00 0.  1.
       -3    1    3    3    0  502  0.89591494069E+02 -0.85466115650E+02  0.45439040290E+02  0.13189317388E+03  0.10100000352E+00 0. -1.
</event>
<event>
 5   0  0.7781754E-02  0.5375284E+03  0.7818609E-02  0.1004423E+00
        1   -1    0    0  501    0  0.00000000000E+00  0.00000000000E+00  0.13960091739E+03  0.13960091748E+03  0.50400001928E-02 0.  1.
       -1   -1    0    0    0  501  0.00000000000E+00  0.00000000000E+00 -0.51743351370E+03  0.51743351373E+03  0.50400001928E-02 0. -1.
    10030    2    1    2    0    0  0.00000000000E+00  0.00000000000E+00 -0.37783259631E+03  0.65703443121E+03  0.53752839270E+03 0.  0.
        2    1    3    3  502    0  0.25610042877E+03 -0.81041356286E+02 -0.17804776006E+03  0.32226718095E+03  0.25500000920E-02 0.  1.
       -2    1    3    3    0  502 -0.25610042877E+03  0.81041356286E+02 -0.19978483625E+03  0.33476725026E+03  0.25500000920E-02 0. -1.
</event>
<event>
 5   0  0.1211345E-01  0.5068297E+03  0.7818609E-02  0.1012011E+00
        2   -1    0    0  501    0  0.00000000000E+00  0.00000000000E+00  0.89366275659E+03  0.89366275660E+03  0.25500000920E-02 0.  1.
       -2   -1    0    0    0  501  0.00000000000E+00  0.00000000000E+00 -0.71860537799E+02  0.71860537844E+02  0.25500000920E-02 0. -1.
    10030    2    1    2    0    0  0.00000000000E+00  0.00000000000E+00  0.82180221879E+03  0.96552329444E+03  0.50682970048E+03 0.  0.
        5    1    3    3  502    0  0.39346135187E+02 -0.20620985333E+02  0.88610331861E+03  0.88722856393E+03  0.46999998093E+01 0.  1.
       -5    1    3    3    0  502 -0.39346135187E+02  0.20620985333E+02 -0.64301099819E+02  0.78294730515E+02  0.46999998093E+01 0. -1.
</event>
<event>
 5   0  0.7602288E-02  0.4997918E+03  0.7818609E-02  0.1013833E+00
       -1   -1    0    0    0  501  0.00000000000E+00  0.00000000000E+00  0.29512196974E+03  0.29512196978E+03  0.50400001928E-02 0.  1.
        1   -1    0    0  501    0  0.00000000000E+00  0.00000000000E+00 -0.21160048883E+03  0.21160048889E+03  0.50400001928E-02 0. -1.
    10030    2    1    2    0    0  0.00000000000E+00  0.00000000000E+00  0.83521480909E+02  0.50672245867E+03  0.49979176899E+03 0.  0.
        5    1    3    3  502    0  0.90730930643E+02  0.24486996105E+02 -0.19295366271E+03  0.21467398703E+03  0.46999998093E+01 0. -1.
       -5    1    3    3    0  502 -0.90730930643E+02 -0.24486996105E+02  0.27647514362E+03  0.29204847165E+03  0.46999998093E+01 0.  1.
</event>
<event>
 5   0  0.7531632E-02  0.4992634E+03  0.7818609E-02  0.1013971E+00
        1   -1    0    0  501    0  0.00000000000E+00  0.00000000000E+00  0.85453468084E+03  0.85453468085E+03  0.50400001928E-02 0.  1.
       -1   -1    0    0    0  501  0.00000000000E+00  0.00000000000E+00 -0.72923877102E+02  0.72923877276E+02  0.50400001928E-02 0. -1.
    10030    2    1    2    0    0  0.00000000000E+00  0.00000000000E+00  0.78161080373E+03  0.92745855813E+03  0.49926338593E+03 0.  0.
        3    1    3    3  502    0 -0.67487106548E+02  0.14093326128E+03  0.75244856984E+03  0.76850214973E+03  0.10100000352E+00 0.  1.
       -3    1    3    3    0  502  0.67487106548E+02 -0.14093326128E+03  0.29162233897E+02  0.15895640840E+03  0.10100000352E+00 0. -1.
</event>
<event>
 5   0  0.7602288E-02  0.4830435E+03  0.7818609E-02  0.1018302E+00
        1   -1    0    0  501    0  0.00000000000E+00  0.00000000000E+00  0.51811841969E+03  0.51811841972E+03  0.50400001928E-02 0.  1.
       -1   -1    0    0    0  501  0.00000000000E+00  0.00000000000E+00 -0.11258577752E+03  0.11258577763E+03  0.50400001928E-02 0. -1.
    10030    2    1    2    0    0  0.00000000000E+00  0.00000000000E+00  0.40553264217E+03  0.63070419735E+03  0.48304353912E+03 0.  0.
        5    1    3    3  502    0  0.78994190808E+02 -0.21688618354E+03  0.11015467939E+03  0.25580430446E+03  0.46999998093E+01 0. -1.
       -5    1    3    3    0  502 -0.78994190808E+02  0.21688618354E+03  0.29537796278E+03  0.37489989289E+03  0.46999998093E+01 0.  1.
</event>
<event>
 5   0  0.7812547E-02  0.5055488E+03  0.7818609E-02  0.1012341E+00
       -1   -1    0    0    0  501  0.00000000000E+00  0.00000000000E+00  0.18190534934E+03  0.18190534941E+03  0.50400001928E-02 0.  1.
        1   -1    0    0  501    0  0.00000000000E+00  0.00000000000E+00 -0.35125360411E+03  0.35125360414E+03  0.50400001928E-02 0. -1.
    10030    2    1    2    0    0  0.00000000000E+00  0.00000000000E+00 -0.16934825476E+03  0.53315895356E+03  0.50554884865E+03 0.  0.
        4    1    3    3  502    0 -0.18713948956E+02  0.31408288792E+02 -0.34844702126E+03  0.35036214409E+03  0.12699999809E+01 0. -1.
       -4    1    3    3    0  502  0.18713948956E+02 -0.31408288792E+02  0.17909876650E+03  0.18279680946E+03  0.12699999809E+01 0.  1.
</event>
<event>
 5   0  0.1191894E-01  0.4983335E+03  0.7818609E-02  0.1014215E+00
       -2   -1    0    0    0  501  0.00000000000E+00  0.00000000000E+00  0.28012567900E+02  0.28012568016E+02  0.25500000920E-02 0.  1.
        2   -1    0    0  501    0  0.00000000000E+00  0.00000000000E+00 -0.22162933788E+04  0.22162933788E+04  0.25500000920E-02 0. -1.
    10030    2    1    2    0    0  0.00000000000E+00  0.00000000000E+00 -0.21882808109E+04  0.22443059468E+04  0.49833349834E+03 0.  0.
        3    1    3    3  502    0 -0.20134714735E+03  0.75513807211E+02 -0.52730892877E+03  0.56947144387E+03  0.10100000352E+00 0.  1.
       -3    1    3    3    0  502  0.20134714735E+03 -0.75513807211E+02 -0.16609718821E+04  0.16748345029E+04  0.10100000352E+00 0. -1.
</event>
<event>
 5   0  0.5006750E-02  0.5054480E+03  0.7818609E-02  0.1012367E+00
       -4   -1    0    0    0  501  0.00000000000E+00  0.00000000000E+00  0.20653169768E+03  0.20653560237E+03  0.12699999809E+01 0.  1.
        4   -1    0    0  501    0  0.00000000000E+00  0.00000000000E+00 -0.30923944332E+03  0.30924205116E+03  0.12699999809E+01 0. -1.
    10030    2    1    2    0    0  0.00000000000E+00  0.00000000000E+00 -0.10270774564E+03  0.51577765353E+03  0.50544802588E+03 0.  0.
        2    1    3    3  502    0 -0.61663018729E+02  0.23556546178E+01  0.19872919270E+03  0.20808932943E+03  0.25500000920E-02 0.  1.
       -2    1    3    3    0  502  0.61663018729E+02 -0.23556546178E+01 -0.30143693833E+03  0.30768832410E+03  0.25500000920E-02 0. -1.
</event>
<event>
 5   0  0.7812547E-02  0.5001052E+03  0.7818609E-02  0.1013751E+00
        1   -1    0    0  501    0  0.00000000000E+00  0.00000000000E+00  0.42532614030E+03  0.42532614033E+03  0.50400001928E-02 0.  1.
       -1   -1    0    0    0  501  0.00000000000E+00  0.00000000000E+00 -0.14700788755E+03  0.14700788763E+03  0.50400001928E-02 0. -1.
    10030    2    1    2    0    0  0.00000000000E+00  0.00000000000E+00  0.27831825275E+03  0.57233402797E+03  0.50010517869E+03 0.  0.
        4    1    3    3  502    0  0.68257933268E+02 -0.23631104975E+03  0.19062817016E+03  0.31119570988E+03  0.12699999809E+01 0. -1.
       -4    1    3    3    0  502 -0.68257933268E+02  0.23631104975E+03  0.87690082593E+02  0.26113831809E+03  0.12699999809E+01 0.  1.
</event>
<event>
 5   0  0.1243803E-01  0.5007440E+03  0.7818609E-02  0.1013585E+00
       -2   -1    0    0    0  501  0.00000000000E+00  0.00000000000E+00  0.13090478048E+03  0.13090478050E+03  0.25500000920E-02 0. -1.
        2   -1    0    0  501    0  0.00000000000E+00  0.00000000000E+00 -0.47886815899E+03  0.47886815899E+03  0.25500000920E-02 0.  1.
    10030    2    1    2    0    0  0.00000000000E+00  0.00000000000E+00 -0.34796337851E+03  0.60977293950E+03  0.50074397147E+03 0.  0.
        4    1    3    3  502    0  0.75615048825E+02  0.90500987360E+02  0.94959629513E+02  0.15141667167E+03  0.12699999809E+01 0. -1.
       -4    1    3    3    0  502 -0.75615048825E+02 -0.90500987360E+02 -0.44292300802E+03  0.45835626783E+03  0.12699999809E+01 0.  1.
</event>
<event>
 5   0  0.1279188E-01  0.4996170E+03  0.7818609E-02  0.1013879E+00
        2   -1    0    0  501    0  0.00000000000E+00  0.00000000000E+00  0.38851145703E+03  0.38851145704E+03  0.25500000920E-02 0. -1.
       -2   -1    0    0    0  501  0.00000000000E+00  0.00000000000E+00 -0.16062408498E+03  0.16062408500E+03  0.25500000920E-02 0.  1.
    10030    2    1    2    0    0  0.00000000000E+00  0.00000000000E+00  0.22788737205E+03  0.54913554205E+03  0.49961704254E+03 0.  0.
        2    1    3    3  502    0  0.94079597081E+02 -0.17762268295E+03  0.27698147767E+03  0.34222730321E+03  0.25500000920E-02 0. -1.
       -2    1    3    3    0  502 -0.94079597081E+02  0.17762268295E+03 -0.49094105617E+02  0.20690823884E+03  0.25500000920E-02 0.  1.
</event>
<event>
 5   0  0.7812547E-02  0.5018876E+03  0.7818609E-02  0.1013287E+00
        1   -1    0    0  501    0  0.00000000000E+00  0.00000000000E+00  0.57109758015E+02  0.57109758238E+02  0.50400001928E-02 0. -1.
       -1   -1    0    0    0  501  0.00000000000E+00  0.00000000000E+00 -0.11026623493E+04  0.11026623493E+04  0.50400001928E-02 0.  1.
    10030    2    1    2    0    0  0.00000000000E+00  0.00000000000E+00 -0.10455525912E+04  0.11597721075E+04  0.50188755742E+03 0.  0.
        4    1    3    3  502    0  0.15088371815E+02  0.24451419157E+03 -0.64842031725E+03  0.69315609322E+03  0.12699999809E+01 0.  1.
       -4    1    3    3    0  502 -0.15088371815E+02 -0.24451419157E+03 -0.39713227399E+03  0.46661601428E+03  0.12699999809E+01 0. -1.
</event>
<event>
 5   0  0.1211345E-01  0.4937886E+03  0.7818609E-02  0.1015413E+00
        2   -1    0    0  501    0  0.00000000000E+00  0.00000000000E+00  0.35178071290E+03  0.35178071291E+03  0.25500000920E-02 0.  1.
       -2   -1    0    0    0  501  0.00000000000E+00  0.00000000000E+00 -0.17328063271E+03  0.17328063273E+03  0.25500000920E-02 0. -1.
    10030    2    1    2    0    0  0.00000000000E+00  0.00000000000E+00  0.17850008020E+03  0.52506134564E+03  0.49378855601E+03 0.  0.
        5    1    3    3  502    0 -0.23027997270E+03 -0.13909828441E+02 -0.41317642565E+01  0.23078455457E+03  0.46999998093E+01 0.  1.
       -5    1    3    3    0  502  0.23027997270E+03  0.13909828441E+02  0.18263184445E+03  0.29427679107E+03  0.46999998093E+01 0. -1.
</event>
<event>
 5   0  0.5006750E-02  0.4987469E+03  0.7818609E-02  0.1014107E+00
        3   -1    0    0  501    0  0.00000000000E+00  0.00000000000E+00  0.11197826743E+03  0.11197831298E+03  0.10100000352E+00 0.  1.
       -3   -1    0    0    0  501  0.00000000000E+00  0.00000000000E+00 -0.55534975772E+03  0.55534976690E+03  0.10100000352E+00 0. -1.
    10030    2    1    2    0    0  0.00000000000E+00  0.00000000000E+00 -0.44337149029E+03  0.66732807988E+03  0.49874691758E+03 0.  0.
        3    1    3    3  502    0 -0.65151718038E+02 -0.39113034471E+02 -0.53948069131E+03  0.54480638976E+03  0.10100000352E+00 0. -1.
       -3    1    3    3    0  502  0.65151718038E+02  0.39113034471E+02  0.96109201016E+02  0.12252169012E+03  0.10100000352E+00 0.  1.
</event>
<event>
 5   0  0.7531632E-02  0.4995535E+03  0.7818609E-02  0.1013896E+00
        1   -1    0    0  501    0  0.00000000000E+00  0.00000000000E+00  0.10053724571E+04  0.10053724571E+04  0.50400001928E-02 0.  1.
       -1   -1    0    0    0  501  0.00000000000E+00  0.00000000000E+00 -0.62055046175E+02  0.62055046380E+02  0.50400001928E-02 0. -1.
    10030    2    1    2    0    0  0.00000000000E+00  0.00000000000E+00  0.94331741094E+03  0.10674275035E+04  0.49955353813E+03 0.  0.
        3    1    3    3  502    0 -0.61088973097E+02 -0.17646142816E+03  0.11720118274E+03  0.22046910373E+03  0.10100000352E+00 0. -1.
       -3    1    3    3    0  502  0.61088973097E+02  0.17646142816E+03  0.82611622820E+03  0.84695839978E+03  0.10100000352E+00 0.  1.
</event>
<event>
 5   0  0.1243803E-01  0.4958863E+03  0.7818609E-02  0.1014858E+00
        2   -1    0    0  501    0  0.00000000000E+00  0.00000000000E+00  0.78823150372E+03  0.78823150372E+03  0.25500000920E-02 0.  1.
       -2   -1    0    0    0  501  0.00000000000E+00  0.00000000000E+00 -0.77992064875E+02  0.77992064916E+02  0.25500000920E-02 0. -1.
    10030    2    1    2    0    0  0.00000000000E+00  0.00000000000E+00  0.71023943885E+03  0.86622356864E+03  0.49588628775E+03 0.  0.
        4    1    3    3  502    0  0.63516211521E+01 -0.20957837449E+03  0.58627312154E+03  0.62264052557E+03  0.12699999809E+01 0.  1.
       -4    1    3    3    0  502 -0.63516211521E+01  0.20957837449E+03  0.12396631731E+03  0.24358304307E+03  0.12699999809E+01 0. -1.
</event>
<event>
 5   0  0.7602288E-02  0.4524116E+03  0.7818609E-02  0.1027005E+00
        1   -1    0    0  501    0  0.00000000000E+00  0.00000000000E+00  0.33318562347E+03  0.33318562351E+03  0.50400001928E-02 0. -1.
       -1   -1    0    0    0  501  0.00000000000E+00  0.00000000000E+00 -0.15357522187E+03  0.15357522195E+03  0.50400001928E-02 0.  1.
    10030    2    1    2    0    0  0.00000000000E+00  0.00000000000E+00  0.17961040161E+03  0.48676084546E+03  0.45241156518E+03 0.  0.
        5    1    3    3  502    0  0.17092835420E+03 -0.17244192474E+02  0.24805433174E+03  0.30177293771E+03  0.46999998093E+01 0. -1.
       -5    1    3    3    0  502 -0.17092835420E+03  0.17244192474E+02 -0.68443930134E+02  0.18498790775E+03  0.46999998093E+01 0.  1.
</event>
<event>
 5   0  0.5006750E-02  0.4199766E+03  0.7818609E-02  0.1037074E+00
       -4   -1    0    0    0  501  0.00000000000E+00  0.00000000000E+00  0.40932352110E+03  0.40932549130E+03  0.12699999809E+01 0. -1.
        4   -1    0    0  501    0  0.00000000000E+00  0.00000000000E+00 -0.10772076427E+03  0.10772825049E+03  0.12699999809E+01 0.  1.
    10030    2    1    2    0    0  0.00000000000E+00  0.00000000000E+00  0.30160275683E+03  0.51705374179E+03  0.41997660526E+03 0.  0.
        2    1    3    3  502    0 -0.15140273108E+03 -0.14280173873E+03  0.11641806116E+03  0.23847072888E+03  0.25500000920E-02 0.  1.
       -2    1    3    3    0  502  0.15140273108E+03  0.14280173873E+03  0.18518469567E+03  0.27858301291E+03  0.25500000920E-02 0. -1.
</event>
<event>
 5   0  0.5006750E-02  0.5005379E+03  0.7818609E-02  0.1013639E+00
        3   -1    0    0  501    0  0.00000000000E+00  0.00000000000E+00  0.80860914256E+03  0.80860914887E+03  0.10100000352E+00 0. -1.
       -3   -1    0    0    0  501  0.00000000000E+00  0.00000000000E+00 -0.77459579753E+02  0.77459645600E+02  0.10100000352E+00 0.  1.
    10030    2    1    2    0    0  0.00000000000E+00  0.00000000000E+00  0.73114956281E+03  0.88606879447E+03  0.50053793596E+03 0.  0.
        5    1    3    3  502    0 -0.13736215252E+03 -0.20567798147E+03  0.29838345701E+03  0.38759072541E+03  0.46999998093E+01 0.  1.
       -5    1    3    3    0  502  0.13736215252E+03  0.20567798147E+03  0.43276610580E+03  0.49847806906E+03  0.46999998093E+01 0. -1.
</event>
<event>
 5   0  0.7416638E-02  0.5019871E+03  0.7818609E-02  0.1013262E+00
        1   -1    0    0  501    0  0.00000000000E+00  0.00000000000E+00  0.23345892026E+03  0.23345892031E+03  0.50400001928E-02 0. -1.
       -1   -1    0    0    0  501  0.00000000000E+00  0.00000000000E+00 -0.26984513414E+03  0.26984513418E+03  0.50400001928E-02 0.  1.
    10030    2    1    2    0    0  0.00000000000E+00  0.00000000000E+00 -0.36386213875E+02  0.50330405450E+03  0.50198706628E+03 0.  0.
        1    1    3    3  502    0  0.15108765633E+03  0.16241554185E+03 -0.13593827945E+03  0.26016437876E+03  0.50400001928E-02 0.  1.
       -1    1    3    3    0  502 -0.15108765633E+03 -0.16241554185E+03  0.99552065571E+02  0.24313967574E+03  0.50400001928E-02 0. -1.
</event>
<event>
 5   0  0.7416638E-02  0.5037807E+03  0.7818609E-02  0.1012797E+00
       -1   -1    0    0    0  501  0.00000000000E+00  0.00000000000E+00  0.15082175600E+03  0.15082175608E+03  0.50400001928E-02 0.  1.
        1   -1    0    0  501    0  0.00000000000E+00  0.00000000000E+00 -0.42068704236E+03  0.42068704239E+03  0.50400001928E-02 0. -1.
    10030    2    1    2    0    0  0.00000000000E+00  0.00000000000E+00 -0.26986528636E+03  0.57150879847E+03  0.50378073995E+03 0.  0.
        1    1    3    3  502    0 -0.73835218750E+02  0.20282797250E+03  0.12360834487E+02  0.21620272018E+03  0.50400001928E-02 0.  1.
       -1    1    3    3    0  502  0.73835218750E+02 -0.20282797250E+03 -0.28222612085E+03  0.35530607830E+03  0.50400001928E-02 0. -1.
</event>
<event>
 5   0  0.7531632E-02  0.5007213E+03  0.7818609E-02  0.1013591E+00
        1   -1    0    0  501    0  0.00000000000E+00  0.00000000000E+00  0.52859363786E+03  0.52859363789E+03  0.50400001928E-02 0.  1.
       -1   -1    0    0    0  501  0.00000000000E+00  0.00000000000E+00 -0.11857965670E+03  0.11857965681E+03  0.50400001928E-02 0. -1.
    10030    2    1    2    0    0  0.00000000000E+00  0.00000000000E+00  0.41001398116E+03  0.64717329470E+03  0.50072128837E+03 0.  0.
        3    1    3    3  502    0  0.23766509299E+03 -0.69843475401E+02  0.15809087942E+03  0.29386313793E+03  0.10100000352E+00 0.  1.
       -3    1    3    3    0  502 -0.23766509299E+03  0.69843475401E+02  0.25192310174E+03  0.35331015677E+03  0.10100000352E+00 0. -1.
</event>
<event>
 5   0  0.1243803E-01  0.4989413E+03  0.7818609E-02  0.1014056E+00
       -2   -1    0    0    0  501  0.00000000000E+00  0.00000000000E+00  0.80687181953E+02  0.80687181993E+02  0.25500000920E-02 0.  1.
        2   -1    0    0  501    0  0.00000000000E+00  0.00000000000E+00 -0.77131965013E+03  0.77131965014E+03  0.25500000920E-02 0. -1.
    10030    2    1    2    0    0  0.00000000000E+00  0.00000000000E+00 -0.69063246818E+03  0.85200683213E+03  0.49894131508E+03 0.  0.
        4    1    3    3  502    0 -0.18136659254E+03 -0.13870062869E+03 -0.51695032042E+03  0.56512914628E+03  0.12699999809E+01 0. -1.
       -4    1    3    3    0  502  0.18136659254E+03  0.13870062869E+03 -0.17368214776E+03  0.28687768585E+03  0.12699999809E+01 0.  1.
</event>
<event>
 5   0  0.1231822E-01  0.5005038E+03  0.7818609E-02  0.1013647E+00
       -2   -1    0    0    0  501  0.00000000000E+00  0.00000000000E+00  0.75156062823E+02  0.75156062866E+02  0.25500000920E-02 0. -1.
        2   -1    0    0  501    0  0.00000000000E+00  0.00000000000E+00 -0.83327973956E+03  0.83327973956E+03  0.25500000920E-02 0.  1.
    10030    2    1    2    0    0  0.00000000000E+00  0.00000000000E+00 -0.75812367673E+03  0.90843580243E+03  0.50050384405E+03 0.  0.
        1    1    3    3  502    0  0.23825344416E+02  0.22576312813E+03 -0.18792667057E+03  0.29470845016E+03  0.50400001928E-02 0. -1.
       -1    1    3    3    0  502 -0.23825344416E+02 -0.22576312813E+03 -0.57019700617E+03  0.61372735227E+03  0.50400001928E-02 0.  1.
</event>
<event>
 5   0  0.5006750E-02  0.4936749E+03  0.7818609E-02  0.1015443E+00
        4   -1    0    0  501    0  0.00000000000E+00  0.00000000000E+00  0.77526279480E+03  0.77526383502E+03  0.12699999809E+01 0.  1.
       -4   -1    0    0    0  501  0.00000000000E+00  0.00000000000E+00 -0.78584831213E+02  0.78595092702E+02  0.12699999809E+01 0. -1.
    10030    2    1    2    0    0  0.00000000000E+00  0.00000000000E+00  0.69667796358E+03  0.85385892773E+03  0.49367487633E+03 0.  0.
        2    1    3    3  502    0  0.13274543199E+03 -0.14192786712E+03  0.61157813521E+03  0.64171074844E+03  0.25500000920E-02 0.  1.
       -2    1    3    3    0  502 -0.13274543199E+03  0.14192786712E+03  0.85099828371E+02  0.21214817929E+03  0.25500000920E-02 0. -1.
</event>
<event>
 5   0  0.5006750E-02  0.4991970E+03  0.7818609E-02  0.1013989E+00
        4   -1    0    0  501    0  0.00000000000E+00  0.00000000000E+00  0.11338932671E+03  0.11339643871E+03  0.12699999809E+01 0.  1.
       -4   -1    0    0    0  501  0.00000000000E+00  0.00000000000E+00 -0.54940424278E+03  0.54940571064E+03  0.12699999809E+01 0. -1.
    10030    2    1    2    0    0  0.00000000000E+00  0.00000000000E+00 -0.43601491607E+03  0.66280214935E+03  0.49919703740E+03 0.  0.
        5    1    3    3  502    0  0.88146358240E+02 -0.20397665998E+03 -0.36881560810E+03  0.43060805968E+03  0.46999998093E+01 0.  1.
       -5    1    3    3    0  502 -0.88146358240E+02  0.20397665998E+03 -0.67199307971E+02  0.23219408967E+03  0.46999998093E+01 0. -1.
</event>
<event>
 5   0  0.5006750E-02  0.4987212E+03  0.7818609E-02  0.1014113E+00
        3   -1    0    0  501    0  0.00000000000E+00  0.00000000000E+00  0.20249287292E+04  0.20249287317E+04  0.10100000352E+00 0. -1.
       -3   -1    0    0    0  501  0.00000000000E+00  0.00000000000E+00 -0.30707523413E+02  0.30707689512E+02  0.10100000352E+00 0.  1.
    10030    2    1    2    0    0  0.00000000000E+00  0.00000000000E+00  0.19942212058E+04  0.20556364212E+04  0.49872124346E+03 0.  0.
        1    1    3    3  502    0 -0.17749152027E+02 -0.16832947296E+03  0.17518740936E+04  0.17600320122E+04  0.50400001928E-02 0. -1.
       -1    1    3    3    0  502  0.17749152027E+02  0.16832947296E+03  0.24234711213E+03  0.29560440905E+03  0.50400001928E-02 0.  1.
</event>
<event>
 5   0  0.7602288E-02  0.5009434E+03  0.7818609E-02  0.1013533E+00
       -1   -1    0    0    0  501  0.00000000000E+00  0.00000000000E+00  0.17708600943E+03  0.17708600950E+03  0.50400001928E-02 0. -1.
        1   -1    0    0  501    0  0.00000000000E+00  0.00000000000E+00 -0.35426899276E+03  0.35426899279E+03  0.50400001928E-02 0.  1.
    10030    2    1    2    0    0  0.00000000000E+00  0.00000000000E+00 -0.17718298332E+03  0.53135500230E+03  0.50094343881E+03 0.  0.
        5    1    3    3  502    0 -0.23603906514E+03  0.56883604699E+02 -0.23517150413E+02  0.24397813656E+03  0.46999998093E+01 0. -1.
       -5    1    3    3    0  502  0.23603906514E+03 -0.56883604699E+02 -0.15366583291E+03  0.28737686574E+03  0.46999998093E+01 0.  1.
</event>
<event>
 5   0  0.1243803E-01  0.4972560E+03  0.7818609E-02  0.1014498E+00
        2   -1    0    0  501    0  0.00000000000E+00  0.00000000000E+00  0.12100710715E+04  0.12100710715E+04  0.25500000920E-02 0.  1.
       -2   -1    0    0    0  501  0.00000000000E+00  0.00000000000E+00 -0.51084512213E+02  0.51084512277E+02  0.25500000920E-02 0. -1.
    10030    2    1    2    0    0  0.00000000000E+00  0.00000000000E+00  0.11589865593E+04  0.12611555838E+04  0.49725603253E+03 0.  0.
        4    1    3    3  502    0  0.17171521151E+03 -0.73978213895E+02  0.16386573768E+03  0.24862116338E+03  0.12699999809E+01 0. -1.
       -4    1    3    3    0  502 -0.17171521151E+03  0.73978213895E+02  0.99512082159E+03  0.10125344204E+04  0.12699999809E+01 0.  1.
</event>
<event>
 5   0  0.7531632E-02  0.5061980E+03  0.7818609E-02  0.1012174E+00
        1   -1    0    0  501    0  0.00000000000E+00  0.00000000000E+00  0.29219816884E+03  0.29219816888E+03  0.50400001928E-02 0.  1.
       -1   -1    0    0    0  501  0.00000000000E+00  0.00000000000E+00 -0.21923172048E+03  0.21923172054E+03  0.50400001928E-02 0. -1.
    10030    2    1    2    0    0  0.00000000000E+00  0.00000000000E+00  0.72966448354E+02  0.51142988942E+03  0.50619801383E+03 0.  0.
        3    1    3    3  502    0  0.13937512010E+03  0.11759223122E+03 -0.14084648139E+03  0.23041505694E+03  0.10100000352E+00 0. -1.
       -3    1    3    3    0  502 -0.13937512010E+03 -0.11759223122E+03  0.21381292974E+03  0.28101483248E+03  0.10100000352E+00 0.  1.
</event>
<event>
 5   0  0.1243803E-01  0.5016987E+03  0.7818609E-02  0.1013336E+00
       -2   -1    0    0    0  501  0.00000000000E+00  0.00000000000E+00  0.15440715083E+03  0.15440715086E+03  0.25500000920E-02 0. -1.
        2   -1    0    0  501    0  0.00000000000E+00  0.00000000000E+00 -0.40752900168E+03  0.40752900168E+03  0.25500000920E-02 0.  1.
    10030    2    1    2    0    0  0.00000000000E+00  0.00000000000E+00 -0.25312185084E+03  0.56193615254E+03  0.50169868263E+03 0.  0.
        4    1    3    3  502    0 -0.24421696123E+03 -0.40022224418E+02 -0.80650792838E+02  0.26028804406E+03  0.12699999809E+01 0.  1.
       -4    1    3    3    0  502  0.24421696123E+03  0.40022224418E+02 -0.17247105800E+03  0.30164810847E+03  0.12699999809E+01 0. -1.
</event>
<event>
 5   0  0.7416638E-02  0.4254520E+03  0.7818609E-02  0.1035306E+00
       -1   -1    0    0    0  501  0.00000000000E+00  0.00000000000E+00  0.80532374893E+02  0.80532375051E+02  0.50400001928E-02 0. -1.
        1   -1    0    0  501    0  0.00000000000E+00  0.00000000000E+00 -0.56191492617E+03  0.56191492619E+03  0.50400001928E-02 0.  1.
    10030    2    1    2    0    0  0.00000000000E+00  0.00000000000E+00 -0.48138255127E+03  0.64244730124E+03  0.42545196462E+03 0.  0.
        1    1    3    3  502    0 -0.58627397934E+02 -0.80777426769E+02  0.42979049607E+02  0.10867089396E+03  0.50400001928E-02 0. -1.
       -1    1    3    3    0  502  0.58627397934E+02  0.80777426769E+02 -0.52436160088E+03  0.53377640728E+03  0.50400001928E-02 0.  1.
</event>
<event>
 5   0  0.7416638E-02  0.4917469E+03  0.7818609E-02  0.1015956E+00
       -1   -1    0    0    0  501  0.00000000000E+00  0.00000000000E+00  0.47050676530E+03  0.47050676533E+03  0.50400001928E-02 0.  1.
        1   -1    0    0  501    0  0.00000000000E+00  0.00000000000E+00 -0.12848644450E+03  0.12848644460E+03  0.50400001928E-02 0. -1.
    10030    2    1    2    0    0  0.00000000000E+00  0.00000000000E+00  0.34202032080E+03  0.59899320993E+03  0.49174685124E+03 0.  0.
        1    1    3    3  502    0  0.10248421615E+03  0.14823572478E+03  0.37475193360E+03  0.41583152408E+03  0.50400001928E-02 0.  1.
       -1    1    3    3    0  502 -0.10248421615E+03 -0.14823572478E+03 -0.32731612802E+02  0.18316168585E+03  0.50400001928E-02 0. -1.
</event>
<event>
 5   0  0.1231822E-01  0.5102755E+03  0.7818609E-02  0.1011131E+00
        2   -1    0    0  501    0  0.00000000000E+00  0.00000000000E+00  0.15401604456E+04  0.15401604456E+04  0.25500000920E-02 0. -1.
       -2   -1    0    0    0  501  0.00000000000E+00  0.00000000000E+00 -0.42265253395E+02  0.42265253472E+02  0.25500000920E-02 0.  1.
    10030    2    1    2    0    0  0.00000000000E+00  0.00000000000E+00  0.14978951922E+04  0.15824256990E+04  0.51027550035E+03 0.  0.
        1    1    3    3  502    0  0.40656935600E+02  0.24914683903E+02  0.15262193970E+04  0.15269641043E+04  0.50400001928E-02 0. -1.
       -1    1    3    3    0  502 -0.40656935600E+02 -0.24914683903E+02 -0.28324204858E+02  0.55461594754E+02  0.50400001928E-02 0.  1.
</event>
<event>
 5   0  0.1231822E-01  0.4980303E+03  0.7818609E-02  0.1014294E+00
        2   -1    0    0  501    0  0.00000000000E+00  0.00000000000E+00  0.32756994263E+03  0.32756994264E+03  0.25500000920E-02 0.  1.
       -2   -1    0    0    0  501  0.00000000000E+00  0.00000000000E+00 -0.18929863992E+03  0.18929863994E+03  0.25500000920E-02 0. -1.
    10030    2    1    2    0    0  0.00000000000E+00  0.00000000000E+00  0.13827130271E+03  0.51686858259E+03  0.49803029879E+03 0.  0.
        1    1    3    3  502    0 -0.16720244677E+03 -0.11316871330E+03  0.22040466146E+03  0.29890137285E+03  0.50400001928E-02 0.  1.
       -1    1    3    3    0  502  0.16720244677E+03  0.11316871330E+03 -0.82133358750E+02  0.21796720973E+03  0.50400001928E-02 0. -1.
</event>
<event>
 5   0  0.1243803E-01  0.5000984E+03  0.7818609E-02  0.1013753E+00
        2   -1    0    0  501    0  0.00000000000E+00  0.00000000000E+00  0.10117031631E+04  0.10117031631E+04  0.25500000920E-02 0. -1.
       -2   -1    0    0    0  501  0.00000000000E+00  0.00000000000E+00 -0.61801319844E+02  0.61801319897E+02  0.25500000920E-02 0.  1.
    10030    2    1    2    0    0  0.00000000000E+00  0.00000000000E+00  0.94990184326E+03  0.10735044830E+04  0.50009835353E+03 0.  0.
        4    1    3    3  502    0 -0.39177241043E+02 -0.62645223105E+02  0.98772775123E+03  0.99048826527E+03  0.12699999809E+01 0. -1.
       -4    1    3    3    0  502  0.39177241043E+02  0.62645223105E+02 -0.37825907966E+02  0.83016217735E+02  0.12699999809E+01 0.  1.
</event>
<event>
 5   0  0.1243803E-01  0.5005923E+03  0.7818609E-02  0.1013624E+00
        2   -1    0    0  501    0  0.00000000000E+00  0.00000000000E+00  0.39329153946E+03  0.39329153947E+03  0.25500000920E-02 0.  1.
       -2   -1    0    0    0  501  0.00000000000E+00  0.00000000000E+00 -0.15929188726E+03  0.15929188728E+03  0.25500000920E-02 0. -1.
    10030    2    1    2    0    0  0.00000000000E+00  0.00000000000E+00  0.23399965219E+03  0.55258342675E+03  0.50059225553E+03 0.  0.
        4    1    3    3  502    0  0.14293295293E+03 -0.82905170100E+02  0.32452374127E+03  0.36417079483E+03  0.12699999809E+01 0.  1.
       -4    1    3    3    0  502 -0.14293295293E+03  0.82905170100E+02 -0.90524089074E+02  0.18841263192E+03  0.12699999809E+01 0. -1.
</event>
<event>
 5   0  0.7416638E-02  0.4938382E+03  0.7818609E-02  0.1015400E+00
       -1   -1    0    0    0  501  0.00000000000E+00  0.00000000000E+00  0.50641138391E+03  0.50641138394E+03  0.50400001928E-02 0. -1.
        1   -1    0    0  501    0  0.00000000000E+00  0.00000000000E+00 -0.12039431731E+03  0.12039431742E+03  0.50400001928E-02 0.  1.
    10030    2    1    2    0    0  0.00000000000E+00  0.00000000000E+00  0.38601706660E+03  0.62680570136E+03  0.49383824431E+03 0.  0.
        1    1    3    3  502    0  0.13583270305E+03 -0.15934364384E+03  0.26895683477E+02  0.21110257664E+03  0.50400001928E-02 0.  1.
       -1    1    3    3    0  502 -0.13583270305E+03  0.15934364384E+03  0.35912138313E+03  0.41570312471E+03  0.50400001928E-02 0. -1.
</event>
<event>
 5   0  0.7531632E-02  0.4994626E+03  0.7818609E-02  0.1013919E+00
       -1   -1    0    0    0  501  0.00000000000E+00  0.00000000000E+00  0.76602899936E+02  0.76602900102E+02  0.50400001928E-02 0. -1.
        1   -1    0    0  501    0  0.00000000000E+00  0.00000000000E+00 -0.81414295360E+03  0.81414295361E+03  0.50400001928E-02 0.  1.
    10030    2    1    2    0    0  0.00000000000E+00  0.00000000000E+00 -0.73754005366E+03  0.89074585372E+03  0.49946255631E+03 0.  0.
        3    1    3    3  502    0 -0.99593757176E+02  0.36458519728E+02  0.34444282135E+02  0.11151035334E+03  0.10100000352E+00 0. -1.
       -3    1    3    3    0  502  0.99593757176E+02 -0.36458519728E+02 -0.77198433580E+03  0.77923550038E+03  0.10100000352E+00 0.  1.
</event>
<event>
 5   0  0.1279188E-01  0.5009031E+03  0.7818609E-02  0.1013543E+00
       -2   -1    0    0    0  501  0.00000000000E+00  0.00000000000E+00  0.84564733765E+02  0.84564733804E+02  0.25500000920E-02 0. -1.
        2   -1    0    0  501    0  0.00000000000E+00  0.00000000000E+00 -0.74175091726E+03  0.74175091726E+03  0.25500000920E-02 0.  1.
    10030    2    1    2    0    0  0.00000000000E+00  0.00000000000E+00 -0.65718618350E+03  0.82631565107E+03  0.50090305991E+03 0.  0.
        2    1    3    3  502    0 -0.15903830611E+03 -0.15363186459E+03 -0.13459209880E+03  0.25886476333E+03  0.25500000920E-02 0. -1.
       -2    1    3    3    0  502  0.15903830611E+03  0.15363186459E+03 -0.52259408470E+03  0.56745088774E+03  0.25500000920E-02 0.  1.
</event>
<event>
 5   0  0.5006750E-02  0.4994974E+03  0.7818609E-02  0.1013910E+00
       -3   -1    0    0    0  501  0.00000000000E+00  0.00000000000E+00  0.80318616558E+02  0.80318680061E+02  0.10100000352E+00 0. -1.
        3   -1    0    0  501    0  0.00000000000E+00  0.00000000000E+00 -0.77658702173E+03  0.77658702830E+03  0.10100000352E+00 0.  1.
    10030    2    1    2    0    0  0.00000000000E+00  0.00000000000E+00 -0.69626840517E+03  0.85690570836E+03  0.49949744842E+03 0.  0.
        4    1    3    3  502    0 -0.14349921887E+03  0.64476803062E+02 -0.15375422980E+02  0.15807371850E+03  0.12699999809E+01 0. -1.
       -4    1    3    3    0  502  0.14349921887E+03 -0.64476803062E+02 -0.68089298219E+03  0.69883198986E+03  0.12699999809E+01 0.  1.
</event>
<event>
 5   0  0.7781754E-02  0.4986762E+03  0.7818609E-02  0.1014125E+00
       -1   -1    0    0    0  501  0.00000000000E+00  0.00000000000E+00  0.42602153699E+02  0.42602153997E+02  0.50400001928E-02 0.  1.
        1   -1    0    0  501    0  0.00000000000E+00  0.00000000000E+00 -0.14593041303E+04  0.14593041303E+04  0.50400001928E-02 0. -1.
    10030    2    1    2    0    0  0.00000000000E+00  0.00000000000E+00 -0.14167019766E+04  0.15019062843E+04  0.49867624400E+03 0.  0.
        2    1    3    3  502    0 -0.10385605322E+03 -0.26645929085E+02 -0.13863268568E+04  0.13904669141E+04  0.25500000920E-02 0. -1.
       -2    1    3    3    0  502  0.10385605322E+03  0.26645929085E+02 -0.30375119834E+02  0.11143937023E+03  0.25500000920E-02 0.  1.
</event>
<event>
 5   0  0.7781754E-02  0.5123720E+03  0.7818609E-02  0.1010599E+00
        1   -1    0    0  501    0  0.00000000000E+00  0.00000000000E+00  0.55605682406E+03  0.55605682409E+03  0.50400001928E-02 0. -1.
       -1   -1    0    0    0  501  0.00000000000E+00  0.00000000000E+00 -0.11802978840E+03  0.11802978851E+03  0.50400001928E-02 0.  1.
    10030    2    1    2    0    0  0.00000000000E+00  0.00000000000E+00  0.43802703566E+03  0.67408661259E+03  0.51237201066E+03 0.  0.
        2    1    3    3  502    0  0.17508477180E+03 -0.17016086354E+03  0.32110654550E+03  0.40338419697E+03  0.25500000920E-02 0. -1.
       -2    1    3    3    0  502 -0.17508477180E+03  0.17016086354E+03  0.11692049016E+03  0.27070241562E+03  0.25500000920E-02 0.  1.
</event>
<event>
 5   0  0.7812547E-02  0.5002714E+03  0.7818609E-02  0.1013708E+00
        1   -1    0    0  501    0  0.00000000000E+00  0.00000000000E+00  0.63088718380E+03  0.63088718382E+03  0.50400001928E-02 0.  1.
       -1   -1    0    0    0  501  0.00000000000E+00  0.00000000000E+00 -0.99174428481E+02  0.99174428609E+02  0.50400001928E-02 0. -1.
    10030    2    1    2    0    0  0.00000000000E+00  0.00000000000E+00  0.53171275532E+03  0.73006161243E+03  0.50027143010E+03 0.  0.
        4    1    3    3  502    0  0.16501184316E+03  0.40394284882E+02 -0.20636666725E+01  0.16990137802E+03  0.12699999809E+01 0. -1.
       -4    1    3    3    0  502 -0.16501184316E+03 -0.40394284882E+02  0.53377642199E+03  0.56016023440E+03  0.12699999809E+01 0.  1.
</event>
<event>
 5   0  0.1279188E-01  0.4855478E+03  0.7818609E-02  0.1017622E+00
       -2   -1    0    0    0  501  0.00000000000E+00  0.00000000000E+00  0.93951198633E+02  0.93951198668E+02  0.25500000920E-02 0. -1.
        2   -1    0    0  501    0  0.00000000000E+00  0.00000000000E+00 -0.62733808096E+03  0.62733808096E+03  0.25500000920E-02 0.  1.
    10030    2    1    2    0    0  0.00000000000E+00  0.00000000000E+00 -0.53338688232E+03  0.72128927963E+03  0.48554779237E+03 0.  0.
        2    1    3    3  502    0  0.22057063063E+03 -0.69559418100E+02 -0.37635282895E+03  0.44173676280E+03  0.25500000920E-02 0.  1.
       -2    1    3    3    0  502 -0.22057063063E+03  0.69559418100E+02 -0.15703405337E+03  0.27955251683E+03  0.25500000920E-02 0. -1.
</event>
<event>
 5   0  0.7416638E-02  0.4967023E+03  0.7818609E-02  0.1014643E+00
        1   -1    0    0  501    0  0.00000000000E+00  0.00000000000E+00  0.78541267683E+03  0.78541267684E+03  0.50400001928E-02 0.  1.
       -1   -1    0    0    0  501  0.00000000000E+00  0.00000000000E+00 -0.78529794063E+02  0.78529794225E+02  0.50400001928E-02 0. -1.
    10030    2    1    2    0    0  0.00000000000E+00  0.00000000000E+00  0.70688288276E+03  0.86394247107E+03  0.49670230860E+03 0.  0.
        1    1    3    3  502    0 -0.24156406010E+03 -0.57644703014E+02  0.35601480858E+03  0.43407677992E+03  0.50400001928E-02 0.  1.
       -1    1    3    3    0  502  0.24156406010E+03  0.57644703014E+02  0.35086807418E+03  0.42986569114E+03  0.50400001928E-02 0. -1.
</event>
<event>
 5   0  0.1279188E-01  0.4986202E+03  0.7818609E-02  0.1014140E+00
       -2   -1    0    0    0  501  0.00000000000E+00  0.00000000000E+00  0.57937672933E+02  0.57937672989E+02  0.25500000920E-02 0.  1.
        2   -1    0    0  501    0  0.00000000000E+00  0.00000000000E+00 -0.10727999227E+04  0.10727999227E+04  0.25500000920E-02 0. -1.
    10030    2    1    2    0    0  0.00000000000E+00  0.00000000000E+00 -0.10148622498E+04  0.11307375957E+04  0.49862022052E+03 0.  0.
        2    1    3    3  502    0 -0.28514170249E+02  0.12344957165E+03 -0.20514038096E+02  0.12834983604E+03  0.25500000920E-02 0.  1.
       -2    1    3    3    0  502  0.28514170249E+02 -0.12344957165E+03 -0.99434821168E+03  0.10023877597E+04  0.25500000920E-02 0. -1.
</event>
<event>
 5   0  0.1279188E-01  0.4885781E+03  0.7818609E-02  0.1016804E+00
       -2   -1    0    0    0  501  0.00000000000E+00  0.00000000000E+00  0.10052868913E+03  0.10052868916E+03  0.25500000920E-02 0.  1.
        2   -1    0    0  501    0  0.00000000000E+00  0.00000000000E+00 -0.59363296966E+03  0.59363296967E+03  0.25500000920E-02 0. -1.
    10030    2    1    2    0    0  0.00000000000E+00  0.00000000000E+00 -0.49310428053E+03  0.69416165883E+03  0.48857811772E+03 0.  0.
        2    1    3    3  502    0 -0.11935626765E+03  0.20261258524E+03 -0.34057473424E+03  0.41387066571E+03  0.25500000920E-02 0. -1.
       -2    1    3    3    0  502  0.11935626765E+03 -0.20261258524E+03 -0.15252954629E+03  0.28029099312E+03  0.25500000920E-02 0.  1.
</event>
<event>
 5   0  0.1279188E-01  0.4990180E+03  0.7818609E-02  0.1014036E+00
        2   -1    0    0  501    0  0.00000000000E+00  0.00000000000E+00  0.53846882014E+03  0.53846882015E+03  0.25500000920E-02 0.  1.
       -2   -1    0    0    0  501  0.00000000000E+00  0.00000000000E+00 -0.11561436844E+03  0.11561436847E+03  0.25500000920E-02 0. -1.
    10030    2    1    2    0    0  0.00000000000E+00  0.00000000000E+00  0.42285445170E+03  0.65408318861E+03  0.49901796591E+03 0.  0.
        2    1    3    3  502    0  0.16287821428E+03 -0.71260491575E+02 -0.18036138055E+02  0.17869715338E+03  0.25500000920E-02 0.  1.
       -2    1    3    3    0  502 -0.16287821428E+03  0.71260491575E+02  0.44089058976E+03  0.47538603523E+03  0.25500000920E-02 0. -1.
</event>
<event>
 5   0  0.1231822E-01  0.4989432E+03  0.7818609E-02  0.1014055E+00
       -2   -1    0    0    0  501  0.00000000000E+00  0.00000000000E+00  0.55177351738E+02  0.55177351797E+02  0.25500000920E-02 0.  1.
        2   -1    0    0  501    0  0.00000000000E+00  0.00000000000E+00 -0.11279279282E+04  0.11279279282E+04  0.25500000920E-02 0. -1.
    10030    2    1    2    0    0  0.00000000000E+00  0.00000000000E+00 -0.10727505765E+04  0.11831052800E+04  0.49894318742E+03 0.  0.
        1    1    3    3  502    0 -0.26222692450E+02  0.93243089780E+01 -0.11242352555E+04  0.11245796913E+04  0.50400001928E-02 0. -1.
       -1    1    3    3    0  502  0.26222692450E+02 -0.93243089780E+01  0.51484679016E+02  0.58525588728E+02  0.50400001928E-02 0.  1.
</event>
<event>
 5   0  0.7781754E-02  0.5025190E+03  0.7818609E-02  0.1013124E+00
        1   -1    0    0  501    0  0.00000000000E+00  0.00000000000E+00  0.59496719521E+03  0.59496719523E+03  0.50400001928E-02 0. -1.
       -1   -1    0    0    0  501  0.00000000000E+00  0.00000000000E+00 -0.10610892380E+03  0.10610892392E+03  0.50400001928E-02 0.  1.
    10030    2    1    2    0    0  0.00000000000E+00  0.00000000000E+00  0.48885827141E+03  0.70107611914E+03  0.50251897010E+03 0.  0.
        2    1    3    3  502    0 -0.19252183101E+03  0.52636664663E+01  0.19303687564E+02  0.19355876100E+03  0.25500000920E-02 0.  1.
       -2    1    3    3    0  502  0.19252183101E+03 -0.52636664663E+01  0.46955458385E+03  0.50751735814E+03  0.25500000920E-02 0. -1.
</event>
<event>
 5   0  0.1243803E-01  0.5030728E+03  0.7818609E-02  0.1012980E+00
       -2   -1    0    0    0  501  0.00000000000E+00  0.00000000000E+00  0.20255439171E+03  0.20255439172E+03  0.25500000920E-02 0. -1.
        2   -1    0    0  501    0  0.00000000000E+00  0.00000000000E+00 -0.31236332891E+03  0.31236332892E+03  0.25500000920E-02 0.  1.
    10030    2    1    2    0    0  0.00000000000E+00  0.00000000000E+00 -0.10980893720E+03  0.51491772064E+03  0.50307281416E+03 0.  0.
        4    1    3    3  502    0  0.20393512248E+03 -0.27947262507E+02  0.93061952820E+02  0.22590423552E+03  0.12699999809E+01 0. -1.
       -4    1    3    3    0  502 -0.20393512248E+03  0.27947262507E+02 -0.20287089002E+03  0.28901348512E+03  0.12699999809E+01 0.  1.
</event>
<event>
 5   0  0.1211345E-01  0.5006217E+03  0.7818609E-02  0.1013617E+00
        2   -1    0    0  501    0  0.00000000000E+00  0.00000000000E+00  0.28807275823E+03  0.28807275824E+03  0.25500000920E-02 0. -1.
       -2   -1    0    0    0  501  0.00000000000E+00  0.00000000000E+00 -0.21749893679E+03  0.21749893680E+03  0.25500000920E-02 0.  1.
    10030    2    1    2    0    0  0.00000000000E+00  0.00000000000E+00  0.70573821441E+02  0.50557169504E+03  0.50062168806E+03 0.  0.
        5    1    3    3  502    0 -0.34442723379E+02  0.87739110412E+02 -0.19884369483E+03  0.22010306145E+03  0.46999998093E+01 0.  1.
       -5    1    3    3    0  502  0.34442723379E+02 -0.87739110412E+02  0.26941751627E+03  0.28546863359E+03  0.46999998093E+01 0. -1.
</event>
<event>
 5   0  0.7531632E-02  0.4982028E+03  0.7818609E-02  0.1014249E+00
        1   -1    0    0  501    0  0.00000000000E+00  0.00000000000E+00  0.16925235340E+03  0.16925235348E+03  0.50400001928E-02 0. -1.
       -1   -1    0    0    0  501  0.00000000000E+00  0.00000000000E+00 -0.36662116986E+03  0.36662116990E+03  0.50400001928E-02 0.  1.
    10030    2    1    2    0    0  0.00000000000E+00  0.00000000000E+00 -0.19736881646E+03  0.53587352338E+03  0.49820275325E+03 0.  0.
        3    1    3    3  502    0  0.89755279251E+02 -0.13492245579E+03 -0.30217557343E+03  0.34288506326E+03  0.10100000352E+00 0.  1.
       -3    1    3    3    0  502 -0.89755279251E+02  0.13492245579E+03  0.10480675697E+03  0.19298846011E+03  0.10100000352E+00 0. -1.
</event>
<event>
 5   0  0.1211345E-01  0.5060862E+03  0.7818609E-02  0.1012202E+00
       -2   -1    0    0    0  501  0.00000000000E+00  0.00000000000E+00  0.18604417166E+03  0.18604417167E+03  0.25500000920E-02 0.  1.
        2   -1    0    0  501    0  0.00000000000E+00  0.00000000000E+00 -0.34416992429E+03  0.34416992429E+03  0.25500000920E-02 0. -1.
    10030    2    1    2    0    0  0.00000000000E+00  0.00000000000E+00 -0.15812575263E+03  0.53021409597E+03  0.50608619218E+03 0.  0.
        5    1    3    3  502    0 -0.64114921733E+02 -0.23752967332E+03 -0.17279776972E+02  0.24668147394E+03  0.46999998093E+01 0.  1.
       -5    1    3    3    0  502  0.64114921733E+02  0.23752967332E+03 -0.14084597566E+03  0.28353262203E+03  0.46999998093E+01 0. -1.
</event>
<event>
 5   0  0.7531632E-02  0.4564465E+03  0.7818609E-02  0.1025817E+00
        1   -1    0    0  501    0  0.00000000000E+00  0.00000000000E+00  0.30171824281E+03  0.30171824285E+03  0.50400001928E-02 0.  1.
       -1   -1    0    0    0  501  0.00000000000E+00  0.00000000000E+00 -0.17263073167E+03  0.17263073175E+03  0.50400001928E-02 0. -1.
    10030    2    1    2    0    0  0.00000000000E+00  0.00000000000E+00  0.12908751114E+03  0.47434897460E+03  0.45644645269E+03 0.  0.
        3    1    3    3  502    0  0.20137632834E+03 -0.10712372262E+03  0.72452311943E+02  0.23932669151E+03  0.10100000352E+00 0.  1.
       -3    1    3    3    0  502 -0.20137632834E+03  0.10712372262E+03  0.56635199193E+02  0.23502228309E+03  0.10100000352E+00 0. -1.
</event>
<event>
 5   0  0.1211345E-01  0.4990329E+03  0.7818609E-02  0.1014032E+00
        2   -1    0    0  501    0  0.00000000000E+00  0.00000000000E+00  0.50564523635E+03  0.50564523636E+03  0.25500000920E-02 0.  1.
       -2   -1    0    0    0  501  0.00000000000E+00  0.00000000000E+00 -0.12312675487E+03  0.12312675490E+03  0.25500000920E-02 0. -1.
    10030    2    1    2    0    0  0.00000000000E+00  0.00000000000E+00  0.38251848148E+03  0.62877199126E+03  0.49903289302E+03 0.  0.
        5    1    3    3  502    0 -0.16675029808E+03  0.65927028025E+02 -0.27282401729E+02  0.18143443548E+03  0.46999998093E+01 0. -1.
       -5    1    3    3    0  502  0.16675029808E+03 -0.65927028025E+02  0.40980088321E+03  0.44733755578E+03  0.46999998093E+01 0.  1.
</event>
<event>
 5   0  0.1279188E-01  0.5039363E+03  0.7818609E-02  0.1012757E+00
       -2   -1    0    0    0  501  0.00000000000E+00  0.00000000000E+00  0.25464437666E+03  0.25464437667E+03  0.25500000920E-02 0.  1.
        2   -1    0    0  501    0  0.00000000000E+00  0.00000000000E+00 -0.24932005990E+03  0.24932005992E+03  0.25500000920E-02 0. -1.
    10030    2    1    2    0    0  0.00000000000E+00  0.00000000000E+00  0.53243167578E+01  0.50396443659E+03  0.50393631046E+03 0.  0.
        2    1    3    3  502    0  0.11969285776E+03 -0.41547290276E+02 -0.21514667724E+03  0.24968109713E+03  0.25500000920E-02 0. -1.
       -2    1    3    3    0  502 -0.11969285776E+03  0.41547290276E+02  0.22047099400E+03  0.25428333946E+03  0.25500000920E-02 0.  1.
</event>
<event>
 5   0  0.7416638E-02  0.4974668E+03  0.7818609E-02  0.1014442E+00
       -1   -1    0    0    0  501  0.00000000000E+00  0.00000000000E+00  0.50423701890E+03  0.50423701893E+03  0.50400001928E-02 0. -1.
        1   -1    0    0  501    0  0.00000000000E+00  0.00000000000E+00 -0.12269684809E+03  0.12269684819E+03  0.50400001928E-02 0.  1.
    10030    2    1    2    0    0  0.00000000000E+00  0.00000000000E+00  0.38154017081E+03  0.62693386712E+03  0.49746675447E+03 0.  0.
        1    1    3    3  502    0 -0.78446478211E+02 -0.22819125089E+03  0.11470262153E+03  0.26717370443E+03  0.50400001928E-02 0.  1.
       -1    1    3    3    0  502  0.78446478211E+02  0.22819125089E+03  0.26683754929E+03  0.35976016270E+03  0.50400001928E-02 0. -1.
</event>
<event>
 5   0  0.7416638E-02  0.5101072E+03  0.7818609E-02  0.1011174E+00
        1   -1    0    0  501    0  0.00000000000E+00  0.00000000000E+00  0.57240975520E+02  0.57240975742E+02  0.50400001928E-02 0. -1.
       -1   -1    0    0    0  501  0.00000000000E+00  0.00000000000E+00 -0.11364646060E+04  0.11364646060E+04  0.50400001928E-02 0.  1.
    10030    2    1    2    0    0  0.00000000000E+00  0.00000000000E+00 -0.10792236304E+04  0.11937055817E+04  0.51010721551E+03 0.  0.
        1    1    3    3  502    0 -0.17331426448E+03  0.63470357998E+02 -0.12768632079E+03  0.22443287897E+03  0.50400001928E-02 0. -1.
       -1    1    3    3    0  502  0.17331426448E+03 -0.63470357998E+02 -0.95153730966E+03  0.96927270276E+03  0.50400001928E-02 0.  1.
</event>
<event>
 5   0  0.1243803E-01  0.5007814E+03  0.7818609E-02  0.1013575E+00
        2   -1    0    0  501    0  0.00000000000E+00  0.00000000000E+00  0.11728478470E+04  0.11728478470E+04  0.25500000920E-02 0. -1.
       -2   -1    0    0    0  501  0.00000000000E+00  0.00000000000E+00 -0.53455776347E+02  0.53455776408E+02  0.25500000920E-02 0.  1.
    10030    2    1    2    0    0  0.00000000000E+00  0.00000000000E+00  0.11193920706E+04  0.12263036234E+04  0.50078135842E+03 0.  0.
        4    1    3    3  502    0  0.20672049424E+03  0.97159090520E+02  0.30852434736E+03  0.38387776365E+03  0.12699999809E+01 0.  1.
       -4    1    3    3    0  502 -0.20672049424E+03 -0.97159090520E+02  0.81086772324E+03  0.84242585971E+03  0.12699999809E+01 0. -1.
</event>
<event>
 5   0  0.1243803E-01  0.5041770E+03  0.7818609E-02  0.1012694E+00
       -2   -1    0    0    0  501  0.00000000000E+00  0.00000000000E+00  0.16351891046E+03  0.16351891048E+03  0.25500000920E-02 0. -1.
        2   -1    0    0  501    0  0.00000000000E+00  0.00000000000E+00 -0.38863163082E+03  0.38863163083E+03  0.25500000920E-02 0.  1.
    10030    2    1    2    0    0  0.00000000000E+00  0.00000000000E+00 -0.22511272036E+03  0.55215054131E+03  0.50417703578E+03 0.  0.
        4    1    3    3  502    0  0.13784241981E+03 -0.87145561525E+02  0.97964026409E+02  0.19024574887E+03  0.12699999809E+01 0. -1.
       -4    1    3    3    0  502 -0.13784241981E+03  0.87145561525E+02 -0.32307674677E+03  0.36190479245E+03  0.12699999809E+01 0.  1.
</event>
<event>
 5   0  0.1231822E-01  0.5071674E+03  0.7818609E-02  0.1011925E+00
        2   -1    0    0  501    0  0.00000000000E+00  0.00000000000E+00  0.33871569285E+03  0.33871569286E+03  0.25500000920E-02 0. -1.
       -2   -1    0    0    0  501  0.00000000000E+00  0.00000000000E+00 -0.18984857701E+03  0.18984857703E+03  0.25500000920E-02 0.  1.
    10030    2    1    2    0    0  0.00000000000E+00  0.00000000000E+00  0.14886711584E+03  0.52856426988E+03  0.50716739763E+03 0.  0.
        1    1    3    3  502    0 -0.14110620195E+03 -0.11435355493E+03  0.25886566430E+03  0.31622638715E+03  0.50400001928E-02 0. -1.
       -1    1    3    3    0  502  0.14110620195E+03  0.11435355493E+03 -0.10999854846E+03  0.21233788273E+03  0.50400001928E-02 0.  1.
</event>
<event>
 5   0  0.1211345E-01  0.5008757E+03  0.7818609E-02  0.1013551E+00
        2   -1    0    0  501    0  0.00000000000E+00  0.00000000000E+00  0.23177885545E+03  0.23177885547E+03  0.25500000920E-02 0. -1.
       -2   -1    0    0    0  501  0.00000000000E+00  0.00000000000E+00 -0.27059897072E+03  0.27059897073E+03  0.25500000920E-02 0.  1.
    10030    2    1    2    0    0  0.00000000000E+00  0.00000000000E+00 -0.38820115271E+02  0.50237782620E+03  0.50087571204E+03 0.  0.
        5    1    3    3  502    0  0.11360277053E+03  0.17504856685E+03 -0.15820656026E+03  0.26191410030E+03  0.46999998093E+01 0.  1.
       -5    1    3    3    0  502 -0.11360277053E+03 -0.17504856685E+03  0.11938644499E+03  0.24046372590E+03  0.46999998093E+01 0. -1.
</event>
<event>
 5   0  0.7531632E-02  0.5054418E+03  0.7818609E-02  0.1012368E+00
        1   -1    0    0  501    0  0.00000000000E+00  0.00000000000E+00  0.16893385301E+04  0.16893385301E+04  0.50400001928E-02 0.  1.
       -1   -1    0    0    0  501  0.00000000000E+00  0.00000000000E+00 -0.37806429556E+02  0.37806429892E+02  0.50400001928E-02 0. -1.
    10030    2    1    2    0    0  0.00000000000E+00  0.00000000000E+00  0.16515321005E+04  0.17271449600E+04  0.50544182031E+03 0.  0.
        3    1    3    3  502    0  0.76090018216E+02  0.12069217328E+02  0.16482335010E+04  0.16500330423E+04  0.10100000352E+00 0.  1.
       -3    1    3    3    0  502 -0.76090018216E+02 -0.12069217328E+02  0.32985995291E+01  0.77111917619E+02  0.10100000352E+00 0. -1.
</event>
<event>
 5   0  0.7416638E-02  0.4734036E+03  0.7818609E-02  0.1020964E+00
       -1   -1    0    0    0  501  0.00000000000E+00  0.00000000000E+00  0.48373606494E+03  0.48373606497E+03  0.50400001928E-02 0. -1.
        1   -1    0    0  501    0  0.00000000000E+00  0.00000000000E+00 -0.11582294523E+03  0.11582294534E+03  0.50400001928E-02 0.  1.
    10030    2    1    2    0    0  0.00000000000E+00  0.00000000000E+00  0.36791311972E+03  0.59955901031E+03  0.47340357326E+03 0.  0.
        1    1    3    3  502    0 -0.85215813902E+02 -0.12506585800E+03 -0.46545747902E+02  0.15833417335E+03  0.50400001928E-02 0.  1.
       -1    1    3    3    0  502  0.85215813902E+02  0.12506585800E+03  0.41445886762E+03  0.44122483696E+03  0.50400001928E-02 0. -1.
</event>
<event>
 5   0  0.1279188E-01  0.4996859E+03  0.7818609E-02  0.1013861E+00
       -2   -1    0    0    0  501  0.00000000000E+00  0.00000000000E+00  0.93408611779E+02  0.93408611813E+02  0.25500000920E-02 0.  1.
        2   -1    0    0  501    0  0.00000000000E+00  0.00000000000E+00 -0.66826282750E+03  0.66826282751E+03  0.25500000920E-02 0. -1.
    10030    2    1    2    0    0  0.00000000000E+00  0.00000000000E+00 -0.57485421572E+03  0.76167143932E+03  0.49968591349E+03 0.  0.
        2    1    3    3  502    0  0.13233461772E+03  0.16060996129E+03 -0.76690207651E+02  0.22178683159E+03  0.25500000920E-02 0.  1.
       -2    1    3    3    0  502 -0.13233461772E+03 -0.16060996129E+03 -0.49816400807E+03  0.53988460772E+03  0.25500000920E-02 0. -1.
</event>
<event>
 5   0  0.7602288E-02  0.4958683E+03  0.7818609E-02  0.1014863E+00
       -1   -1    0    0    0  501  0.00000000000E+00  0.00000000000E+00  0.11296844607E+03  0.11296844618E+03  0.50400001928E-02 0.  1.
        1   -1    0    0  501    0  0.00000000000E+00  0.00000000000E+00 -0.54414603825E+03  0.54414603828E+03  0.50400001928E-02 0. -1.
    10030    2    1    2    0    0  0.00000000000E+00  0.00000000000E+00 -0.43117759218E+03  0.65711448446E+03  0.49586825840E+03 0.  0.
        5    1    3    3  502    0 -0.20489797384E+03  0.25908272985E+02 -0.39726325037E+03  0.44776623185E+03  0.46999998093E+01 0. -1.
       -5    1    3    3    0  502  0.20489797384E+03 -0.25908272985E+02 -0.33914341806E+02  0.20934825261E+03  0.46999998093E+01 0.  1.
</event>
<event>
 5   0  0.7416638E-02  0.5038711E+03  0.7818609E-02  0.1012773E+00
        1   -1    0    0  501    0  0.00000000000E+00  0.00000000000E+00  0.17369031727E+03  0.17369031735E+03  0.50400001928E-02 0.  1.
       -1   -1    0    0    0  501  0.00000000000E+00  0.00000000000E+00 -0.36542922649E+03  0.36542922652E+03  0.50400001928E-02 0. -1.
    10030    2    1    2    0    0  0.00000000000E+00  0.00000000000E+00 -0.19173890921E+03  0.53911954387E+03  0.50387108795E+03 0.  0.
        1    1    3    3  502    0  0.30634523828E+02  0.14153492495E+03  0.12470984191E+03  0.19111031821E+03  0.50400001928E-02 0.  1.
       -1    1    3    3    0  502 -0.30634523828E+02 -0.14153492495E+03 -0.31644875112E+03  0.34800922566E+03  0.50400001928E-02 0. -1.
</event>
<event>
 5   0  0.7781754E-02  0.4961042E+03  0.7818609E-02  0.1014801E+00
       -1   -1    0    0    0  501  0.00000000000E+00  0.00000000000E+00  0.45734032726E+03  0.45734032729E+03  0.50400001928E-02 0.  1.
        1   -1    0    0  501    0  0.00000000000E+00  0.00000000000E+00 -0.13453844264E+03  0.13453844273E+03  0.50400001928E-02 0. -1.
    10030    2    1    2    0    0  0.00000000000E+00  0.00000000000E+00  0.32280188463E+03  0.59187877002E+03  0.49610424478E+03 0.  0.
        2    1    3    3  502    0 -0.14618439091E+02 -0.19584025887E+03 -0.19387958900E+02  0.19733980519E+03  0.25500000920E-02 0. -1.
       -2    1    3    3    0  502  0.14618439091E+02  0.19584025887E+03  0.34218984353E+03  0.39453896484E+03  0.25500000920E-02 0.  1.
</event>
<event>
 5   0  0.1279188E-01  0.4976895E+03  0.7818609E-02  0.1014384E+00
       -2   -1    0    0    0  501  0.00000000000E+00  0.00000000000E+00  0.35512187061E+02  0.35512187152E+02  0.25500000920E-02 0. -1.
        2   -1    0    0  501    0  0.00000000000E+00  0.00000000000E+00 -0.17437313476E+04  0.17437313476E+04  0.25500000920E-02 0.  1.
    10030    2    1    2    0    0  0.00000000000E+00  0.00000000000E+00 -0.17082191605E+04  0.17792435347E+04  0.49768951720E+03 0.  0.
        2    1    3    3  502    0 -0.10058331291E+03  0.22742772949E+03 -0.82147329026E+03  0.85828826253E+03  0.25500000920E-02 0. -1.
       -2    1    3    3    0  502  0.10058331291E+03 -0.22742772949E+03 -0.88674587027E+03  0.92095527222E+03  0.25500000920E-02 0.  1.
</event>
<event>
 5   0  0.1191894E-01  0.5024599E+03  0.7818609E-02  0.1013139E+00
        2   -1    0    0  501    0  0.00000000000E+00  0.00000000000E+00  0.52952845490E+03  0.52952845490E+03  0.25500000920E-02 0. -1.
       -2   -1    0    0    0  501  0.00000000000E+00  0.00000000000E+00 -0.11919376225E+03  0.11919376228E+03  0.25500000920E-02 0.  1.
    10030    2    1    2    0    0  0.00000000000E+00  0.00000000000E+00  0.41033469265E+03  0.64872221718E+03  0.50245990395E+03 0.  0.
        3    1    3    3  502    0 -0.23303685137E+03 -0.68132860860E+02  0.12181217286E+03  0.27163666263E+03  0.10100000352E+00 0.  1.
       -3    1    3    3    0  502  0.23303685137E+03  0.68132860860E+02  0.28852251978E+03  0.37708555455E+03  0.10100000352E+00 0. -1.
</event>
<event>
 5   0  0.7602288E-02  0.5516330E+03  0.7818609E-02  0.1001117E+00
       -1   -1    0    0    0  501  0.00000000000E+00  0.00000000000E+00  0.10554170474E+03  0.10554170486E+03  0.50400001928E-02 0. -1.
        1   -1    0    0  501    0  0.00000000000E+00  0.00000000000E+00 -0.72080265472E+03  0.72080265474E+03  0.50400001928E-02 0.  1.
    10030    2    1    2    0    0  0.00000000000E+00  0.00000000000E+00 -0.61526094998E+03  0.82634435960E+03  0.55163299763E+03 0.  0.
        5    1    3    3  502    0  0.53169170777E+02 -0.27037565565E+03 -0.32422345925E+03  0.42552661188E+03  0.46999998093E+01 0. -1.
       -5    1    3    3    0  502 -0.53169170777E+02  0.27037565565E+03 -0.29103749072E+03  0.40081774772E+03  0.46999998093E+01 0.  1.
</event>
<event>
 5   0  0.7416638E-02  0.5006920E+03  0.7818609E-02  0.1013598E+00
       -1   -1    0    0    0  501  0.00000000000E+00  0.00000000000E+00  0.12390708790E+04  0.12390708790E+04  0.50400001928E-02 0.  1.
        1   -1    0    0  501    0  0.00000000000E+00  0.00000000000E+00 -0.50580736738E+02  0.50580736989E+02  0.50400001928E-02 0. -1.
    10030    2    1    2    0    0  0.00000000000E+00  0.00000000000E+00  0.11884901422E+04  0.12896516160E+04  0.50069199353E+03 0.  0.
        1    1    3    3  502    0 -0.12145801022E+03  0.50114030369E+02  0.45367031361E+02  0.13900227281E+03  0.50400001928E-02 0. -1.
       -1    1    3    3    0  502  0.12145801022E+03 -0.50114030369E+02  0.11431231109E+04  0.11506493432E+04  0.50400001928E-02 0.  1.
</event>
<event>
 5   0  0.7531632E-02  0.4997187E+03  0.7818609E-02  0.1013852E+00
        1   -1    0    0  501    0  0.00000000000E+00  0.00000000000E+00  0.18126894122E+03  0.18126894129E+03  0.50400001928E-02 0. -1.
       -1   -1    0    0    0  501  0.00000000000E+00  0.00000000000E+00 -0.34440372806E+03  0.34440372810E+03  0.50400001928E-02 0.  1.
    10030    2    1    2    0    0  0.00000000000E+00  0.00000000000E+00 -0.16313478684E+03  0.52567266939E+03  0.49971871755E+03 0.  0.
        3    1    3    3  502    0  0.13604183236E+03 -0.17197306611E+03 -0.20756984873E+03  0.30193934477E+03  0.10100000352E+00 0.  1.
       -3    1    3    3    0  502 -0.13604183236E+03  0.17197306611E+03  0.44435061893E+02  0.22373332462E+03  0.10100000352E+00 0. -1.
</event>
<event>
 5   0  0.1211345E-01  0.5665821E+03  0.7818609E-02  0.9977271E-01
        2   -1    0    0  501    0  0.00000000000E+00  0.00000000000E+00  0.18053898405E+04  0.18053898405E+04  0.25500000920E-02 0.  1.
       -2   -1    0    0    0  501  0.00000000000E+00  0.00000000000E+00 -0.44452346896E+02  0.44452346969E+02  0.25500000920E-02 0. -1.
    10030    2    1    2    0    0  0.00000000000E+00  0.00000000000E+00  0.17609374936E+04  0.18498421874E+04  0.56658208775E+03 0.  0.
        5    1    3    3  502    0 -0.11611579427E+03 -0.22241979104E+03  0.13096316244E+04  0.13334581069E+04  0.46999998093E+01 0. -1.
       -5    1    3    3    0  502  0.11611579427E+03  0.22241979104E+03  0.45130586916E+03  0.51638408057E+03  0.46999998093E+01 0.  1.
</event>
<event>
 5   0  0.7602288E-02  0.5026508E+03  0.7818609E-02  0.1013089E+00
        1   -1    0    0  501    0  0.00000000000E+00  0.00000000000E+00  0.66375638334E+03  0.66375638336E+03  0.50400001928E-02 0. -1.
       -1   -1    0    0    0  501  0.00000000000E+00  0.00000000000E+00 -0.95162110722E+02  0.95162110856E+02  0.50400001928E-02 0.  1.
    10030    2    1    2    0    0  0.00000000000E+00  0.00000000000E+00  0.56859427261E+03  0.75891849421E+03  0.50265080723E+03 0.  0.
        5    1    3    3  502    0  0.98210947050E+02  0.40567431405E+02 -0.59504878192E+02  0.12187709850E+03  0.46999998093E+01 0.  1.
       -5    1    3    3    0  502 -0.98210947050E+02 -0.40567431405E+02  0.62809915081E+03  0.63704139571E+03  0.46999998093E+01 0. -1.
</event>
<event>
 5   0  0.1279188E-01  0.4912895E+03  0.7818609E-02  0.1016078E+00
       -2   -1    0    0    0  501  0.00000000000E+00  0.00000000000E+00  0.39683099457E+03  0.39683099458E+03  0.25500000920E-02 0.  1.
        2   -1    0    0  501    0  0.00000000000E+00  0.00000000000E+00 -0.15205805882E+03  0.15205805884E+03  0.25500000920E-02 0. -1.
    10030    2    1    2    0    0  0.00000000000E+00  0.00000000000E+00  0.24477293575E+03  0.54888905342E+03  0.49128953061E+03 0.  0.
        2    1    3    3  502    0  0.17538219020E+03  0.83945751218E+02  0.29010503015E+03  0.34923735527E+03  0.25500000920E-02 0.  1.
       -2    1    3    3    0  502 -0.17538219020E+03 -0.83945751218E+02 -0.45332094402E+02  0.19965169815E+03  0.25500000920E-02 0. -1.
</event>
<event>
 5   0  0.1279188E-01  0.4961371E+03  0.7818609E-02  0.1014792E+00
       -2   -1    0    0    0  501  0.00000000000E+00  0.00000000000E+00  0.50153883183E+03  0.50153883184E+03  0.25500000920E-02 0. -1.
        2   -1    0    0  501    0  0.00000000000E+00  0.00000000000E+00 -0.12269837272E+03  0.12269837275E+03  0.25500000920E-02 0.  1.
    10030    2    1    2    0    0  0.00000000000E+00  0.00000000000E+00  0.37884045911E+03  0.62423720458E+03  0.49613707191E+03 0.  0.
        2    1    3    3  502    0 -0.11936424790E+03 -0.13119503553E+03 -0.28788800124E+02  0.17969072331E+03  0.25500000920E-02 0.  1.
       -2    1    3    3    0  502  0.11936424790E+03  0.13119503553E+03  0.40762925923E+03  0.44454648127E+03  0.25500000920E-02 0. -1.
</event>
<event>
 5   0  0.1211345E-01  0.4990920E+03  0.7818609E-02  0.1014016E+00
        2   -1    0    0  501    0  0.00000000000E+00  0.00000000000E+00  0.38266832998E+03  0.38266832999E+03  0.25500000920E-02 0.  1.
       -2   -1    0    0    0  501  0.00000000000E+00  0.00000000000E+00 -0.16273412786E+03  0.16273412788E+03  0.25500000920E-02 0. -1.
    10030    2    1    2    0    0  0.00000000000E+00  0.00000000000E+00  0.21993420213E+03  0.54540245786E+03  0.49909196325E+03 0.  0.
        5    1    3    3  502    0 -0.20190800613E+03  0.53355119100E+01  0.27003669126E+03  0.33724948517E+03  0.46999998093E+01 0.  1.
       -5    1    3    3    0  502  0.20190800613E+03 -0.53355119100E+01 -0.50102489132E+02  0.20815297269E+03  0.46999998093E+01 0. -1.
</event>
<event>
 5   0  0.1231822E-01  0.4981938E+03  0.7818609E-02  0.1014251E+00
        2   -1    0    0  501    0  0.00000000000E+00  0.00000000000E+00  0.19674464833E+04  0.19674464833E+04  0.25500000920E-02 0.  1.
       -2   -1    0    0    0  501  0.00000000000E+00  0.00000000000E+00 -0.31537973483E+02  0.31537973586E+02  0.25500000920E-02 0. -1.
    10030    2    1    2    0    0  0.00000000000E+00  0.00000000000E+00  0.19359085099E+04  0.19989844569E+04  0.49819383828E+03 0.  0.
        1    1    3    3  502    0 -0.23793285408E+03  0.13214158267E+02  0.67687450587E+03  0.71759720858E+03  0.50400001928E-02 0. -1.
       -1    1    3    3    0  502  0.23793285408E+03 -0.13214158267E+02  0.12590340040E+04  0.12813872483E+04  0.50400001928E-02 0.  1.
</event>
<event>
 5   0  0.1279188E-01  0.4995422E+03  0.7818609E-02  0.1013898E+00
        2   -1    0    0  501    0  0.00000000000E+00  0.00000000000E+00  0.21780602266E+04  0.21780602266E+04  0.25500000920E-02 0.  1.
       -2   -1    0    0    0  501  0.00000000000E+00  0.00000000000E+00 -0.28642740803E+02  0.28642740917E+02  0.25500000920E-02 0. -1.
    10030    2    1    2    0    0  0.00000000000E+00  0.00000000000E+00  0.21494174858E+04  0.22067029676E+04  0.49954224907E+03 0.  0.
        2    1    3    3  502    0  0.66814563082E+02 -0.41016372067E+02  0.27120100572E+02  0.82957992254E+02  0.25500000920E-02 0. -1.
       -2    1    3    3    0  502 -0.66814563082E+02  0.41016372067E+02  0.21222973853E+04  0.21237449753E+04  0.25500000920E-02 0.  1.
</event>
<event>
 5   0  0.1231822E-01  0.4992119E+03  0.7818609E-02  0.1013985E+00
        2   -1    0    0  501    0  0.00000000000E+00  0.00000000000E+00  0.17510323678E+03  0.17510323680E+03  0.25500000920E-02 0. -1.
       -2   -1    0    0    0  501  0.00000000000E+00  0.00000000000E+00 -0.35580796828E+03  0.35580796829E+03  0.25500000920E-02 0.  1.
    10030    2    1    2    0    0  0.00000000000E+00  0.00000000000E+00 -0.18070473150E+03  0.53091120509E+03  0.49921188658E+03 0.  0.
        1    1    3    3  502    0 -0.98439060414E+02 -0.10523454154E+03  0.12639944894E+03  0.19168040606E+03  0.50400001928E-02 0. -1.
       -1    1    3    3    0  502  0.98439060414E+02  0.10523454154E+03 -0.30710418044E+03  0.33923079904E+03  0.50400001928E-02 0.  1.
</event>
<event>
 5   0  0.7781754E-02  0.4994002E+03  0.7818609E-02  0.1013936E+00
       -1   -1    0    0    0  501  0.00000000000E+00  0.00000000000E+00  0.17548969865E+03  0.17548969872E+03  0.50400001928E-02 0.  1.
        1   -1    0    0  501    0  0.00000000000E+00  0.00000000000E+00 -0.35529232216E+03  0.35529232220E+03  0.50400001928E-02 0. -1.
    10030    2    1    2    0    0  0.00000000000E+00  0.00000000000E+00 -0.17980262351E+03  0.53078202092E+03  0.49940021056E+03 0.  0.
        2    1    3    3  502    0 -0.76397994704E+02  0.26657353278E+02  0.16116923473E+03  0.18034076164E+03  0.25500000920E-02 0.  1.
       -2    1    3    3    0  502  0.76397994704E+02 -0.26657353278E+02 -0.34097185825E+03  0.35044125927E+03  0.25500000920E-02 0. -1.
</event>
<event>
 5   0  0.7812547E-02  0.5004845E+03  0.7818609E-02  0.1013653E+00
       -1   -1    0    0    0  501  0.00000000000E+00  0.00000000000E+00  0.58578433312E+03  0.58578433315E+03  0.50400001928E-02 0. -1.
        1   -1    0    0  501    0  0.00000000000E+00  0.00000000000E+00 -0.10690141782E+03  0.10690141794E+03  0.50400001928E-02 0.  1.
    10030    2    1    2    0    0  0.00000000000E+00  0.00000000000E+00  0.47888291530E+03  0.69268575109E+03  0.50048446849E+03 0.  0.
        4    1    3    3  502    0  0.13691489824E+03 -0.18563496427E+03  0.10515816320E+03  0.25350716264E+03  0.12699999809E+01 0.  1.
       -4    1    3    3    0  502 -0.13691489824E+03  0.18563496427E+03  0.37372475210E+03  0.43917858845E+03  0.12699999809E+01 0. -1.
</event>
<event>
 5   0  0.7812547E-02  0.4677599E+03  0.7818609E-02  0.1022554E+00
        1   -1    0    0  501    0  0.00000000000E+00  0.00000000000E+00  0.23757724836E+03  0.23757724841E+03  0.50400001928E-02 0.  1.
       -1   -1    0    0    0  501  0.00000000000E+00  0.00000000000E+00 -0.23024017400E+03  0.23024017406E+03  0.50400001928E-02 0. -1.
    10030    2    1    2    0    0  0.00000000000E+00  0.00000000000E+00  0.73370743543E+01  0.46781742246E+03  0.46775988295E+03 0.  0.
        4    1    3    3  502    0  0.72244722770E+02  0.18789321123E+03  0.12274222409E+03  0.23577621862E+03  0.12699999809E+01 0.  1.
       -4    1    3    3    0  502 -0.72244722770E+02 -0.18789321123E+03 -0.11540514974E+03  0.23204120384E+03  0.12699999809E+01 0. -1.
</event>
<event>
 5   0  0.1243803E-01  0.4958333E+03  0.7818609E-02  0.1014872E+00
        2   -1    0    0  501    0  0.00000000000E+00  0.00000000000E+00  0.16058878358E+03  0.16058878361E+03  0.25500000920E-02 0.  1.
       -2   -1    0    0    0  501  0.00000000000E+00  0.00000000000E+00 -0.38273328978E+03  0.38273328979E+03  0.25500000920E-02 0. -1.
    10030    2    1    2    0    0  0.00000000000E+00  0.00000000000E+00 -0.22214450620E+03  0.54332207339E+03  0.49583333269E+03 0.  0.
        4    1    3    3  502    0 -0.22611146445E+03 -0.10004819051E+03 -0.13082741212E+03  0.27973819804E+03  0.12699999809E+01 0. -1.
       -4    1    3    3    0  502  0.22611146445E+03  0.10004819051E+03 -0.91317094079E+02  0.26358387536E+03  0.12699999809E+01 0.  1.
</event>
<event>
 5   0  0.7602288E-02  0.4950659E+03  0.7818609E-02  0.1015075E+00
        1   -1    0    0  501    0  0.00000000000E+00  0.00000000000E+00  0.19619705508E+03  0.19619705514E+03  0.50400001928E-02 0. -1.
       -1   -1    0    0    0  501  0.00000000000E+00  0.00000000000E+00 -0.31230110912E+03  0.31230110916E+03  0.50400001928E-02 0.  1.
    10030    2    1    2    0    0  0.00000000000E+00  0.00000000000E+00 -0.11610405405E+03  0.50849816431E+03  0.49506588626E+03 0.  0.
        5    1    3    3  502    0  0.47207990313E+02  0.23167421281E+03 -0.13317278395E+03  0.27140120783E+03  0.46999998093E+01 0.  1.
       -5    1    3    3    0  502 -0.47207990313E+02 -0.23167421281E+03  0.17068729899E+02  0.23709695647E+03  0.46999998093E+01 0. -1.
</event>
<event>
 5   0  0.7781754E-02  0.5012685E+03  0.7818609E-02  0.1013448E+00
       -1   -1    0    0    0  501  0.00000000000E+00  0.00000000000E+00  0.28831837456E+03  0.28831837460E+03  0.50400001928E-02 0.  1.
        1   -1    0    0  501    0  0.00000000000E+00  0.00000000000E+00 -0.21787555608E+03  0.21787555614E+03  0.50400001928E-02 0. -1.
    10030    2    1    2    0    0  0.00000000000E+00  0.00000000000E+00  0.70442818482E+02  0.50619393074E+03  0.50126849576E+03 0.  0.
        2    1    3    3  502    0  0.23571562322E+03 -0.84086291729E+02  0.48962714400E+02  0.25500922904E+03  0.25500000920E-02 0. -1.
       -2    1    3    3    0  502 -0.23571562322E+03  0.84086291729E+02  0.21480104082E+02  0.25118470170E+03  0.25500000920E-02 0.  1.
</event>
<event>
 5   0  0.7812547E-02  0.4983371E+03  0.7818609E-02  0.1014214E+00
        1   -1    0    0  501    0  0.00000000000E+00  0.00000000000E+00  0.29658489904E+03  0.29658489908E+03  0.50400001928E-02 0. -1.
       -1   -1    0    0    0  501  0.00000000000E+00  0.00000000000E+00 -0.20933290194E+03  0.20933290200E+03  0.50400001928E-02 0.  1.
    10030    2    1    2    0    0  0.00000000000E+00  0.00000000000E+00  0.87251997096E+02  0.50591780108E+03  0.49833714537E+03 0.  0.
        4    1    3    3  502    0 -0.20661921328E+02 -0.13216613377E+03 -0.16978246492E+03  0.21615388084E+03  0.12699999809E+01 0.  1.
       -4    1    3    3    0  502  0.20661921328E+02  0.13216613377E+03  0.25703446202E+03  0.28976392024E+03  0.12699999809E+01 0. -1.
</event>
<event>
 5   0  0.7812547E-02  0.5001226E+03  0.7818609E-02  0.1013747E+00
       -1   -1    0    0    0  501  0.00000000000E+00  0.00000000000E+00  0.56184024139E+02  0.56184024365E+02  0.50400001928E-02 0. -1.
        1   -1    0    0  501    0  0.00000000000E+00  0.00000000000E+00 -0.11129615989E+04  0.11129615990E+04  0.50400001928E-02 0.  1.
    10030    2    1    2    0    0  0.00000000000E+00  0.00000000000E+00 -0.10567775748E+04  0.11691456233E+04  0.50012263088E+03 0.  0.
        4    1    3    3  502    0 -0.21357530692E+03 -0.11722435505E+03 -0.66007282094E+03  0.70360052799E+03  0.12699999809E+01 0. -1.
       -4    1    3    3    0  502  0.21357530692E+03  0.11722435505E+03 -0.39670475386E+03  0.46554509533E+03  0.12699999809E+01 0.  1.
</event>
<event>
 5   0  0.1191894E-01  0.5245109E+03  0.7818609E-02  0.1007572E+00
       -2   -1    0    0    0  501  0.00000000000E+00  0.00000000000E+00  0.11318207510E+03  0.11318207512E+03  0.25500000920E-02 0.  1.
        2   -1    0    0  501    0  0.00000000000E+00  0.00000000000E+00 -0.60767509574E+03  0.60767509574E+03  0.25500000920E-02 0. -1.
    10030    2    1    2    0    0  0.00000000000E+00  0.00000000000E+00 -0.49449302064E+03  0.72085717087E+03  0.52451092775E+03 0.  0.
        3    1    3    3  502    0  0.20347442450E+03  0.16286092263E+03 -0.20712146528E+03  0.33290363940E+03  0.10100000352E+00 0. -1.
       -3    1    3    3    0  502 -0.20347442450E+03 -0.16286092263E+03 -0.28737155537E+03  0.38795353147E+03  0.10100000352E+00 0.  1.
</event>
<event>
 5   0  0.7781754E-02  0.4980597E+03  0.7818609E-02  0.1014287E+00
       -1   -1    0    0    0  501  0.00000000000E+00  0.00000000000E+00  0.24357596491E+03  0.24357596496E+03  0.50400001928E-02 0. -1.
        1   -1    0    0  501    0  0.00000000000E+00  0.00000000000E+00 -0.25460583272E+03  0.25460583277E+03  0.50400001928E-02 0.  1.
    10030    2    1    2    0    0  0.00000000000E+00  0.00000000000E+00 -0.11029867810E+02  0.49818179773E+03  0.49805968077E+03 0.  0.
        2    1    3    3  502    0  0.46504697936E+02 -0.19620200443E+03  0.14066448503E+03  0.24585445050E+03  0.25500000920E-02 0. -1.
       -2    1    3    3    0  502 -0.46504697936E+02  0.19620200443E+03 -0.15169435284E+03  0.25232734724E+03  0.25500000920E-02 0.  1.
</event>
<event>
 5   0  0.1191894E-01  0.5039533E+03  0.7818609E-02  0.1012752E+00
       -2   -1    0    0    0  501  0.00000000000E+00  0.00000000000E+00  0.18176162861E+03  0.18176162863E+03  0.25500000920E-02 0.  1.
        2   -1    0    0  501    0  0.00000000000E+00  0.00000000000E+00 -0.34931588545E+03  0.34931588546E+03  0.25500000920E-02 0. -1.
    10030    2    1    2    0    0  0.00000000000E+00  0.00000000000E+00 -0.16755425684E+03  0.53107751408E+03  0.50395326865E+03 0.  0.
        3    1    3    3  502    0 -0.28731505267E+02 -0.23387073569E+03  0.10309807846E+02  0.23585445246E+03  0.10100000352E+00 0.  1.
       -3    1    3    3    0  502  0.28731505267E+02  0.23387073569E+03 -0.17786406469E+03  0.29522306162E+03  0.10100000352E+00 0. -1.
</event>
<event>
 5   0  0.7602288E-02  0.5001453E+03  0.7818609E-02  0.1013741E+00
        1   -1    0    0  501    0  0.00000000000E+00  0.00000000000E+00  0.15665330111E+04  0.15665330111E+04  0.50400001928E-02 0. -1.
       -1   -1    0    0    0  501  0.00000000000E+00  0.00000000000E+00 -0.39920209218E+02  0.39920209536E+02  0.50400001928E-02 0.  1.
    10030    2    1    2    0    0  0.00000000000E+00  0.00000000000E+00  0.15266128019E+04  0.16064532206E+04  0.50014528214E+03 0.  0.
        5    1    3    3  502    0  0.18084196032E+03  0.23222371174E+02  0.13128368298E+04  0.13254454817E+04  0.46999998093E+01 0. -1.
       -5    1    3    3    0  502 -0.18084196032E+03 -0.23222371174E+02  0.21377597203E+03  0.28100773895E+03  0.46999998093E+01 0.  1.
</event>
<event>
 5   0  0.1191894E-01  0.4843075E+03  0.7818609E-02  0.1017958E+00
       -2   -1    0    0    0  501  0.00000000000E+00  0.00000000000E+00  0.15841755333E+03  0.15841755335E+03  0.25500000920E-02 0.  1.
        2   -1    0    0  501    0  0.00000000000E+00  0.00000000000E+00 -0.37015120327E+03  0.37015120328E+03  0.25500000920E-02 0. -1.
    10030    2    1    2    0    0  0.00000000000E+00  0.00000000000E+00 -0.21173364994E+03  0.52856875663E+03  0.48430753863E+03 0.  0.
        3    1    3    3  502    0 -0.22550576267E+03  0.40408437067E+02 -0.19147491118E+03  0.29857719704E+03  0.10100000352E+00 0. -1.
       -3    1    3    3    0  502  0.22550576267E+03 -0.40408437067E+02 -0.20258738761E+02  0.22999155959E+03  0.10100000352E+00 0.  1.
</event>
<event>
 5   0  0.7416638E-02  0.4840309E+03  0.7818609E-02  0.1018033E+00
        1   -1    0    0  501    0  0.00000000000E+00  0.00000000000E+00  0.20406310201E+03  0.20406310207E+03  0.50400001928E-02 0. -1.
       -1   -1    0    0    0  501  0.00000000000E+00  0.00000000000E+00 -0.28702631668E+03  0.28702631673E+03  0.50400001928E-02 0.  1.
    10030    2    1    2    0    0  0.00000000000E+00  0.00000000000E+00 -0.82963214675E+02  0.49108941880E+03  0.48403091045E+03 0.  0.
        1    1    3    3  502    0 -0.13068876017E+03 -0.20330302712E+02  0.16415258776E+03  0.21080546799E+03  0.50400001928E-02 0. -1.
       -1    1    3    3    0  502  0.13068876017E+03  0.20330302712E+02 -0.24711580243E+03  0.28028395081E+03  0.50400001928E-02 0.  1.
</event>
<event>
 5   0  0.7602288E-02  0.5017940E+03  0.7818609E-02  0.1013312E+00
       -1   -1    0    0    0  501  0.00000000000E+00  0.00000000000E+00  0.16176376862E+03  0.16176376870E+03  0.50400001928E-02 0. -1.
        1   -1    0    0  501    0  0.00000000000E+00  0.00000000000E+00 -0.38914336505E+03  0.38914336508E+03  0.50400001928E-02 0.  1.
    10030    2    1    2    0    0  0.00000000000E+00  0.00000000000E+00 -0.22737959643E+03  0.55090713378E+03  0.50179397085E+03 0.  0.
        5    1    3    3  502    0 -0.41976523477E+02 -0.97692989542E+01 -0.38499991684E+03  0.38743321191E+03  0.46999998093E+01 0.  1.
       -5    1    3    3    0  502  0.41976523477E+02  0.97692989542E+01  0.15762032041E+03  0.16347392187E+03  0.46999998093E+01 0. -1.
</event>
<event>
 5   0  0.1211345E-01  0.5058977E+03  0.7818609E-02  0.1012251E+00
       -2   -1    0    0    0  501  0.00000000000E+00  0.00000000000E+00  0.36696875333E+02  0.36696875422E+02  0.25500000920E-02 0. -1.
        2   -1    0    0  501    0  0.00000000000E+00  0.00000000000E+00 -0.17435575737E+04  0.17435575737E+04  0.25500000920E-02 0.  1.
    10030    2    1    2    0    0  0.00000000000E+00  0.00000000000E+00 -0.17068606983E+04  0.17802544491E+04  0.50589767739E+03 0.  0.
        5    1    3    3  502    0 -0.19296576963E+03  0.11022585388E+02 -0.27945830994E+03  0.33981807284E+03  0.46999998093E+01 0. -1.
       -5    1    3    3    0  502  0.19296576963E+03 -0.11022585388E+02 -0.14274023884E+04  0.14404363763E+04  0.46999998093E+01 0.  1.
</event>
<event>
 5   0  0.7416638E-02  0.4961364E+03  0.7818609E-02  0.1014792E+00
        1   -1    0    0  501    0  0.00000000000E+00  0.00000000000E+00  0.10416690803E+04  0.10416690803E+04  0.50400001928E-02 0.  1.
       -1   -1    0    0    0  501  0.00000000000E+00  0.00000000000E+00 -0.59076176273E+02  0.59076176488E+02  0.50400001928E-02 0. -1.
    10030    2    1    2    0    0  0.00000000000E+00  0.00000000000E+00  0.98259290404E+03  0.11007452568E+04  0.49613637775E+03 0.  0.
        1    1    3    3  502    0 -0.13982921470E+03  0.74366072712E+02  0.91490636517E+03  0.92851288581E+03  0.50400001928E-02 0.  1.
       -1    1    3    3    0  502  0.13982921470E+03 -0.74366072712E+02  0.67686538871E+02  0.17223237101E+03  0.50400001928E-02 0. -1.
</event>
<event>
 5   0  0.7781754E-02  0.5029959E+03  0.7818609E-02  0.1013000E+00
       -1   -1    0    0    0  501  0.00000000000E+00  0.00000000000E+00  0.13215093874E+03  0.13215093883E+03  0.50400001928E-02 0. -1.
        1   -1    0    0  501    0  0.00000000000E+00  0.00000000000E+00 -0.47862860320E+03  0.47862860322E+03  0.50400001928E-02 0.  1.
    10030    2    1    2    0    0  0.00000000000E+00  0.00000000000E+00 -0.34647766446E+03  0.61077954206E+03  0.50299590160E+03 0.  0.
        2    1    3    3  502    0  0.21748998006E+03  0.83842588768E+02 -0.28792111558E+03  0.37044573141E+03  0.25500000920E-02 0.  1.
       -2    1    3    3    0  502 -0.21748998006E+03 -0.83842588768E+02 -0.58556548883E+02  0.24033381065E+03  0.25500000920E-02 0. -1.
</event>
<event>
 5   0  0.1279188E-01  0.5002705E+03  0.7818609E-02  0.1013708E+00
       -2   -1    0    0    0  501  0.00000000000E+00  0.00000000000E+00  0.11599557275E+03  0.11599557278E+03  0.25500000920E-02 0. -1.
        2   -1    0    0  501    0  0.00000000000E+00  0.00000000000E+00 -0.53939691003E+03  0.53939691004E+03  0.25500000920E-02 0.  1.
    10030    2    1    2    0    0  0.00000000000E+00  0.00000000000E+00 -0.42340133728E+03  0.65539248282E+03  0.50027054093E+03 0.  0.
        2    1    3    3  502    0  0.77495758847E+02 -0.22349138655E+03 -0.31824184608E+03  0.39652473454E+03  0.25500000920E-02 0.  1.
       -2    1    3    3    0  502 -0.77495758847E+02  0.22349138655E+03 -0.10515949121E+03  0.25886774828E+03  0.25500000920E-02 0. -1.
</event>
<event>
 5   0  0.1279188E-01  0.5126409E+03  0.7818609E-02  0.1010531E+00
       -2   -1    0    0    0  501  0.00000000000E+00  0.00000000000E+00  0.45485403199E+02  0.45485403270E+02  0.25500000920E-02 0.  1.
        2   -1    0    0  501    0  0.00000000000E+00  0.00000000000E+00 -0.14444230724E+04  0.14444230724E+04  0.25500000920E-02 0. -1.
    10030    2    1    2    0    0  0.00000000000E+00  0.00000000000E+00 -0.13989376692E+04  0.14899084757E+04  0.51264087193E+03 0.  0.
        2    1    3    3  502    0  0.22504901407E+03  0.98206978493E+02 -0.48572940815E+03  0.54426530966E+03  0.25500000920E-02 0. -1.
       -2    1    3    3    0  502 -0.22504901407E+03 -0.98206978493E+02 -0.91320826106E+03  0.94564316602E+03  0.25500000920E-02 0.  1.
</event>
<event>
 5   0  0.1243803E-01  0.4997211E+03  0.7818609E-02  0.1013852E+00
        2   -1    0    0  501    0  0.00000000000E+00  0.00000000000E+00  0.15432713752E+04  0.15432713752E+04  0.25500000920E-02 0.  1.
       -2   -1    0    0    0  501  0.00000000000E+00  0.00000000000E+00 -0.40453214663E+02  0.40453214744E+02  0.25500000920E-02 0. -1.
    10030    2    1    2    0    0  0.00000000000E+00  0.00000000000E+00  0.15028181605E+04  0.15837245899E+04  0.49972107536E+03 0.  0.
        4    1    3    3  502    0 -0.24270995504E+03 -0.27908555040E+02  0.58546596423E+03  0.63439657778E+03  0.12699999809E+01 0. -1.
       -4    1    3    3    0  502  0.24270995504E+03  0.27908555040E+02  0.91735219629E+03  0.94932801215E+03  0.12699999809E+01 0.  1.
</event>
<event>
 5   0  0.1231822E-01  0.5001995E+03  0.7818609E-02  0.1013727E+00
        2   -1    0    0  501    0  0.00000000000E+00  0.00000000000E+00  0.94692025666E+03  0.94692025667E+03  0.25500000920E-02 0. -1.
       -2   -1    0    0    0  501  0.00000000000E+00  0.00000000000E+00 -0.66056139186E+02  0.66056139236E+02  0.25500000920E-02 0.  1.
    10030    2    1    2    0    0  0.00000000000E+00  0.00000000000E+00  0.88086411748E+03  0.10129763959E+04  0.50019954538E+03 0.  0.
        1    1    3    3  502    0  0.13180999548E+03  0.17835790329E+03  0.67454857919E+03  0.71007126564E+03  0.50400001928E-02 0. -1.
       -1    1    3    3    0  502 -0.13180999548E+03 -0.17835790329E+03  0.20631553829E+03  0.30290513026E+03  0.50400001928E-02 0.  1.
</event>
<event>
 5   0  0.5006750E-02  0.5045650E+03  0.7818609E-02  0.1012594E+00
        4   -1    0    0  501    0  0.00000000000E+00  0.00000000000E+00  0.28407649466E+03  0.28407933349E+03  0.12699999809E+01 0.  1.
       -4   -1    0    0    0  501  0.00000000000E+00  0.00000000000E+00 -0.22404110943E+03  0.22404470897E+03  0.12699999809E+01 0. -1.
    10030    2    1    2    0    0  0.00000000000E+00  0.00000000000E+00  0.60035385227E+02  0.50812404246E+03  0.50456495622E+03 0.  0.
        2    1    3    3  502    0 -0.19327444698E+02  0.25000722093E+03  0.57949380020E+02  0.25736217921E+03  0.25500000920E-02 0.  1.
       -2    1    3    3    0  502  0.19327444698E+02 -0.25000722093E+03  0.20860052063E+01  0.25076186325E+03  0.25500000920E-02 0. -1.
</event>
<event>
 5   0  0.1243803E-01  0.5015448E+03  0.7818609E-02  0.1013376E+00
        2   -1    0    0  501    0  0.00000000000E+00  0.00000000000E+00  0.10175854111E+04  0.10175854111E+04  0.25500000920E-02 0. -1.
       -2   -1    0    0    0  501  0.00000000000E+00  0.00000000000E+00 -0.61800007313E+02  0.61800007366E+02  0.25500000920E-02 0.  1.
    10030    2    1    2    0    0  0.00000000000E+00  0.00000000000E+00  0.95578540383E+03  0.10793854185E+04  0.50154475725E+03 0.  0.
        4    1    3    3  502    0 -0.26065217085E+01 -0.22877817038E+03  0.25695742470E+03  0.34405664679E+03  0.12699999809E+01 0. -1.
       -4    1    3    3    0  502  0.26065217085E+01  0.22877817038E+03  0.69882797914E+03  0.73532877172E+03  0.12699999809E+01 0.  1.
</event>
<event>
 5   0  0.1191894E-01  0.4966975E+03  0.7818609E-02  0.1014645E+00
        2   -1    0    0  501    0  0.00000000000E+00  0.00000000000E+00  0.11647863736E+03  0.11647863739E+03  0.25500000920E-02 0.  1.
       -2   -1    0    0    0  501  0.00000000000E+00  0.00000000000E+00 -0.52951427216E+03  0.52951427217E+03  0.25500000920E-02 0. -1.
    10030    2    1    2    0    0  0.00000000000E+00  0.00000000000E+00 -0.41303563480E+03  0.64599290955E+03  0.49669749705E+03 0.  0.
        3    1    3    3  502    0  0.15707764024E+03 -0.14523321411E+03 -0.42464589906E+02  0.21810392739E+03  0.10100000352E+00 0. -1.
       -3    1    3    3    0  502 -0.15707764024E+03  0.14523321411E+03 -0.37057104490E+03  0.42788898217E+03  0.10100000352E+00 0.  1.
</event>
<event>
 5   0  0.7602288E-02  0.4988582E+03  0.7818609E-02  0.1014077E+00
       -1   -1    0    0    0  501  0.00000000000E+00  0.00000000000E+00  0.36311238073E+02  0.36311238423E+02  0.50400001928E-02 0.  1.
        1   -1    0    0  501    0  0.00000000000E+00  0.00000000000E+00 -0.17133782651E+04  0.17133782651E+04  0.50400001928E-02 0. -1.
    10030    2    1    2    0    0  0.00000000000E+00  0.00000000000E+00 -0.16770670271E+04  0.17496895036E+04  0.49885824201E+03 0.  0.
        5    1    3    3  502    0 -0.12620234094E+02  0.14742661898E+03 -0.13443970059E+03  0.19997500190E+03  0.46999998093E+01 0.  1.
       -5    1    3    3    0  502  0.12620234094E+02 -0.14742661898E+03 -0.15426273265E+04  0.15497145017E+04  0.46999998093E+01 0. -1.
</event>
<event>
 5   0  0.7602288E-02  0.5019999E+03  0.7818609E-02  0.1013258E+00
        1   -1    0    0  501    0  0.00000000000E+00  0.00000000000E+00  0.38192158806E+03  0.38192158809E+03  0.50400001928E-02 0.  1.
       -1   -1    0    0    0  501  0.00000000000E+00  0.00000000000E+00 -0.16495785190E+03  0.16495785198E+03  0.50400001928E-02 0. -1.
    10030    2    1    2    0    0  0.00000000000E+00  0.00000000000E+00  0.21696373616E+03  0.54687944007E+03  0.50199985972E+03 0.  0.
        5    1    3    3  502    0  0.16884344416E+02  0.10198559794E+03  0.35760190783E+03  0.37227322998E+03  0.46999998093E+01 0.  1.
       -5    1    3    3    0  502 -0.16884344416E+02 -0.10198559794E+03 -0.14063817168E+03  0.17460621009E+03  0.46999998093E+01 0. -1.
</event>
<event>
 5   0  0.7416638E-02  0.4909413E+03  0.7818609E-02  0.1016171E+00
        1   -1    0    0  501    0  0.00000000000E+00  0.00000000000E+00  0.15612833020E+04  0.15612833020E+04  0.50400001928E-02 0. -1.
       -1   -1    0    0    0  501  0.00000000000E+00  0.00000000000E+00 -0.38593784356E+02  0.38593784685E+02  0.50400001928E-02 0.  1.
    10030    2    1    2    0    0  0.00000000000E+00  0.00000000000E+00  0.15226895176E+04  0.15998770867E+04  0.49094126470E+03 0.  0.
        1    1    3    3  502    0  0.19190164998E+03 -0.14273539127E+03  0.58118918947E+03  0.62847474823E+03  0.50400001928E-02 0.  1.
       -1    1    3    3    0  502 -0.19190164998E+03  0.14273539127E+03  0.94150032816E+03  0.97140233844E+03  0.50400001928E-02 0. -1.
</event>
<event>
 5   0  0.5006750E-02  0.5116681E+03  0.7818609E-02  0.1010777E+00
       -3   -1    0    0    0  501  0.00000000000E+00  0.00000000000E+00  0.91477453679E+03  0.91477454236E+03  0.10100000352E+00 0.  1.
        3   -1    0    0  501    0  0.00000000000E+00  0.00000000000E+00 -0.71548809454E+02  0.71548880741E+02  0.10100000352E+00 0. -1.
    10030    2    1    2    0    0  0.00000000000E+00  0.00000000000E+00  0.84322572733E+03  0.98632342310E+03  0.51166812264E+03 0.  0.
        3    1    3    3  502    0  0.15491621889E+03  0.17354342128E+03  0.21638512763E+03  0.31770880946E+03  0.10100000352E+00 0. -1.
       -3    1    3    3    0  502 -0.15491621889E+03 -0.17354342128E+03  0.62684059970E+03  0.66861461364E+03  0.10100000352E+00 0.  1.
</event>
<event>
 5   0  0.1211345E-01  0.5010324E+03  0.7818609E-02  0.1013510E+00
       -2   -1    0    0    0  501  0.00000000000E+00  0.00000000000E+00  0.13476751071E+03  0.13476751073E+03  0.25500000920E-02 0. -1.
        2   -1    0    0  501    0  0.00000000000E+00  0.00000000000E+00 -0.46567884604E+03  0.46567884605E+03  0.25500000920E-02 0.  1.
    10030    2    1    2    0    0  0.00000000000E+00  0.00000000000E+00 -0.33091133534E+03  0.60044635678E+03  0.50103244956E+03 0.  0.
        5    1    3    3  502    0 -0.94632197837E+02  0.16750356046E+03 -0.35766487022E+03  0.40615138190E+03  0.46999998093E+01 0.  1.
       -5    1    3    3    0  502  0.94632197837E+02 -0.16750356046E+03  0.26753534881E+02  0.19429497488E+03  0.46999998093E+01 0. -1.
</event>
<event>
 5   0  0.7812547E-02  0.5029293E+03  0.7818609E-02  0.1013017E+00
       -1   -1    0    0    0  501  0.00000000000E+00  0.00000000000E+00  0.35480432594E+02  0.35480432952E+02  0.50400001928E-02 0.  1.
        1   -1    0    0  501    0  0.00000000000E+00  0.00000000000E+00 -0.17822349967E+04  0.17822349967E+04  0.50400001928E-02 0. -1.
    10030    2    1    2    0    0  0.00000000000E+00  0.00000000000E+00 -0.17467545641E+04  0.18177154296E+04  0.50292929522E+03 0.  0.
        4    1    3    3  502    0  0.18332275395E+02  0.21150025921E+03 -0.13604903459E+04  0.13769546202E+04  0.12699999809E+01 0. -1.
       -4    1    3    3    0  502 -0.18332275395E+02 -0.21150025921E+03 -0.38626421822E+03  0.44076080945E+03  0.12699999809E+01 0.  1.
</event>
<event>
 5   0  0.1231822E-01  0.5421736E+03  0.7818609E-02  0.1003322E+00
       -2   -1    0    0    0  501  0.00000000000E+00  0.00000000000E+00  0.76203591526E+02  0.76203591568E+02  0.25500000920E-02 0. -1.
        2   -1    0    0  501    0  0.00000000000E+00  0.00000000000E+00 -0.96436471404E+03  0.96436471404E+03  0.25500000920E-02 0.  1.
    10030    2    1    2    0    0  0.00000000000E+00  0.00000000000E+00 -0.88816112251E+03  0.10405683056E+04  0.54217360605E+03 0.  0.
        1    1    3    3  502    0 -0.22155156112E+03 -0.12155533736E+03 -0.63239498397E+03  0.68101704094E+03  0.50400001928E-02 0. -1.
       -1    1    3    3    0  502  0.22155156112E+03  0.12155533736E+03 -0.25576613854E+03  0.35955126467E+03  0.50400001928E-02 0.  1.
</event>
<event>
 5   0  0.5006750E-02  0.4941581E+03  0.7818609E-02  0.1015315E+00
        3   -1    0    0  501    0  0.00000000000E+00  0.00000000000E+00  0.42633107199E+03  0.42633108395E+03  0.10100000352E+00 0. -1.
       -3   -1    0    0    0  501  0.00000000000E+00  0.00000000000E+00 -0.14319397256E+03  0.14319400818E+03  0.10100000352E+00 0.  1.
    10030    2    1    2    0    0  0.00000000000E+00  0.00000000000E+00  0.28313709942E+03  0.56952509213E+03  0.49415808554E+03 0.  0.
        2    1    3    3  502    0  0.20229414025E+02  0.15954396967E+02 -0.14164166180E+03  0.14396573321E+03  0.25500000920E-02 0.  1.
       -2    1    3    3    0  502 -0.20229414025E+02 -0.15954396967E+02  0.42477876122E+03  0.42555935892E+03  0.25500000920E-02 0. -1.
</event>
<event>
 5   0  0.1279188E-01  0.4920825E+03  0.7818609E-02  0.1015866E+00
        2   -1    0    0  501    0  0.00000000000E+00  0.00000000000E+00  0.11742825052E+04  0.11742825052E+04  0.25500000920E-02 0.  1.
       -2   -1    0    0    0  501  0.00000000000E+00  0.00000000000E+00 -0.51551728533E+02  0.51551728596E+02  0.25500000920E-02 0. -1.
    10030    2    1    2    0    0  0.00000000000E+00  0.00000000000E+00  0.11227307767E+04  0.12258342338E+04  0.49208248483E+03 0.  0.
        2    1    3    3  502    0  0.19029807165E+03  0.15234896144E+03  0.47826770794E+03  0.53680868342E+03  0.25500000920E-02 0. -1.
       -2    1    3    3    0  502 -0.19029807165E+03 -0.15234896144E+03  0.64446306873E+03  0.68902555039E+03  0.25500000920E-02 0.  1.
</event>
<event>
 5   0  0.7602288E-02  0.4998403E+03  0.7818609E-02  0.1013821E+00
        1   -1    0    0  501    0  0.00000000000E+00  0.00000000000E+00  0.15426228481E+04  0.15426228481E+04  0.50400001928E-02 0. -1.
       -1   -1    0    0    0  501  0.00000000000E+00  0.00000000000E+00 -0.40489533085E+02  0.40489533399E+02  0.50400001928E-02 0.  1.
    10030    2    1    2    0    0  0.00000000000E+00  0.00000000000E+00  0.15021333150E+04  0.15831123815E+04  0.49984029089E+03 0.  0.
        5    1    3    3  502    0 -0.24506647212E+03 -0.37226420727E+02  0.85095302695E+03  0.88633319143E+03  0.46999998093E+01 0. -1.
       -5    1    3    3    0  502  0.24506647212E+03  0.37226420727E+02  0.65118028804E+03  0.69677919005E+03  0.46999998093E+01 0.  1.
</event>
<event>
 5   0  0.1243803E-01  0.5023611E+03  0.7818609E-02  0.1013164E+00
       -2   -1    0    0    0  501  0.00000000000E+00  0.00000000000E+00  0.13360645287E+03  0.13360645289E+03  0.25500000920E-02 0.  1.
        2   -1    0    0  501    0  0.00000000000E+00  0.00000000000E+00 -0.47222021104E+03  0.47222021105E+03  0.25500000920E-02 0. -1.
    10030    2    1    2    0    0  0.00000000000E+00  0.00000000000E+00 -0.33861375817E+03  0.60582666394E+03  0.50236109475E+03 0.  0.
        4    1    3    3  502    0 -0.10081328275E+03  0.48095015820E+02 -0.44061701905E+03  0.45455628794E+03  0.12699999809E+01 0. -1.
       -4    1    3    3    0  502  0.10081328275E+03 -0.48095015820E+02  0.10200326088E+03  0.15127037600E+03  0.12699999809E+01 0.  1.
</event>
<event>
 5   0  0.1211345E-01  0.5018020E+03  0.7818609E-02  0.1013310E+00
       -2   -1    0    0    0  501  0.00000000000E+00  0.00000000000E+00  0.14350036233E+03  0.14350036236E+03  0.25500000920E-02 0. -1.
        2   -1    0    0  501    0  0.00000000000E+00  0.00000000000E+00 -0.43868401981E+03  0.43868401982E+03  0.25500000920E-02 0.  1.
    10030    2    1    2    0    0  0.00000000000E+00  0.00000000000E+00 -0.29518365747E+03  0.58218438217E+03  0.50180201595E+03 0.  0.
        5    1    3    3  502    0  0.74958017466E+02  0.15747991406E+03  0.61598030951E+02  0.18502711999E+03  0.46999998093E+01 0. -1.
       -5    1    3    3    0  502 -0.74958017466E+02 -0.15747991406E+03 -0.35678168843E+03  0.39715726219E+03  0.46999998093E+01 0.  1.
</event>
<event>
 5   0  0.7812547E-02  0.4058670E+03  0.7818609E-02  0.1041767E+00
        1   -1    0    0  501    0  0.00000000000E+00  0.00000000000E+00  0.26240650270E+03  0.26240650275E+03  0.50400001928E-02 0. -1.
       -1   -1    0    0    0  501  0.00000000000E+00  0.00000000000E+00 -0.15693975850E+03  0.15693975858E+03  0.50400001928E-02 0.  1.
    10030    2    1    2    0    0  0.00000000000E+00  0.00000000000E+00  0.10546674420E+03  0.41934626133E+03  0.40586703828E+03 0.  0.
        4    1    3    3  502    0 -0.77379079294E+02 -0.55963643295E+02  0.23773569428E+03  0.25620172622E+03  0.12699999809E+01 0. -1.
       -4    1    3    3    0  502  0.77379079294E+02  0.55963643295E+02 -0.13226895008E+03  0.16314453511E+03  0.12699999809E+01 0.  1.
</event>
<event>
 5   0  0.1191894E-01  0.5076874E+03  0.7818609E-02  0.1011792E+00
       -2   -1    0    0    0  501  0.00000000000E+00  0.00000000000E+00  0.97824408800E+02  0.97824408833E+02  0.25500000920E-02 0.  1.
        2   -1    0    0  501    0  0.00000000000E+00  0.00000000000E+00 -0.65869668135E+03  0.65869668136E+03  0.25500000920E-02 0. -1.
    10030    2    1    2    0    0  0.00000000000E+00  0.00000000000E+00 -0.56087227255E+03  0.75652109019E+03  0.50768735831E+03 0.  0.
        3    1    3    3  502    0 -0.24679493806E+03 -0.28329961453E+02 -0.35824149819E+03  0.43594415857E+03  0.10100000352E+00 0. -1.
       -3    1    3    3    0  502  0.24679493806E+03  0.28329961453E+02 -0.20263077436E+03  0.32057693162E+03  0.10100000352E+00 0.  1.
</event>
<event>
 5   0  0.7602288E-02  0.5013371E+03  0.7818609E-02  0.1013431E+00
       -1   -1    0    0    0  501  0.00000000000E+00  0.00000000000E+00  0.51198131067E+02  0.51198131315E+02  0.50400001928E-02 0. -1.
        1   -1    0    0  501    0  0.00000000000E+00  0.00000000000E+00 -0.12272854657E+04  0.12272854657E+04  0.50400001928E-02 0.  1.
    10030    2    1    2    0    0  0.00000000000E+00  0.00000000000E+00 -0.11760873346E+04  0.12784835970E+04  0.50133710134E+03 0.  0.
        5    1    3    3  502    0  0.21122753071E+03 -0.12913927424E+03 -0.48866606788E+03  0.54782354621E+03  0.46999998093E+01 0. -1.
       -5    1    3    3    0  502 -0.21122753071E+03  0.12913927424E+03 -0.68742126676E+03  0.73066005083E+03  0.46999998093E+01 0.  1.
</event>
<event>
 5   0  0.7416638E-02  0.5031789E+03  0.7818609E-02  0.1012952E+00
        1   -1    0    0  501    0  0.00000000000E+00  0.00000000000E+00  0.12076735595E+03  0.12076735605E+03  0.50400001928E-02 0. -1.
       -1   -1    0    0    0  501  0.00000000000E+00  0.00000000000E+00 -0.52412556047E+03  0.52412556050E+03  0.50400001928E-02 0.  1.
    10030    2    1    2    0    0  0.00000000000E+00  0.00000000000E+00 -0.40335820453E+03  0.64489291655E+03  0.50317892708E+03 0.  0.
        1    1    3    3  502    0  0.19669264486E+03 -0.55608248075E+02 -0.38967824283E+03  0.44003341550E+03  0.50400001928E-02 0.  1.
       -1    1    3    3    0  502 -0.19669264486E+03  0.55608248075E+02 -0.13679961693E+02  0.20485950105E+03  0.50400001928E-02 0. -1.
</event>
<event>
 5   0  0.7531632E-02  0.4938869E+03  0.7818609E-02  0.1015387E+00
        1   -1    0    0  501    0  0.00000000000E+00  0.00000000000E+00  0.28245438257E+03  0.28245438262E+03  0.50400001928E-02 0.  1.
       -1   -1    0    0    0  501  0.00000000000E+00  0.00000000000E+00 -0.21589700624E+03  0.21589700630E+03  0.50400001928E-02 0. -1.
    10030    2    1    2    0    0  0.00000000000E+00  0.00000000000E+00  0.66557376335E+02  0.49835138892E+03  0.49388685191E+03 0.  0.
        3    1    3    3  502    0 -0.84656182999E+02  0.14017032930E+03  0.21979183039E+03  0.27408547835E+03  0.10100000352E+00 0.  1.
       -3    1    3    3    0  502  0.84656182999E+02 -0.14017032930E+03 -0.15323445405E+03  0.22426591057E+03  0.10100000352E+00 0. -1.
</event>
<event>
 5   0  0.7812547E-02  0.5020706E+03  0.7818609E-02  0.1013240E+00
       -1   -1    0    0    0  501  0.00000000000E+00  0.00000000000E+00  0.78591414928E+02  0.78591415089E+02  0.50400001928E-02 0.  1.
        1   -1    0    0  501    0  0.00000000000E+00  0.00000000000E+00 -0.80185236799E+03  0.80185236801E+03  0.50400001928E-02 0. -1.
    10030    2    1    2    0    0  0.00000000000E+00  0.00000000000E+00 -0.72326095307E+03  0.88044378310E+03  0.50207056174E+03 0.  0.
        4    1    3    3  502    0 -0.11375768124E+02 -0.12186404206E+03 -0.74597802740E+03  0.75595309584E+03  0.12699999809E+01 0. -1.
       -4    1    3    3    0  502  0.11375768124E+02  0.12186404206E+03  0.22717074333E+02  0.12449068726E+03  0.12699999809E+01 0.  1.
</event>
<event>
 5   0  0.1191894E-01  0.4991723E+03  0.7818609E-02  0.1013995E+00
       -2   -1    0    0    0  501  0.00000000000E+00  0.00000000000E+00  0.37829058494E+02  0.37829058580E+02  0.25500000920E-02 0. -1.
        2   -1    0    0  501    0  0.00000000000E+00  0.00000000000E+00 -0.16467037989E+04  0.16467037990E+04  0.25500000920E-02 0.  1.
    10030    2    1    2    0    0  0.00000000000E+00  0.00000000000E+00 -0.16088747405E+04  0.16845328575E+04  0.49917233259E+03 0.  0.
        3    1    3    3  502    0 -0.54895944766E+02  0.20247642022E+02 -0.16232319100E+04  0.16242861126E+04  0.10100000352E+00 0.  1.
       -3    1    3    3    0  502  0.54895944766E+02 -0.20247642022E+02  0.14357169522E+02  0.60246744949E+02  0.10100000352E+00 0. -1.
</event>
<event>
 5   0  0.7602288E-02  0.4936879E+03  0.7818609E-02  0.1015440E+00
        1   -1    0    0  501    0  0.00000000000E+00  0.00000000000E+00  0.30713152564E+03  0.30713152569E+03  0.50400001928E-02 0.  1.
       -1   -1    0    0    0  501  0.00000000000E+00  0.00000000000E+00 -0.19839036880E+03  0.19839036886E+03  0.50400001928E-02 0. -1.
    10030    2    1    2    0    0  0.00000000000E+00  0.00000000000E+00  0.10874115685E+03  0.50552189455E+03  0.49368790412E+03 0.  0.
        5    1    3    3  502    0  0.14781410205E+03 -0.16655144457E+03 -0.54582270458E+02  0.22932445727E+03  0.46999998093E+01 0. -1.
       -5    1    3    3    0  502 -0.14781410205E+03  0.16655144457E+03  0.16332342731E+03  0.27619743728E+03  0.46999998093E+01 0.  1.
</event>
<event>
 5   0  0.1191894E-01  0.5019794E+03  0.7818609E-02  0.1013264E+00
       -2   -1    0    0    0  501  0.00000000000E+00  0.00000000000E+00  0.48786469157E+02  0.48786469224E+02  0.25500000920E-02 0. -1.
        2   -1    0    0  501    0  0.00000000000E+00  0.00000000000E+00 -0.12912560685E+04  0.12912560685E+04  0.25500000920E-02 0.  1.
    10030    2    1    2    0    0  0.00000000000E+00  0.00000000000E+00 -0.12424695994E+04  0.13400425378E+04  0.50197937969E+03 0.  0.
        3    1    3    3  502    0 -0.81161906010E+02  0.13679292435E+03 -0.11395355181E+04  0.11505827942E+04  0.10100000352E+00 0.  1.
       -3    1    3    3    0  502  0.81161906010E+02 -0.13679292435E+03 -0.10293408131E+03  0.18945974358E+03  0.10100000352E+00 0. -1.
</event>
<event>
 5   0  0.1211345E-01  0.4816522E+03  0.7818609E-02  0.1018682E+00
       -2   -1    0    0    0  501  0.00000000000E+00  0.00000000000E+00  0.60408768695E+02  0.60408768749E+02  0.25500000920E-02 0. -1.
        2   -1    0    0  501    0  0.00000000000E+00  0.00000000000E+00 -0.96007923326E+03  0.96007923326E+03  0.25500000920E-02 0.  1.
    10030    2    1    2    0    0  0.00000000000E+00  0.00000000000E+00 -0.89967046456E+03  0.10204880020E+04  0.48165217475E+03 0.  0.
        5    1    3    3  502    0 -0.91882514597E+02  0.21624843908E+03 -0.56133186955E+03  0.60854033692E+03  0.46999998093E+01 0.  1.
       -5    1    3    3    0  502  0.91882514597E+02 -0.21624843908E+03 -0.33833859501E+03  0.41194766509E+03  0.46999998093E+01 0. -1.
</event>
<event>
 5   0  0.7781754E-02  0.5010685E+03  0.7818609E-02  0.1013500E+00
       -1   -1    0    0    0  501  0.00000000000E+00  0.00000000000E+00  0.39683408279E+03  0.39683408283E+03  0.50400001928E-02 0. -1.
        1   -1    0    0  501    0  0.00000000000E+00  0.00000000000E+00 -0.15817043455E+03  0.15817043463E+03  0.50400001928E-02 0.  1.
    10030    2    1    2    0    0  0.00000000000E+00  0.00000000000E+00  0.23866364825E+03  0.55500451745E+03  0.50106853563E+03 0.  0.
        2    1    3    3  502    0  0.14303591533E+03 -0.18304742774E+03  0.15415260861E+02  0.23281594479E+03  0.25500000920E-02 0.  1.
       -2    1    3    3    0  502 -0.14303591533E+03  0.18304742774E+03  0.22324838739E+03  0.32218857266E+03  0.25500000920E-02 0. -1.
</event>
<event>
 5   0  0.7812547E-02  0.4900580E+03  0.7818609E-02  0.1016407E+00
        1   -1    0    0  501    0  0.00000000000E+00  0.00000000000E+00  0.88485686924E+03  0.88485686926E+03  0.50400001928E-02 0. -1.
       -1   -1    0    0    0  501  0.00000000000E+00  0.00000000000E+00 -0.67851902405E+02  0.67851902592E+02  0.50400001928E-02 0.  1.
    10030    2    1    2    0    0  0.00000000000E+00  0.00000000000E+00  0.81700496684E+03  0.95270877185E+03  0.49005804566E+03 0.  0.
        4    1    3    3  502    0  0.11304904912E+03  0.14091288772E+03  0.86694748827E+02  0.20038493409E+03  0.12699999809E+01 0.  1.
       -4    1    3    3    0  502 -0.11304904912E+03 -0.14091288772E+03  0.73031021801E+03  0.75232383776E+03  0.12699999809E+01 0. -1.
</event>
<event>
 5   0  0.1279188E-01  0.5045280E+03  0.7818609E-02  0.1012604E+00
       -2   -1    0    0    0  501  0.00000000000E+00  0.00000000000E+00  0.25996690665E+03  0.25996690666E+03  0.25500000920E-02 0. -1.
        2   -1    0    0  501    0  0.00000000000E+00  0.00000000000E+00 -0.24478937592E+03  0.24478937593E+03  0.25500000920E-02 0.  1.
    10030    2    1    2    0    0  0.00000000000E+00  0.00000000000E+00  0.15177530728E+02  0.50475628259E+03  0.50452804419E+03 0.  0.
        2    1    3    3  502    0  0.73505409263E+02  0.16400153629E+03 -0.16951557436E+03  0.24705278597E+03  0.25500000920E-02 0.  1.
       -2    1    3    3    0  502 -0.73505409263E+02 -0.16400153629E+03  0.18469310509E+03  0.25770349662E+03  0.25500000920E-02 0. -1.
</event>
<event>
 5   0  0.1191894E-01  0.5040977E+03  0.7818609E-02  0.1012715E+00
       -2   -1    0    0    0  501  0.00000000000E+00  0.00000000000E+00  0.71131521775E+02  0.71131521820E+02  0.25500000920E-02 0. -1.
        2   -1    0    0  501    0  0.00000000000E+00  0.00000000000E+00 -0.89311502589E+03  0.89311502590E+03  0.25500000920E-02 0.  1.
    10030    2    1    2    0    0  0.00000000000E+00  0.00000000000E+00 -0.82198350412E+03  0.96424654772E+03  0.50409773233E+03 0.  0.
        3    1    3    3  502    0 -0.10985126225E+03  0.14799510772E+03 -0.73985589279E+03  0.76246744456E+03  0.10100000352E+00 0.  1.
       -3    1    3    3    0  502  0.10985126225E+03 -0.14799510772E+03 -0.82127611332E+02  0.20177910315E+03  0.10100000352E+00 0. -1.
</event>
<event>
 5   0  0.7416638E-02  0.4975227E+03  0.7818609E-02  0.1014428E+00
        1   -1    0    0  501    0  0.00000000000E+00  0.00000000000E+00  0.67871885751E+03  0.67871885753E+03  0.50400001928E-02 0. -1.
       -1   -1    0    0    0  501  0.00000000000E+00  0.00000000000E+00 -0.91175020298E+02  0.91175020437E+02  0.50400001928E-02 0.  1.
    10030    2    1    2    0    0  0.00000000000E+00  0.00000000000E+00  0.58754383722E+03  0.76989387797E+03  0.49752268560E+03 0.  0.
        1    1    3    3  502    0  0.86453283651E+02  0.15522277560E+03  0.56319764744E+03  0.59055894746E+03  0.50400001928E-02 0. -1.
       -1    1    3    3    0  502 -0.86453283651E+02 -0.15522277560E+03  0.24346189776E+02  0.17933493051E+03  0.50400001928E-02 0.  1.
</event>
<event>
 5   0  0.1211345E-01  0.5000639E+03  0.7818609E-02  0.1013762E+00
       -2   -1    0    0    0  501  0.00000000000E+00  0.00000000000E+00  0.17596471352E+03  0.17596471353E+03  0.25500000920E-02 0. -1.
        2   -1    0    0  501    0  0.00000000000E+00  0.00000000000E+00 -0.35527565075E+03  0.35527565076E+03  0.25500000920E-02 0.  1.
    10030    2    1    2    0    0  0.00000000000E+00  0.00000000000E+00 -0.17931093723E+03  0.53124036430E+03  0.50006390836E+03 0.  0.
        5    1    3    3  502    0 -0.12338189978E+03  0.14258033154E+03 -0.26402781093E+03  0.32447653085E+03  0.46999998093E+01 0.  1.
       -5    1    3    3    0  502  0.12338189978E+03 -0.14258033154E+03  0.84716873693E+02  0.20676383344E+03  0.46999998093E+01 0. -1.
</event>
<event>
 5   0  0.7812547E-02  0.5025161E+03  0.7818609E-02  0.1013124E+00
       -1   -1    0    0    0  501  0.00000000000E+00  0.00000000000E+00  0.32369203657E+02  0.32369204050E+02  0.50400001928E-02 0.  1.
        1   -1    0    0  501    0  0.00000000000E+00  0.00000000000E+00 -0.19503292706E+04  0.19503292707E+04  0.50400001928E-02 0. -1.
    10030    2    1    2    0    0  0.00000000000E+00  0.00000000000E+00 -0.19179600670E+04  0.19826984747E+04  0.50251609230E+03 0.  0.
        4    1    3    3  502    0 -0.14460755982E+03  0.19243592850E+03 -0.67484455592E+03  0.71649125640E+03  0.12699999809E+01 0. -1.
       -4    1    3    3    0  502  0.14460755982E+03 -0.19243592850E+03 -0.12431155111E+04  0.12662072183E+04  0.12699999809E+01 0.  1.
</event>
<event>
 5   0  0.5006750E-02  0.4734551E+03  0.7818609E-02  0.1020950E+00
       -3   -1    0    0    0  501  0.00000000000E+00  0.00000000000E+00  0.23567523294E+03  0.23567525458E+03  0.10100000352E+00 0. -1.
        3   -1    0    0  501    0  0.00000000000E+00  0.00000000000E+00 -0.23778456648E+03  0.23778458793E+03  0.10100000352E+00 0.  1.
    10030    2    1    2    0    0  0.00000000000E+00  0.00000000000E+00 -0.21093335413E+01  0.47345984251E+03  0.47345514379E+03 0.  0.
        5    1    3    3  502    0  0.21830041025E+02 -0.13592302966E+03 -0.19358250459E+03  0.23758766122E+03  0.46999998093E+01 0.  1.
       -5    1    3    3    0  502 -0.21830041025E+02  0.13592302966E+03  0.19147317104E+03  0.23587218130E+03  0.46999998093E+01 0. -1.
</event>
<event>
 5   0  0.7602288E-02  0.4479274E+03  0.7818609E-02  0.1028342E+00
       -1   -1    0    0    0  501  0.00000000000E+00  0.00000000000E+00  0.65370526163E+02  0.65370526357E+02  0.50400001928E-02 0. -1.
        1   -1    0    0  501    0  0.00000000000E+00  0.00000000000E+00 -0.76731441525E+03  0.76731441527E+03  0.50400001928E-02 0.  1.
    10030    2    1    2    0    0  0.00000000000E+00  0.00000000000E+00 -0.70194388909E+03  0.83268494163E+03  0.44792743674E+03 0.  0.
        5    1    3    3  502    0  0.77941576122E+02  0.18822491160E+03 -0.17823594655E+03  0.27072799869E+03  0.46999998093E+01 0. -1.
       -5    1    3    3    0  502 -0.77941576122E+02 -0.18822491160E+03 -0.52370794254E+03  0.56195694293E+03  0.46999998093E+01 0.  1.
</event>
<event>
 5   0  0.1279188E-01  0.5002709E+03  0.7818609E-02  0.1013708E+00
        2   -1    0    0  501    0  0.00000000000E+00  0.00000000000E+00  0.44603062745E+03  0.44603062746E+03  0.25500000920E-02 0.  1.
       -2   -1    0    0    0  501  0.00000000000E+00  0.00000000000E+00 -0.14027681103E+03  0.14027681105E+03  0.25500000920E-02 0. -1.
    10030    2    1    2    0    0  0.00000000000E+00  0.00000000000E+00  0.30575381642E+03  0.58630743851E+03  0.50027094279E+03 0.  0.
        2    1    3    3  502    0 -0.31968541860E+02 -0.22899850511E+03  0.41043681124E+02  0.23483374284E+03  0.25500000920E-02 0. -1.
       -2    1    3    3    0  502  0.31968541860E+02  0.22899850511E+03  0.26471013530E+03  0.35147369567E+03  0.25500000920E-02 0.  1.
</event>
<event>
 5   0  0.7416638E-02  0.4969065E+03  0.7818609E-02  0.1014590E+00
        1   -1    0    0  501    0  0.00000000000E+00  0.00000000000E+00  0.43604621453E+02  0.43604621744E+02  0.50400001928E-02 0.  1.
       -1   -1    0    0    0  501  0.00000000000E+00  0.00000000000E+00 -0.14156528871E+04  0.14156528871E+04  0.50400001928E-02 0. -1.
    10030    2    1    2    0    0  0.00000000000E+00  0.00000000000E+00 -0.13720482656E+04  0.14592575088E+04  0.49690646391E+03 0.  0.
        1    1    3    3  502    0  0.36001218657E+02 -0.22167716026E+03 -0.37395863852E+03  0.43621315257E+03  0.50400001928E-02 0.  1.
       -1    1    3    3    0  502 -0.36001218657E+02  0.22167716026E+03 -0.99808962711E+03  0.10230443563E+04  0.50400001928E-02 0. -1.
</event>
<event>
 5   0  0.7781754E-02  0.5041007E+03  0.7818609E-02  0.1012714E+00
       -1   -1    0    0    0  501  0.00000000000E+00  0.00000000000E+00  0.48098257854E+02  0.48098258118E+02  0.50400001928E-02 0. -1.
        1   -1    0    0  501    0  0.00000000000E+00  0.00000000000E+00 -0.13208251740E+04  0.13208251740E+04  0.50400001928E-02 0.  1.
    10030    2    1    2    0    0  0.00000000000E+00  0.00000000000E+00 -0.12727269161E+04  0.13689234321E+04  0.50410074384E+03 0.  0.
        2    1    3    3  502    0  0.17013920933E+03 -0.88398518714E+02 -0.19207228756E+03  0.27139162168E+03  0.25500000920E-02 0. -1.
       -2    1    3    3    0  502 -0.17013920933E+03  0.88398518714E+02 -0.10806546285E+04  0.10975318104E+04  0.25500000920E-02 0.  1.
</event>
<event>
 5   0  0.1211345E-01  0.5812695E+03  0.7818609E-02  0.9945046E-01
        2   -1    0    0  501    0  0.00000000000E+00  0.00000000000E+00  0.11972459386E+04  0.11972459386E+04  0.25500000920E-02 0.  1.
       -2   -1    0    0    0  501  0.00000000000E+00  0.00000000000E+00 -0.70552380598E+02  0.70552380645E+02  0.25500000920E-02 0. -1.
    10030    2    1    2    0    0  0.00000000000E+00  0.00000000000E+00  0.11266935580E+04  0.12677983192E+04  0.58126947679E+03 0.  0.
        5    1    3    3  502    0 -0.27655588430E+03  0.86458265239E+02  0.61154197376E+03  0.67673027451E+03  0.46999998093E+01 0.  1.
       -5    1    3    3    0  502  0.27655588430E+03 -0.86458265239E+02  0.51515158423E+03  0.59106804473E+03  0.46999998093E+01 0. -1.
</event>
<event>
 5   0  0.1243803E-01  0.5186854E+03  0.7818609E-02  0.1009014E+00
       -2   -1    0    0    0  501  0.00000000000E+00  0.00000000000E+00  0.84849639598E+02  0.84849639636E+02  0.25500000920E-02 0.  1.
        2   -1    0    0  501    0  0.00000000000E+00  0.00000000000E+00 -0.79268019254E+03  0.79268019254E+03  0.25500000920E-02 0. -1.
    10030    2    1    2    0    0  0.00000000000E+00  0.00000000000E+00 -0.70783055294E+03  0.87752983218E+03  0.51868537158E+03 0.  0.
        4    1    3    3  502    0  0.43610587293E+02 -0.25531328199E+03 -0.33183955923E+03  0.42095826546E+03  0.12699999809E+01 0.  1.
       -4    1    3    3    0  502 -0.43610587293E+02  0.25531328199E+03 -0.37599099371E+03  0.45657156672E+03  0.12699999809E+01 0. -1.
</event>
<event>
 5   0  0.7781754E-02  0.4945029E+03  0.7818609E-02  0.1015224E+00
       -1   -1    0    0    0  501  0.00000000000E+00  0.00000000000E+00  0.44678844103E+03  0.44678844106E+03  0.50400001928E-02 0.  1.
        1   -1    0    0  501    0  0.00000000000E+00  0.00000000000E+00 -0.13682827178E+03  0.13682827187E+03  0.50400001928E-02 0. -1.
    10030    2    1    2    0    0  0.00000000000E+00  0.00000000000E+00  0.30996016925E+03  0.58361671293E+03  0.49450294346E+03 0.  0.
        2    1    3    3  502    0 -0.14885073771E+03  0.17089817782E+03  0.27163917579E+03  0.35376626624E+03  0.25500000920E-02 0.  1.
       -2    1    3    3    0  502  0.14885073771E+03 -0.17089817782E+03  0.38320993460E+02  0.22985044669E+03  0.25500000920E-02 0. -1.
</event>
<event>
 5   0  0.7531632E-02  0.4989425E+03  0.7818609E-02  0.1014055E+00
        1   -1    0    0  501    0  0.00000000000E+00  0.00000000000E+00  0.18551903512E+03  0.18551903518E+03  0.50400001928E-02 0. -1.
       -1   -1    0    0    0  501  0.00000000000E+00  0.00000000000E+00 -0.33546915107E+03  0.33546915110E+03  0.50400001928E-02 0.  1.
    10030    2    1    2    0    0  0.00000000000E+00  0.00000000000E+00 -0.14995011595E+03  0.52098818629E+03  0.49894253475E+03 0.  0.
        3    1    3    3  502    0 -0.32466668678E+02 -0.14807700710E+02 -0.33279049075E+03  0.33469818271E+03  0.10100000352E+00 0.  1.
       -3    1    3    3    0  502  0.32466668678E+02  0.14807700710E+02  0.18284037480E+03  0.18629000358E+03  0.10100000352E+00 0. -1.
</event>
<event>
 5   0  0.7781754E-02  0.4930120E+03  0.7818609E-02  0.1015619E+00
        1   -1    0    0  501    0  0.00000000000E+00  0.00000000000E+00  0.31759496188E+03  0.31759496192E+03  0.50400001928E-02 0. -1.
       -1   -1    0    0    0  501  0.00000000000E+00  0.00000000000E+00 -0.19132929369E+03  0.19132929376E+03  0.50400001928E-02 0.  1.
    10030    2    1    2    0    0  0.00000000000E+00  0.00000000000E+00  0.12626566819E+03  0.50892425568E+03  0.49301204758E+03 0.  0.
        2    1    3    3  502    0 -0.16769699510E+03 -0.83617179133E+02  0.22846168863E+03  0.29548072355E+03  0.25500000920E-02 0. -1.
       -2    1    3    3    0  502  0.16769699510E+03  0.83617179133E+02 -0.10219602044E+03  0.21344353214E+03  0.25500000920E-02 0.  1.
</event>
<event>
 5   0  0.1191894E-01  0.5028264E+03  0.7818609E-02  0.1013044E+00
       -2   -1    0    0    0  501  0.00000000000E+00  0.00000000000E+00  0.84135667806E+03  0.84135667807E+03  0.25500000920E-02 0. -1.
        2   -1    0    0  501    0  0.00000000000E+00  0.00000000000E+00 -0.75127002807E+02  0.75127002850E+02  0.25500000920E-02 0.  1.
    10030    2    1    2    0    0  0.00000000000E+00  0.00000000000E+00  0.76622967526E+03  0.91648368092E+03  0.50282643342E+03 0.  0.
        3    1    3    3  502    0  0.56036183592E+02  0.70501948949E+02  0.81094817157E+03  0.81593353029E+03  0.10100000352E+00 0. -1.
       -3    1    3    3    0  502 -0.56036183592E+02 -0.70501948949E+02 -0.44718496315E+02  0.10055015063E+03  0.10100000352E+00 0.  1.
</event>
<event>
 5   0  0.7602288E-02  0.5070247E+03  0.7818609E-02  0.1011961E+00
        1   -1    0    0  501    0  0.00000000000E+00  0.00000000000E+00  0.72069653420E+03  0.72069653422E+03  0.50400001928E-02 0.  1.
       -1   -1    0    0    0  501  0.00000000000E+00  0.00000000000E+00 -0.89175538002E+02  0.89175538144E+02  0.50400001928E-02 0. -1.
    10030    2    1    2    0    0  0.00000000000E+00  0.00000000000E+00  0.63152099620E+03  0.80987207236E+03  0.50702465912E+03 0.  0.
        5    1    3    3  502    0 -0.24321547299E+03 -0.34870168056E+02  0.21630716280E+03  0.32738444312E+03  0.46999998093E+01 0. -1.
       -5    1    3    3    0  502  0.24321547299E+03  0.34870168056E+02  0.41521383340E+03  0.48248762924E+03  0.46999998093E+01 0.  1.
</event>
<event>
 5   0  0.7812547E-02  0.5061559E+03  0.7818609E-02  0.1012185E+00
       -1   -1    0    0    0  501  0.00000000000E+00  0.00000000000E+00  0.25788216089E+03  0.25788216094E+03  0.50400001928E-02 0.  1.
        1   -1    0    0  501    0  0.00000000000E+00  0.00000000000E+00 -0.24836324973E+03  0.24836324978E+03  0.50400001928E-02 0. -1.
    10030    2    1    2    0    0  0.00000000000E+00  0.00000000000E+00  0.95189111613E+01  0.50624541072E+03  0.50615591097E+03 0.  0.
        4    1    3    3  502    0  0.23212473826E+03 -0.67023973881E+02  0.80090310998E+02  0.25453914827E+03  0.12699999809E+01 0. -1.
       -4    1    3    3    0  502 -0.23212473826E+03  0.67023973881E+02 -0.70571399836E+02  0.25170626246E+03  0.12699999809E+01 0.  1.
</event>
<event>
 5   0  0.7416638E-02  0.4794999E+03  0.7818609E-02  0.1019273E+00
        1   -1    0    0  501    0  0.00000000000E+00  0.00000000000E+00  0.21668791596E+03  0.21668791602E+03  0.50400001928E-02 0. -1.
       -1   -1    0    0    0  501  0.00000000000E+00  0.00000000000E+00 -0.26526650748E+03  0.26526650753E+03  0.50400001928E-02 0.  1.
    10030    2    1    2    0    0  0.00000000000E+00  0.00000000000E+00 -0.48578591524E+02  0.48195442355E+03  0.47949993412E+03 0.  0.
        1    1    3    3  502    0  0.65754351826E+02 -0.82568822874E+02 -0.24065569464E+03  0.26278586089E+03  0.50400001928E-02 0.  1.
       -1    1    3    3    0  502 -0.65754351826E+02  0.82568822874E+02  0.19207710311E+03  0.21916856266E+03  0.50400001928E-02 0. -1.
</event>
<event>
 5   0  0.1231822E-01  0.5009091E+03  0.7818609E-02  0.1013542E+00
        2   -1    0    0  501    0  0.00000000000E+00  0.00000000000E+00  0.14824469524E+04  0.14824469524E+04  0.25500000920E-02 0. -1.
       -2   -1    0    0    0  501  0.00000000000E+00  0.00000000000E+00 -0.42313478307E+02  0.42313478384E+02  0.25500000920E-02 0.  1.
    10030    2    1    2    0    0  0.00000000000E+00  0.00000000000E+00  0.14401334741E+04  0.15247604308E+04  0.50090912159E+03 0.  0.
        1    1    3    3  502    0  0.13203204248E+03 -0.21024997098E+03  0.61957016881E+03  0.66746138813E+03  0.50400001928E-02 0.  1.
       -1    1    3    3    0  502 -0.13203204248E+03  0.21024997098E+03  0.82056330532E+03  0.85729904269E+03  0.50400001928E-02 0. -1.
</event>
<event>
 5   0  0.7416638E-02  0.4979493E+03  0.7818609E-02  0.1014316E+00
        1   -1    0    0  501    0  0.00000000000E+00  0.00000000000E+00  0.18003868558E+03  0.18003868565E+03  0.50400001928E-02 0.  1.
       -1   -1    0    0    0  501  0.00000000000E+00  0.00000000000E+00 -0.34430589682E+03  0.34430589685E+03  0.50400001928E-02 0. -1.
    10030    2    1    2    0    0  0.00000000000E+00  0.00000000000E+00 -0.16426721124E+03  0.52434458250E+03  0.49794931922E+03 0.  0.
        1    1    3    3  502    0  0.84954079907E+02  0.70290473268E+02 -0.31719374024E+03  0.33581217250E+03  0.50400001928E-02 0. -1.
       -1    1    3    3    0  502 -0.84954079907E+02 -0.70290473268E+02  0.15292652900E+03  0.18853241001E+03  0.50400001928E-02 0.  1.
</event>
<event>
 5   0  0.1191894E-01  0.5049979E+03  0.7818609E-02  0.1012483E+00
        2   -1    0    0  501    0  0.00000000000E+00  0.00000000000E+00  0.22745014767E+03  0.22745014769E+03  0.25500000920E-02 0. -1.
       -2   -1    0    0    0  501  0.00000000000E+00  0.00000000000E+00 -0.28030639964E+03  0.28030639966E+03  0.25500000920E-02 0.  1.
    10030    2    1    2    0    0  0.00000000000E+00  0.00000000000E+00 -0.52856251971E+02  0.50775654734E+03  0.50499794851E+03 0.  0.
        3    1    3    3  502    0 -0.23636141818E+03 -0.88583291819E+02 -0.32944439240E+02  0.25455660642E+03  0.10100000352E+00 0. -1.
       -3    1    3    3    0  502  0.23636141818E+03  0.88583291819E+02 -0.19911812731E+02  0.25319994092E+03  0.10100000352E+00 0.  1.
</event>
<event>
 5   0  0.1191894E-01  0.5014857E+03  0.7818609E-02  0.1013392E+00
        2   -1    0    0  501    0  0.00000000000E+00  0.00000000000E+00  0.11830921987E+04  0.11830921987E+04  0.25500000920E-02 0.  1.
       -2   -1    0    0    0  501  0.00000000000E+00  0.00000000000E+00 -0.53142084117E+02  0.53142084178E+02  0.25500000920E-02 0. -1.
    10030    2    1    2    0    0  0.00000000000E+00  0.00000000000E+00  0.11299501146E+04  0.12362342829E+04  0.50148573333E+03 0.  0.
        3    1    3    3  502    0  0.11303959473E+02  0.85402646797E+02 -0.15515635134E+02  0.87533631904E+02  0.10100000352E+00 0. -1.
       -3    1    3    3    0  502 -0.11303959473E+02 -0.85402646797E+02  0.11454657498E+04  0.11487006510E+04  0.10100000352E+00 0.  1.
</event>
<event>
 5   0  0.1243803E-01  0.4985503E+03  0.7818609E-02  0.1014158E+00
       -2   -1    0    0    0  501  0.00000000000E+00  0.00000000000E+00  0.10747525964E+04  0.10747525964E+04  0.25500000920E-02 0.  1.
        2   -1    0    0  501    0  0.00000000000E+00  0.00000000000E+00 -0.57816185792E+02  0.57816185848E+02  0.25500000920E-02 0. -1.
    10030    2    1    2    0    0  0.00000000000E+00  0.00000000000E+00  0.10169364106E+04  0.11325687822E+04  0.49855028162E+03 0.  0.
        4    1    3    3  502    0  0.82133962920E+02 -0.19775620418E+03  0.79835107304E+03  0.82657096059E+03  0.12699999809E+01 0.  1.
       -4    1    3    3    0  502 -0.82133962920E+02  0.19775620418E+03  0.21858533753E+03  0.30599782163E+03  0.12699999809E+01 0. -1.
</event>
<event>
 5   0  0.7531632E-02  0.4798324E+03  0.7818609E-02  0.1019181E+00
       -1   -1    0    0    0  501  0.00000000000E+00  0.00000000000E+00  0.40256742437E+02  0.40256742753E+02  0.50400001928E-02 0. -1.
        1   -1    0    0  501    0  0.00000000000E+00  0.00000000000E+00 -0.14298174536E+04  0.14298174536E+04  0.50400001928E-02 0.  1.
    10030    2    1    2    0    0  0.00000000000E+00  0.00000000000E+00 -0.13895607111E+04  0.14700741963E+04  0.47983244242E+03 0.  0.
        3    1    3    3  502    0  0.84313446218E+02 -0.93652313113E+02 -0.69298222598E+02  0.14381156706E+03  0.10100000352E+00 0. -1.
       -3    1    3    3    0  502 -0.84313446218E+02  0.93652313113E+02 -0.13202624885E+04  0.13262626293E+04  0.10100000352E+00 0.  1.
</event>
<event>
 5   0  0.1243803E-01  0.4118903E+03  0.7818609E-02  0.1039739E+00
       -2   -1    0    0    0  501  0.00000000000E+00  0.00000000000E+00  0.25451820020E+02  0.25451820148E+02  0.25500000920E-02 0. -1.
        2   -1    0    0  501    0  0.00000000000E+00  0.00000000000E+00 -0.16664190793E+04  0.16664190793E+04  0.25500000920E-02 0.  1.
    10030    2    1    2    0    0  0.00000000000E+00  0.00000000000E+00 -0.16409672593E+04  0.16918708995E+04  0.41189026983E+03 0.  0.
        4    1    3    3  502    0 -0.59570905878E+02  0.50800347807E+02 -0.38074703857E+02  0.87067009471E+02  0.12699999809E+01 0. -1.
       -4    1    3    3    0  502  0.59570905878E+02 -0.50800347807E+02 -0.16028925554E+04  0.16048038900E+04  0.12699999809E+01 0.  1.
</event>
<event>
 5   0  0.7602288E-02  0.5001530E+03  0.7818609E-02  0.1013739E+00
        1   -1    0    0  501    0  0.00000000000E+00  0.00000000000E+00  0.40914369956E+03  0.40914369959E+03  0.50400001928E-02 0.  1.
       -1   -1    0    0    0  501  0.00000000000E+00  0.00000000000E+00 -0.15285154103E+03  0.15285154111E+03  0.50400001928E-02 0. -1.
    10030    2    1    2    0    0  0.00000000000E+00  0.00000000000E+00  0.25629215853E+03  0.56199524070E+03  0.50015295664E+03 0.  0.
        5    1    3    3  502    0  0.88136874791E+02 -0.80453444521E+02 -0.11873752044E+03  0.16840888989E+03  0.46999998093E+01 0. -1.
       -5    1    3    3    0  502 -0.88136874791E+02  0.80453444521E+02  0.37502967897E+03  0.39358635081E+03  0.46999998093E+01 0.  1.
</event>
<event>
 5   0  0.1231822E-01  0.5033250E+03  0.7818609E-02  0.1012915E+00
        2   -1    0    0  501    0  0.00000000000E+00  0.00000000000E+00  0.88324525608E+02  0.88324525645E+02  0.25500000920E-02 0.  1.
       -2   -1    0    0    0  501  0.00000000000E+00  0.00000000000E+00 -0.71706024754E+03  0.71706024755E+03  0.25500000920E-02 0. -1.
    10030    2    1    2    0    0  0.00000000000E+00  0.00000000000E+00 -0.62873572193E+03  0.80538477319E+03  0.50332496943E+03 0.  0.
        1    1    3    3  502    0  0.11876726743E+03 -0.86951188113E+02 -0.64099735446E+03  0.65768060742E+03  0.50400001928E-02 0. -1.
       -1    1    3    3    0  502 -0.11876726743E+03  0.86951188113E+02  0.12261632531E+02  0.14770416577E+03  0.50400001928E-02 0.  1.
</event>
<event>
 5   0  0.7781754E-02  0.5024295E+03  0.7818609E-02  0.1013147E+00
        1   -1    0    0  501    0  0.00000000000E+00  0.00000000000E+00  0.75313776705E+03  0.75313776707E+03  0.50400001928E-02 0. -1.
       -1   -1    0    0    0  501  0.00000000000E+00  0.00000000000E+00 -0.83794570394E+02  0.83794570546E+02  0.50400001928E-02 0.  1.
    10030    2    1    2    0    0  0.00000000000E+00  0.00000000000E+00  0.66934319665E+03  0.83693233761E+03  0.50242952026E+03 0.  0.
        2    1    3    3  502    0  0.23676325556E+03  0.48550648677E+02  0.44880850770E+03  0.50974805665E+03  0.25500000920E-02 0. -1.
       -2    1    3    3    0  502 -0.23676325556E+03 -0.48550648677E+02  0.22053468896E+03  0.32718428096E+03  0.25500000920E-02 0.  1.
</event>
<event>
 5   0  0.1211345E-01  0.4923726E+03  0.7818609E-02  0.1015789E+00
       -2   -1    0    0    0  501  0.00000000000E+00  0.00000000000E+00  0.15080272927E+03  0.15080272929E+03  0.25500000920E-02 0. -1.
        2   -1    0    0  501    0  0.00000000000E+00  0.00000000000E+00 -0.40190052886E+03  0.40190052886E+03  0.25500000920E-02 0.  1.
    10030    2    1    2    0    0  0.00000000000E+00  0.00000000000E+00 -0.25109779959E+03  0.55270325815E+03  0.49237260953E+03 0.  0.
        5    1    3    3  502    0  0.17184629161E+03  0.39590023202E+02 -0.31830764392E+03  0.36392356897E+03  0.46999998093E+01 0.  1.
       -5    1    3    3    0  502 -0.17184629161E+03 -0.39590023202E+02  0.67209844329E+02  0.18877968918E+03  0.46999998093E+01 0. -1.
</event>
<event>
 5   0  0.7531632E-02  0.4585519E+03  0.7818609E-02  0.1025202E+00
       -1   -1    0    0    0  501  0.00000000000E+00  0.00000000000E+00  0.90592410326E+02  0.90592410466E+02  0.50400001928E-02 0. -1.
        1   -1    0    0  501    0  0.00000000000E+00  0.00000000000E+00 -0.58026340306E+03  0.58026340308E+03  0.50400001928E-02 0.  1.
    10030    2    1    2    0    0  0.00000000000E+00  0.00000000000E+00 -0.48967099274E+03  0.67085581355E+03  0.45855189613E+03 0.  0.
        3    1    3    3  502    0  0.16789850003E+03 -0.14483547749E+03 -0.33014447325E+03  0.39769662466E+03  0.10100000352E+00 0. -1.
       -3    1    3    3    0  502 -0.16789850003E+03  0.14483547749E+03 -0.15952651949E+03  0.27315918889E+03  0.10100000352E+00 0.  1.
</event>
<event>
 5   0  0.7416638E-02  0.4945974E+03  0.7818609E-02  0.1015199E+00
       -1   -1    0    0    0  501  0.00000000000E+00  0.00000000000E+00  0.61136918735E+02  0.61136918943E+02  0.50400001928E-02 0. -1.
        1   -1    0    0  501    0  0.00000000000E+00  0.00000000000E+00 -0.10003228272E+04  0.10003228272E+04  0.50400001928E-02 0.  1.
    10030    2    1    2    0    0  0.00000000000E+00  0.00000000000E+00 -0.93918590847E+03  0.10614597462E+04  0.49459743434E+03 0.  0.
        1    1    3    3  502    0  0.18746599284E+03 -0.14630652914E+03 -0.61526861841E+03  0.65962456880E+03  0.50400001928E-02 0. -1.
       -1    1    3    3    0  502 -0.18746599284E+03  0.14630652914E+03 -0.32391729007E+03  0.40183517737E+03  0.50400001928E-02 0.  1.
</event>
<event>
 5   0  0.5006750E-02  0.5004608E+03  0.7818609E-02  0.1013659E+00
       -3   -1    0    0    0  501  0.00000000000E+00  0.00000000000E+00  0.72408045648E+02  0.72408116089E+02  0.10100000352E+00 0.  1.
        3   -1    0    0  501    0  0.00000000000E+00  0.00000000000E+00 -0.86475508685E+03  0.86475509275E+03  0.10100000352E+00 0. -1.
    10030    2    1    2    0    0  0.00000000000E+00  0.00000000000E+00 -0.79234704121E+03  0.93716320884E+03  0.50046083393E+03 0.  0.
        3    1    3    3  502    0 -0.10636946624E+02 -0.11325437656E+03  0.21191925157E+02  0.11571000966E+03  0.10100000352E+00 0.  1.
       -3    1    3    3    0  502  0.10636946624E+02  0.11325437656E+03 -0.81353896636E+03  0.82145319918E+03  0.10100000352E+00 0. -1.
</event>
<event>
 5   0  0.7602288E-02  0.5130205E+03  0.7818609E-02  0.1010435E+00
        1   -1    0    0  501    0  0.00000000000E+00  0.00000000000E+00  0.71346972262E+03  0.71346972264E+03  0.50400001928E-02 0. -1.
       -1   -1    0    0    0  501  0.00000000000E+00  0.00000000000E+00 -0.92221861641E+02  0.92221861779E+02  0.50400001928E-02 0.  1.
    10030    2    1    2    0    0  0.00000000000E+00  0.00000000000E+00  0.62124786098E+03  0.80569158442E+03  0.51302049124E+03 0.  0.
        5    1    3    3  502    0 -0.96131401865E+02  0.14687633864E+03  0.60427339365E+03  0.62927126865E+03  0.46999998093E+01 0. -1.
       -5    1    3    3    0  502  0.96131401865E+02 -0.14687633864E+03  0.16974467332E+02  0.17642031577E+03  0.46999998093E+01 0.  1.
</event>
<event>
 5   0  0.7416638E-02  0.5164410E+03  0.7818609E-02  0.1009574E+00
        1   -1    0    0  501    0  0.00000000000E+00  0.00000000000E+00  0.28624335760E+03  0.28624335764E+03  0.50400001928E-02 0. -1.
       -1   -1    0    0    0  501  0.00000000000E+00  0.00000000000E+00 -0.23294103781E+03  0.23294103787E+03  0.50400001928E-02 0.  1.
    10030    2    1    2    0    0  0.00000000000E+00  0.00000000000E+00  0.53302319782E+02  0.51918439551E+03  0.51644099300E+03 0.  0.
        1    1    3    3  502    0 -0.40741594410E+02 -0.67466949385E+01 -0.22959978549E+03  0.23328406917E+03  0.50400001928E-02 0.  1.
       -1    1    3    3    0  502  0.40741594410E+02  0.67466949385E+01  0.28290210527E+03  0.28590032634E+03  0.50400001928E-02 0. -1.
</event>
<event>
 5   0  0.7781754E-02  0.4990482E+03  0.7818609E-02  0.1014028E+00
       -1   -1    0    0    0  501  0.00000000000E+00  0.00000000000E+00  0.85712467722E+02  0.85712467870E+02  0.50400001928E-02 0. -1.
        1   -1    0    0  501    0  0.00000000000E+00  0.00000000000E+00 -0.72640875763E+03  0.72640875765E+03  0.50400001928E-02 0.  1.
    10030    2    1    2    0    0  0.00000000000E+00  0.00000000000E+00 -0.64069628991E+03  0.81212122552E+03  0.49904824319E+03 0.  0.
        2    1    3    3  502    0  0.47864476803E+02 -0.10872144861E+03 -0.67744058078E+03  0.68777692752E+03  0.25500000920E-02 0.  1.
       -2    1    3    3    0  502 -0.47864476803E+02  0.10872144861E+03  0.36744290869E+02  0.12434429800E+03  0.25500000920E-02 0. -1.
</event>
<event>
 5   0  0.7531632E-02  0.5359885E+03  0.7818609E-02  0.1004790E+00
        1   -1    0    0  501    0  0.00000000000E+00  0.00000000000E+00  0.19564107665E+03  0.19564107671E+03  0.50400001928E-02 0. -1.
       -1   -1    0    0    0  501  0.00000000000E+00  0.00000000000E+00 -0.36710545652E+03  0.36710545655E+03  0.50400001928E-02 0.  1.
    10030    2    1    2    0    0  0.00000000000E+00  0.00000000000E+00 -0.17146437987E+03  0.56274653327E+03  0.53598845803E+03 0.  0.
        3    1    3    3  502    0 -0.10019616327E+03 -0.20664732383E+03 -0.23075275942E+03  0.32555987738E+03  0.10100000352E+00 0.  1.
       -3    1    3    3    0  502  0.10019616327E+03  0.20664732383E+03  0.59288379553E+02  0.23718665588E+03  0.10100000352E+00 0. -1.
</event>
<event>
 5   0  0.1211345E-01  0.4926342E+03  0.7818609E-02  0.1015720E+00
        2   -1    0    0  501    0  0.00000000000E+00  0.00000000000E+00  0.82176959056E+03  0.82176959056E+03  0.25500000920E-02 0. -1.
       -2   -1    0    0    0  501  0.00000000000E+00  0.00000000000E+00 -0.73831058031E+02  0.73831058075E+02  0.25500000920E-02 0.  1.
    10030    2    1    2    0    0  0.00000000000E+00  0.00000000000E+00  0.74793853252E+03  0.89560064863E+03  0.49263421867E+03 0.  0.
        5    1    3    3  502    0 -0.23907074430E+03 -0.54202541103E+02  0.33105207689E+03  0.41195910459E+03  0.46999998093E+01 0.  1.
       -5    1    3    3    0  502  0.23907074430E+03  0.54202541103E+02  0.41688645563E+03  0.48364154405E+03  0.46999998093E+01 0. -1.
</event>
<event>
 5   0  0.7602288E-02  0.5032468E+03  0.7818609E-02  0.1012935E+00
       -1   -1    0    0    0  501  0.00000000000E+00  0.00000000000E+00  0.47458615897E+02  0.47458616165E+02  0.50400001928E-02 0. -1.
        1   -1    0    0  501    0  0.00000000000E+00  0.00000000000E+00 -0.13340956258E+04  0.13340956258E+04  0.50400001928E-02 0.  1.
    10030    2    1    2    0    0  0.00000000000E+00  0.00000000000E+00 -0.12866370099E+04  0.13815542420E+04  0.50324678664E+03 0.  0.
        5    1    3    3  502    0 -0.18852368742E+02 -0.12329605079E+03 -0.43520519221E+02  0.13218719128E+03  0.46999998093E+01 0. -1.
       -5    1    3    3    0  502  0.18852368742E+02  0.12329605079E+03 -0.12431164907E+04  0.12493670507E+04  0.46999998093E+01 0.  1.
</event>
<event>
 5   0  0.1231822E-01  0.4993829E+03  0.7818609E-02  0.1013940E+00
        2   -1    0    0  501    0  0.00000000000E+00  0.00000000000E+00  0.12779888220E+04  0.12779888220E+04  0.25500000920E-02 0. -1.
       -2   -1    0    0    0  501  0.00000000000E+00  0.00000000000E+00 -0.48784315856E+02  0.48784315922E+02  0.25500000920E-02 0.  1.
    10030    2    1    2    0    0  0.00000000000E+00  0.00000000000E+00  0.12292045061E+04  0.13267731379E+04  0.49938286073E+03 0.  0.
        1    1    3    3  502    0 -0.83408447074E+01 -0.24245700481E+03  0.77157638949E+03  0.80881709534E+03  0.50400001928E-02 0. -1.
       -1    1    3    3    0  502  0.83408447074E+01  0.24245700481E+03  0.45762811663E+03  0.51795604256E+03  0.50400001928E-02 0.  1.
</event>
<event>
 5   0  0.7416638E-02  0.4969864E+03  0.7818609E-02  0.1014569E+00
        1   -1    0    0  501    0  0.00000000000E+00  0.00000000000E+00  0.12312314290E+03  0.12312314301E+03  0.50400001928E-02 0.  1.
       -1   -1    0    0    0  501  0.00000000000E+00  0.00000000000E+00 -0.50152124249E+03  0.50152124251E+03  0.50400001928E-02 0. -1.
    10030    2    1    2    0    0  0.00000000000E+00  0.00000000000E+00 -0.37839809958E+03  0.62464438552E+03  0.49698640484E+03 0.  0.
        1    1    3    3  502    0  0.46188168720E+02  0.14513928753E+03 -0.43597404585E+03  0.46181395431E+03  0.50400001928E-02 0. -1.
       -1    1    3    3    0  502 -0.46188168720E+02 -0.14513928753E+03  0.57575946262E+02  0.16283043121E+03  0.50400001928E-02 0.  1.
</event>
<event>
 5   0  0.1243803E-01  0.4988520E+03  0.7818609E-02  0.1014079E+00
        2   -1    0    0  501    0  0.00000000000E+00  0.00000000000E+00  0.62801746836E+02  0.62801746888E+02  0.25500000920E-02 0. -1.
       -2   -1    0    0    0  501  0.00000000000E+00  0.00000000000E+00 -0.99063054774E+03  0.99063054775E+03  0.25500000920E-02 0.  1.
    10030    2    1    2    0    0  0.00000000000E+00  0.00000000000E+00 -0.92782880091E+03  0.10534322946E+04  0.49885199768E+03 0.  0.
        4    1    3    3  502    0 -0.48179677483E+02 -0.24062336254E+03 -0.55813638059E+03  0.60970379379E+03  0.12699999809E+01 0.  1.
       -4    1    3    3    0  502  0.48179677483E+02  0.24062336254E+03 -0.36969242032E+03  0.44372850084E+03  0.12699999809E+01 0. -1.
</event>
<event>
 5   0  0.1191894E-01  0.5002733E+03  0.7818609E-02  0.1013708E+00
        2   -1    0    0  501    0  0.00000000000E+00  0.00000000000E+00  0.67178669805E+03  0.67178669806E+03  0.25500000920E-02 0. -1.
       -2   -1    0    0    0  501  0.00000000000E+00  0.00000000000E+00 -0.93137224277E+02  0.93137224312E+02  0.25500000920E-02 0.  1.
    10030    2    1    2    0    0  0.00000000000E+00  0.00000000000E+00  0.57864947378E+03  0.76492392237E+03  0.50027331881E+03 0.  0.
        3    1    3    3  502    0  0.50256564014E+02  0.24478780036E+03  0.27246750942E+03  0.36970980961E+03  0.10100000352E+00 0. -1.
       -3    1    3    3    0  502 -0.50256564014E+02 -0.24478780036E+03  0.30618196436E+03  0.39521411276E+03  0.10100000352E+00 0.  1.
</event>
<event>
 5   0  0.7416638E-02  0.4917050E+03  0.7818609E-02  0.1015967E+00
       -1   -1    0    0    0  501  0.00000000000E+00  0.00000000000E+00  0.12394738626E+04  0.12394738626E+04  0.50400001928E-02 0. -1.
        1   -1    0    0  501    0  0.00000000000E+00  0.00000000000E+00 -0.48765404808E+02  0.48765405069E+02  0.50400001928E-02 0.  1.
    10030    2    1    2    0    0  0.00000000000E+00  0.00000000000E+00  0.11907084578E+04  0.12882392677E+04  0.49170497184E+03 0.  0.
        1    1    3    3  502    0  0.18501060108E+03  0.15784679278E+02  0.17318248803E+03  0.25390993048E+03  0.50400001928E-02 0.  1.
       -1    1    3    3    0  502 -0.18501060108E+03 -0.15784679278E+02  0.10175259698E+04  0.10343293372E+04  0.50400001928E-02 0. -1.
</event>
<event>
 5   0  0.7602288E-02  0.4995898E+03  0.7818609E-02  0.1013886E+00
       -1   -1    0    0    0  501  0.00000000000E+00  0.00000000000E+00  0.11309716847E+03  0.11309716858E+03  0.50400001928E-02 0.  1.
        1   -1    0    0  501    0  0.00000000000E+00  0.00000000000E+00 -0.55171582821E+03  0.55171582823E+03  0.50400001928E-02 0. -1.
    10030    2    1    2    0    0  0.00000000000E+00  0.00000000000E+00 -0.43861865974E+03  0.66481299681E+03  0.49958982382E+03 0.  0.
        5    1    3    3  502    0  0.24880005082E+02  0.18056986051E+03  0.78926134324E+01  0.18250718486E+03  0.46999998093E+01 0.  1.
       -5    1    3    3    0  502 -0.24880005082E+02 -0.18056986051E+03 -0.44651127317E+03  0.48230581196E+03  0.46999998093E+01 0. -1.
</event>
<event>
 5   0  0.7602288E-02  0.5018072E+03  0.7818609E-02  0.1013308E+00
       -1   -1    0    0    0  501  0.00000000000E+00  0.00000000000E+00  0.27794965436E+03  0.27794965440E+03  0.50400001928E-02 0. -1.
        1   -1    0    0  501    0  0.00000000000E+00  0.00000000000E+00 -0.22648927338E+03  0.22648927343E+03  0.50400001928E-02 0.  1.
    10030    2    1    2    0    0  0.00000000000E+00  0.00000000000E+00  0.51460380980E+02  0.50443892784E+03  0.50180719515E+03 0.  0.
        5    1    3    3  502    0 -0.24664320307E+02  0.93291240012E+02  0.25850223781E+03  0.27596572452E+03  0.46999998093E+01 0. -1.
       -5    1    3    3    0  502  0.24664320307E+02 -0.93291240012E+02 -0.20704185683E+03  0.22847320332E+03  0.46999998093E+01 0.  1.
</event>
<event>
 5   0  0.7781754E-02  0.5031092E+03  0.7818609E-02  0.1012971E+00
       -1   -1    0    0    0  501  0.00000000000E+00  0.00000000000E+00  0.51094056786E+03  0.51094056788E+03  0.50400001928E-02 0.  1.
        1   -1    0    0  501    0  0.00000000000E+00  0.00000000000E+00 -0.12384949064E+03  0.12384949074E+03  0.50400001928E-02 0. -1.
    10030    2    1    2    0    0  0.00000000000E+00  0.00000000000E+00  0.38709107722E+03  0.63479005862E+03  0.50310924903E+03 0.  0.
        2    1    3    3  502    0 -0.42267614084E+02 -0.13980568072E+03 -0.64871480907E+02  0.15981391868E+03  0.25500000920E-02 0. -1.
       -2    1    3    3    0  502  0.42267614084E+02  0.13980568072E+03  0.45196255813E+03  0.47497613995E+03  0.25500000920E-02 0.  1.
</event>
<event>
 5   0  0.1211345E-01  0.4955705E+03  0.7818609E-02  0.1014942E+00
        2   -1    0    0  501    0  0.00000000000E+00  0.00000000000E+00  0.13788652483E+04  0.13788652483E+04  0.25500000920E-02 0. -1.
       -2   -1    0    0    0  501  0.00000000000E+00  0.00000000000E+00 -0.44527584667E+02  0.44527584740E+02  0.25500000920E-02 0.  1.
    10030    2    1    2    0    0  0.00000000000E+00  0.00000000000E+00  0.13343376636E+04  0.14233928331E+04  0.49557053642E+03 0.  0.
        5    1    3    3  502    0  0.10703154366E+02 -0.53932941946E+02 -0.26652504869E+02  0.61284302675E+02  0.46999998093E+01 0.  1.
       -5    1    3    3    0  502 -0.10703154366E+02  0.53932941946E+02  0.13609901685E+04  0.13621085304E+04  0.46999998093E+01 0. -1.
</event>
<event>
 5   0  0.1279188E-01  0.4959608E+03  0.7818609E-02  0.1014839E+00
       -2   -1    0    0    0  501  0.00000000000E+00  0.00000000000E+00  0.51401366689E+02  0.51401366753E+02  0.25500000920E-02 0.  1.
        2   -1    0    0  501    0  0.00000000000E+00  0.00000000000E+00 -0.11963551531E+04  0.11963551531E+04  0.25500000920E-02 0. -1.
    10030    2    1    2    0    0  0.00000000000E+00  0.00000000000E+00 -0.11449537864E+04  0.12477565199E+04  0.49596084506E+03 0.  0.
        2    1    3    3  502    0 -0.12902268977E+03  0.45082742136E+02 -0.10930483342E+04  0.11015597891E+04  0.25500000920E-02 0. -1.
       -2    1    3    3    0  502  0.12902268977E+03 -0.45082742136E+02 -0.51905452285E+02  0.14619673080E+03  0.25500000920E-02 0.  1.
</event>
<event>
 5   0  0.1191894E-01  0.4468026E+03  0.7818609E-02  0.1028680E+00
        2   -1    0    0  501    0  0.00000000000E+00  0.00000000000E+00  0.41718523821E+03  0.41718523821E+03  0.25500000920E-02 0. -1.
       -2   -1    0    0    0  501  0.00000000000E+00  0.00000000000E+00 -0.11963066425E+03  0.11963066428E+03  0.25500000920E-02 0.  1.
    10030    2    1    2    0    0  0.00000000000E+00  0.00000000000E+00  0.29755457396E+03  0.53681590249E+03  0.44680262833E+03 0.  0.
        3    1    3    3  502    0  0.93119135732E+02  0.19689875033E+03  0.20846276141E+03  0.30149133390E+03  0.10100000352E+00 0. -1.
       -3    1    3    3    0  502 -0.93119135732E+02 -0.19689875033E+03  0.89091812544E+02  0.23532456859E+03  0.10100000352E+00 0.  1.
</event>
<event>
 5   0  0.1279188E-01  0.5005048E+03  0.7818609E-02  0.1013647E+00
        2   -1    0    0  501    0  0.00000000000E+00  0.00000000000E+00  0.16631972782E+03  0.16631972784E+03  0.25500000920E-02 0. -1.
       -2   -1    0    0    0  501  0.00000000000E+00  0.00000000000E+00 -0.37654139061E+03  0.37654139061E+03  0.25500000920E-02 0.  1.
    10030    2    1    2    0    0  0.00000000000E+00  0.00000000000E+00 -0.21022166278E+03  0.54286111846E+03  0.50050479162E+03 0.  0.
        2    1    3    3  502    0 -0.64936107906E+02 -0.11057797301E+03 -0.33819738497E+03  0.36169276663E+03  0.25500000920E-02 0.  1.
       -2    1    3    3    0  502  0.64936107906E+02  0.11057797301E+03  0.12797572219E+03  0.18116835182E+03  0.25500000920E-02 0. -1.
</event>
<event>
 5   0  0.1191894E-01  0.4995696E+03  0.7818609E-02  0.1013891E+00
        2   -1    0    0  501    0  0.00000000000E+00  0.00000000000E+00  0.22683720722E+03  0.22683720723E+03  0.25500000920E-02 0.  1.
       -2   -1    0    0    0  501  0.00000000000E+00  0.00000000000E+00 -0.27505389409E+03  0.27505389410E+03  0.25500000920E-02 0. -1.
    10030    2    1    2    0    0  0.00000000000E+00  0.00000000000E+00 -0.48216686874E+02  0.50189110133E+03  0.49956964350E+03 0.  0.
        3    1    3    3  502    0 -0.20472750082E+03 -0.13950986899E+03  0.79160095357E+01  0.24786897052E+03  0.10100000352E+00 0.  1.
       -3    1    3    3    0  502  0.20472750082E+03  0.13950986899E+03 -0.56132696409E+02  0.25402213082E+03  0.10100000352E+00 0. -1.
</event>
<event>
 5   0  0.1211345E-01  0.4918856E+03  0.7818609E-02  0.1015919E+00
        2   -1    0    0  501    0  0.00000000000E+00  0.00000000000E+00  0.41850258377E+03  0.41850258378E+03  0.25500000920E-02 0. -1.
       -2   -1    0    0    0  501  0.00000000000E+00  0.00000000000E+00 -0.14453403093E+03  0.14453403096E+03  0.25500000920E-02 0.  1.
    10030    2    1    2    0    0  0.00000000000E+00  0.00000000000E+00  0.27396855284E+03  0.56303661473E+03  0.49188561840E+03 0.  0.
        5    1    3    3  502    0 -0.25324978286E+02 -0.64547461299E+02 -0.13306094178E+03  0.15011673295E+03  0.46999998093E+01 0.  1.
       -5    1    3    3    0  502  0.25324978286E+02  0.64547461299E+02  0.40702949462E+03  0.41291988178E+03  0.46999998093E+01 0. -1.
</event>
<event>
 5   0  0.1243803E-01  0.5026687E+03  0.7818609E-02  0.1013085E+00
       -2   -1    0    0    0  501  0.00000000000E+00  0.00000000000E+00  0.40864753103E+02  0.40864753183E+02  0.25500000920E-02 0.  1.
        2   -1    0    0  501    0  0.00000000000E+00  0.00000000000E+00 -0.15458055890E+04  0.15458055890E+04  0.25500000920E-02 0. -1.
    10030    2    1    2    0    0  0.00000000000E+00  0.00000000000E+00 -0.15049408359E+04  0.15866703422E+04  0.50266873309E+03 0.  0.
        4    1    3    3  502    0  0.15066350645E+03  0.20109647072E+03 -0.76919333593E+03  0.80919669034E+03  0.12699999809E+01 0.  1.
       -4    1    3    3    0  502 -0.15066350645E+03 -0.20109647072E+03 -0.73574750001E+03  0.77747365189E+03  0.12699999809E+01 0. -1.
</event>
<event>
 5   0  0.1243803E-01  0.4984200E+03  0.7818609E-02  0.1014192E+00
       -2   -1    0    0    0  501  0.00000000000E+00  0.00000000000E+00  0.46265437909E+02  0.46265437979E+02  0.25500000920E-02 0.  1.
        2   -1    0    0  501    0  0.00000000000E+00  0.00000000000E+00 -0.13423764603E+04  0.13423764603E+04  0.25500000920E-02 0. -1.
    10030    2    1    2    0    0  0.00000000000E+00  0.00000000000E+00 -0.12961110224E+04  0.13886418982E+04  0.49842004303E+03 0.  0.
        4    1    3    3  502    0 -0.17722341087E+03  0.14270339147E+03 -0.93124629646E+03  0.95864157685E+03  0.12699999809E+01 0. -1.
       -4    1    3    3    0  502  0.17722341087E+03 -0.14270339147E+03 -0.36486472589E+03  0.43000032139E+03  0.12699999809E+01 0.  1.
</event>
<event>
 5   0  0.7416638E-02  0.5043929E+03  0.7818609E-02  0.1012639E+00
        1   -1    0    0  501    0  0.00000000000E+00  0.00000000000E+00  0.37220798614E+03  0.37220798617E+03  0.50400001928E-02 0.  1.
       -1   -1    0    0    0  501  0.00000000000E+00  0.00000000000E+00 -0.17088037304E+03  0.17088037312E+03  0.50400001928E-02 0. -1.
    10030    2    1    2    0    0  0.00000000000E+00  0.00000000000E+00  0.20132761310E+03  0.54308835929E+03  0.50439286097E+03 0.  0.
        1    1    3    3  502    0 -0.13917788608E+03 -0.11378821836E+02  0.32678226345E+03  0.35536827277E+03  0.50400001928E-02 0.  1.
       -1    1    3    3    0  502  0.13917788608E+03  0.11378821836E+02 -0.12545465035E+03  0.18772008652E+03  0.50400001928E-02 0. -1.
</event>
<event>
 5   0  0.1279188E-01  0.4966141E+03  0.7818609E-02  0.1014666E+00
       -2   -1    0    0    0  501  0.00000000000E+00  0.00000000000E+00  0.50489170021E+02  0.50489170086E+02  0.25500000920E-02 0. -1.
        2   -1    0    0  501    0  0.00000000000E+00  0.00000000000E+00 -0.12211805169E+04  0.12211805169E+04  0.25500000920E-02 0.  1.
    10030    2    1    2    0    0  0.00000000000E+00  0.00000000000E+00 -0.11706913469E+04  0.12716696870E+04  0.49661409882E+03 0.  0.
        2    1    3    3  502    0  0.24256777561E+02 -0.10344088403E+03 -0.10657110595E+02  0.10678006256E+03  0.25500000920E-02 0. -1.
       -2    1    3    3    0  502 -0.24256777561E+02  0.10344088403E+03 -0.11600342363E+04  0.11648896244E+04  0.25500000920E-02 0.  1.
</event>
<event>
 5   0  0.7602288E-02  0.5030523E+03  0.7818609E-02  0.1012985E+00
        1   -1    0    0  501    0  0.00000000000E+00  0.00000000000E+00  0.45746236407E+03  0.45746236410E+03  0.50400001928E-02 0.  1.
       -1   -1    0    0    0  501  0.00000000000E+00  0.00000000000E+00 -0.13829640009E+03  0.13829640018E+03  0.50400001928E-02 0. -1.
    10030    2    1    2    0    0  0.00000000000E+00  0.00000000000E+00  0.31916596398E+03  0.59575876428E+03  0.50305227626E+03 0.  0.
        5    1    3    3  502    0 -0.14960007076E+03 -0.15762294110E+03  0.30946975245E+03  0.37817825217E+03  0.46999998093E+01 0.  1.
       -5    1    3    3    0  502  0.14960007076E+03  0.15762294110E+03  0.96962115258E+01  0.21758051211E+03  0.46999998093E+01 0. -1.
</event>
<event>
 5   0  0.7812547E-02  0.4962392E+03  0.7818609E-02  0.1014765E+00
       -1   -1    0    0    0  501  0.00000000000E+00  0.00000000000E+00  0.72007846049E+02  0.72007846225E+02  0.50400001928E-02 0.  1.
        1   -1    0    0  501    0  0.00000000000E+00  0.00000000000E+00 -0.85495304359E+03  0.85495304361E+03  0.50400001928E-02 0. -1.
    10030    2    1    2    0    0  0.00000000000E+00  0.00000000000E+00 -0.78294519754E+03  0.92696088983E+03  0.49623916504E+03 0.  0.
        4    1    3    3  502    0  0.75294136973E+02 -0.23554969688E+03 -0.35370224233E+03  0.43157821526E+03  0.12699999809E+01 0.  1.
       -4    1    3    3    0  502 -0.75294136973E+02  0.23554969688E+03 -0.42924295522E+03  0.49538267457E+03  0.12699999809E+01 0. -1.
</event>
<event>
 5   0  0.7602288E-02  0.5007536E+03  0.7818609E-02  0.1013582E+00
        1   -1    0    0  501    0  0.00000000000E+00  0.00000000000E+00  0.98628216562E+03  0.98628216563E+03  0.50400001928E-02 0.  1.
       -1   -1    0    0    0  501  0.00000000000E+00  0.00000000000E+00 -0.63560461400E+02  0.63560461600E+02  0.50400001928E-02 0. -1.
    10030    2    1    2    0    0  0.00000000000E+00  0.00000000000E+00  0.92272170422E+03  0.10498426272E+04  0.50075363056E+03 0.  0.
        5    1    3    3  502    0 -0.20012322860E+03 -0.10300047606E+03  0.69110075283E+03  0.72684299904E+03  0.46999998093E+01 0.  1.
       -5    1    3    3    0  502  0.20012322860E+03  0.10300047606E+03  0.23162095139E+03  0.32299962819E+03  0.46999998093E+01 0. -1.
</event>
<event>
 5   0  0.1231822E-01  0.4350269E+03  0.7818609E-02  0.1032284E+00
        2   -1    0    0  501    0  0.00000000000E+00  0.00000000000E+00  0.47649276653E+03  0.47649276654E+03  0.25500000920E-02 0. -1.
       -2   -1    0    0    0  501  0.00000000000E+00  0.00000000000E+00 -0.99292371123E+02  0.99292371156E+02  0.25500000920E-02 0.  1.
    10030    2    1    2    0    0  0.00000000000E+00  0.00000000000E+00  0.37720039541E+03  0.57578513769E+03  0.43502688019E+03 0.  0.
        1    1    3    3  502    0  0.11642268299E+02  0.16764735612E+02 -0.98022073549E+02  0.10012455093E+03  0.50400001928E-02 0.  1.
       -1    1    3    3    0  502 -0.11642268299E+02 -0.16764735612E+02  0.47522246895E+03  0.47566058676E+03  0.50400001928E-02 0. -1.
</event>
<event>
 5   0  0.1191894E-01  0.4994853E+03  0.7818609E-02  0.1013913E+00
       -2   -1    0    0    0  501  0.00000000000E+00  0.00000000000E+00  0.14667552555E+03  0.14667552557E+03  0.25500000920E-02 0.  1.
        2   -1    0    0  501    0  0.00000000000E+00  0.00000000000E+00 -0.42523373273E+03  0.42523373274E+03  0.25500000920E-02 0. -1.
    10030    2    1    2    0    0  0.00000000000E+00  0.00000000000E+00 -0.27855820719E+03  0.57190925831E+03  0.49948525999E+03 0.  0.
        3    1    3    3  502    0  0.21458579832E+03  0.66058255710E+02 -0.14056949387E+02  0.22496303255E+03  0.10100000352E+00 0.  1.
       -3    1    3    3    0  502 -0.21458579832E+03 -0.66058255710E+02 -0.26450125780E+03  0.34694622576E+03  0.10100000352E+00 0. -1.
</event>
<event>
 5   0  0.1211345E-01  0.5051035E+03  0.7818609E-02  0.1012455E+00
       -2   -1    0    0    0  501  0.00000000000E+00  0.00000000000E+00  0.17540115988E+03  0.17540115990E+03  0.25500000920E-02 0.  1.
        2   -1    0    0  501    0  0.00000000000E+00  0.00000000000E+00 -0.36363723436E+03  0.36363723437E+03  0.25500000920E-02 0. -1.
    10030    2    1    2    0    0  0.00000000000E+00  0.00000000000E+00 -0.18823607448E+03  0.53903839427E+03  0.50510352479E+03 0.  0.
        5    1    3    3  502    0  0.21293817128E+03 -0.59431683843E+02 -0.22432110049E+03  0.31498704093E+03  0.46999998093E+01 0. -1.
       -5    1    3    3    0  502 -0.21293817128E+03  0.59431683843E+02  0.36085026009E+02  0.22405135334E+03  0.46999998093E+01 0.  1.
</event>
<event>
 5   0  0.7602288E-02  0.5140366E+03  0.7818609E-02  0.1010179E+00
       -1   -1    0    0    0  501  0.00000000000E+00  0.00000000000E+00  0.80778819126E+02  0.80778819283E+02  0.50400001928E-02 0.  1.
        1   -1    0    0  501    0  0.00000000000E+00  0.00000000000E+00 -0.81776898608E+03  0.81776898609E+03  0.50400001928E-02 0. -1.
    10030    2    1    2    0    0  0.00000000000E+00  0.00000000000E+00 -0.73699016695E+03  0.89854780538E+03  0.51403662551E+03 0.  0.
        5    1    3    3  502    0 -0.49390074826E+02  0.24124402648E+03 -0.49692735247E+03  0.55461422938E+03  0.46999998093E+01 0. -1.
       -5    1    3    3    0  502  0.49390074826E+02 -0.24124402648E+03 -0.24006281448E+03  0.34393357600E+03  0.46999998093E+01 0.  1.
</event>
<event>
 5   0  0.1191894E-01  0.5420984E+03  0.7818609E-02  0.1003340E+00
        2   -1    0    0  501    0  0.00000000000E+00  0.00000000000E+00  0.13515861620E+04  0.13515861620E+04  0.25500000920E-02 0.  1.
       -2   -1    0    0    0  501  0.00000000000E+00  0.00000000000E+00 -0.54356626731E+02  0.54356626791E+02  0.25500000920E-02 0. -1.
    10030    2    1    2    0    0  0.00000000000E+00  0.00000000000E+00  0.12972295353E+04  0.14059427888E+04  0.54209838423E+03 0.  0.
        3    1    3    3  502    0  0.16866993195E+03 -0.70303475179E+02  0.12942135716E+03  0.22392414443E+03  0.10100000352E+00 0. -1.
       -3    1    3    3    0  502 -0.16866993195E+03  0.70303475179E+02  0.11678081781E+04  0.11820186444E+04  0.10100000352E+00 0.  1.
</event>
<event>
 5   0  0.1243803E-01  0.5023613E+03  0.7818609E-02  0.1013164E+00
        2   -1    0    0  501    0  0.00000000000E+00  0.00000000000E+00  0.22825698038E+03  0.22825698039E+03  0.25500000920E-02 0. -1.
       -2   -1    0    0    0  501  0.00000000000E+00  0.00000000000E+00 -0.27640650016E+03  0.27640650018E+03  0.25500000920E-02 0.  1.
    10030    2    1    2    0    0  0.00000000000E+00  0.00000000000E+00 -0.48149519788E+02  0.50466348057E+03  0.50236127673E+03 0.  0.
        4    1    3    3  502    0 -0.21054188895E+03  0.13572885774E+03 -0.55541558042E+01  0.25056470497E+03  0.12699999809E+01 0. -1.
       -4    1    3    3    0  502  0.21054188895E+03 -0.13572885774E+03 -0.42595363984E+02  0.25409877560E+03  0.12699999809E+01 0.  1.
</event>
<event>
 5   0  0.1211345E-01  0.4962687E+03  0.7818609E-02  0.1014757E+00
       -2   -1    0    0    0  501  0.00000000000E+00  0.00000000000E+00  0.18577598883E+03  0.18577598885E+03  0.25500000920E-02 0.  1.
        2   -1    0    0  501    0  0.00000000000E+00  0.00000000000E+00 -0.33142424780E+03  0.33142424781E+03  0.25500000920E-02 0. -1.
    10030    2    1    2    0    0  0.00000000000E+00  0.00000000000E+00 -0.14564825897E+03  0.51720023666E+03  0.49626874721E+03 0.  0.
        5    1    3    3  502    0  0.25337344404E+02 -0.89382112405E+02 -0.31256450351E+03  0.32611317344E+03  0.46999998093E+01 0. -1.
       -5    1    3    3    0  502 -0.25337344404E+02  0.89382112405E+02  0.16691624454E+03  0.19108706322E+03  0.46999998093E+01 0.  1.
</event>
<event>
 5   0  0.7602288E-02  0.5087382E+03  0.7818609E-02  0.1011523E+00
        1   -1    0    0  501    0  0.00000000000E+00  0.00000000000E+00  0.92001901583E+03  0.92001901585E+03  0.50400001928E-02 0. -1.
       -1   -1    0    0    0  501  0.00000000000E+00  0.00000000000E+00 -0.70328600110E+02  0.70328600290E+02  0.50400001928E-02 0.  1.
    10030    2    1    2    0    0  0.00000000000E+00  0.00000000000E+00  0.84969041572E+03  0.99034761614E+03  0.50873824135E+03 0.  0.
        5    1    3    3  502    0 -0.17876102032E+03 -0.12151333303E+03  0.68573272429E+03  0.71900796355E+03  0.46999998093E+01 0. -1.
       -5    1    3    3    0  502  0.17876102032E+03  0.12151333303E+03  0.16395769143E+03  0.27133965259E+03  0.46999998093E+01 0.  1.
</event>
<event>
 5   0  0.1191894E-01  0.5025059E+03  0.7818609E-02  0.1013127E+00
       -2   -1    0    0    0  501  0.00000000000E+00  0.00000000000E+00  0.11529837877E+03  0.11529837880E+03  0.25500000920E-02 0. -1.
        2   -1    0    0  501    0  0.00000000000E+00  0.00000000000E+00 -0.54751895512E+03  0.54751895513E+03  0.25500000920E-02 0.  1.
    10030    2    1    2    0    0  0.00000000000E+00  0.00000000000E+00 -0.43222057635E+03  0.66281733393E+03  0.50250591194E+03 0.  0.
        3    1    3    3  502    0  0.42986818213E+02 -0.24577094642E+03 -0.25516794468E+03  0.35687801114E+03  0.10100000352E+00 0. -1.
       -3    1    3    3    0  502 -0.42986818213E+02  0.24577094642E+03 -0.17705263167E+03  0.30593932279E+03  0.10100000352E+00 0.  1.
</event>
<event>
 5   0  0.1231822E-01  0.5011015E+03  0.7818609E-02  0.1013492E+00
       -2   -1    0    0    0  501  0.00000000000E+00  0.00000000000E+00  0.85719893326E+02  0.85719893364E+02  0.25500000920E-02 0. -1.
        2   -1    0    0  501    0  0.00000000000E+00  0.00000000000E+00 -0.73233491262E+03  0.73233491262E+03  0.25500000920E-02 0.  1.
    10030    2    1    2    0    0  0.00000000000E+00  0.00000000000E+00 -0.64661501929E+03  0.81805480599E+03  0.50110146919E+03 0.  0.
        1    1    3    3  502    0  0.96445450915E+01  0.12710324867E+03  0.28829115982E+02  0.13068806765E+03  0.50400001928E-02 0. -1.
       -1    1    3    3    0  502 -0.96445450915E+01 -0.12710324867E+03 -0.67544413528E+03  0.68736673834E+03  0.50400001928E-02 0.  1.
</event>
<event>
 5   0  0.1243803E-01  0.5007974E+03  0.7818609E-02  0.1013571E+00
       -2   -1    0    0    0  501  0.00000000000E+00  0.00000000000E+00  0.58703996396E+03  0.58703996397E+03  0.25500000920E-02 0. -1.
        2   -1    0    0  501    0  0.00000000000E+00  0.00000000000E+00 -0.10680618176E+03  0.10680618179E+03  0.25500000920E-02 0.  1.
    10030    2    1    2    0    0  0.00000000000E+00  0.00000000000E+00  0.48023378220E+03  0.69384614576E+03  0.50079735264E+03 0.  0.
        4    1    3    3  502    0 -0.27828013740E+02 -0.31357306622E+02 -0.10190437616E+03  0.11019888297E+03  0.12699999809E+01 0.  1.
       -4    1    3    3    0  502  0.27828013740E+02  0.31357306622E+02  0.58213815837E+03  0.58364726278E+03  0.12699999809E+01 0. -1.
</event>
<event>
 5   0  0.1231822E-01  0.4963418E+03  0.7818609E-02  0.1014738E+00
        2   -1    0    0  501    0  0.00000000000E+00  0.00000000000E+00  0.37122813975E+03  0.37122813975E+03  0.25500000920E-02 0. -1.
       -2   -1    0    0    0  501  0.00000000000E+00  0.00000000000E+00 -0.16590549851E+03  0.16590549853E+03  0.25500000920E-02 0.  1.
    10030    2    1    2    0    0  0.00000000000E+00  0.00000000000E+00  0.20532264123E+03  0.53713363829E+03  0.49634177577E+03 0.  0.
        1    1    3    3  502    0 -0.10060716639E+03 -0.18909284906E+03  0.23830570079E+03  0.32041771885E+03  0.50400001928E-02 0. -1.
       -1    1    3    3    0  502  0.10060716639E+03  0.18909284906E+03 -0.32983059556E+02  0.21671591944E+03  0.50400001928E-02 0.  1.
</event>
<event>
 5   0  0.1191894E-01  0.4971661E+03  0.7818609E-02  0.1014521E+00
       -2   -1    0    0    0  501  0.00000000000E+00  0.00000000000E+00  0.19023642698E+02  0.19023642869E+02  0.25500000920E-02 0.  1.
        2   -1    0    0  501    0  0.00000000000E+00  0.00000000000E+00 -0.32482496273E+04  0.32482496273E+04  0.25500000920E-02 0. -1.
    10030    2    1    2    0    0  0.00000000000E+00  0.00000000000E+00 -0.32292259846E+04  0.32672732702E+04  0.49716613153E+03 0.  0.
        3    1    3    3  502    0  0.24388156777E+03 -0.28819572902E+02 -0.18678397774E+04  0.18839146029E+04  0.10100000352E+00 0. -1.
       -3    1    3    3    0  502 -0.24388156777E+03  0.28819572902E+02 -0.13613862072E+04  0.13833586672E+04  0.10100000352E+00 0.  1.
</event>
<event>
 5   0  0.1279188E-01  0.4979670E+03  0.7818609E-02  0.1014311E+00
        2   -1    0    0  501    0  0.00000000000E+00  0.00000000000E+00  0.15586356389E+03  0.15586356391E+03  0.25500000920E-02 0. -1.
       -2   -1    0    0    0  501  0.00000000000E+00  0.00000000000E+00 -0.39773746714E+03  0.39773746715E+03  0.25500000920E-02 0.  1.
    10030    2    1    2    0    0  0.00000000000E+00  0.00000000000E+00 -0.24187390326E+03  0.55360103106E+03  0.49796698336E+03 0.  0.
        2    1    3    3  502    0  0.14225272695E+02 -0.13249665286E+03 -0.35475586652E+03  0.37895837006E+03  0.25500000920E-02 0.  1.
       -2    1    3    3    0  502 -0.14225272695E+02  0.13249665286E+03  0.11288196327E+03  0.17464266100E+03  0.25500000920E-02 0. -1.
</event>
<event>
 5   0  0.1231822E-01  0.5009906E+03  0.7818609E-02  0.1013521E+00
        2   -1    0    0  501    0  0.00000000000E+00  0.00000000000E+00  0.11421713324E+04  0.11421713324E+04  0.25500000920E-02 0.  1.
       -2   -1    0    0    0  501  0.00000000000E+00  0.00000000000E+00 -0.54937366857E+02  0.54937366916E+02  0.25500000920E-02 0. -1.
    10030    2    1    2    0    0  0.00000000000E+00  0.00000000000E+00  0.10872339656E+04  0.11971086993E+04  0.50099056095E+03 0.  0.
        1    1    3    3  502    0 -0.86799377331E+02  0.18665630280E+03  0.20255490333E+03  0.28879611522E+03  0.50400001928E-02 0. -1.
       -1    1    3    3    0  502  0.86799377331E+02 -0.18665630280E+03  0.88467906223E+03  0.90831258411E+03  0.50400001928E-02 0.  1.
</event>
<event>
 5   0  0.1279188E-01  0.5036594E+03  0.7818609E-02  0.1012828E+00
        2   -1    0    0  501    0  0.00000000000E+00  0.00000000000E+00  0.65877004040E+03  0.65877004041E+03  0.25500000920E-02 0. -1.
       -2   -1    0    0    0  501  0.00000000000E+00  0.00000000000E+00 -0.96267589515E+02  0.96267589549E+02  0.25500000920E-02 0.  1.
    10030    2    1    2    0    0  0.00000000000E+00  0.00000000000E+00  0.56250245089E+03  0.75503762996E+03  0.50365942401E+03 0.  0.
        2    1    3    3  502    0 -0.59064439736E+02  0.38375211129E+02 -0.81200079281E+02  0.10749287303E+03  0.25500000920E-02 0.  1.
       -2    1    3    3    0  502  0.59064439736E+02 -0.38375211129E+02  0.64370253017E+03  0.64754475692E+03  0.25500000920E-02 0. -1.
</event>
<event>
 5   0  0.7812547E-02  0.4968822E+03  0.7818609E-02  0.1014596E+00
        1   -1    0    0  501    0  0.00000000000E+00  0.00000000000E+00  0.25528663438E+03  0.25528663443E+03  0.50400001928E-02 0.  1.
       -1   -1    0    0    0  501  0.00000000000E+00  0.00000000000E+00 -0.24177910182E+03  0.24177910188E+03  0.50400001928E-02 0. -1.
    10030    2    1    2    0    0  0.00000000000E+00  0.00000000000E+00  0.13507532556E+02  0.49706573630E+03  0.49688217192E+03 0.  0.
        4    1    3    3  502    0  0.16157753266E+03 -0.12318430386E+03  0.14977402174E+03  0.25241937775E+03  0.12699999809E+01 0.  1.
       -4    1    3    3    0  502 -0.16157753266E+03  0.12318430386E+03 -0.13626648918E+03  0.24464635855E+03  0.12699999809E+01 0. -1.
</event>
<event>
 5   0  0.7781754E-02  0.4973654E+03  0.7818609E-02  0.1014469E+00
       -1   -1    0    0    0  501  0.00000000000E+00  0.00000000000E+00  0.48506916015E+02  0.48506916277E+02  0.50400001928E-02 0.  1.
        1   -1    0    0  501    0  0.00000000000E+00  0.00000000000E+00 -0.12749333011E+04  0.12749333011E+04  0.50400001928E-02 0. -1.
    10030    2    1    2    0    0  0.00000000000E+00  0.00000000000E+00 -0.12264263851E+04  0.13234402174E+04  0.49736538980E+03 0.  0.
        2    1    3    3  502    0 -0.23421113678E+03  0.79631464487E+02 -0.68089932576E+03  0.72444455865E+03  0.25500000920E-02 0.  1.
       -2    1    3    3    0  502  0.23421113678E+03 -0.79631464487E+02 -0.54552705933E+03  0.59899565875E+03  0.25500000920E-02 0. -1.
</event>
<event>
 5   0  0.7812547E-02  0.4959125E+03  0.7818609E-02  0.1014851E+00
        1   -1    0    0  501    0  0.00000000000E+00  0.00000000000E+00  0.85302208716E+03  0.85302208717E+03  0.50400001928E-02 0. -1.
       -1   -1    0    0    0  501  0.00000000000E+00  0.00000000000E+00 -0.72075851971E+02  0.72075852147E+02  0.50400001928E-02 0.  1.
    10030    2    1    2    0    0  0.00000000000E+00  0.00000000000E+00  0.78094623519E+03  0.92509793932E+03  0.49591246716E+03 0.  0.
        4    1    3    3  502    0  0.18358724014E+03  0.10367881381E+03  0.14705485740E+03  0.25706091722E+03  0.12699999809E+01 0.  1.
       -4    1    3    3    0  502 -0.18358724014E+03 -0.10367881381E+03  0.63389137778E+03  0.66803702210E+03  0.12699999809E+01 0. -1.
</event>
<event>
 5   0  0.5006750E-02  0.4976870E+03  0.7818609E-02  0.1014384E+00
       -3   -1    0    0    0  501  0.00000000000E+00  0.00000000000E+00  0.30061128760E+03  0.30061130457E+03  0.10100000352E+00 0. -1.
        3   -1    0    0  501    0  0.00000000000E+00  0.00000000000E+00 -0.20599053268E+03  0.20599055744E+03  0.10100000352E+00 0.  1.
    10030    2    1    2    0    0  0.00000000000E+00  0.00000000000E+00  0.94620754921E+02  0.50660186201E+03  0.49768700940E+03 0.  0.
        3    1    3    3  502    0  0.72602967214E+02 -0.21223808116E+03  0.15697545003E+03  0.27378366653E+03  0.10100000352E+00 0. -1.
       -3    1    3    3    0  502 -0.72602967214E+02  0.21223808116E+03 -0.62354695114E+02  0.23281819548E+03  0.10100000352E+00 0.  1.
</event>
<event>
 5   0  0.7602288E-02  0.4985527E+03  0.7818609E-02  0.1014157E+00
        1   -1    0    0  501    0  0.00000000000E+00  0.00000000000E+00  0.67825999711E+03  0.67825999713E+03  0.50400001928E-02 0. -1.
       -1   -1    0    0    0  501  0.00000000000E+00  0.00000000000E+00 -0.91614865624E+02  0.91614865763E+02  0.50400001928E-02 0.  1.
    10030    2    1    2    0    0  0.00000000000E+00  0.00000000000E+00  0.58664513149E+03  0.76987486289E+03  0.49855269954E+03 0.  0.
        5    1    3    3  502    0  0.23992181322E+03  0.20652491142E+02  0.19411193237E+03  0.30933886619E+03  0.46999998093E+01 0.  1.
       -5    1    3    3    0  502 -0.23992181322E+03 -0.20652491142E+02  0.39253319912E+03  0.46053599670E+03  0.46999998093E+01 0. -1.
</event>
<event>
 5   0  0.1191894E-01  0.5076664E+03  0.7818609E-02  0.1011797E+00
       -2   -1    0    0    0  501  0.00000000000E+00  0.00000000000E+00  0.65265171840E+02  0.65265171890E+02  0.25500000920E-02 0.  1.
        2   -1    0    0  501    0  0.00000000000E+00  0.00000000000E+00 -0.98722316763E+03  0.98722316763E+03  0.25500000920E-02 0. -1.
    10030    2    1    2    0    0  0.00000000000E+00  0.00000000000E+00 -0.92195799579E+03  0.10524883395E+04  0.50766638537E+03 0.  0.
        3    1    3    3  502    0  0.85298660134E+01  0.16123848818E+03 -0.54926691523E+02  0.17055075587E+03  0.10100000352E+00 0.  1.
       -3    1    3    3    0  502 -0.85298660134E+01 -0.16123848818E+03 -0.86703130426E+03  0.88193758365E+03  0.10100000352E+00 0. -1.
</event>
<event>
 5   0  0.7602288E-02  0.4967601E+03  0.7818609E-02  0.1014628E+00
       -1   -1    0    0    0  501  0.00000000000E+00  0.00000000000E+00  0.10594926343E+03  0.10594926355E+03  0.50400001928E-02 0.  1.
        1   -1    0    0  501    0  0.00000000000E+00  0.00000000000E+00 -0.58228494113E+03  0.58228494115E+03  0.50400001928E-02 0. -1.
    10030    2    1    2    0    0  0.00000000000E+00  0.00000000000E+00 -0.47633567770E+03  0.68823420470E+03  0.49676014601E+03 0.  0.
        5    1    3    3  502    0  0.19266079906E+03 -0.15333552848E+03 -0.28286006821E+03  0.37504916474E+03  0.46999998093E+01 0. -1.
       -5    1    3    3    0  502 -0.19266079906E+03  0.15333552848E+03 -0.19347560949E+03  0.31318503996E+03  0.46999998093E+01 0.  1.
</event>
<event>
 5   0  0.1191894E-01  0.4995851E+03  0.7818609E-02  0.1013887E+00
       -2   -1    0    0    0  501  0.00000000000E+00  0.00000000000E+00  0.84021668725E+03  0.84021668725E+03  0.25500000920E-02 0.  1.
        2   -1    0    0  501    0  0.00000000000E+00  0.00000000000E+00 -0.74262182381E+02  0.74262182425E+02  0.25500000920E-02 0. -1.
    10030    2    1    2    0    0  0.00000000000E+00  0.00000000000E+00  0.76595450487E+03  0.91447886968E+03  0.49958512744E+03 0.  0.
        3    1    3    3  502    0 -0.12780519788E+03  0.21277335893E+03  0.43441474538E+03  0.50032274792E+03  0.10100000352E+00 0.  1.
       -3    1    3    3    0  502  0.12780519788E+03 -0.21277335893E+03  0.33153975948E+03  0.41415612176E+03  0.10100000352E+00 0. -1.
</event>
<event>
 5   0  0.7531632E-02  0.5122868E+03  0.7818609E-02  0.1010621E+00
        1   -1    0    0  501    0  0.00000000000E+00  0.00000000000E+00  0.19742020412E+03  0.19742020418E+03  0.50400001928E-02 0. -1.
       -1   -1    0    0    0  501  0.00000000000E+00  0.00000000000E+00 -0.33233394761E+03  0.33233394765E+03  0.50400001928E-02 0.  1.
    10030    2    1    2    0    0  0.00000000000E+00  0.00000000000E+00 -0.13491374350E+03  0.52975415184E+03  0.51228677828E+03 0.  0.
        3    1    3    3  502    0 -0.12394215976E+03 -0.22380960216E+03 -0.54498494371E+02  0.26157693529E+03  0.10100000352E+00 0.  1.
       -3    1    3    3    0  502  0.12394215976E+03  0.22380960216E+03 -0.80415249125E+02  0.26817721655E+03  0.10100000352E+00 0. -1.
</event>
<event>
 5   0  0.7781754E-02  0.5049442E+03  0.7818609E-02  0.1012496E+00
       -1   -1    0    0    0  501  0.00000000000E+00  0.00000000000E+00  0.27691288451E+02  0.27691288909E+02  0.50400001928E-02 0. -1.
        1   -1    0    0  501    0  0.00000000000E+00  0.00000000000E+00 -0.23018853640E+04  0.23018853640E+04  0.50400001928E-02 0.  1.
    10030    2    1    2    0    0  0.00000000000E+00  0.00000000000E+00 -0.22741940755E+04  0.23295766529E+04  0.50494424300E+03 0.  0.
        2    1    3    3  502    0 -0.18612040107E+03  0.11552340144E+03 -0.55799832572E+03  0.59945691378E+03  0.25500000920E-02 0. -1.
       -2    1    3    3    0  502  0.18612040107E+03 -0.11552340144E+03 -0.17161957498E+04  0.17301197391E+04  0.25500000920E-02 0.  1.
</event>
<event>
 5   0  0.7602288E-02  0.5011265E+03  0.7818609E-02  0.1013485E+00
       -1   -1    0    0    0  501  0.00000000000E+00  0.00000000000E+00  0.11023792952E+03  0.11023792963E+03  0.50400001928E-02 0.  1.
        1   -1    0    0  501    0  0.00000000000E+00  0.00000000000E+00 -0.56951317114E+03  0.56951317116E+03  0.50400001928E-02 0. -1.
    10030    2    1    2    0    0  0.00000000000E+00  0.00000000000E+00 -0.45927524163E+03  0.67975110079E+03  0.50112654236E+03 0.  0.
        5    1    3    3  502    0 -0.44877747115E+01 -0.13471433120E+03  0.56799881202E+02  0.14634345785E+03  0.46999998093E+01 0.  1.
       -5    1    3    3    0  502  0.44877747115E+01  0.13471433120E+03 -0.51607512283E+03  0.53340764295E+03  0.46999998093E+01 0. -1.
</event>
<event>
 5   0  0.1243803E-01  0.4952731E+03  0.7818609E-02  0.1015020E+00
        2   -1    0    0  501    0  0.00000000000E+00  0.00000000000E+00  0.13936638949E+04  0.13936638949E+04  0.25500000920E-02 0. -1.
       -2   -1    0    0    0  501  0.00000000000E+00  0.00000000000E+00 -0.44001908063E+02  0.44001908137E+02  0.25500000920E-02 0.  1.
    10030    2    1    2    0    0  0.00000000000E+00  0.00000000000E+00  0.13496619868E+04  0.14376658030E+04  0.49527313931E+03 0.  0.
        4    1    3    3  502    0 -0.13333195735E+03  0.14670991681E+03  0.24407418423E+03  0.31444400272E+03  0.12699999809E+01 0. -1.
       -4    1    3    3    0  502  0.13333195735E+03 -0.14670991681E+03  0.11055878026E+04  0.11232218003E+04  0.12699999809E+01 0.  1.
</event>
<event>
 5   0  0.1243803E-01  0.5000652E+03  0.7818609E-02  0.1013762E+00
        2   -1    0    0  501    0  0.00000000000E+00  0.00000000000E+00  0.50780215607E+03  0.50780215608E+03  0.25500000920E-02 0. -1.
       -2   -1    0    0    0  501  0.00000000000E+00  0.00000000000E+00 -0.12311154275E+03  0.12311154277E+03  0.25500000920E-02 0.  1.
    10030    2    1    2    0    0  0.00000000000E+00  0.00000000000E+00  0.38469061333E+03  0.63091369885E+03  0.50006522317E+03 0.  0.
        4    1    3    3  502    0  0.19879486597E+03 -0.26344713169E+02  0.39335840384E+01  0.20057549360E+03  0.12699999809E+01 0.  1.
       -4    1    3    3    0  502 -0.19879486597E+03  0.26344713169E+02  0.38075702929E+03  0.43033820526E+03  0.12699999809E+01 0. -1.
</event>
<event>
 5   0  0.1191894E-01  0.4996047E+03  0.7818609E-02  0.1013882E+00
        2   -1    0    0  501    0  0.00000000000E+00  0.00000000000E+00  0.13579653247E+04  0.13579653247E+04  0.25500000920E-02 0. -1.
       -2   -1    0    0    0  501  0.00000000000E+00  0.00000000000E+00 -0.45951993516E+02  0.45951993587E+02  0.25500000920E-02 0.  1.
    10030    2    1    2    0    0  0.00000000000E+00  0.00000000000E+00  0.13120133312E+04  0.14039173183E+04  0.49960469912E+03 0.  0.
        3    1    3    3  502    0  0.72180301568E+02 -0.22571192567E+03  0.43393514689E+03  0.49442450509E+03  0.10100000352E+00 0.  1.
       -3    1    3    3    0  502 -0.72180301568E+02  0.22571192567E+03  0.87807818428E+03  0.90949281319E+03  0.10100000352E+00 0. -1.
</event>
<event>
 5   0  0.7812547E-02  0.5004439E+03  0.7818609E-02  0.1013663E+00
       -1   -1    0    0    0  501  0.00000000000E+00  0.00000000000E+00  0.80560100144E+02  0.80560100301E+02  0.50400001928E-02 0. -1.
        1   -1    0    0  501    0  0.00000000000E+00  0.00000000000E+00 -0.77719633060E+03  0.77719633062E+03  0.50400001928E-02 0.  1.
    10030    2    1    2    0    0  0.00000000000E+00  0.00000000000E+00 -0.69663623046E+03  0.85775643092E+03  0.50044386019E+03 0.  0.
        4    1    3    3  502    0  0.18938324048E+03 -0.11981052800E+03 -0.53909410337E+03  0.58381901270E+03  0.12699999809E+01 0.  1.
       -4    1    3    3    0  502 -0.18938324048E+03  0.11981052800E+03 -0.15754212709E+03  0.27393741822E+03  0.12699999809E+01 0. -1.
</event>
<event>
 5   0  0.1243803E-01  0.5027628E+03  0.7818609E-02  0.1013060E+00
       -2   -1    0    0    0  501  0.00000000000E+00  0.00000000000E+00  0.30767287837E+03  0.30767287838E+03  0.25500000920E-02 0.  1.
        2   -1    0    0  501    0  0.00000000000E+00  0.00000000000E+00 -0.20538892271E+03  0.20538892273E+03  0.25500000920E-02 0. -1.
    10030    2    1    2    0    0  0.00000000000E+00  0.00000000000E+00  0.10228395566E+03  0.51306180111E+03  0.50276277127E+03 0.  0.
        4    1    3    3  502    0 -0.15546284680E+03  0.16084902794E+02 -0.14977583350E+03  0.21647594331E+03  0.12699999809E+01 0. -1.
       -4    1    3    3    0  502  0.15546284680E+03 -0.16084902794E+02  0.25205978917E+03  0.29658585780E+03  0.12699999809E+01 0.  1.
</event>
<event>
 5   0  0.7812547E-02  0.5064498E+03  0.7818609E-02  0.1012109E+00
        1   -1    0    0  501    0  0.00000000000E+00  0.00000000000E+00  0.36640593561E+03  0.36640593564E+03  0.50400001928E-02 0.  1.
       -1   -1    0    0    0  501  0.00000000000E+00  0.00000000000E+00 -0.17500493615E+03  0.17500493623E+03  0.50400001928E-02 0. -1.
    10030    2    1    2    0    0  0.00000000000E+00  0.00000000000E+00  0.19140099945E+03  0.54141087187E+03  0.50644978980E+03 0.  0.
        4    1    3    3  502    0 -0.18966393778E+02 -0.24080994367E+03  0.17691934339E+03  0.29941813577E+03  0.12699999809E+01 0.  1.
       -4    1    3    3    0  502  0.18966393778E+02  0.24080994367E+03  0.14481656058E+02  0.24199273610E+03  0.12699999809E+01 0. -1.
</event>
<event>
 5   0  0.1231822E-01  0.5031190E+03  0.7818609E-02  0.1012968E+00
       -2   -1    0    0    0  501  0.00000000000E+00  0.00000000000E+00  0.83376583767E+02  0.83376583806E+02  0.25500000920E-02 0. -1.
        2   -1    0    0  501    0  0.00000000000E+00  0.00000000000E+00 -0.75899231330E+03  0.75899231331E+03  0.25500000920E-02 0.  1.
    10030    2    1    2    0    0  0.00000000000E+00  0.00000000000E+00 -0.67561572953E+03  0.84236889711E+03  0.50311901656E+03 0.  0.
        1    1    3    3  502    0  0.48972419878E+02 -0.19095773832E+03 -0.76172890411E+02  0.21134205685E+03  0.50400001928E-02 0. -1.
       -1    1    3    3    0  502 -0.48972419878E+02  0.19095773832E+03 -0.59944283912E+03  0.63102684027E+03  0.50400001928E-02 0.  1.
</event>
<event>
 5   0  0.1211345E-01  0.5033113E+03  0.7818609E-02  0.1012918E+00
       -2   -1    0    0    0  501  0.00000000000E+00  0.00000000000E+00  0.12908324005E+03  0.12908324007E+03  0.25500000920E-02 0.  1.
        2   -1    0    0  501    0  0.00000000000E+00  0.00000000000E+00 -0.49061794665E+03  0.49061794666E+03  0.25500000920E-02 0. -1.
    10030    2    1    2    0    0  0.00000000000E+00  0.00000000000E+00 -0.36153470660E+03  0.61970118673E+03  0.50331125236E+03 0.  0.
        5    1    3    3  502    0 -0.11909214324E+03 -0.22011029463E+03 -0.14873160835E+03  0.29116088629E+03  0.46999998093E+01 0.  1.
       -5    1    3    3    0  502  0.11909214324E+03  0.22011029463E+03 -0.21280309825E+03  0.32854030044E+03  0.46999998093E+01 0. -1.
</event>
<event>
 5   0  0.7812547E-02  0.4681222E+03  0.7818609E-02  0.1022452E+00
        1   -1    0    0  501    0  0.00000000000E+00  0.00000000000E+00  0.51426307940E+03  0.51426307943E+03  0.50400001928E-02 0.  1.
       -1   -1    0    0    0  501  0.00000000000E+00  0.00000000000E+00 -0.10653028188E+03  0.10653028200E+03  0.50400001928E-02 0. -1.
    10030    2    1    2    0    0  0.00000000000E+00  0.00000000000E+00  0.40773279752E+03  0.62079336143E+03  0.46812216720E+03 0.  0.
        4    1    3    3  502    0 -0.22672245599E+03 -0.58104767319E+02  0.20130111738E+03  0.30871182160E+03  0.12699999809E+01 0.  1.
       -4    1    3    3    0  502  0.22672245599E+03  0.58104767319E+02  0.20643168014E+03  0.31208153983E+03  0.12699999809E+01 0. -1.
</event>
<event>
 5   0  0.7812547E-02  0.4990157E+03  0.7818609E-02  0.1014036E+00
       -1   -1    0    0    0  501  0.00000000000E+00  0.00000000000E+00  0.76587064407E+02  0.76587064573E+02  0.50400001928E-02 0.  1.
        1   -1    0    0  501    0  0.00000000000E+00  0.00000000000E+00 -0.81285490612E+03  0.81285490614E+03  0.50400001928E-02 0. -1.
    10030    2    1    2    0    0  0.00000000000E+00  0.00000000000E+00 -0.73626784172E+03  0.88944197071E+03  0.49901571570E+03 0.  0.
        4    1    3    3  502    0 -0.42969346845E+02 -0.13008046930E+03 -0.73981842560E+03  0.75239631114E+03  0.12699999809E+01 0. -1.
       -4    1    3    3    0  502  0.42969346845E+02  0.13008046930E+03  0.35505838865E+01  0.13704565957E+03  0.12699999809E+01 0.  1.
</event>
<event>
 5   0  0.7812547E-02  0.5004767E+03  0.7818609E-02  0.1013655E+00
       -1   -1    0    0    0  501  0.00000000000E+00  0.00000000000E+00  0.18743442142E+03  0.18743442149E+03  0.50400001928E-02 0.  1.
        1   -1    0    0  501    0  0.00000000000E+00  0.00000000000E+00 -0.33408611289E+03  0.33408611293E+03  0.50400001928E-02 0. -1.
    10030    2    1    2    0    0  0.00000000000E+00  0.00000000000E+00 -0.14665169147E+03  0.52152053442E+03  0.50047672195E+03 0.  0.
        4    1    3    3  502    0  0.10767720017E+03 -0.16646504077E+03 -0.23243062089E+03  0.30550056574E+03  0.12699999809E+01 0. -1.
       -4    1    3    3    0  502 -0.10767720017E+03  0.16646504077E+03  0.85778929428E+02  0.21601996868E+03  0.12699999809E+01 0.  1.
</event>
<event>
 5   0  0.1243803E-01  0.4996873E+03  0.7818609E-02  0.1013861E+00
        2   -1    0    0  501    0  0.00000000000E+00  0.00000000000E+00  0.74518093809E+03  0.74518093809E+03  0.25500000920E-02 0.  1.
       -2   -1    0    0    0  501  0.00000000000E+00  0.00000000000E+00 -0.83767358142E+02  0.83767358181E+02  0.25500000920E-02 0. -1.
    10030    2    1    2    0    0  0.00000000000E+00  0.00000000000E+00  0.66141357994E+03  0.82894829627E+03  0.49968725635E+03 0.  0.
        4    1    3    3  502    0 -0.22139071833E+03 -0.62987918954E+02  0.49187886809E+03  0.54307251990E+03  0.12699999809E+01 0.  1.
       -4    1    3    3    0  502  0.22139071833E+03  0.62987918954E+02  0.16953471186E+03  0.28587577638E+03  0.12699999809E+01 0. -1.
</event>
<event>
 5   0  0.7416638E-02  0.4983648E+03  0.7818609E-02  0.1014207E+00
       -1   -1    0    0    0  501  0.00000000000E+00  0.00000000000E+00  0.90717304097E+02  0.90717304237E+02  0.50400001928E-02 0. -1.
        1   -1    0    0  501    0  0.00000000000E+00  0.00000000000E+00 -0.68445447334E+03  0.68445447336E+03  0.50400001928E-02 0.  1.
    10030    2    1    2    0    0  0.00000000000E+00  0.00000000000E+00 -0.59373716924E+03  0.77517177759E+03  0.49836478471E+03 0.  0.
        1    1    3    3  502    0  0.62534594806E+01  0.77047606706E+02  0.71595875151E+02  0.10536322327E+03  0.50400001928E-02 0. -1.
       -1    1    3    3    0  502 -0.62534594806E+01 -0.77047606706E+02 -0.66533304439E+03  0.66980855432E+03  0.50400001928E-02 0.  1.
</event>
<event>
 5   0  0.1231822E-01  0.5003921E+03  0.7818609E-02  0.1013677E+00
       -2   -1    0    0    0  501  0.00000000000E+00  0.00000000000E+00  0.58742292870E+02  0.58742292925E+02  0.25500000920E-02 0. -1.
        2   -1    0    0  501    0  0.00000000000E+00  0.00000000000E+00 -0.10656386038E+04  0.10656386038E+04  0.25500000920E-02 0.  1.
    10030    2    1    2    0    0  0.00000000000E+00  0.00000000000E+00 -0.10068963110E+04  0.11243808968E+04  0.50039206626E+03 0.  0.
        1    1    3    3  502    0  0.16272133996E+03  0.11059846972E+02 -0.77124712246E+02  0.18041279322E+03  0.50400001928E-02 0. -1.
       -1    1    3    3    0  502 -0.16272133996E+03 -0.11059846972E+02 -0.92977159872E+03  0.94396810355E+03  0.50400001928E-02 0.  1.
</event>
<event>
 5   0  0.7602288E-02  0.5011876E+03  0.7818609E-02  0.1013469E+00
        1   -1    0    0  501    0  0.00000000000E+00  0.00000000000E+00  0.21774430984E+03  0.21774430990E+03  0.50400001928E-02 0. -1.
       -1   -1    0    0    0  501  0.00000000000E+00  0.00000000000E+00 -0.28839905495E+03  0.28839905499E+03  0.50400001928E-02 0.  1.
    10030    2    1    2    0    0  0.00000000000E+00  0.00000000000E+00 -0.70654745114E+02  0.50614336489E+03  0.50118760242E+03 0.  0.
        5    1    3    3  502    0 -0.31723024005E+01  0.22723126234E+03  0.71219659353E+02  0.23819832066E+03  0.46999998093E+01 0. -1.
       -5    1    3    3    0  502  0.31723024005E+01 -0.22723126234E+03 -0.14187440447E+03  0.26794504423E+03  0.46999998093E+01 0.  1.
</event>
<event>
 5   0  0.7602288E-02  0.4989299E+03  0.7818609E-02  0.1014059E+00
       -1   -1    0    0    0  501  0.00000000000E+00  0.00000000000E+00  0.13417204319E+03  0.13417204329E+03  0.50400001928E-02 0.  1.
        1   -1    0    0  501    0  0.00000000000E+00  0.00000000000E+00 -0.46382811136E+03  0.46382811138E+03  0.50400001928E-02 0. -1.
    10030    2    1    2    0    0  0.00000000000E+00  0.00000000000E+00 -0.32965606816E+03  0.59800015467E+03  0.49892991663E+03 0.  0.
        5    1    3    3  502    0  0.18011129609E+02 -0.19153730642E+03 -0.35509339819E+03  0.40388655830E+03  0.46999998093E+01 0.  1.
       -5    1    3    3    0  502 -0.18011129609E+02  0.19153730642E+03  0.25437330025E+02  0.19411359637E+03  0.46999998093E+01 0. -1.
</event>
<event>
 5   0  0.1191894E-01  0.4752585E+03  0.7818609E-02  0.1020446E+00
       -2   -1    0    0    0  501  0.00000000000E+00  0.00000000000E+00  0.73412968412E+02  0.73412968456E+02  0.25500000920E-02 0.  1.
        2   -1    0    0  501    0  0.00000000000E+00  0.00000000000E+00 -0.76917819684E+03  0.76917819684E+03  0.25500000920E-02 0. -1.
    10030    2    1    2    0    0  0.00000000000E+00  0.00000000000E+00 -0.69576522842E+03  0.84259116530E+03  0.47525847573E+03 0.  0.
        3    1    3    3  502    0 -0.13721698147E+03  0.19053050938E+03 -0.41271567070E+03  0.47483113846E+03  0.10100000352E+00 0. -1.
       -3    1    3    3    0  502  0.13721698147E+03 -0.19053050938E+03 -0.28304955773E+03  0.36776002684E+03  0.10100000352E+00 0.  1.
</event>
<event>
 5   0  0.7416638E-02  0.4999678E+03  0.7818609E-02  0.1013787E+00
        1   -1    0    0  501    0  0.00000000000E+00  0.00000000000E+00  0.57051338056E+03  0.57051338058E+03  0.50400001928E-02 0.  1.
       -1   -1    0    0    0  501  0.00000000000E+00  0.00000000000E+00 -0.10953632545E+03  0.10953632557E+03  0.50400001928E-02 0. -1.
    10030    2    1    2    0    0  0.00000000000E+00  0.00000000000E+00  0.46097705511E+03  0.68004970615E+03  0.49996775646E+03 0.  0.
        1    1    3    3  502    0 -0.20415422564E+03 -0.11544204939E+03  0.34817517461E+03  0.41979967467E+03  0.50400001928E-02 0.  1.
       -1    1    3    3    0  502  0.20415422564E+03  0.11544204939E+03  0.11280188050E+03  0.26025003148E+03  0.50400001928E-02 0. -1.
</event>
<event>
 5   0  0.7602288E-02  0.5051284E+03  0.7818609E-02  0.1012449E+00
       -1   -1    0    0    0  501  0.00000000000E+00  0.00000000000E+00  0.35089984783E+02  0.35089985145E+02  0.50400001928E-02 0. -1.
        1   -1    0    0  501    0  0.00000000000E+00  0.00000000000E+00 -0.18178600330E+04  0.18178600330E+04  0.50400001928E-02 0.  1.
    10030    2    1    2    0    0  0.00000000000E+00  0.00000000000E+00 -0.17827700482E+04  0.18529500182E+04  0.50512842421E+03 0.  0.
        5    1    3    3  502    0 -0.13686004845E+03  0.13944512830E+02 -0.11459826745E+03  0.17910883619E+03  0.46999998093E+01 0. -1.
       -5    1    3    3    0  502  0.13686004845E+03 -0.13944512830E+02 -0.16681717808E+04  0.16738411820E+04  0.46999998093E+01 0.  1.
</event>
<event>
 5   0  0.5006750E-02  0.5007337E+03  0.7818609E-02  0.1013588E+00
       -3   -1    0    0    0  501  0.00000000000E+00  0.00000000000E+00  0.30124072280E+03  0.30124073974E+03  0.10100000352E+00 0.  1.
        3   -1    0    0  501    0  0.00000000000E+00  0.00000000000E+00 -0.20808459773E+03  0.20808462224E+03  0.10100000352E+00 0. -1.
    10030    2    1    2    0    0  0.00000000000E+00  0.00000000000E+00  0.93156125071E+02  0.50932536198E+03  0.50073372237E+03 0.  0.
        2    1    3    3  502    0  0.19481228880E+03  0.51939358593E+02  0.19756366360E+03  0.28227810050E+03  0.25500000920E-02 0.  1.
       -2    1    3    3    0  502 -0.19481228880E+03 -0.51939358593E+02 -0.10440753853E+03  0.22704726148E+03  0.25500000920E-02 0. -1.
</event>
<event>
 5   0  0.5006750E-02  0.5112941E+03  0.7818609E-02  0.1010872E+00
       -3   -1    0    0    0  501  0.00000000000E+00  0.00000000000E+00  0.51230930213E+02  0.51231029772E+02  0.10100000352E+00 0. -1.
        3   -1    0    0  501    0  0.00000000000E+00  0.00000000000E+00 -0.12757010650E+04  0.12757010690E+04  0.10100000352E+00 0.  1.
    10030    2    1    2    0    0  0.00000000000E+00  0.00000000000E+00 -0.12244701348E+04  0.13269320988E+04  0.51129412647E+03 0.  0.
        3    1    3    3  502    0  0.13718635423E+03 -0.11341803677E+03 -0.10884578682E+04  0.11029162652E+04  0.10100000352E+00 0.  1.
       -3    1    3    3    0  502 -0.13718635423E+03  0.11341803677E+03 -0.13601226655E+03  0.22401583360E+03  0.10100000352E+00 0. -1.
</event>
<event>
 5   0  0.1211345E-01  0.4977086E+03  0.7818609E-02  0.1014379E+00
       -2   -1    0    0    0  501  0.00000000000E+00  0.00000000000E+00  0.87774985232E+02  0.87774985269E+02  0.25500000920E-02 0.  1.
        2   -1    0    0  501    0  0.00000000000E+00  0.00000000000E+00 -0.70553663602E+03  0.70553663603E+03  0.25500000920E-02 0. -1.
    10030    2    1    2    0    0  0.00000000000E+00  0.00000000000E+00 -0.61776165079E+03  0.79331162129E+03  0.49770862088E+03 0.  0.
        5    1    3    3  502    0 -0.14931447002E+03 -0.18655231663E+03 -0.19833759205E+03  0.31057441655E+03  0.46999998093E+01 0. -1.
       -5    1    3    3    0  502  0.14931447002E+03  0.18655231663E+03 -0.41942405874E+03  0.48273720474E+03  0.46999998093E+01 0.  1.
</event>
<event>
 5   0  0.7416638E-02  0.5033300E+03  0.7818609E-02  0.1012913E+00
       -1   -1    0    0    0  501  0.00000000000E+00  0.00000000000E+00  0.99730871193E+02  0.99730871321E+02  0.50400001928E-02 0.  1.
        1   -1    0    0  501    0  0.00000000000E+00  0.00000000000E+00 -0.63506193313E+03  0.63506193315E+03  0.50400001928E-02 0. -1.
    10030    2    1    2    0    0  0.00000000000E+00  0.00000000000E+00 -0.53533106194E+03  0.73479280447E+03  0.50333003053E+03 0.  0.
        1    1    3    3  502    0 -0.22765592345E+02  0.15914319563E+03  0.14999695178E+02  0.16146151179E+03  0.50400001928E-02 0.  1.
       -1    1    3    3    0  502  0.22765592345E+02 -0.15914319563E+03 -0.55033075712E+03  0.57333129268E+03  0.50400001928E-02 0. -1.
</event>
<event>
 5   0  0.7602288E-02  0.5003433E+03  0.7818609E-02  0.1013689E+00
       -1   -1    0    0    0  501  0.00000000000E+00  0.00000000000E+00  0.12738177024E+03  0.12738177034E+03  0.50400001928E-02 0.  1.
        1   -1    0    0  501    0  0.00000000000E+00  0.00000000000E+00 -0.49132502193E+03  0.49132502196E+03  0.50400001928E-02 0. -1.
    10030    2    1    2    0    0  0.00000000000E+00  0.00000000000E+00 -0.36394325169E+03  0.61870679230E+03  0.50034328653E+03 0.  0.
        5    1    3    3  502    0 -0.60923011863E+02 -0.21778983671E+03 -0.49828427187E+02  0.23162251294E+03  0.46999998093E+01 0.  1.
       -5    1    3    3    0  502  0.60923011863E+02  0.21778983671E+03 -0.31411482450E+03  0.38708427935E+03  0.46999998093E+01 0. -1.
</event>
<event>
 5   0  0.7416638E-02  0.4991828E+03  0.7818609E-02  0.1013992E+00
        1   -1    0    0  501    0  0.00000000000E+00  0.00000000000E+00  0.70031371792E+03  0.70031371794E+03  0.50400001928E-02 0. -1.
       -1   -1    0    0    0  501  0.00000000000E+00  0.00000000000E+00 -0.88954218447E+02  0.88954218590E+02  0.50400001928E-02 0.  1.
    10030    2    1    2    0    0  0.00000000000E+00  0.00000000000E+00  0.61135949947E+03  0.78926793653E+03  0.49918277017E+03 0.  0.
        1    1    3    3  502    0 -0.21742448212E+03  0.10339981768E+02  0.11257882790E+03  0.24505981548E+03  0.50400001928E-02 0.  1.
       -1    1    3    3    0  502  0.21742448212E+03 -0.10339981768E+02  0.49878067158E+03  0.54420812105E+03  0.50400001928E-02 0. -1.
</event>
<event>
 5   0  0.1243803E-01  0.4961544E+03  0.7818609E-02  0.1014788E+00
       -2   -1    0    0    0  501  0.00000000000E+00  0.00000000000E+00  0.51644966614E+02  0.51644966677E+02  0.25500000920E-02 0.  1.
        2   -1    0    0  501    0  0.00000000000E+00  0.00000000000E+00 -0.11916417942E+04  0.11916417942E+04  0.25500000920E-02 0. -1.
    10030    2    1    2    0    0  0.00000000000E+00  0.00000000000E+00 -0.11399968276E+04  0.12432867609E+04  0.49615441435E+03 0.  0.
        4    1    3    3  502    0  0.49676906126E+02 -0.13655860685E+03 -0.10738208788E+04  0.10836092195E+04  0.12699999809E+01 0. -1.
       -4    1    3    3    0  502 -0.49676906126E+02  0.13655860685E+03 -0.66175948830E+02  0.15967754135E+03  0.12699999809E+01 0.  1.
</event>
<event>
 5   0  0.5006750E-02  0.4394568E+03  0.7818609E-02  0.1030914E+00
       -4   -1    0    0    0  501  0.00000000000E+00  0.00000000000E+00  0.20358069398E+03  0.20358465527E+03  0.12699999809E+01 0. -1.
        4   -1    0    0  501    0  0.00000000000E+00  0.00000000000E+00 -0.23714893593E+03  0.23715233651E+03  0.12699999809E+01 0.  1.
    10030    2    1    2    0    0  0.00000000000E+00  0.00000000000E+00 -0.33568241944E+02  0.44073699178E+03  0.43945678861E+03 0.  0.
        5    1    3    3  502    0  0.15395215301E+03  0.15572168866E+03  0.81600564776E+00  0.21902800185E+03  0.46999998093E+01 0.  1.
       -5    1    3    3    0  502 -0.15395215301E+03 -0.15572168866E+03 -0.34384247591E+02  0.22170898993E+03  0.46999998093E+01 0. -1.
</event>
<event>
 5   0  0.7602288E-02  0.4956324E+03  0.7818609E-02  0.1014925E+00
        1   -1    0    0  501    0  0.00000000000E+00  0.00000000000E+00  0.12776437930E+04  0.12776437930E+04  0.50400001928E-02 0.  1.
       -1   -1    0    0    0  501  0.00000000000E+00  0.00000000000E+00 -0.48067284142E+02  0.48067284406E+02  0.50400001928E-02 0. -1.
    10030    2    1    2    0    0  0.00000000000E+00  0.00000000000E+00  0.12295765088E+04  0.13257110774E+04  0.49563239366E+03 0.  0.
        5    1    3    3  502    0  0.12071836204E+03 -0.68772188765E+02  0.66044503921E+02  0.15390420195E+03  0.46999998093E+01 0. -1.
       -5    1    3    3    0  502 -0.12071836204E+03  0.68772188765E+02  0.11635320049E+04  0.11718068754E+04  0.46999998093E+01 0.  1.
</event>
<event>
 5   0  0.1231822E-01  0.4939881E+03  0.7818609E-02  0.1015360E+00
        2   -1    0    0  501    0  0.00000000000E+00  0.00000000000E+00  0.14104757076E+03  0.14104757079E+03  0.25500000920E-02 0. -1.
       -2   -1    0    0    0  501  0.00000000000E+00  0.00000000000E+00 -0.43252111717E+03  0.43252111718E+03  0.25500000920E-02 0.  1.
    10030    2    1    2    0    0  0.00000000000E+00  0.00000000000E+00 -0.29147354641E+03  0.57356868797E+03  0.49398806824E+03 0.  0.
        1    1    3    3  502    0 -0.91177540803E+02  0.94269807474E+02  0.97279490876E+02  0.16328943603E+03  0.50400001928E-02 0. -1.
       -1    1    3    3    0  502  0.91177540803E+02 -0.94269807474E+02 -0.38875303728E+03  0.41027925194E+03  0.50400001928E-02 0.  1.
</event>
<event>
 5   0  0.1243803E-01  0.4963400E+03  0.7818609E-02  0.1014739E+00
       -2   -1    0    0    0  501  0.00000000000E+00  0.00000000000E+00  0.12534092254E+03  0.12534092256E+03  0.25500000920E-02 0. -1.
        2   -1    0    0  501    0  0.00000000000E+00  0.00000000000E+00 -0.49136658385E+03  0.49136658386E+03  0.25500000920E-02 0.  1.
    10030    2    1    2    0    0  0.00000000000E+00  0.00000000000E+00 -0.36602566131E+03  0.61670750642E+03  0.49633996790E+03 0.  0.
        4    1    3    3  502    0 -0.18952024844E+03  0.61324027079E+02  0.89618054153E+00  0.19920084564E+03  0.12699999809E+01 0. -1.
       -4    1    3    3    0  502  0.18952024844E+03 -0.61324027079E+02 -0.36692184186E+03  0.41750666078E+03  0.12699999809E+01 0.  1.
</event>
<event>
 5   0  0.1243803E-01  0.4982814E+03  0.7818609E-02  0.1014228E+00
       -2   -1    0    0    0  501  0.00000000000E+00  0.00000000000E+00  0.45861476166E+02  0.45861476237E+02  0.25500000920E-02 0.  1.
        2   -1    0    0  501    0  0.00000000000E+00  0.00000000000E+00 -0.13534470680E+04  0.13534470680E+04  0.25500000920E-02 0. -1.
    10030    2    1    2    0    0  0.00000000000E+00  0.00000000000E+00 -0.13075855918E+04  0.13993085442E+04  0.49828136831E+03 0.  0.
        4    1    3    3  502    0  0.14704346932E+03 -0.19862161795E+03 -0.56511464991E+03  0.61678886941E+03  0.12699999809E+01 0.  1.
       -4    1    3    3    0  502 -0.14704346932E+03  0.19862161795E+03 -0.74247094189E+03  0.78251967479E+03  0.12699999809E+01 0. -1.
</event>
<event>
 5   0  0.1243803E-01  0.4988482E+03  0.7818609E-02  0.1014080E+00
       -2   -1    0    0    0  501  0.00000000000E+00  0.00000000000E+00  0.75226254640E+02  0.75226254683E+02  0.25500000920E-02 0. -1.
        2   -1    0    0  501    0  0.00000000000E+00  0.00000000000E+00 -0.82700366937E+03  0.82700366937E+03  0.25500000920E-02 0.  1.
    10030    2    1    2    0    0  0.00000000000E+00  0.00000000000E+00 -0.75177741473E+03  0.90222992406E+03  0.49884822799E+03 0.  0.
        4    1    3    3  502    0 -0.22526653436E+03  0.68049000590E+02 -0.22636117767E+03  0.32652208752E+03  0.12699999809E+01 0. -1.
       -4    1    3    3    0  502  0.22526653436E+03 -0.68049000590E+02 -0.52541623706E+03  0.57570783653E+03  0.12699999809E+01 0.  1.
</event>
<event>
 5   0  0.1191894E-01  0.5461645E+03  0.7818609E-02  0.1002386E+00
        2   -1    0    0  501    0  0.00000000000E+00  0.00000000000E+00  0.14270638235E+03  0.14270638237E+03  0.25500000920E-02 0. -1.
       -2   -1    0    0    0  501  0.00000000000E+00  0.00000000000E+00 -0.52256892278E+03  0.52256892278E+03  0.25500000920E-02 0.  1.
    10030    2    1    2    0    0  0.00000000000E+00  0.00000000000E+00 -0.37986254043E+03  0.66527530515E+03  0.54616451919E+03 0.  0.
        3    1    3    3  502    0  0.23286223039E+02  0.11589761521E+03  0.10992428502E+03  0.16142448399E+03  0.10100000352E+00 0. -1.
       -3    1    3    3    0  502 -0.23286223039E+02 -0.11589761521E+03 -0.48978682545E+03  0.50385082116E+03  0.10100000352E+00 0.  1.
</event>
<event>
 5   0  0.7531632E-02  0.4479313E+03  0.7818609E-02  0.1028341E+00
        1   -1    0    0  501    0  0.00000000000E+00  0.00000000000E+00  0.20954376344E+03  0.20954376350E+03  0.50400001928E-02 0. -1.
       -1   -1    0    0    0  501  0.00000000000E+00  0.00000000000E+00 -0.23938012605E+03  0.23938012611E+03  0.50400001928E-02 0.  1.
    10030    2    1    2    0    0  0.00000000000E+00  0.00000000000E+00 -0.29836362616E+02  0.44892388960E+03  0.44793130067E+03 0.  0.
        3    1    3    3  502    0 -0.50830720731E+02 -0.21782049587E+03 -0.26392207495E+02  0.22522453110E+03  0.10100000352E+00 0.  1.
       -3    1    3    3    0  502  0.50830720731E+02  0.21782049587E+03 -0.34441551211E+01  0.22369935851E+03  0.10100000352E+00 0. -1.
</event>
<event>
 5   0  0.7812547E-02  0.4912677E+03  0.7818609E-02  0.1016084E+00
        1   -1    0    0  501    0  0.00000000000E+00  0.00000000000E+00  0.13738054989E+03  0.13738054999E+03  0.50400001928E-02 0. -1.
       -1   -1    0    0    0  501  0.00000000000E+00  0.00000000000E+00 -0.43918867716E+03  0.43918867719E+03  0.50400001928E-02 0.  1.
    10030    2    1    2    0    0  0.00000000000E+00  0.00000000000E+00 -0.30180812727E+03  0.57656922718E+03  0.49126767454E+03 0.  0.
        4    1    3    3  502    0 -0.10449314626E+03  0.20639499387E+03 -0.24780300307E+03  0.33900686179E+03  0.12699999809E+01 0.  1.
       -4    1    3    3    0  502  0.10449314626E+03 -0.20639499387E+03 -0.54005124198E+02  0.23756236539E+03  0.12699999809E+01 0. -1.
</event>
<event>
 5   0  0.1191894E-01  0.4965288E+03  0.7818609E-02  0.1014689E+00
        2   -1    0    0  501    0  0.00000000000E+00  0.00000000000E+00  0.16092378321E+04  0.16092378321E+04  0.25500000920E-02 0.  1.
       -2   -1    0    0    0  501  0.00000000000E+00  0.00000000000E+00 -0.38300878831E+02  0.38300878916E+02  0.25500000920E-02 0. -1.
    10030    2    1    2    0    0  0.00000000000E+00  0.00000000000E+00  0.15709369533E+04  0.16475387110E+04  0.49652884424E+03 0.  0.
        3    1    3    3  502    0 -0.52820349934E+02  0.71311338070E+01 -0.19092599787E+02  0.56616075493E+02  0.10100000352E+00 0. -1.
       -3    1    3    3    0  502  0.52820349934E+02 -0.71311338070E+01  0.15900295531E+04  0.15909226356E+04  0.10100000352E+00 0.  1.
</event>
<event>
 5   0  0.1279188E-01  0.5097083E+03  0.7818609E-02  0.1011276E+00
       -2   -1    0    0    0  501  0.00000000000E+00  0.00000000000E+00  0.54997807848E+02  0.54997807907E+02  0.25500000920E-02 0.  1.
        2   -1    0    0  501    0  0.00000000000E+00  0.00000000000E+00 -0.11809677767E+04  0.11809677767E+04  0.25500000920E-02 0. -1.
    10030    2    1    2    0    0  0.00000000000E+00  0.00000000000E+00 -0.11259699688E+04  0.12359655846E+04  0.50970830440E+03 0.  0.
        2    1    3    3  502    0 -0.15504755778E+03  0.19920409495E+03 -0.64798007877E+03  0.69541368919E+03  0.25500000920E-02 0. -1.
       -2    1    3    3    0  502  0.15504755778E+03 -0.19920409495E+03 -0.47798989005E+03  0.54055189539E+03  0.25500000920E-02 0.  1.
</event>
<event>
 5   0  0.7416638E-02  0.4900600E+03  0.7818609E-02  0.1016406E+00
        1   -1    0    0  501    0  0.00000000000E+00  0.00000000000E+00  0.24474523189E+03  0.24474523194E+03  0.50400001928E-02 0.  1.
       -1   -1    0    0    0  501  0.00000000000E+00  0.00000000000E+00 -0.24531507439E+03  0.24531507444E+03  0.50400001928E-02 0. -1.
    10030    2    1    2    0    0  0.00000000000E+00  0.00000000000E+00 -0.56984249887E+00  0.49006030639E+03  0.49005997508E+03 0.  0.
        1    1    3    3  502    0 -0.17154012953E+03  0.58057594347E+02  0.16476971002E+03  0.24483822754E+03  0.50400001928E-02 0.  1.
       -1    1    3    3    0  502  0.17154012953E+03 -0.58057594347E+02 -0.16533955252E+03  0.24522207885E+03  0.50400001928E-02 0. -1.
</event>
<event>
 5   0  0.1231822E-01  0.5076417E+03  0.7818609E-02  0.1011803E+00
        2   -1    0    0  501    0  0.00000000000E+00  0.00000000000E+00  0.13302186263E+03  0.13302186265E+03  0.25500000920E-02 0.  1.
       -2   -1    0    0    0  501  0.00000000000E+00  0.00000000000E+00 -0.48431904497E+03  0.48431904498E+03  0.25500000920E-02 0. -1.
    10030    2    1    2    0    0  0.00000000000E+00  0.00000000000E+00 -0.35129718234E+03  0.61734090763E+03  0.50764169047E+03 0.  0.
        1    1    3    3  502    0 -0.22654004549E+02 -0.12411616040E+03  0.92188034909E+02  0.15625830858E+03  0.50400001928E-02 0.  1.
       -1    1    3    3    0  502  0.22654004549E+02  0.12411616040E+03 -0.44348521725E+03  0.46108259905E+03  0.50400001928E-02 0. -1.
</event>
<event>
 5   0  0.7781754E-02  0.4923966E+03  0.7818609E-02  0.1015783E+00
       -1   -1    0    0    0  501  0.00000000000E+00  0.00000000000E+00  0.61078780600E+02  0.61078780808E+02  0.50400001928E-02 0. -1.
        1   -1    0    0  501    0  0.00000000000E+00  0.00000000000E+00 -0.99238387004E+03  0.99238387006E+03  0.50400001928E-02 0.  1.
    10030    2    1    2    0    0  0.00000000000E+00  0.00000000000E+00 -0.93130508944E+03  0.10534626509E+04  0.49239657507E+03 0.  0.
        2    1    3    3  502    0  0.11501003687E+03 -0.11994751019E+03 -0.77006959202E+02  0.18315235613E+03  0.25500000920E-02 0. -1.
       -2    1    3    3    0  502 -0.11501003687E+03  0.11994751019E+03 -0.85429813024E+03  0.87031029474E+03  0.25500000920E-02 0.  1.
</event>
<event>
 5   0  0.1211345E-01  0.4965424E+03  0.7818609E-02  0.1014685E+00
        2   -1    0    0  501    0  0.00000000000E+00  0.00000000000E+00  0.17190223387E+03  0.17190223389E+03  0.25500000920E-02 0.  1.
       -2   -1    0    0    0  501  0.00000000000E+00  0.00000000000E+00 -0.35856764852E+03  0.35856764853E+03  0.25500000920E-02 0. -1.
    10030    2    1    2    0    0  0.00000000000E+00  0.00000000000E+00 -0.18666541465E+03  0.53046988242E+03  0.49654236388E+03 0.  0.
        5    1    3    3  502    0 -0.13847963988E+03 -0.13652385044E+03  0.71484707301E+02  0.20723784832E+03  0.46999998093E+01 0.  1.
       -5    1    3    3    0  502  0.13847963988E+03  0.13652385044E+03 -0.25815012195E+03  0.32323203409E+03  0.46999998093E+01 0. -1.
</event>
<event>
 5   0  0.5006750E-02  0.5054570E+03  0.7818609E-02  0.1012364E+00
        4   -1    0    0  501    0  0.00000000000E+00  0.00000000000E+00  0.18426680374E+03  0.18427118022E+03  0.12699999809E+01 0.  1.
       -4   -1    0    0    0  501  0.00000000000E+00  0.00000000000E+00 -0.34661649628E+03  0.34661882291E+03  0.12699999809E+01 0. -1.
    10030    2    1    2    0    0  0.00000000000E+00  0.00000000000E+00 -0.16234969254E+03  0.53089000313E+03  0.50545699397E+03 0.  0.
        3    1    3    3  502    0  0.11552187534E+03  0.21938479303E+03 -0.13259417949E+03  0.28116937552E+03  0.10100000352E+00 0. -1.
       -3    1    3    3    0  502 -0.11552187534E+03 -0.21938479303E+03 -0.29755513051E+02  0.24972062761E+03  0.10100000352E+00 0.  1.
</event>
<event>
 5   0  0.7416638E-02  0.5055298E+03  0.7818609E-02  0.1012346E+00
        1   -1    0    0  501    0  0.00000000000E+00  0.00000000000E+00  0.13100849004E+04  0.13100849004E+04  0.50400001928E-02 0. -1.
       -1   -1    0    0    0  501  0.00000000000E+00  0.00000000000E+00 -0.48767906503E+02  0.48767906764E+02  0.50400001928E-02 0.  1.
    10030    2    1    2    0    0  0.00000000000E+00  0.00000000000E+00  0.12613169939E+04  0.13588528072E+04  0.50552981364E+03 0.  0.
        1    1    3    3  502    0 -0.24903341293E+03 -0.43038756060E+02  0.61860064368E+03  0.66823403959E+03  0.50400001928E-02 0.  1.
       -1    1    3    3    0  502  0.24903341293E+03  0.43038756060E+02  0.64271635025E+03  0.69061876762E+03  0.50400001928E-02 0. -1.
</event>
<event>
 5   0  0.7602288E-02  0.4976829E+03  0.7818609E-02  0.1014385E+00
        1   -1    0    0  501    0  0.00000000000E+00  0.00000000000E+00  0.92205788867E+03  0.92205788868E+03  0.50400001928E-02 0.  1.
       -1   -1    0    0    0  501  0.00000000000E+00  0.00000000000E+00 -0.67156369622E+02  0.67156369811E+02  0.50400001928E-02 0. -1.
    10030    2    1    2    0    0  0.00000000000E+00  0.00000000000E+00  0.85490151905E+03  0.98921425849E+03  0.49768287286E+03 0.  0.
        5    1    3    3  502    0 -0.39076785324E+02 -0.80254213312E+02 -0.34145082181E+02  0.95685477168E+02  0.46999998093E+01 0. -1.
       -5    1    3    3    0  502  0.39076785324E+02  0.80254213312E+02  0.88904660123E+03  0.89352878132E+03  0.46999998093E+01 0.  1.
</event>
<event>
 5   0  0.1231822E-01  0.4944680E+03  0.7818609E-02  0.1015233E+00
        2   -1    0    0  501    0  0.00000000000E+00  0.00000000000E+00  0.21467508965E+03  0.21467508967E+03  0.25500000920E-02 0.  1.
       -2   -1    0    0    0  501  0.00000000000E+00  0.00000000000E+00 -0.28473101423E+03  0.28473101424E+03  0.25500000920E-02 0. -1.
    10030    2    1    2    0    0  0.00000000000E+00  0.00000000000E+00 -0.70055924577E+02  0.49940610391E+03  0.49446802126E+03 0.  0.
        1    1    3    3  502    0 -0.11694557738E+03  0.12770615112E+03  0.14319827623E+03  0.22470174775E+03  0.50400001928E-02 0.  1.
       -1    1    3    3    0  502  0.11694557738E+03 -0.12770615112E+03 -0.21325420081E+03  0.27470435615E+03  0.50400001928E-02 0. -1.
</event>
<event>
 5   0  0.7531632E-02  0.4987469E+03  0.7818609E-02  0.1014107E+00
       -1   -1    0    0    0  501  0.00000000000E+00  0.00000000000E+00  0.70087815336E+02  0.70087815517E+02  0.50400001928E-02 0.  1.
        1   -1    0    0  501    0  0.00000000000E+00  0.00000000000E+00 -0.88727434571E+03  0.88727434572E+03  0.50400001928E-02 0. -1.
    10030    2    1    2    0    0  0.00000000000E+00  0.00000000000E+00 -0.81718653037E+03  0.95736216124E+03  0.49874691212E+03 0.  0.
        3    1    3    3  502    0 -0.32932805152E+02  0.24594446167E+03 -0.36103438803E+03  0.43808570785E+03  0.10100000352E+00 0. -1.
       -3    1    3    3    0  502  0.32932805152E+02 -0.24594446167E+03 -0.45615214234E+03  0.51927645339E+03  0.10100000352E+00 0.  1.
</event>
<event>
 5   0  0.1279188E-01  0.4981150E+03  0.7818609E-02  0.1014272E+00
       -2   -1    0    0    0  501  0.00000000000E+00  0.00000000000E+00  0.62315250173E+02  0.62315250225E+02  0.25500000920E-02 0.  1.
        2   -1    0    0  501    0  0.00000000000E+00  0.00000000000E+00 -0.99541650303E+03  0.99541650303E+03  0.25500000920E-02 0. -1.
    10030    2    1    2    0    0  0.00000000000E+00  0.00000000000E+00 -0.93310125286E+03  0.10577317533E+04  0.49811496039E+03 0.  0.
        2    1    3    3  502    0 -0.33459148913E+02  0.12090848435E+03 -0.96777023220E+01  0.12582541144E+03  0.25500000920E-02 0.  1.
       -2    1    3    3    0  502  0.33459148913E+02 -0.12090848435E+03 -0.92342355054E+03  0.93190634182E+03  0.25500000920E-02 0. -1.
</event>
<event>
 5   0  0.7812547E-02  0.4978162E+03  0.7818609E-02  0.1014350E+00
       -1   -1    0    0    0  501  0.00000000000E+00  0.00000000000E+00  0.94005956885E+02  0.94005957020E+02  0.50400001928E-02 0. -1.
        1   -1    0    0  501    0  0.00000000000E+00  0.00000000000E+00 -0.65905649941E+03  0.65905649943E+03  0.50400001928E-02 0.  1.
    10030    2    1    2    0    0  0.00000000000E+00  0.00000000000E+00 -0.56505054253E+03  0.75306245645E+03  0.49781617863E+03 0.  0.
        4    1    3    3  502    0 -0.14997000756E+03 -0.13916423136E+03 -0.49697037082E+03  0.53743729758E+03  0.12699999809E+01 0. -1.
       -4    1    3    3    0  502  0.14997000756E+03  0.13916423136E+03 -0.68080171707E+02  0.21562515887E+03  0.12699999809E+01 0.  1.
</event>
<event>
 5   0  0.7602288E-02  0.4934089E+03  0.7818609E-02  0.1015514E+00
       -1   -1    0    0    0  501  0.00000000000E+00  0.00000000000E+00  0.96431170864E+03  0.96431170866E+03  0.50400001928E-02 0.  1.
        1   -1    0    0  501    0  0.00000000000E+00  0.00000000000E+00 -0.63115570392E+02  0.63115570593E+02  0.50400001928E-02 0. -1.
    10030    2    1    2    0    0  0.00000000000E+00  0.00000000000E+00  0.90119613825E+03  0.10274272792E+04  0.49340889184E+03 0.  0.
        5    1    3    3  502    0  0.35049401398E+02  0.24409587636E+03  0.46195306994E+03  0.52367354928E+03  0.46999998093E+01 0. -1.
       -5    1    3    3    0  502 -0.35049401398E+02 -0.24409587636E+03  0.43924306831E+03  0.50375372996E+03  0.46999998093E+01 0.  1.
</event>
<event>
 5   0  0.1211345E-01  0.5484633E+03  0.7818609E-02  0.1001850E+00
        2   -1    0    0  501    0  0.00000000000E+00  0.00000000000E+00  0.59471808748E+03  0.59471808749E+03  0.25500000920E-02 0.  1.
       -2   -1    0    0    0  501  0.00000000000E+00  0.00000000000E+00 -0.12645151051E+03  0.12645151053E+03  0.25500000920E-02 0. -1.
    10030    2    1    2    0    0  0.00000000000E+00  0.00000000000E+00  0.46826657698E+03  0.72116959802E+03  0.54846330961E+03 0.  0.
        5    1    3    3  502    0 -0.15034715921E+03  0.26640304786E+02 -0.65324165759E+02  0.16614244116E+03  0.46999998093E+01 0. -1.
       -5    1    3    3    0  502  0.15034715921E+03 -0.26640304786E+02  0.53359074274E+03  0.55502715686E+03  0.46999998093E+01 0.  1.
</event>
<event>
 5   0  0.7602288E-02  0.4940304E+03  0.7818609E-02  0.1015349E+00
       -1   -1    0    0    0  501  0.00000000000E+00  0.00000000000E+00  0.80144326097E+02  0.80144326255E+02  0.50400001928E-02 0. -1.
        1   -1    0    0  501    0  0.00000000000E+00  0.00000000000E+00 -0.76133297826E+03  0.76133297828E+03  0.50400001928E-02 0.  1.
    10030    2    1    2    0    0  0.00000000000E+00  0.00000000000E+00 -0.68118865217E+03  0.84147730454E+03  0.49403043854E+03 0.  0.
        5    1    3    3  502    0  0.13845500906E+03  0.36576647287E+02 -0.68331899104E+03  0.69817947133E+03  0.46999998093E+01 0.  1.
       -5    1    3    3    0  502 -0.13845500906E+03 -0.36576647287E+02  0.21303388772E+01  0.14329783321E+03  0.46999998093E+01 0. -1.
</event>
<event>
 5   0  0.5006750E-02  0.5009269E+03  0.7818609E-02  0.1013537E+00
       -4   -1    0    0    0  501  0.00000000000E+00  0.00000000000E+00  0.42038900639E+03  0.42039092472E+03  0.12699999809E+01 0. -1.
        4   -1    0    0  501    0  0.00000000000E+00  0.00000000000E+00 -0.14921857222E+03  0.14922397661E+03  0.12699999809E+01 0.  1.
    10030    2    1    2    0    0  0.00000000000E+00  0.00000000000E+00  0.27117043416E+03  0.56961490134E+03  0.50092687237E+03 0.  0.
        1    1    3    3  502    0 -0.11736426030E+03 -0.61508954450E+02 -0.10610123346E+03  0.16975038392E+03  0.50400001928E-02 0.  1.
       -1    1    3    3    0  502  0.11736426030E+03  0.61508954450E+02  0.37727166763E+03  0.39986451742E+03  0.50400001928E-02 0. -1.
</event>
<event>
 5   0  0.1231822E-01  0.5088003E+03  0.7818609E-02  0.1011507E+00
       -2   -1    0    0    0  501  0.00000000000E+00  0.00000000000E+00  0.28923134179E+02  0.28923134291E+02  0.25500000920E-02 0. -1.
        2   -1    0    0  501    0  0.00000000000E+00  0.00000000000E+00 -0.22376352765E+04  0.22376352765E+04  0.25500000920E-02 0.  1.
    10030    2    1    2    0    0  0.00000000000E+00  0.00000000000E+00 -0.22087121423E+04  0.22665584108E+04  0.50880025737E+03 0.  0.
        1    1    3    3  502    0  0.11309998473E+03 -0.51775094544E+02 -0.20929323424E+04  0.20966253974E+04  0.50400001928E-02 0.  1.
       -1    1    3    3    0  502 -0.11309998473E+03  0.51775094544E+02 -0.11577979993E+03  0.16993301344E+03  0.50400001928E-02 0. -1.
</event>
<event>
 5   0  0.7812547E-02  0.5155755E+03  0.7818609E-02  0.1009792E+00
       -1   -1    0    0    0  501  0.00000000000E+00  0.00000000000E+00  0.26238860417E+03  0.26238860422E+03  0.50400001928E-02 0. -1.
        1   -1    0    0  501    0  0.00000000000E+00  0.00000000000E+00 -0.25326752788E+03  0.25326752793E+03  0.50400001928E-02 0.  1.
    10030    2    1    2    0    0  0.00000000000E+00  0.00000000000E+00  0.91210762885E+01  0.51565613214E+03  0.51557545770E+03 0.  0.
        4    1    3    3  502    0 -0.20630037153E+03 -0.74876521366E+01 -0.14985595180E+03  0.25509670209E+03  0.12699999809E+01 0.  1.
       -4    1    3    3    0  502  0.20630037153E+03  0.74876521366E+01  0.15897702809E+03  0.26055943005E+03  0.12699999809E+01 0. -1.
</event>
<event>
 5   0  0.1231822E-01  0.5026526E+03  0.7818609E-02  0.1013089E+00
       -2   -1    0    0    0  501  0.00000000000E+00  0.00000000000E+00  0.32509110926E+03  0.32509110927E+03  0.25500000920E-02 0.  1.
        2   -1    0    0  501    0  0.00000000000E+00  0.00000000000E+00 -0.19429908322E+03  0.19429908324E+03  0.25500000920E-02 0. -1.
    10030    2    1    2    0    0  0.00000000000E+00  0.00000000000E+00  0.13079202604E+03  0.51939019251E+03  0.50265258182E+03 0.  0.
        1    1    3    3  502    0 -0.90464162422E+02  0.65469086015E+02 -0.16725670342E+03  0.20110885304E+03  0.50400001928E-02 0. -1.
       -1    1    3    3    0  502  0.90464162422E+02 -0.65469086015E+02  0.29804872945E+03  0.31828133948E+03  0.50400001928E-02 0.  1.
</event>
<event>
 5   0  0.1231822E-01  0.5069785E+03  0.7818609E-02  0.1011973E+00
       -2   -1    0    0    0  501  0.00000000000E+00  0.00000000000E+00  0.13599244950E+03  0.13599244953E+03  0.25500000920E-02 0. -1.
        2   -1    0    0  501    0  0.00000000000E+00  0.00000000000E+00 -0.47250266413E+03  0.47250266413E+03  0.25500000920E-02 0.  1.
    10030    2    1    2    0    0  0.00000000000E+00  0.00000000000E+00 -0.33651021462E+03  0.60849511366E+03  0.50697847963E+03 0.  0.
        1    1    3    3  502    0 -0.18184648682E+03 -0.13162644854E+03 -0.30957333633E+03  0.38239942117E+03  0.50400001928E-02 0.  1.
       -1    1    3    3    0  502  0.18184648682E+03  0.13162644854E+03 -0.26936878295E+02  0.22609569249E+03  0.50400001928E-02 0. -1.
</event>
<event>
 5   0  0.7812547E-02  0.4965250E+03  0.7818609E-02  0.1014690E+00
       -1   -1    0    0    0  501  0.00000000000E+00  0.00000000000E+00  0.14041501451E+03  0.14041501460E+03  0.50400001928E-02 0.  1.
        1   -1    0    0  501    0  0.00000000000E+00  0.00000000000E+00 -0.43894361784E+03  0.43894361787E+03  0.50400001928E-02 0. -1.
    10030    2    1    2    0    0  0.00000000000E+00  0.00000000000E+00 -0.29852860333E+03  0.57935863246E+03  0.49652502253E+03 0.  0.
        4    1    3    3  502    0 -0.21171293561E+03 -0.93399177643E+01  0.16270059631E+01  0.21192890604E+03  0.12699999809E+01 0.  1.
       -4    1    3    3    0  502  0.21171293561E+03  0.93399177643E+01 -0.30015560930E+03  0.36742972642E+03  0.12699999809E+01 0. -1.
</event>
<event>
 5   0  0.7531632E-02  0.4994512E+03  0.7818609E-02  0.1013922E+00
        1   -1    0    0  501    0  0.00000000000E+00  0.00000000000E+00  0.63622259711E+03  0.63622259713E+03  0.50400001928E-02 0.  1.
       -1   -1    0    0    0  501  0.00000000000E+00  0.00000000000E+00 -0.98020526070E+02  0.98020526199E+02  0.50400001928E-02 0. -1.
    10030    2    1    2    0    0  0.00000000000E+00  0.00000000000E+00  0.53820207104E+03  0.73424312333E+03  0.49945119370E+03 0.  0.
        3    1    3    3  502    0 -0.17561092890E+03 -0.18516507921E+02  0.52869254736E+03  0.55740279802E+03  0.10100000352E+00 0.  1.
       -3    1    3    3    0  502  0.17561092890E+03  0.18516507921E+02  0.95095236867E+01  0.17684032531E+03  0.10100000352E+00 0. -1.
</event>
<event>
 5   0  0.5006750E-02  0.5090752E+03  0.7818609E-02  0.1011437E+00
        3   -1    0    0  501    0  0.00000000000E+00  0.00000000000E+00  0.51985448583E+02  0.51985546697E+02  0.10100000352E+00 0.  1.
       -3   -1    0    0    0  501  0.00000000000E+00  0.00000000000E+00 -0.12462974552E+04  0.12462974593E+04  0.10100000352E+00 0. -1.
    10030    2    1    2    0    0  0.00000000000E+00  0.00000000000E+00 -0.11943120066E+04  0.12982830060E+04  0.50907523461E+03 0.  0.
        4    1    3    3  502    0 -0.55308610152E+02  0.22670927801E+03 -0.33793381404E+03  0.41067872439E+03  0.12699999809E+01 0.  1.
       -4    1    3    3    0  502  0.55308610152E+02 -0.22670927801E+03 -0.85637819261E+03  0.88760428163E+03  0.12699999809E+01 0. -1.
</event>
<event>
 5   0  0.1243803E-01  0.5066728E+03  0.7818609E-02  0.1012052E+00
        2   -1    0    0  501    0  0.00000000000E+00  0.00000000000E+00  0.60047565048E+03  0.60047565048E+03  0.25500000920E-02 0.  1.
       -2   -1    0    0    0  501  0.00000000000E+00  0.00000000000E+00 -0.10688084343E+03  0.10688084346E+03  0.25500000920E-02 0. -1.
    10030    2    1    2    0    0  0.00000000000E+00  0.00000000000E+00  0.49359480705E+03  0.70735649394E+03  0.50667284906E+03 0.  0.
        4    1    3    3  502    0 -0.23547420865E+02  0.21522664095E+03  0.43042717384E+03  0.48181547597E+03  0.12699999809E+01 0.  1.
       -4    1    3    3    0  502  0.23547420865E+02 -0.21522664095E+03  0.63167633212E+02  0.22554101797E+03  0.12699999809E+01 0. -1.
</event>
<event>
 5   0  0.7812547E-02  0.4991116E+03  0.7818609E-02  0.1014011E+00
       -1   -1    0    0    0  501  0.00000000000E+00  0.00000000000E+00  0.12616875364E+03  0.12616875374E+03  0.50400001928E-02 0.  1.
        1   -1    0    0  501    0  0.00000000000E+00  0.00000000000E+00 -0.49360953036E+03  0.49360953039E+03  0.50400001928E-02 0. -1.
    10030    2    1    2    0    0  0.00000000000E+00  0.00000000000E+00 -0.36744077672E+03  0.61977828413E+03  0.49911160784E+03 0.  0.
        4    1    3    3  502    0 -0.22276934464E+03 -0.23121264300E+02 -0.47037808864E+02  0.22885572341E+03  0.12699999809E+01 0.  1.
       -4    1    3    3    0  502  0.22276934464E+03  0.23121264300E+02 -0.32040296786E+03  0.39092256073E+03  0.12699999809E+01 0. -1.
</event>
<event>
 5   0  0.7416638E-02  0.5005788E+03  0.7818609E-02  0.1013628E+00
        1   -1    0    0  501    0  0.00000000000E+00  0.00000000000E+00  0.55058573393E+03  0.55058573395E+03  0.50400001928E-02 0.  1.
       -1   -1    0    0    0  501  0.00000000000E+00  0.00000000000E+00 -0.11377843841E+03  0.11377843852E+03  0.50400001928E-02 0. -1.
    10030    2    1    2    0    0  0.00000000000E+00  0.00000000000E+00  0.43680729552E+03  0.66436417247E+03  0.50057880524E+03 0.  0.
        1    1    3    3  502    0 -0.16799221569E+02  0.24212954562E+03  0.29952379185E+03  0.38551709770E+03  0.50400001928E-02 0.  1.
       -1    1    3    3    0  502  0.16799221569E+02 -0.24212954562E+03  0.13728350367E+03  0.27884707478E+03  0.50400001928E-02 0. -1.
</event>
<event>
 5   0  0.7602288E-02  0.4994223E+03  0.7818609E-02  0.1013930E+00
       -1   -1    0    0    0  501  0.00000000000E+00  0.00000000000E+00  0.59635198726E+03  0.59635198729E+03  0.50400001928E-02 0. -1.
        1   -1    0    0  501    0  0.00000000000E+00  0.00000000000E+00 -0.10456185423E+03  0.10456185435E+03  0.50400001928E-02 0.  1.
    10030    2    1    2    0    0  0.00000000000E+00  0.00000000000E+00  0.49179013304E+03  0.70091384163E+03  0.49942234476E+03 0.  0.
        5    1    3    3  502    0  0.18885994179E+03 -0.14280821207E+03  0.13475362404E+03  0.27247548924E+03  0.46999998093E+01 0. -1.
       -5    1    3    3    0  502 -0.18885994179E+03  0.14280821207E+03  0.35703650899E+03  0.42843835239E+03  0.46999998093E+01 0.  1.
</event>
<event>
 5   0  0.1243803E-01  0.4951243E+03  0.7818609E-02  0.1015059E+00
        2   -1    0    0  501    0  0.00000000000E+00  0.00000000000E+00  0.16383953158E+03  0.16383953160E+03  0.25500000920E-02 0.  1.
       -2   -1    0    0    0  501  0.00000000000E+00  0.00000000000E+00 -0.37406737417E+03  0.37406737418E+03  0.25500000920E-02 0. -1.
    10030    2    1    2    0    0  0.00000000000E+00  0.00000000000E+00 -0.21022784259E+03  0.53790690578E+03  0.49512432124E+03 0.  0.
        4    1    3    3  502    0 -0.90710576421E+02  0.22368913102E+03 -0.45409172538E+02  0.24561930271E+03  0.12699999809E+01 0.  1.
       -4    1    3    3    0  502  0.90710576421E+02 -0.22368913102E+03 -0.16481867006E+03  0.29228760307E+03  0.12699999809E+01 0. -1.
</event>
<event>
 5   0  0.1279188E-01  0.4987548E+03  0.7818609E-02  0.1014104E+00
        2   -1    0    0  501    0  0.00000000000E+00  0.00000000000E+00  0.13708109185E+04  0.13708109185E+04  0.25500000920E-02 0. -1.
       -2   -1    0    0    0  501  0.00000000000E+00  0.00000000000E+00 -0.45366637996E+02  0.45366638068E+02  0.25500000920E-02 0.  1.
    10030    2    1    2    0    0  0.00000000000E+00  0.00000000000E+00  0.13254442805E+04  0.14161775566E+04  0.49875478045E+03 0.  0.
        2    1    3    3  502    0 -0.98206593965E+02 -0.16465319828E+03  0.20989038317E+03  0.28426956178E+03  0.25500000920E-02 0.  1.
       -2    1    3    3    0  502  0.98206593965E+02  0.16465319828E+03  0.11155538974E+04  0.11319079948E+04  0.25500000920E-02 0. -1.
</event>
<event>
 5   0  0.7602288E-02  0.5006694E+03  0.7818609E-02  0.1013604E+00
       -1   -1    0    0    0  501  0.00000000000E+00  0.00000000000E+00  0.10942048679E+03  0.10942048690E+03  0.50400001928E-02 0. -1.
        1   -1    0    0  501    0  0.00000000000E+00  0.00000000000E+00 -0.57272158254E+03  0.57272158256E+03  0.50400001928E-02 0.  1.
    10030    2    1    2    0    0  0.00000000000E+00  0.00000000000E+00 -0.46330109575E+03  0.68214206946E+03  0.50066944945E+03 0.  0.
        5    1    3    3  502    0 -0.24666167030E+03 -0.42277783203E+02 -0.22620175481E+03  0.33737029275E+03  0.46999998093E+01 0.  1.
       -5    1    3    3    0  502  0.24666167030E+03  0.42277783203E+02 -0.23709934094E+03  0.34477177672E+03  0.46999998093E+01 0. -1.
</event>
<event>
 5   0  0.7416638E-02  0.5001688E+03  0.7818609E-02  0.1013735E+00
       -1   -1    0    0    0  501  0.00000000000E+00  0.00000000000E+00  0.11715901585E+03  0.11715901596E+03  0.50400001928E-02 0.  1.
        1   -1    0    0  501    0  0.00000000000E+00  0.00000000000E+00 -0.53382323788E+03  0.53382323791E+03  0.50400001928E-02 0. -1.
    10030    2    1    2    0    0  0.00000000000E+00  0.00000000000E+00 -0.41666422204E+03  0.65098225386E+03  0.50016879243E+03 0.  0.
        1    1    3    3  502    0  0.28619049974E+02  0.18738019005E+03 -0.42065159198E+03  0.46138719911E+03  0.50400001928E-02 0. -1.
       -1    1    3    3    0  502 -0.28619049974E+02 -0.18738019005E+03  0.39873699405E+01  0.18959505475E+03  0.50400001928E-02 0.  1.
</event>
<event>
 5   0  0.1191894E-01  0.4992296E+03  0.7818609E-02  0.1013980E+00
        2   -1    0    0  501    0  0.00000000000E+00  0.00000000000E+00  0.34397920555E+03  0.34397920556E+03  0.25500000920E-02 0.  1.
       -2   -1    0    0    0  501  0.00000000000E+00  0.00000000000E+00 -0.18113751559E+03  0.18113751561E+03  0.25500000920E-02 0. -1.
    10030    2    1    2    0    0  0.00000000000E+00  0.00000000000E+00  0.16284168995E+03  0.52511672117E+03  0.49922956129E+03 0.  0.
        3    1    3    3  502    0  0.78983136398E+02 -0.22218428528E+03  0.16754025581E+03  0.28926448102E+03  0.10100000352E+00 0.  1.
       -3    1    3    3    0  502 -0.78983136398E+02  0.22218428528E+03 -0.46985658615E+01  0.23585224015E+03  0.10100000352E+00 0. -1.
</event>
<event>
 5   0  0.1243803E-01  0.5122527E+03  0.7818609E-02  0.1010629E+00
        2   -1    0    0  501    0  0.00000000000E+00  0.00000000000E+00  0.60577777783E+03  0.60577777784E+03  0.25500000920E-02 0. -1.
       -2   -1    0    0    0  501  0.00000000000E+00  0.00000000000E+00 -0.10829168828E+03  0.10829168831E+03  0.25500000920E-02 0.  1.
    10030    2    1    2    0    0  0.00000000000E+00  0.00000000000E+00  0.49748608956E+03  0.71406946615E+03  0.51225266537E+03 0.  0.
        4    1    3    3  502    0  0.14908492844E+03 -0.35881253419E+02 -0.37227614352E+02  0.15780142079E+03  0.12699999809E+01 0.  1.
       -4    1    3    3    0  502 -0.14908492844E+03  0.35881253419E+02  0.53471370391E+03  0.55626804535E+03  0.12699999809E+01 0. -1.
</event>
<event>
 5   0  0.1243803E-01  0.4073822E+03  0.7818609E-02  0.1041253E+00
        2   -1    0    0  501    0  0.00000000000E+00  0.00000000000E+00  0.95460959539E+03  0.95460959540E+03  0.25500000920E-02 0. -1.
       -2   -1    0    0    0  501  0.00000000000E+00  0.00000000000E+00 -0.43462860401E+02  0.43462860475E+02  0.25500000920E-02 0.  1.
    10030    2    1    2    0    0  0.00000000000E+00  0.00000000000E+00  0.91114673499E+03  0.99807245587E+03  0.40738219706E+03 0.  0.
        4    1    3    3  502    0  0.59453255508E+01 -0.13670558707E+03  0.85923240908E+02  0.16158026074E+03  0.12699999809E+01 0.  1.
       -4    1    3    3    0  502 -0.59453255508E+01  0.13670558707E+03  0.82522349409E+03  0.83649219514E+03  0.12699999809E+01 0. -1.
</event>
<event>
 5   0  0.7531632E-02  0.4943742E+03  0.7818609E-02  0.1015258E+00
        1   -1    0    0  501    0  0.00000000000E+00  0.00000000000E+00  0.73879765146E+03  0.73879765148E+03  0.50400001928E-02 0.  1.
       -1   -1    0    0    0  501  0.00000000000E+00  0.00000000000E+00 -0.82703934933E+02  0.82703935086E+02  0.50400001928E-02 0. -1.
    10030    2    1    2    0    0  0.00000000000E+00  0.00000000000E+00  0.65609371653E+03  0.82150158656E+03  0.49437424271E+03 0.  0.
        3    1    3    3  502    0 -0.11455190572E+03 -0.12805598731E+03  0.32745512817E+02  0.17490784374E+03  0.10100000352E+00 0. -1.
       -3    1    3    3    0  502  0.11455190572E+03  0.12805598731E+03  0.62334820371E+03  0.64659374282E+03  0.10100000352E+00 0.  1.
</event>
<event>
 5   0  0.7531632E-02  0.4983417E+03  0.7818609E-02  0.1014213E+00
        1   -1    0    0  501    0  0.00000000000E+00  0.00000000000E+00  0.76818678164E+03  0.76818678166E+03  0.50400001928E-02 0.  1.
       -1   -1    0    0    0  501  0.00000000000E+00  0.00000000000E+00 -0.80821636752E+02  0.80821636909E+02  0.50400001928E-02 0. -1.
    10030    2    1    2    0    0  0.00000000000E+00  0.00000000000E+00  0.68736514489E+03  0.84900841856E+03  0.49834170244E+03 0.  0.
        3    1    3    3  502    0  0.13302729844E+02  0.69455386706E+02  0.75073102531E+03  0.75405443831E+03  0.10100000352E+00 0.  1.
       -3    1    3    3    0  502 -0.13302729844E+02 -0.69455386706E+02 -0.63365880425E+02  0.94953980258E+02  0.10100000352E+00 0. -1.
</event>
<event>
 5   0  0.7416638E-02  0.4943193E+03  0.7818609E-02  0.1015272E+00
       -1   -1    0    0    0  501  0.00000000000E+00  0.00000000000E+00  0.14512130494E+03  0.14512130502E+03  0.50400001928E-02 0.  1.
        1   -1    0    0  501    0  0.00000000000E+00  0.00000000000E+00 -0.42094359535E+03  0.42094359538E+03  0.50400001928E-02 0. -1.
    10030    2    1    2    0    0  0.00000000000E+00  0.00000000000E+00 -0.27582229042E+03  0.56606490041E+03  0.49431926483E+03 0.  0.
        1    1    3    3  502    0  0.65115519926E+01 -0.10776924540E+03 -0.39251184279E+03  0.40708986393E+03  0.50400001928E-02 0. -1.
       -1    1    3    3    0  502 -0.65115519926E+01  0.10776924540E+03  0.11668955237E+03  0.15897503647E+03  0.50400001928E-02 0.  1.
</event>
<event>
 5   0  0.5006750E-02  0.4942327E+03  0.7818609E-02  0.1015295E+00
       -4   -1    0    0    0  501  0.00000000000E+00  0.00000000000E+00  0.14693285211E+03  0.14693834057E+03  0.12699999809E+01 0.  1.
        4   -1    0    0  501    0  0.00000000000E+00  0.00000000000E+00 -0.41559392431E+03  0.41559586478E+03  0.12699999809E+01 0. -1.
    10030    2    1    2    0    0  0.00000000000E+00  0.00000000000E+00 -0.26866107220E+03  0.56253420534E+03  0.49423269870E+03 0.  0.
        1    1    3    3  502    0  0.17854810860E+03 -0.16401932408E+03 -0.18873497856E+03  0.30725015527E+03  0.50400001928E-02 0. -1.
       -1    1    3    3    0  502 -0.17854810860E+03  0.16401932408E+03 -0.79926093639E+02  0.25528405008E+03  0.50400001928E-02 0.  1.
</event>
<event>
 5   0  0.1191894E-01  0.4976738E+03  0.7818609E-02  0.1014388E+00
        2   -1    0    0  501    0  0.00000000000E+00  0.00000000000E+00  0.30445233710E+03  0.30445233711E+03  0.25500000920E-02 0. -1.
       -2   -1    0    0    0  501  0.00000000000E+00  0.00000000000E+00 -0.20338092523E+03  0.20338092524E+03  0.25500000920E-02 0.  1.
    10030    2    1    2    0    0  0.00000000000E+00  0.00000000000E+00  0.10107141187E+03  0.50783326235E+03  0.49767378076E+03 0.  0.
        3    1    3    3  502    0 -0.32934766392E+02 -0.62263244456E+02 -0.19299581791E+03  0.20544781912E+03  0.10100000352E+00 0.  1.
       -3    1    3    3    0  502  0.32934766392E+02  0.62263244456E+02  0.29406722978E+03  0.30238544324E+03  0.10100000352E+00 0. -1.
</event>
<event>
 5   0  0.1191894E-01  0.4992248E+03  0.7818609E-02  0.1013981E+00
        2   -1    0    0  501    0  0.00000000000E+00  0.00000000000E+00  0.63230077432E+03  0.63230077433E+03  0.25500000920E-02 0.  1.
       -2   -1    0    0    0  501  0.00000000000E+00  0.00000000000E+00 -0.98539083074E+02  0.98539083107E+02  0.25500000920E-02 0. -1.
    10030    2    1    2    0    0  0.00000000000E+00  0.00000000000E+00  0.53376169125E+03  0.73083985744E+03  0.49922475316E+03 0.  0.
        3    1    3    3  502    0 -0.76291413694E+02 -0.23741192977E+03  0.25074256004E+03  0.35363349080E+03  0.10100000352E+00 0. -1.
       -3    1    3    3    0  502  0.76291413694E+02  0.23741192977E+03  0.28301913121E+03  0.37720636664E+03  0.10100000352E+00 0.  1.
</event>
<event>
 5   0  0.5006750E-02  0.5069991E+03  0.7818609E-02  0.1011968E+00
        3   -1    0    0  501    0  0.00000000000E+00  0.00000000000E+00  0.85762139054E+03  0.85762139649E+03  0.10100000352E+00 0. -1.
       -3   -1    0    0    0  501  0.00000000000E+00  0.00000000000E+00 -0.74930477123E+02  0.74930545192E+02  0.10100000352E+00 0.  1.
    10030    2    1    2    0    0  0.00000000000E+00  0.00000000000E+00  0.78269091342E+03  0.93255194168E+03  0.50699907099E+03 0.  0.
        1    1    3    3  502    0 -0.12038059016E+03 -0.11183294454E+03  0.36278596769E+02  0.16826832911E+03  0.50400001928E-02 0.  1.
       -1    1    3    3    0  502  0.12038059016E+03  0.11183294454E+03  0.74641231665E+03  0.76428361257E+03  0.50400001928E-02 0. -1.
</event>
<event>
 5   0  0.7531632E-02  0.4271428E+03  0.7818609E-02  0.1034766E+00
       -1   -1    0    0    0  501  0.00000000000E+00  0.00000000000E+00  0.19047183141E+03  0.19047183147E+03  0.50400001928E-02 0. -1.
        1   -1    0    0  501    0  0.00000000000E+00  0.00000000000E+00 -0.23947238702E+03  0.23947238708E+03  0.50400001928E-02 0.  1.
    10030    2    1    2    0    0  0.00000000000E+00  0.00000000000E+00 -0.49000555615E+02  0.42994421855E+03  0.42714280588E+03 0.  0.
        3    1    3    3  502    0 -0.11375266714E+03  0.26696312247E+02  0.15544685332E+03  0.19446361299E+03  0.10100000352E+00 0. -1.
       -3    1    3    3    0  502  0.11375266714E+03 -0.26696312247E+02 -0.20444740894E+03  0.23548060555E+03  0.10100000352E+00 0.  1.
</event>
<event>
 5   0  0.1243803E-01  0.4926458E+03  0.7818609E-02  0.1015716E+00
       -2   -1    0    0    0  501  0.00000000000E+00  0.00000000000E+00  0.28537175475E+02  0.28537175589E+02  0.25500000920E-02 0.  1.
        2   -1    0    0  501    0  0.00000000000E+00  0.00000000000E+00 -0.21261732211E+04  0.21261732211E+04  0.25500000920E-02 0. -1.
    10030    2    1    2    0    0  0.00000000000E+00  0.00000000000E+00 -0.20976360456E+04  0.21547103967E+04  0.49264582989E+03 0.  0.
        4    1    3    3  502    0  0.14541648617E+03  0.15939112517E+03 -0.15685750372E+04  0.15833447968E+04  0.12699999809E+01 0. -1.
       -4    1    3    3    0  502 -0.14541648617E+03 -0.15939112517E+03 -0.52906100841E+03  0.57136559991E+03  0.12699999809E+01 0.  1.
</event>
<event>
 5   0  0.1231822E-01  0.4782388E+03  0.7818609E-02  0.1019620E+00
       -2   -1    0    0    0  501  0.00000000000E+00  0.00000000000E+00  0.24289787202E+02  0.24289787336E+02  0.25500000920E-02 0.  1.
        2   -1    0    0  501    0  0.00000000000E+00  0.00000000000E+00 -0.23539971472E+04  0.23539971472E+04  0.25500000920E-02 0. -1.
    10030    2    1    2    0    0  0.00000000000E+00  0.00000000000E+00 -0.23297073600E+04  0.23782869345E+04  0.47823881039E+03 0.  0.
        1    1    3    3  502    0 -0.10818907410E+03  0.99192060077E+02 -0.21036094745E+04  0.21087239653E+04  0.50400001928E-02 0. -1.
       -1    1    3    3    0  502  0.10818907410E+03 -0.99192060077E+02 -0.22609788545E+03  0.26956296921E+03  0.50400001928E-02 0.  1.
</event>
<event>
 5   0  0.1243803E-01  0.5120153E+03  0.7818609E-02  0.1010689E+00
       -2   -1    0    0    0  501  0.00000000000E+00  0.00000000000E+00  0.35532243876E+02  0.35532243968E+02  0.25500000920E-02 0. -1.
        2   -1    0    0  501    0  0.00000000000E+00  0.00000000000E+00 -0.18445193546E+04  0.18445193546E+04  0.25500000920E-02 0.  1.
    10030    2    1    2    0    0  0.00000000000E+00  0.00000000000E+00 -0.18089871107E+04  0.18800515986E+04  0.51201527957E+03 0.  0.
        4    1    3    3  502    0  0.13801414071E+03  0.66741738549E+02 -0.16573240604E+04  0.16643998969E+04  0.12699999809E+01 0.  1.
       -4    1    3    3    0  502 -0.13801414071E+03 -0.66741738549E+02 -0.15166305031E+03  0.21565170166E+03  0.12699999809E+01 0. -1.
</event>
<event>
 5   0  0.5006750E-02  0.5015473E+03  0.7818609E-02  0.1013376E+00
        3   -1    0    0  501    0  0.00000000000E+00  0.00000000000E+00  0.40308005916E+03  0.40308007181E+03  0.10100000352E+00 0. -1.
       -3   -1    0    0    0  501  0.00000000000E+00  0.00000000000E+00 -0.15601716188E+03  0.15601719457E+03  0.10100000352E+00 0.  1.
    10030    2    1    2    0    0  0.00000000000E+00  0.00000000000E+00  0.24706289728E+03  0.55909726638E+03  0.50154728398E+03 0.  0.
        1    1    3    3  502    0 -0.73397379686E+01  0.11160710908E+03  0.37373493954E+03  0.39011257812E+03  0.50400001928E-02 0. -1.
       -1    1    3    3    0  502  0.73397379686E+01 -0.11160710908E+03 -0.12667204226E+03  0.16898468826E+03  0.50400001928E-02 0.  1.
</event>
<event>
 5   0  0.7602288E-02  0.5011607E+03  0.7818609E-02  0.1013476E+00
        1   -1    0    0  501    0  0.00000000000E+00  0.00000000000E+00  0.12670688726E+03  0.12670688736E+03  0.50400001928E-02 0. -1.
       -1   -1    0    0    0  501  0.00000000000E+00  0.00000000000E+00 -0.49555712241E+03  0.49555712244E+03  0.50400001928E-02 0.  1.
    10030    2    1    2    0    0  0.00000000000E+00  0.00000000000E+00 -0.36885023515E+03  0.62226400979E+03  0.50116065479E+03 0.  0.
        5    1    3    3  502    0  0.17347445735E+03 -0.31280994058E+02  0.36631501840E+02  0.18009954155E+03  0.46999998093E+01 0. -1.
       -5    1    3    3    0  502 -0.17347445735E+03  0.31280994058E+02 -0.40548173699E+03  0.44216446824E+03  0.46999998093E+01 0.  1.
</event>
<event>
 5   0  0.1231822E-01  0.4984532E+03  0.7818609E-02  0.1014183E+00
       -2   -1    0    0    0  501  0.00000000000E+00  0.00000000000E+00  0.29088689072E+03  0.29088689073E+03  0.25500000920E-02 0. -1.
        2   -1    0    0  501    0  0.00000000000E+00  0.00000000000E+00 -0.21353285372E+03  0.21353285373E+03  0.25500000920E-02 0.  1.
    10030    2    1    2    0    0  0.00000000000E+00  0.00000000000E+00  0.77354036997E+02  0.50441974446E+03  0.49845323909E+03 0.  0.
        1    1    3    3  502    0 -0.43223512683E+02 -0.45947594371E+02 -0.20531996412E+03  0.21479232102E+03  0.50400001928E-02 0.  1.
       -1    1    3    3    0  502  0.43223512683E+02  0.45947594371E+02  0.28267400112E+03  0.28962742344E+03  0.50400001928E-02 0. -1.
</event>
<event>
 5   0  0.1191894E-01  0.5041435E+03  0.7818609E-02  0.1012703E+00
       -2   -1    0    0    0  501  0.00000000000E+00  0.00000000000E+00  0.43719800730E+03  0.43719800731E+03  0.25500000920E-02 0. -1.
        2   -1    0    0  501    0  0.00000000000E+00  0.00000000000E+00 -0.14533496595E+03  0.14533496597E+03  0.25500000920E-02 0.  1.
    10030    2    1    2    0    0  0.00000000000E+00  0.00000000000E+00  0.29186304135E+03  0.58253297328E+03  0.50414346177E+03 0.  0.
        3    1    3    3  502    0 -0.10930852956E+03 -0.17739554082E+03  0.30984270198E+03  0.37338993386E+03  0.10100000352E+00 0. -1.
       -3    1    3    3    0  502  0.10930852956E+03  0.17739554082E+03 -0.17979660636E+02  0.20914303941E+03  0.10100000352E+00 0.  1.
</event>
<event>
 5   0  0.7812547E-02  0.4716532E+03  0.7818609E-02  0.1021455E+00
        1   -1    0    0  501    0  0.00000000000E+00  0.00000000000E+00  0.24235455629E+03  0.24235455634E+03  0.50400001928E-02 0.  1.
       -1   -1    0    0    0  501  0.00000000000E+00  0.00000000000E+00 -0.22947450816E+03  0.22947450822E+03  0.50400001928E-02 0. -1.
    10030    2    1    2    0    0  0.00000000000E+00  0.00000000000E+00  0.12880048126E+02  0.47182906456E+03  0.47165323122E+03 0.  0.
        4    1    3    3  502    0 -0.16136942720E+03  0.14056529530E+03  0.10554201240E+03  0.23861983061E+03  0.12699999809E+01 0.  1.
       -4    1    3    3    0  502  0.16136942720E+03 -0.14056529530E+03 -0.92661964271E+02  0.23320923395E+03  0.12699999809E+01 0. -1.
</event>
<event>
 5   0  0.5006750E-02  0.4980335E+03  0.7818609E-02  0.1014293E+00
       -3   -1    0    0    0  501  0.00000000000E+00  0.00000000000E+00  0.27771672681E+03  0.27771674517E+03  0.10100000352E+00 0. -1.
        3   -1    0    0  501    0  0.00000000000E+00  0.00000000000E+00 -0.22328270037E+03  0.22328272321E+03  0.10100000352E+00 0.  1.
    10030    2    1    2    0    0  0.00000000000E+00  0.00000000000E+00  0.54434026443E+02  0.50099946838E+03  0.49803353711E+03 0.  0.
        3    1    3    3  502    0  0.63953381120E+02  0.55810426883E+01 -0.21481540552E+03  0.22420270213E+03  0.10100000352E+00 0.  1.
       -3    1    3    3    0  502 -0.63953381120E+02 -0.55810426883E+01  0.26924943196E+03  0.27679676625E+03  0.10100000352E+00 0. -1.
</event>
<event>
 5   0  0.1211345E-01  0.4886896E+03  0.7818609E-02  0.1016774E+00
        2   -1    0    0  501    0  0.00000000000E+00  0.00000000000E+00  0.11081067880E+04  0.11081067880E+04  0.25500000920E-02 0. -1.
       -2   -1    0    0    0  501  0.00000000000E+00  0.00000000000E+00 -0.53879618438E+02  0.53879618498E+02  0.25500000920E-02 0.  1.
    10030    2    1    2    0    0  0.00000000000E+00  0.00000000000E+00  0.10542271696E+04  0.11619864065E+04  0.48868955775E+03 0.  0.
        5    1    3    3  502    0 -0.21876217195E+03 -0.75932582502E+02  0.71220712277E+03  0.74892170531E+03  0.46999998093E+01 0.  1.
       -5    1    3    3    0  502  0.21876217195E+03  0.75932582502E+02  0.34202004680E+03  0.41306470120E+03  0.46999998093E+01 0. -1.
</event>
<event>
 5   0  0.1279188E-01  0.5067148E+03  0.7818609E-02  0.1012041E+00
       -2   -1    0    0    0  501  0.00000000000E+00  0.00000000000E+00  0.26594676828E+02  0.26594676950E+02  0.25500000920E-02 0. -1.
        2   -1    0    0  501    0  0.00000000000E+00  0.00000000000E+00 -0.24136398409E+04  0.24136398409E+04  0.25500000920E-02 0.  1.
    10030    2    1    2    0    0  0.00000000000E+00  0.00000000000E+00 -0.23870451641E+04  0.24402345179E+04  0.50671479828E+03 0.  0.
        2    1    3    3  502    0  0.17180538013E+03  0.91784250631E+02 -0.41329642150E+03  0.45689754796E+03  0.25500000920E-02 0. -1.
       -2    1    3    3    0  502 -0.17180538013E+03 -0.91784250631E+02 -0.19737487426E+04  0.19833369699E+04  0.25500000920E-02 0.  1.
</event>
<event>
 5   0  0.1279188E-01  0.4917786E+03  0.7818609E-02  0.1015947E+00
        2   -1    0    0  501    0  0.00000000000E+00  0.00000000000E+00  0.46755572477E+03  0.46755572477E+03  0.25500000920E-02 0. -1.
       -2   -1    0    0    0  501  0.00000000000E+00  0.00000000000E+00 -0.12931409104E+03  0.12931409106E+03  0.25500000920E-02 0.  1.
    10030    2    1    2    0    0  0.00000000000E+00  0.00000000000E+00  0.33824163373E+03  0.59686981584E+03  0.49177858257E+03 0.  0.
        2    1    3    3  502    0  0.31875074070E+02  0.21799921876E+03  0.30164101745E+03  0.37353310849E+03  0.25500000920E-02 0. -1.
       -2    1    3    3    0  502 -0.31875074070E+02 -0.21799921876E+03  0.36600616279E+02  0.22333670734E+03  0.25500000920E-02 0.  1.
</event>
<event>
 5   0  0.7531632E-02  0.5052219E+03  0.7818609E-02  0.1012425E+00
        1   -1    0    0  501    0  0.00000000000E+00  0.00000000000E+00  0.11618621644E+03  0.11618621655E+03  0.50400001928E-02 0.  1.
       -1   -1    0    0    0  501  0.00000000000E+00  0.00000000000E+00 -0.54922426412E+03  0.54922426415E+03  0.50400001928E-02 0. -1.
    10030    2    1    2    0    0  0.00000000000E+00  0.00000000000E+00 -0.43303804769E+03  0.66541048069E+03  0.50522188895E+03 0.  0.
        3    1    3    3  502    0  0.17437815931E+00 -0.20676131764E+03 -0.40766156117E+03  0.45709761707E+03  0.10100000352E+00 0. -1.
       -3    1    3    3    0  502 -0.17437815931E+00  0.20676131764E+03 -0.25376486522E+02  0.20831286362E+03  0.10100000352E+00 0.  1.
</event>
<event>
 5   0  0.7781754E-02  0.4985755E+03  0.7818609E-02  0.1014151E+00
       -1   -1    0    0    0  501  0.00000000000E+00  0.00000000000E+00  0.31744722031E+03  0.31744722035E+03  0.50400001928E-02 0.  1.
        1   -1    0    0  501    0  0.00000000000E+00  0.00000000000E+00 -0.19576286334E+03  0.19576286340E+03  0.50400001928E-02 0. -1.
    10030    2    1    2    0    0  0.00000000000E+00  0.00000000000E+00  0.12168435697E+03  0.51321008375E+03  0.49857547806E+03 0.  0.
        2    1    3    3  502    0 -0.18299067892E+03 -0.25896573453E+02  0.23304941899E+03  0.29743613228E+03  0.25500000920E-02 0.  1.
       -2    1    3    3    0  502  0.18299067892E+03  0.25896573453E+02 -0.11136506202E+03  0.21577395147E+03  0.25500000920E-02 0. -1.
</event>
<event>
 5   0  0.1231822E-01  0.4965352E+03  0.7818609E-02  0.1014687E+00
       -2   -1    0    0    0  501  0.00000000000E+00  0.00000000000E+00  0.33965375396E+03  0.33965375397E+03  0.25500000920E-02 0. -1.
        2   -1    0    0  501    0  0.00000000000E+00  0.00000000000E+00 -0.18146949386E+03  0.18146949388E+03  0.25500000920E-02 0.  1.
    10030    2    1    2    0    0  0.00000000000E+00  0.00000000000E+00  0.15818426010E+03  0.52112324785E+03  0.49653517429E+03 0.  0.
        1    1    3    3  502    0  0.20484532919E+02  0.24741302927E+03  0.77000540388E+02  0.25992673273E+03  0.50400001928E-02 0.  1.
       -1    1    3    3    0  502 -0.20484532919E+02 -0.24741302927E+03  0.81183719716E+02  0.26119651512E+03  0.50400001928E-02 0. -1.
</event>
<event>
 5   0  0.5006750E-02  0.5003284E+03  0.7818609E-02  0.1013693E+00
        4   -1    0    0  501    0  0.00000000000E+00  0.00000000000E+00  0.41960646543E+03  0.41960838735E+03  0.12699999809E+01 0. -1.
       -4   -1    0    0    0  501  0.00000000000E+00  0.00000000000E+00 -0.14913984889E+03  0.14914525613E+03  0.12699999809E+01 0.  1.
    10030    2    1    2    0    0  0.00000000000E+00  0.00000000000E+00  0.27046661654E+03  0.56875364348E+03  0.50032840845E+03 0.  0.
        4    1    3    3  502    0 -0.80138383604E+02 -0.16829861742E+03  0.32488481721E+03  0.37456420345E+03  0.12699999809E+01 0. -1.
       -4    1    3    3    0  502  0.80138383604E+02  0.16829861742E+03 -0.54418200671E+02  0.19418944003E+03  0.12699999809E+01 0.  1.
</event>
<event>
 5   0  0.7602288E-02  0.5085590E+03  0.7818609E-02  0.1011569E+00
       -1   -1    0    0    0  501  0.00000000000E+00  0.00000000000E+00  0.36447709612E+03  0.36447709616E+03  0.50400001928E-02 0.  1.
        1   -1    0    0  501    0  0.00000000000E+00  0.00000000000E+00 -0.17739953271E+03  0.17739953278E+03  0.50400001928E-02 0. -1.
    10030    2    1    2    0    0  0.00000000000E+00  0.00000000000E+00  0.18707756341E+03  0.54187662894E+03  0.50855900961E+03 0.  0.
        5    1    3    3  502    0  0.20266757282E+03  0.49627475151E+02  0.24830972866E+03  0.32437145791E+03  0.46999998093E+01 0.  1.
       -5    1    3    3    0  502 -0.20266757282E+03 -0.49627475151E+02 -0.61232165250E+02  0.21750517102E+03  0.46999998093E+01 0. -1.
</event>
<event>
 5   0  0.1211345E-01  0.5273918E+03  0.7818609E-02  0.1006867E+00
        2   -1    0    0  501    0  0.00000000000E+00  0.00000000000E+00  0.71497791209E+03  0.71497791209E+03  0.25500000920E-02 0.  1.
       -2   -1    0    0    0  501  0.00000000000E+00  0.00000000000E+00 -0.97255502485E+02  0.97255502518E+02  0.25500000920E-02 0. -1.
    10030    2    1    2    0    0  0.00000000000E+00  0.00000000000E+00  0.61772240960E+03  0.81223341461E+03  0.52739183202E+03 0.  0.
        5    1    3    3  502    0 -0.31376508469E+02  0.14027906733E+03  0.64925610462E+03  0.66499494840E+03  0.46999998093E+01 0.  1.
       -5    1    3    3    0  502  0.31376508469E+02 -0.14027906733E+03 -0.31533695012E+02  0.14723846621E+03  0.46999998093E+01 0. -1.
</event>
<event>
 5   0  0.5006750E-02  0.5033310E+03  0.7818609E-02  0.1012913E+00
       -4   -1    0    0    0  501  0.00000000000E+00  0.00000000000E+00  0.95461354161E+02  0.95469801708E+02  0.12699999809E+01 0. -1.
        4   -1    0    0  501    0  0.00000000000E+00  0.00000000000E+00 -0.66342936958E+03  0.66343058516E+03  0.12699999809E+01 0.  1.
    10030    2    1    2    0    0  0.00000000000E+00  0.00000000000E+00 -0.56796801542E+03  0.75890038686E+03  0.50333103485E+03 0.  0.
        1    1    3    3  502    0  0.87144760015E+01  0.25151303803E+03 -0.28265048063E+03  0.37845216952E+03  0.50400001928E-02 0. -1.
       -1    1    3    3    0  502 -0.87144760015E+01 -0.25151303803E+03 -0.28531753479E+03  0.38044821734E+03  0.50400001928E-02 0.  1.
</event>
<event>
 5   0  0.7531632E-02  0.4879459E+03  0.7818609E-02  0.1016974E+00
       -1   -1    0    0    0  501  0.00000000000E+00  0.00000000000E+00  0.93322568123E+02  0.93322568259E+02  0.50400001928E-02 0. -1.
        1   -1    0    0  501    0  0.00000000000E+00  0.00000000000E+00 -0.63781796472E+03  0.63781796474E+03  0.50400001928E-02 0.  1.
    10030    2    1    2    0    0  0.00000000000E+00  0.00000000000E+00 -0.54449539660E+03  0.73114053300E+03  0.48794594176E+03 0.  0.
        3    1    3    3  502    0 -0.21093659819E+03  0.35271831831E+02 -0.96324193818E+02  0.23455641346E+03  0.10100000352E+00 0. -1.
       -3    1    3    3    0  502  0.21093659819E+03 -0.35271831831E+02 -0.44817120278E+03  0.49658411954E+03  0.10100000352E+00 0.  1.
</event>
<event>
 5   0  0.7531632E-02  0.5000215E+03  0.7818609E-02  0.1013773E+00
       -1   -1    0    0    0  501  0.00000000000E+00  0.00000000000E+00  0.18614643551E+03  0.18614643558E+03  0.50400001928E-02 0. -1.
        1   -1    0    0  501    0  0.00000000000E+00  0.00000000000E+00 -0.33578608805E+03  0.33578608809E+03  0.50400001928E-02 0.  1.
    10030    2    1    2    0    0  0.00000000000E+00  0.00000000000E+00 -0.14963965254E+03  0.52193252367E+03  0.50002153319E+03 0.  0.
        3    1    3    3  502    0  0.62571202367E+02  0.51928669665E+02  0.17195838673E+03  0.19021419260E+03  0.10100000352E+00 0. -1.
       -3    1    3    3    0  502 -0.62571202367E+02 -0.51928669665E+02 -0.32159803928E+03  0.33171833107E+03  0.10100000352E+00 0.  1.
</event>
<event>
 5   0  0.1279188E-01  0.4977038E+03  0.7818609E-02  0.1014380E+00
        2   -1    0    0  501    0  0.00000000000E+00  0.00000000000E+00  0.47037277082E+03  0.47037277083E+03  0.25500000920E-02 0.  1.
       -2   -1    0    0    0  501  0.00000000000E+00  0.00000000000E+00 -0.13165570177E+03  0.13165570180E+03  0.25500000920E-02 0. -1.
    10030    2    1    2    0    0  0.00000000000E+00  0.00000000000E+00  0.33871706905E+03  0.60202847263E+03  0.49770375625E+03 0.  0.
        2    1    3    3  502    0  0.41950001272E+02  0.11043320217E+03  0.43429385171E+03  0.45007382104E+03  0.25500000920E-02 0.  1.
       -2    1    3    3    0  502 -0.41950001272E+02 -0.11043320217E+03 -0.95576782657E+02  0.15195465158E+03  0.25500000920E-02 0. -1.
</event>
<event>
 5   0  0.1191894E-01  0.5017217E+03  0.7818609E-02  0.1013330E+00
       -2   -1    0    0    0  501  0.00000000000E+00  0.00000000000E+00  0.10993280448E+03  0.10993280451E+03  0.25500000920E-02 0.  1.
        2   -1    0    0  501    0  0.00000000000E+00  0.00000000000E+00 -0.57245131551E+03  0.57245131551E+03  0.25500000920E-02 0. -1.
    10030    2    1    2    0    0  0.00000000000E+00  0.00000000000E+00 -0.46251851102E+03  0.68238412003E+03  0.50172174980E+03 0.  0.
        3    1    3    3  502    0  0.93838982493E+02  0.74864650441E+02 -0.53085076599E+03  0.54425455118E+03  0.10100000352E+00 0. -1.
       -3    1    3    3    0  502 -0.93838982493E+02 -0.74864650441E+02  0.68332254967E+02  0.13812956885E+03  0.10100000352E+00 0.  1.
</event>
<event>
 5   0  0.7416638E-02  0.5055977E+03  0.7818609E-02  0.1012328E+00
        1   -1    0    0  501    0  0.00000000000E+00  0.00000000000E+00  0.73100078043E+03  0.73100078045E+03  0.50400001928E-02 0. -1.
       -1   -1    0    0    0  501  0.00000000000E+00  0.00000000000E+00 -0.87424320904E+02  0.87424321049E+02  0.50400001928E-02 0.  1.
    10030    2    1    2    0    0  0.00000000000E+00  0.00000000000E+00  0.64357645952E+03  0.81842510149E+03  0.50559765377E+03 0.  0.
        1    1    3    3  502    0 -0.30289315208E+02 -0.85162109546E+01 -0.84242454516E+02  0.89926412322E+02  0.50400001928E-02 0.  1.
       -1    1    3    3    0  502  0.30289315208E+02  0.85162109546E+01  0.72781891404E+03  0.72849868917E+03  0.50400001928E-02 0. -1.
</event>
<event>
 5   0  0.1231822E-01  0.5022150E+03  0.7818609E-02  0.1013202E+00
       -2   -1    0    0    0  501  0.00000000000E+00  0.00000000000E+00  0.11536369153E+03  0.11536369156E+03  0.25500000920E-02 0.  1.
        2   -1    0    0  501    0  0.00000000000E+00  0.00000000000E+00 -0.54657564796E+03  0.54657564796E+03  0.25500000920E-02 0. -1.
    10030    2    1    2    0    0  0.00000000000E+00  0.00000000000E+00 -0.43121195643E+03  0.66193933952E+03  0.50221503147E+03 0.  0.
        1    1    3    3  502    0  0.35585069721E+02  0.12783660811E+03 -0.49658807762E+03  0.51401188160E+03  0.50400001928E-02 0. -1.
       -1    1    3    3    0  502 -0.35585069721E+02 -0.12783660811E+03  0.65376121189E+02  0.14792745792E+03  0.50400001928E-02 0.  1.
</event>
<event>
 5   0  0.1231822E-01  0.4990112E+03  0.7818609E-02  0.1014037E+00
        2   -1    0    0  501    0  0.00000000000E+00  0.00000000000E+00  0.89845604182E+03  0.89845604182E+03  0.25500000920E-02 0. -1.
       -2   -1    0    0    0  501  0.00000000000E+00  0.00000000000E+00 -0.69288926201E+02  0.69288926248E+02  0.25500000920E-02 0.  1.
    10030    2    1    2    0    0  0.00000000000E+00  0.00000000000E+00  0.82916711562E+03  0.96774496807E+03  0.49901123996E+03 0.  0.
        1    1    3    3  502    0 -0.89836730557E+02  0.22307812541E+03  0.28567217232E+03  0.37342077909E+03  0.50400001928E-02 0.  1.
       -1    1    3    3    0  502  0.89836730557E+02 -0.22307812541E+03  0.54349494330E+03  0.59432418898E+03  0.50400001928E-02 0. -1.
</event>
<event>
 5   0  0.1211345E-01  0.4973754E+03  0.7818609E-02  0.1014466E+00
       -2   -1    0    0    0  501  0.00000000000E+00  0.00000000000E+00  0.27188179671E+03  0.27188179672E+03  0.25500000920E-02 0. -1.
        2   -1    0    0  501    0  0.00000000000E+00  0.00000000000E+00 -0.22747227614E+03  0.22747227615E+03  0.25500000920E-02 0.  1.
    10030    2    1    2    0    0  0.00000000000E+00  0.00000000000E+00  0.44409520570E+02  0.49935407287E+03  0.49737539603E+03 0.  0.
        5    1    3    3  502    0  0.36690032486E+02  0.15455619748E+03 -0.16984056911E+03  0.23259769040E+03  0.46999998093E+01 0.  1.
       -5    1    3    3    0  502 -0.36690032486E+02 -0.15455619748E+03  0.21425008968E+03  0.26675638248E+03  0.46999998093E+01 0. -1.
</event>
<event>
 5   0  0.1191894E-01  0.4993532E+03  0.7818609E-02  0.1013948E+00
        2   -1    0    0  501    0  0.00000000000E+00  0.00000000000E+00  0.37293441125E+02  0.37293441212E+02  0.25500000920E-02 0.  1.
       -2   -1    0    0    0  501  0.00000000000E+00  0.00000000000E+00 -0.16715648909E+04  0.16715648909E+04  0.25500000920E-02 0. -1.
    10030    2    1    2    0    0  0.00000000000E+00  0.00000000000E+00 -0.16342714498E+04  0.17088583321E+04  0.49935320934E+03 0.  0.
        3    1    3    3  502    0 -0.14289533238E+03 -0.20261449557E+03 -0.71638937322E+03  0.75808011060E+03  0.10100000352E+00 0. -1.
       -3    1    3    3    0  502  0.14289533238E+03  0.20261449557E+03 -0.91788207655E+03  0.95077822150E+03  0.10100000352E+00 0.  1.
</event>
<event>
 5   0  0.7812547E-02  0.5045398E+03  0.7818609E-02  0.1012601E+00
        1   -1    0    0  501    0  0.00000000000E+00  0.00000000000E+00  0.54782705312E+03  0.54782705314E+03  0.50400001928E-02 0. -1.
       -1   -1    0    0    0  501  0.00000000000E+00  0.00000000000E+00 -0.11616821424E+03  0.11616821435E+03  0.50400001928E-02 0.  1.
    10030    2    1    2    0    0  0.00000000000E+00  0.00000000000E+00  0.43165883888E+03  0.66399526749E+03  0.50453975271E+03 0.  0.
        4    1    3    3  502    0 -0.25524173386E+02  0.21152507161E+03  0.38070553234E+02  0.21643779538E+03  0.12699999809E+01 0. -1.
       -4    1    3    3    0  502  0.25524173386E+02 -0.21152507161E+03  0.39358828565E+03  0.44755747211E+03  0.12699999809E+01 0.  1.
</event>
<event>
 5   0  0.7416638E-02  0.5093427E+03  0.7818609E-02  0.1011369E+00
        1   -1    0    0  501    0  0.00000000000E+00  0.00000000000E+00  0.13371262691E+03  0.13371262700E+03  0.50400001928E-02 0. -1.
       -1   -1    0    0    0  501  0.00000000000E+00  0.00000000000E+00 -0.48505140538E+03  0.48505140541E+03  0.50400001928E-02 0.  1.
    10030    2    1    2    0    0  0.00000000000E+00  0.00000000000E+00 -0.35133877847E+03  0.61876403241E+03  0.50934270442E+03 0.  0.
        1    1    3    3  502    0  0.71429142849E+02  0.12158443414E+03 -0.43329496287E+03  0.45566371586E+03  0.50400001928E-02 0.  1.
       -1    1    3    3    0  502 -0.71429142849E+02 -0.12158443414E+03  0.81956184403E+02  0.16310031655E+03  0.50400001928E-02 0. -1.
</event>
<event>
 5   0  0.7416638E-02  0.4963354E+03  0.7818609E-02  0.1014740E+00
       -1   -1    0    0    0  501  0.00000000000E+00  0.00000000000E+00  0.47157375120E+02  0.47157375389E+02  0.50400001928E-02 0. -1.
        1   -1    0    0  501    0  0.00000000000E+00  0.00000000000E+00 -0.13059930341E+04  0.13059930342E+04  0.50400001928E-02 0.  1.
    10030    2    1    2    0    0  0.00000000000E+00  0.00000000000E+00 -0.12588356590E+04  0.13531504095E+04  0.49633538501E+03 0.  0.
        1    1    3    3  502    0 -0.86360553931E+02 -0.10384914473E+03 -0.11970113123E+04  0.12046073518E+04  0.50400001928E-02 0.  1.
       -1    1    3    3    0  502  0.86360553931E+02  0.10384914473E+03 -0.61824346711E+02  0.14854305776E+03  0.50400001928E-02 0. -1.
</event>
<event>
 5   0  0.1211345E-01  0.4976086E+03  0.7818609E-02  0.1014405E+00
       -2   -1    0    0    0  501  0.00000000000E+00  0.00000000000E+00  0.22707387467E+02  0.22707387610E+02  0.25500000920E-02 0.  1.
        2   -1    0    0  501    0  0.00000000000E+00  0.00000000000E+00 -0.27261427405E+04  0.27261427405E+04  0.25500000920E-02 0. -1.
    10030    2    1    2    0    0  0.00000000000E+00  0.00000000000E+00 -0.27034353530E+04  0.27488501281E+04  0.49760860000E+03 0.  0.
        5    1    3    3  502    0 -0.19793344047E+01  0.12566952290E+02  0.20663932260E+02  0.24717082134E+02  0.46999998093E+01 0.  1.
       -5    1    3    3    0  502  0.19793344047E+01 -0.12566952290E+02 -0.27240992853E+04  0.27241330460E+04  0.46999998093E+01 0. -1.
</event>
<event>
 5   0  0.1231822E-01  0.4944497E+03  0.7818609E-02  0.1015238E+00
       -2   -1    0    0    0  501  0.00000000000E+00  0.00000000000E+00  0.37103699554E+02  0.37103699641E+02  0.25500000920E-02 0.  1.
        2   -1    0    0  501    0  0.00000000000E+00  0.00000000000E+00 -0.16472785998E+04  0.16472785998E+04  0.25500000920E-02 0. -1.
    10030    2    1    2    0    0  0.00000000000E+00  0.00000000000E+00 -0.16101749003E+04  0.16843822995E+04  0.49444971564E+03 0.  0.
        1    1    3    3  502    0  0.13003265572E+03 -0.51587777398E+02 -0.14994812401E+04  0.15059926228E+04  0.50400001928E-02 0. -1.
       -1    1    3    3    0  502 -0.13003265572E+03  0.51587777398E+02 -0.11069366015E+03  0.17838967670E+03  0.50400001928E-02 0.  1.
</event>
<event>
 5   0  0.7531632E-02  0.4959860E+03  0.7818609E-02  0.1014832E+00
       -1   -1    0    0    0  501  0.00000000000E+00  0.00000000000E+00  0.23442962130E+03  0.23442962135E+03  0.50400001928E-02 0. -1.
        1   -1    0    0  501    0  0.00000000000E+00  0.00000000000E+00 -0.26234107979E+03  0.26234107984E+03  0.50400001928E-02 0.  1.
    10030    2    1    2    0    0  0.00000000000E+00  0.00000000000E+00 -0.27911458495E+02  0.49677070120E+03  0.49598596760E+03 0.  0.
        3    1    3    3  502    0 -0.22691128254E+02  0.77848156791E+01 -0.26117619566E+03  0.26227562990E+03  0.10100000352E+00 0.  1.
       -3    1    3    3    0  502  0.22691128254E+02 -0.77848156791E+01  0.23326473717E+03  0.23449507130E+03  0.10100000352E+00 0. -1.
</event>
<event>
 5   0  0.7531632E-02  0.5133387E+03  0.7818609E-02  0.1010355E+00
       -1   -1    0    0    0  501  0.00000000000E+00  0.00000000000E+00  0.52180217101E+02  0.52180217345E+02  0.50400001928E-02 0. -1.
        1   -1    0    0  501    0  0.00000000000E+00  0.00000000000E+00 -0.12625314052E+04  0.12625314052E+04  0.50400001928E-02 0.  1.
    10030    2    1    2    0    0  0.00000000000E+00  0.00000000000E+00 -0.12103511881E+04  0.13147116225E+04  0.51333873022E+03 0.  0.
        3    1    3    3  502    0 -0.99371627801E+02 -0.13946442920E+03 -0.10948355057E+04  0.11081470309E+04  0.10100000352E+00 0.  1.
       -3    1    3    3    0  502  0.99371627801E+02  0.13946442920E+03 -0.11551568235E+03  0.20656459158E+03  0.10100000352E+00 0. -1.
</event>
<event>
 5   0  0.1231822E-01  0.4991591E+03  0.7818609E-02  0.1013999E+00
        2   -1    0    0  501    0  0.00000000000E+00  0.00000000000E+00  0.31801216840E+03  0.31801216841E+03  0.25500000920E-02 0.  1.
       -2   -1    0    0    0  501  0.00000000000E+00  0.00000000000E+00 -0.19587285760E+03  0.19587285761E+03  0.25500000920E-02 0. -1.
    10030    2    1    2    0    0  0.00000000000E+00  0.00000000000E+00  0.12213931080E+03  0.51388502602E+03  0.49915910162E+03 0.  0.
        1    1    3    3  502    0  0.12492028930E+03 -0.86775096653E+02 -0.14264409263E+03  0.20852417909E+03  0.50400001928E-02 0. -1.
       -1    1    3    3    0  502 -0.12492028930E+03  0.86775096653E+02  0.26478340343E+03  0.30536084693E+03  0.50400001928E-02 0.  1.
</event>
<event>
 5   0  0.5006750E-02  0.5113436E+03  0.7818609E-02  0.1010860E+00
        3   -1    0    0  501    0  0.00000000000E+00  0.00000000000E+00  0.14612436935E+03  0.14612440426E+03  0.10100000352E+00 0. -1.
       -3   -1    0    0    0  501  0.00000000000E+00  0.00000000000E+00 -0.44734534533E+03  0.44734535673E+03  0.10100000352E+00 0.  1.
    10030    2    1    2    0    0  0.00000000000E+00  0.00000000000E+00 -0.30122097598E+03  0.59346976099E+03  0.51134360350E+03 0.  0.
        5    1    3    3  502    0  0.59735233747E+01 -0.21652018112E+03  0.69474492919E+01  0.21676491613E+03  0.46999998093E+01 0. -1.
       -5    1    3    3    0  502 -0.59735233747E+01  0.21652018112E+03 -0.30816842527E+03  0.37670484486E+03  0.46999998093E+01 0.  1.
</event>
<event>
 5   0  0.7416638E-02  0.5018110E+03  0.7818609E-02  0.1013307E+00
       -1   -1    0    0    0  501  0.00000000000E+00  0.00000000000E+00  0.24577288283E+03  0.24577288288E+03  0.50400001928E-02 0.  1.
        1   -1    0    0  501    0  0.00000000000E+00  0.00000000000E+00 -0.25614529959E+03  0.25614529964E+03  0.50400001928E-02 0. -1.
    10030    2    1    2    0    0  0.00000000000E+00  0.00000000000E+00 -0.10372416761E+02  0.50191818252E+03  0.50181099521E+03 0.  0.
        1    1    3    3  502    0  0.11552891380E+02 -0.21102362034E+03 -0.14045240907E+03  0.25375444209E+03  0.50400001928E-02 0. -1.
       -1    1    3    3    0  502 -0.11552891380E+02  0.21102362034E+03  0.13007999231E+03  0.24816374043E+03  0.50400001928E-02 0.  1.
</event>
<event>
 5   0  0.7781754E-02  0.4983979E+03  0.7818609E-02  0.1014198E+00
       -1   -1    0    0    0  501  0.00000000000E+00  0.00000000000E+00  0.12270790750E+03  0.12270790760E+03  0.50400001928E-02 0. -1.
        1   -1    0    0  501    0  0.00000000000E+00  0.00000000000E+00 -0.50608075847E+03  0.50608075849E+03  0.50400001928E-02 0.  1.
    10030    2    1    2    0    0  0.00000000000E+00  0.00000000000E+00 -0.38337285097E+03  0.62878866610E+03  0.49839787695E+03 0.  0.
        2    1    3    3  502    0  0.10290552274E+03  0.15437064004E+03  0.18214174919E+02  0.18641780304E+03  0.25500000920E-02 0. -1.
       -2    1    3    3    0  502 -0.10290552274E+03 -0.15437064004E+03 -0.40158702589E+03  0.44237086306E+03  0.25500000920E-02 0.  1.
</event>
<event>
 5   0  0.7812547E-02  0.5010064E+03  0.7818609E-02  0.1013517E+00
       -1   -1    0    0    0  501  0.00000000000E+00  0.00000000000E+00  0.11353463514E+03  0.11353463525E+03  0.50400001928E-02 0.  1.
        1   -1    0    0  501    0  0.00000000000E+00  0.00000000000E+00 -0.55271102487E+03  0.55271102489E+03  0.50400001928E-02 0. -1.
    10030    2    1    2    0    0  0.00000000000E+00  0.00000000000E+00 -0.43917638973E+03  0.66624566014E+03  0.50100636559E+03 0.  0.
        4    1    3    3  502    0  0.17832279812E+03  0.14811245674E+03 -0.34584296473E+03  0.41634755833E+03  0.12699999809E+01 0. -1.
       -4    1    3    3    0  502 -0.17832279812E+03 -0.14811245674E+03 -0.93333424994E+02  0.24989810181E+03  0.12699999809E+01 0.  1.
</event>
<event>
 5   0  0.7781754E-02  0.4996480E+03  0.7818609E-02  0.1013871E+00
       -1   -1    0    0    0  501  0.00000000000E+00  0.00000000000E+00  0.81835189016E+02  0.81835189171E+02  0.50400001928E-02 0.  1.
        1   -1    0    0  501    0  0.00000000000E+00  0.00000000000E+00 -0.76265503241E+03  0.76265503243E+03  0.50400001928E-02 0. -1.
    10030    2    1    2    0    0  0.00000000000E+00  0.00000000000E+00 -0.68081984339E+03  0.84449022160E+03  0.49964795128E+03 0.  0.
        2    1    3    3  502    0  0.15630009544E+02  0.22060661034E+03 -0.53679322341E+03  0.58056742798E+03  0.25500000920E-02 0. -1.
       -2    1    3    3    0  502 -0.15630009544E+02 -0.22060661034E+03 -0.14402661999E+03  0.26392279362E+03  0.25500000920E-02 0.  1.
</event>
<event>
 5   0  0.7416638E-02  0.4995284E+03  0.7818609E-02  0.1013902E+00
        1   -1    0    0  501    0  0.00000000000E+00  0.00000000000E+00  0.22265913412E+03  0.22265913418E+03  0.50400001928E-02 0.  1.
       -1   -1    0    0    0  501  0.00000000000E+00  0.00000000000E+00 -0.28016884138E+03  0.28016884142E+03  0.50400001928E-02 0. -1.
    10030    2    1    2    0    0  0.00000000000E+00  0.00000000000E+00 -0.57509707259E+02  0.50282797560E+03  0.49952838419E+03 0.  0.
        1    1    3    3  502    0 -0.21253477882E+02  0.40047368709E+02 -0.27599208102E+03  0.27969113478E+03  0.50400001928E-02 0. -1.
       -1    1    3    3    0  502  0.21253477882E+02 -0.40047368709E+02  0.21848237376E+03  0.22313684082E+03  0.50400001928E-02 0.  1.
</event>
<event>
 5   0  0.7531632E-02  0.4965542E+03  0.7818609E-02  0.1014682E+00
        1   -1    0    0  501    0  0.00000000000E+00  0.00000000000E+00  0.30635708604E+04  0.30635708604E+04  0.50400001928E-02 0.  1.
       -1   -1    0    0    0  501  0.00000000000E+00  0.00000000000E+00 -0.20120806417E+02  0.20120807048E+02  0.50400001928E-02 0. -1.
    10030    2    1    2    0    0  0.00000000000E+00  0.00000000000E+00  0.30434500540E+04  0.30836916675E+04  0.49655419525E+03 0.  0.
        3    1    3    3  502    0  0.13358668050E+03  0.12914530352E+03  0.49906828007E+03  0.53253457072E+03  0.10100000352E+00 0. -1.
       -3    1    3    3    0  502 -0.13358668050E+03 -0.12914530352E+03  0.25443817739E+04  0.25511570968E+04  0.10100000352E+00 0.  1.
</event>
<event>
 5   0  0.7812547E-02  0.4978637E+03  0.7818609E-02  0.1014338E+00
        1   -1    0    0  501    0  0.00000000000E+00  0.00000000000E+00  0.64580136686E+03  0.64580136688E+03  0.50400001928E-02 0.  1.
       -1   -1    0    0    0  501  0.00000000000E+00  0.00000000000E+00 -0.95953739599E+02  0.95953739731E+02  0.50400001928E-02 0. -1.
    10030    2    1    2    0    0  0.00000000000E+00  0.00000000000E+00  0.54984762726E+03  0.74175510661E+03  0.49786366103E+03 0.  0.
        4    1    3    3  502    0  0.13246192856E+03 -0.18640983634E+03  0.12841018198E+03  0.26227004659E+03  0.12699999809E+01 0. -1.
       -4    1    3    3    0  502 -0.13246192856E+03  0.18640983634E+03  0.42143744528E+03  0.47948506002E+03  0.12699999809E+01 0.  1.
</event>
<event>
 5   0  0.1191894E-01  0.4970657E+03  0.7818609E-02  0.1014548E+00
        2   -1    0    0  501    0  0.00000000000E+00  0.00000000000E+00  0.29502028226E+03  0.29502028227E+03  0.25500000920E-02 0. -1.
       -2   -1    0    0    0  501  0.00000000000E+00  0.00000000000E+00 -0.20937062757E+03  0.20937062758E+03  0.25500000920E-02 0.  1.
    10030    2    1    2    0    0  0.00000000000E+00  0.00000000000E+00  0.85649654696E+02  0.50439090986E+03  0.49706571658E+03 0.  0.
        3    1    3    3  502    0 -0.75757309756E+02 -0.21933729581E+03  0.13313385563E+03  0.26753065811E+03  0.10100000352E+00 0. -1.
       -3    1    3    3    0  502  0.75757309756E+02  0.21933729581E+03 -0.47484200933E+02  0.23686025174E+03  0.10100000352E+00 0.  1.
</event>
<event>
 5   0  0.7781754E-02  0.5093445E+03  0.7818609E-02  0.1011368E+00
       -1   -1    0    0    0  501  0.00000000000E+00  0.00000000000E+00  0.44730490578E+03  0.44730490581E+03  0.50400001928E-02 0.  1.
        1   -1    0    0  501    0  0.00000000000E+00  0.00000000000E+00 -0.14499716346E+03  0.14499716354E+03  0.50400001928E-02 0. -1.
    10030    2    1    2    0    0  0.00000000000E+00  0.00000000000E+00  0.30230774233E+03  0.59230206936E+03  0.50934445152E+03 0.  0.
        2    1    3    3  502    0  0.23078786987E+03 -0.75691641286E+02  0.62092219010E+02  0.25069445368E+03  0.25500000920E-02 0. -1.
       -2    1    3    3    0  502 -0.23078786987E+03  0.75691641286E+02  0.24021552332E+03  0.34160761568E+03  0.25500000920E-02 0.  1.
</event>
<event>
 5   0  0.7531632E-02  0.4887559E+03  0.7818609E-02  0.1016756E+00
       -1   -1    0    0    0  501  0.00000000000E+00  0.00000000000E+00  0.67886275953E+02  0.67886276140E+02  0.50400001928E-02 0.  1.
        1   -1    0    0  501    0  0.00000000000E+00  0.00000000000E+00 -0.87971504307E+03  0.87971504308E+03  0.50400001928E-02 0. -1.
    10030    2    1    2    0    0  0.00000000000E+00  0.00000000000E+00 -0.81182876711E+03  0.94760131922E+03  0.48875588291E+03 0.  0.
        3    1    3    3  502    0  0.11095203748E+03  0.83869291887E+02 -0.79549392321E+03  0.80756114617E+03  0.10100000352E+00 0. -1.
       -3    1    3    3    0  502 -0.11095203748E+03 -0.83869291887E+02 -0.16334843905E+02  0.14004017305E+03  0.10100000352E+00 0.  1.
</event>
<event>
 5   0  0.5006750E-02  0.5010484E+03  0.7818609E-02  0.1013506E+00
       -4   -1    0    0    0  501  0.00000000000E+00  0.00000000000E+00  0.20506829036E+03  0.20507222292E+03  0.12699999809E+01 0.  1.
        4   -1    0    0  501    0  0.00000000000E+00  0.00000000000E+00 -0.30604782150E+03  0.30605045653E+03  0.12699999809E+01 0. -1.
    10030    2    1    2    0    0  0.00000000000E+00  0.00000000000E+00 -0.10097953114E+03  0.51112267945E+03  0.50104842854E+03 0.  0.
        1    1    3    3  502    0 -0.22841272490E+03  0.93618595660E+02 -0.69040277145E+01  0.24695035933E+03  0.50400001928E-02 0.  1.
       -1    1    3    3    0  502  0.22841272490E+03 -0.93618595660E+02 -0.94075503425E+02  0.26417232012E+03  0.50400001928E-02 0. -1.
</event>
<event>
 5   0  0.1231822E-01  0.5010320E+03  0.7818609E-02  0.1013510E+00
        2   -1    0    0  501    0  0.00000000000E+00  0.00000000000E+00  0.18866411529E+04  0.18866411529E+04  0.25500000920E-02 0. -1.
       -2   -1    0    0    0  501  0.00000000000E+00  0.00000000000E+00 -0.33264551275E+02  0.33264551373E+02  0.25500000920E-02 0.  1.
    10030    2    1    2    0    0  0.00000000000E+00  0.00000000000E+00  0.18533766017E+04  0.19199057043E+04  0.50103202079E+03 0.  0.
        1    1    3    3  502    0 -0.79822236748E+02  0.16267898778E+03  0.26384421300E+03  0.32007782070E+03  0.50400001928E-02 0.  1.
       -1    1    3    3    0  502  0.79822236748E+02 -0.16267898778E+03  0.15895323887E+04  0.15998278836E+04  0.50400001928E-02 0. -1.
</event>
<event>
 5   0  0.5006750E-02  0.5008708E+03  0.7818609E-02  0.1013552E+00
       -3   -1    0    0    0  501  0.00000000000E+00  0.00000000000E+00  0.20432036282E+03  0.20432038778E+03  0.10100000352E+00 0. -1.
        3   -1    0    0  501    0  0.00000000000E+00  0.00000000000E+00 -0.30695849710E+03  0.30695851372E+03  0.10100000352E+00 0.  1.
    10030    2    1    2    0    0  0.00000000000E+00  0.00000000000E+00 -0.10263813428E+03  0.51127890150E+03  0.50087077026E+03 0.  0.
        4    1    3    3  502    0 -0.16823890990E+03 -0.15553907255E+03  0.51873343562E+02  0.23492379736E+03  0.12699999809E+01 0. -1.
       -4    1    3    3    0  502  0.16823890990E+03  0.15553907255E+03 -0.15451147784E+03  0.27635510413E+03  0.12699999809E+01 0.  1.
</event>
<event>
 5   0  0.7416638E-02  0.4899591E+03  0.7818609E-02  0.1016433E+00
        1   -1    0    0  501    0  0.00000000000E+00  0.00000000000E+00  0.40713823378E+03  0.40713823381E+03  0.50400001928E-02 0. -1.
       -1   -1    0    0    0  501  0.00000000000E+00  0.00000000000E+00 -0.14740690933E+03  0.14740690942E+03  0.50400001928E-02 0.  1.
    10030    2    1    2    0    0  0.00000000000E+00  0.00000000000E+00  0.25973132445E+03  0.55454514322E+03  0.48995913602E+03 0.  0.
        1    1    3    3  502    0 -0.13726923438E+03 -0.10513171534E+03  0.32629244224E+03  0.36927263392E+03  0.50400001928E-02 0. -1.
       -1    1    3    3    0  502  0.13726923438E+03  0.10513171534E+03 -0.66561117788E+02  0.18527250930E+03  0.50400001928E-02 0.  1.
</event>
<event>
 5   0  0.1279188E-01  0.4630264E+03  0.7818609E-02  0.1023907E+00
       -2   -1    0    0    0  501  0.00000000000E+00  0.00000000000E+00  0.36664661162E+02  0.36664661251E+02  0.25500000920E-02 0. -1.
        2   -1    0    0  501    0  0.00000000000E+00  0.00000000000E+00 -0.14618535381E+04  0.14618535381E+04  0.25500000920E-02 0.  1.
    10030    2    1    2    0    0  0.00000000000E+00  0.00000000000E+00 -0.14251888769E+04  0.14985181993E+04  0.46302641268E+03 0.  0.
        2    1    3    3  502    0 -0.19954527372E+03 -0.44231089254E+02 -0.36068395257E+03  0.41456919708E+03  0.25500000920E-02 0. -1.
       -2    1    3    3    0  502  0.19954527372E+03  0.44231089254E+02 -0.10645049244E+04  0.10839490023E+04  0.25500000920E-02 0.  1.
</event>
<event>
 5   0  0.7602288E-02  0.4965633E+03  0.7818609E-02  0.1014680E+00
        1   -1    0    0  501    0  0.00000000000E+00  0.00000000000E+00  0.11869795887E+04  0.11869795887E+04  0.50400001928E-02 0. -1.
       -1   -1    0    0    0  501  0.00000000000E+00  0.00000000000E+00 -0.51933299650E+02  0.51933299895E+02  0.50400001928E-02 0.  1.
    10030    2    1    2    0    0  0.00000000000E+00  0.00000000000E+00  0.11350462891E+04  0.12389128886E+04  0.49656325606E+03 0.  0.
        5    1    3    3  502    0 -0.95043877835E+02 -0.61091060906E+02  0.16047770548E+02  0.11421504881E+03  0.46999998093E+01 0.  1.
       -5    1    3    3    0  502  0.95043877835E+02  0.61091060906E+02  0.11189985185E+04  0.11246978398E+04  0.46999998093E+01 0. -1.
</event>
<event>
 5   0  0.7812547E-02  0.4919434E+03  0.7818609E-02  0.1015903E+00
       -1   -1    0    0    0  501  0.00000000000E+00  0.00000000000E+00  0.76701290572E+02  0.76701290737E+02  0.50400001928E-02 0.  1.
        1   -1    0    0  501    0  0.00000000000E+00  0.00000000000E+00 -0.78880138801E+03  0.78880138803E+03  0.50400001928E-02 0. -1.
    10030    2    1    2    0    0  0.00000000000E+00  0.00000000000E+00 -0.71210009744E+03  0.86550267876E+03  0.49194342985E+03 0.  0.
        4    1    3    3  502    0  0.10121299760E+03 -0.67725580187E+02  0.19931971320E+02  0.12340875770E+03  0.12699999809E+01 0.  1.
       -4    1    3    3    0  502 -0.10121299760E+03  0.67725580187E+02 -0.73203206876E+03  0.74209392107E+03  0.12699999809E+01 0. -1.
</event>
<event>
 5   0  0.7531632E-02  0.5017334E+03  0.7818609E-02  0.1013327E+00
       -1   -1    0    0    0  501  0.00000000000E+00  0.00000000000E+00  0.13863363346E+03  0.13863363355E+03  0.50400001928E-02 0. -1.
        1   -1    0    0  501    0  0.00000000000E+00  0.00000000000E+00 -0.45395974972E+03  0.45395974975E+03  0.50400001928E-02 0.  1.
    10030    2    1    2    0    0  0.00000000000E+00  0.00000000000E+00 -0.31532611626E+03  0.59259338330E+03  0.50173335382E+03 0.  0.
        3    1    3    3  502    0  0.14482735392E+03 -0.19894516344E+03 -0.21528219225E+03  0.32695653075E+03  0.10100000352E+00 0. -1.
       -3    1    3    3    0  502 -0.14482735392E+03  0.19894516344E+03 -0.10004392402E+03  0.26563685255E+03  0.10100000352E+00 0.  1.
</event>
<event>
 5   0  0.5006750E-02  0.5560179E+03  0.7818609E-02  0.1000111E+00
        3   -1    0    0  501    0  0.00000000000E+00  0.00000000000E+00  0.29425343561E+03  0.29425345294E+03  0.10100000352E+00 0. -1.
       -3   -1    0    0    0  501  0.00000000000E+00  0.00000000000E+00 -0.26266126380E+03  0.26266128322E+03  0.10100000352E+00 0.  1.
    10030    2    1    2    0    0  0.00000000000E+00  0.00000000000E+00  0.31592171806E+02  0.55691473616E+03  0.55601794759E+03 0.  0.
        2    1    3    3  502    0 -0.15637948779E+03 -0.18657520598E+02 -0.21367240168E+03  0.26544028052E+03  0.25500000920E-02 0.  1.
       -2    1    3    3    0  502  0.15637948779E+03  0.18657520598E+02  0.24526457349E+03  0.29147445564E+03  0.25500000920E-02 0. -1.
</event>
<event>
 5   0  0.1191894E-01  0.5436958E+03  0.7818609E-02  0.1002964E+00
        2   -1    0    0  501    0  0.00000000000E+00  0.00000000000E+00  0.13392651165E+04  0.13392651165E+04  0.25500000920E-02 0.  1.
       -2   -1    0    0    0  501  0.00000000000E+00  0.00000000000E+00 -0.55180476030E+02  0.55180476089E+02  0.25500000920E-02 0. -1.
    10030    2    1    2    0    0  0.00000000000E+00  0.00000000000E+00  0.12840846405E+04  0.13944455926E+04  0.54369582195E+03 0.  0.
        3    1    3    3  502    0 -0.15489207452E+03 -0.20548572653E+03  0.86688412515E+03  0.90426989068E+03  0.10100000352E+00 0. -1.
       -3    1    3    3    0  502  0.15489207452E+03  0.20548572653E+03  0.41720051532E+03  0.49017570191E+03  0.10100000352E+00 0.  1.
</event>
<event>
 5   0  0.1243803E-01  0.5011706E+03  0.7818609E-02  0.1013474E+00
        2   -1    0    0  501    0  0.00000000000E+00  0.00000000000E+00  0.11518443544E+04  0.11518443544E+04  0.25500000920E-02 0. -1.
       -2   -1    0    0    0  501  0.00000000000E+00  0.00000000000E+00 -0.54515180713E+02  0.54515180772E+02  0.25500000920E-02 0.  1.
    10030    2    1    2    0    0  0.00000000000E+00  0.00000000000E+00  0.10973291737E+04  0.12063595352E+04  0.50117064228E+03 0.  0.
        4    1    3    3  502    0 -0.28255334376E+02  0.20718862418E+03  0.88103304159E+03  0.90550887527E+03  0.12699999809E+01 0. -1.
       -4    1    3    3    0  502  0.28255334376E+02 -0.20718862418E+03  0.21629613211E+03  0.30085065993E+03  0.12699999809E+01 0.  1.
</event>
<event>
 5   0  0.7812547E-02  0.5037201E+03  0.7818609E-02  0.1012812E+00
        1   -1    0    0  501    0  0.00000000000E+00  0.00000000000E+00  0.29936296998E+03  0.29936297002E+03  0.50400001928E-02 0.  1.
       -1   -1    0    0    0  501  0.00000000000E+00  0.00000000000E+00 -0.21189491064E+03  0.21189491070E+03  0.50400001928E-02 0. -1.
    10030    2    1    2    0    0  0.00000000000E+00  0.00000000000E+00  0.87468059338E+02  0.51125788072E+03  0.50372011991E+03 0.  0.
        4    1    3    3  502    0  0.31560180207E+02  0.87659257373E+02  0.28122629390E+03  0.29626007436E+03  0.12699999809E+01 0.  1.
       -4    1    3    3    0  502 -0.31560180207E+02 -0.87659257373E+02 -0.19375823457E+03  0.21499780636E+03  0.12699999809E+01 0. -1.
</event>
<event>
 5   0  0.7531632E-02  0.4982104E+03  0.7818609E-02  0.1014247E+00
        1   -1    0    0  501    0  0.00000000000E+00  0.00000000000E+00  0.78258596456E+03  0.78258596458E+03  0.50400001928E-02 0.  1.
       -1   -1    0    0    0  501  0.00000000000E+00  0.00000000000E+00 -0.79292772630E+02  0.79292772790E+02  0.50400001928E-02 0. -1.
    10030    2    1    2    0    0  0.00000000000E+00  0.00000000000E+00  0.70329319193E+03  0.86187873737E+03  0.49821044159E+03 0.  0.
        3    1    3    3  502    0 -0.11306519659E+03 -0.10104305765E+03  0.97464759484E+01  0.15194881432E+03  0.10100000352E+00 0. -1.
       -3    1    3    3    0  502  0.11306519659E+03  0.10104305765E+03  0.69354671598E+03  0.70992992304E+03  0.10100000352E+00 0.  1.
</event>
<event>
 5   0  0.1191894E-01  0.4884002E+03  0.7818609E-02  0.1016852E+00
        2   -1    0    0  501    0  0.00000000000E+00  0.00000000000E+00  0.61003466532E+03  0.61003466532E+03  0.25500000920E-02 0.  1.
       -2   -1    0    0    0  501  0.00000000000E+00  0.00000000000E+00 -0.97754588155E+02  0.97754588188E+02  0.25500000920E-02 0. -1.
    10030    2    1    2    0    0  0.00000000000E+00  0.00000000000E+00  0.51228007716E+03  0.70778925351E+03  0.48840019444E+03 0.  0.
        3    1    3    3  502    0  0.22321702229E+03 -0.88206641366E+02  0.32139307305E+03  0.40112313350E+03  0.10100000352E+00 0. -1.
       -3    1    3    3    0  502 -0.22321702229E+03  0.88206641366E+02  0.19088700412E+03  0.30666612001E+03  0.10100000352E+00 0.  1.
</event>
<event>
 5   0  0.7781754E-02  0.4994192E+03  0.7818609E-02  0.1013931E+00
        1   -1    0    0  501    0  0.00000000000E+00  0.00000000000E+00  0.98151494693E+03  0.98151494695E+03  0.50400001928E-02 0. -1.
       -1   -1    0    0    0  501  0.00000000000E+00  0.00000000000E+00 -0.63529235790E+02  0.63529235990E+02  0.50400001928E-02 0.  1.
    10030    2    1    2    0    0  0.00000000000E+00  0.00000000000E+00  0.91798571114E+03  0.10450441829E+04  0.49941924114E+03 0.  0.
        2    1    3    3  502    0 -0.37516563085E+01  0.88015784634E+02  0.94791758472E+03  0.95200241633E+03  0.25500000920E-02 0. -1.
       -2    1    3    3    0  502  0.37516563085E+01 -0.88015784634E+02 -0.29931873581E+02  0.93041766602E+02  0.25500000920E-02 0.  1.
</event>
<event>
 5   0  0.1191894E-01  0.5010720E+03  0.7818609E-02  0.1013499E+00
        2   -1    0    0  501    0  0.00000000000E+00  0.00000000000E+00  0.54124346869E+03  0.54124346869E+03  0.25500000920E-02 0.  1.
       -2   -1    0    0    0  501  0.00000000000E+00  0.00000000000E+00 -0.11597052597E+03  0.11597052600E+03  0.25500000920E-02 0. -1.
    10030    2    1    2    0    0  0.00000000000E+00  0.00000000000E+00  0.42527294271E+03  0.65721399470E+03  0.50107200982E+03 0.  0.
        3    1    3    3  502    0 -0.18498935015E+03  0.16233656817E+03  0.27407357913E+03  0.36836199318E+03  0.10100000352E+00 0.  1.
       -3    1    3    3    0  502  0.18498935015E+03 -0.16233656817E+03  0.15119936358E+03  0.28885200152E+03  0.10100000352E+00 0. -1.
</event>
<event>
 5   0  0.7602288E-02  0.5008848E+03  0.7818609E-02  0.1013548E+00
       -1   -1    0    0    0  501  0.00000000000E+00  0.00000000000E+00  0.88517655470E+02  0.88517655613E+02  0.50400001928E-02 0.  1.
        1   -1    0    0  501    0  0.00000000000E+00  0.00000000000E+00 -0.70857500105E+03  0.70857500107E+03  0.50400001928E-02 0. -1.
    10030    2    1    2    0    0  0.00000000000E+00  0.00000000000E+00 -0.62005734558E+03  0.79709265668E+03  0.50088480864E+03 0.  0.
        5    1    3    3  502    0 -0.17365813071E+03  0.17444887823E+03 -0.38312347367E+03  0.45540667930E+03  0.46999998093E+01 0. -1.
       -5    1    3    3    0  502  0.17365813071E+03 -0.17444887823E+03 -0.23693387191E+03  0.34168597738E+03  0.46999998093E+01 0.  1.
</event>
<event>
 5   0  0.7781754E-02  0.5750300E+03  0.7818609E-02  0.9958609E-01
       -1   -1    0    0    0  501  0.00000000000E+00  0.00000000000E+00  0.33321017240E+03  0.33321017244E+03  0.50400001928E-02 0. -1.
        1   -1    0    0  501    0  0.00000000000E+00  0.00000000000E+00 -0.24808627071E+03  0.24808627076E+03  0.50400001928E-02 0.  1.
    10030    2    1    2    0    0  0.00000000000E+00  0.00000000000E+00  0.85123901696E+02  0.58129644320E+03  0.57502997855E+03 0.  0.
        2    1    3    3  502    0  0.17434476482E+03 -0.16409807406E+03 -0.11836010614E+03  0.26708311378E+03  0.25500000920E-02 0.  1.
       -2    1    3    3    0  502 -0.17434476482E+03  0.16409807406E+03  0.20348400784E+03  0.31421332942E+03  0.25500000920E-02 0. -1.
</event>
<event>
 5   0  0.1211345E-01  0.4678209E+03  0.7818609E-02  0.1022537E+00
        2   -1    0    0  501    0  0.00000000000E+00  0.00000000000E+00  0.24353850848E+03  0.24353850849E+03  0.25500000920E-02 0. -1.
       -2   -1    0    0    0  501  0.00000000000E+00  0.00000000000E+00 -0.22466300603E+03  0.22466300605E+03  0.25500000920E-02 0.  1.
    10030    2    1    2    0    0  0.00000000000E+00  0.00000000000E+00  0.18875502446E+02  0.46820151454E+03  0.46782087771E+03 0.  0.
        5    1    3    3  502    0 -0.15248954682E+03  0.64421256224E+02 -0.15589000751E+03  0.22743558337E+03  0.46999998093E+01 0.  1.
       -5    1    3    3    0  502  0.15248954682E+03 -0.64421256224E+02  0.17476550996E+03  0.24076593117E+03  0.46999998093E+01 0. -1.
</event>
<event>
 5   0  0.7416638E-02  0.4995803E+03  0.7818609E-02  0.1013889E+00
        1   -1    0    0  501    0  0.00000000000E+00  0.00000000000E+00  0.31386539007E+03  0.31386539011E+03  0.50400001928E-02 0.  1.
       -1   -1    0    0    0  501  0.00000000000E+00  0.00000000000E+00 -0.19879581070E+03  0.19879581076E+03  0.50400001928E-02 0. -1.
    10030    2    1    2    0    0  0.00000000000E+00  0.00000000000E+00  0.11506957937E+03  0.51266120087E+03  0.49958032265E+03 0.  0.
        1    1    3    3  502    0  0.65385031321E+02 -0.15686152907E+03  0.24539756800E+03  0.29849741712E+03  0.50400001928E-02 0. -1.
       -1    1    3    3    0  502 -0.65385031321E+02  0.15686152907E+03 -0.13032798863E+03  0.21416378375E+03  0.50400001928E-02 0.  1.
</event>
<event>
 5   0  0.7416638E-02  0.4948420E+03  0.7818609E-02  0.1015134E+00
       -1   -1    0    0    0  501  0.00000000000E+00  0.00000000000E+00  0.70969398997E+02  0.70969399176E+02  0.50400001928E-02 0. -1.
        1   -1    0    0  501    0  0.00000000000E+00  0.00000000000E+00 -0.86258531236E+03  0.86258531237E+03  0.50400001928E-02 0.  1.
    10030    2    1    2    0    0  0.00000000000E+00  0.00000000000E+00 -0.79161591336E+03  0.93355471155E+03  0.49484204062E+03 0.  0.
        1    1    3    3  502    0  0.22335812809E+03 -0.95721214631E+02 -0.48360462681E+03  0.54122531298E+03  0.50400001928E-02 0. -1.
       -1    1    3    3    0  502 -0.22335812809E+03  0.95721214631E+02 -0.30801128655E+03  0.39232939857E+03  0.50400001928E-02 0.  1.
</event>
<event>
 5   0  0.1191894E-01  0.4989379E+03  0.7818609E-02  0.1014056E+00
        2   -1    0    0  501    0  0.00000000000E+00  0.00000000000E+00  0.17476737817E+04  0.17476737817E+04  0.25500000920E-02 0.  1.
       -2   -1    0    0    0  501  0.00000000000E+00  0.00000000000E+00 -0.35610059310E+02  0.35610059401E+02  0.25500000920E-02 0. -1.
    10030    2    1    2    0    0  0.00000000000E+00  0.00000000000E+00  0.17120637224E+04  0.17832838411E+04  0.49893794044E+03 0.  0.
        3    1    3    3  502    0 -0.15982705731E+03  0.19086310000E+03  0.91381240594E+03  0.94711484765E+03  0.10100000352E+00 0.  1.
       -3    1    3    3    0  502  0.15982705731E+03 -0.19086310000E+03  0.79825131647E+03  0.83616899347E+03  0.10100000352E+00 0. -1.
</event>
<event>
 5   0  0.7781754E-02  0.4953728E+03  0.7818609E-02  0.1014994E+00
        1   -1    0    0  501    0  0.00000000000E+00  0.00000000000E+00  0.66397496604E+03  0.66397496606E+03  0.50400001928E-02 0. -1.
       -1   -1    0    0    0  501  0.00000000000E+00  0.00000000000E+00 -0.92395878714E+02  0.92395878851E+02  0.50400001928E-02 0.  1.
    10030    2    1    2    0    0  0.00000000000E+00  0.00000000000E+00  0.57157908732E+03  0.75637084491E+03  0.49537279090E+03 0.  0.
        2    1    3    3  502    0 -0.18306405172E+03  0.21329580866E+02  0.53844489026E+03  0.56911360720E+03  0.25500000920E-02 0. -1.
       -2    1    3    3    0  502  0.18306405172E+03 -0.21329580866E+02  0.33134197063E+02  0.18725723770E+03  0.25500000920E-02 0.  1.
</event>
<event>
 5   0  0.7416638E-02  0.5012972E+03  0.7818609E-02  0.1013441E+00
        1   -1    0    0  501    0  0.00000000000E+00  0.00000000000E+00  0.45533242074E+03  0.45533242076E+03  0.50400001928E-02 0.  1.
       -1   -1    0    0    0  501  0.00000000000E+00  0.00000000000E+00 -0.13797553178E+03  0.13797553187E+03  0.50400001928E-02 0. -1.
    10030    2    1    2    0    0  0.00000000000E+00  0.00000000000E+00  0.31735688896E+03  0.59330795263E+03  0.50129724883E+03 0.  0.
        1    1    3    3  502    0 -0.10666540658E+03  0.21589929653E+03  0.76384020755E+02  0.25263517937E+03  0.50400001928E-02 0. -1.
       -1    1    3    3    0  502  0.10666540658E+03 -0.21589929653E+03  0.24097286821E+03  0.34067277326E+03  0.50400001928E-02 0.  1.
</event>
<event>
 5   0  0.1211345E-01  0.4991523E+03  0.7818609E-02  0.1014000E+00
       -2   -1    0    0    0  501  0.00000000000E+00  0.00000000000E+00  0.91322748748E+02  0.91322748784E+02  0.25500000920E-02 0. -1.
        2   -1    0    0  501    0  0.00000000000E+00  0.00000000000E+00 -0.68206709809E+03  0.68206709809E+03  0.25500000920E-02 0.  1.
    10030    2    1    2    0    0  0.00000000000E+00  0.00000000000E+00 -0.59074434934E+03  0.77338984687E+03  0.49915225029E+03 0.  0.
        5    1    3    3  502    0 -0.21263958184E+03  0.13002967970E+03 -0.31389020232E+03  0.40083969175E+03  0.46999998093E+01 0. -1.
       -5    1    3    3    0  502  0.21263958184E+03 -0.13002967970E+03 -0.27685414702E+03  0.37255015513E+03  0.46999998093E+01 0.  1.
</event>
<event>
 5   0  0.7602288E-02  0.4976628E+03  0.7818609E-02  0.1014391E+00
        1   -1    0    0  501    0  0.00000000000E+00  0.00000000000E+00  0.11769015749E+04  0.11769015749E+04  0.50400001928E-02 0. -1.
       -1   -1    0    0    0  501  0.00000000000E+00  0.00000000000E+00 -0.52610226881E+02  0.52610227122E+02  0.50400001928E-02 0.  1.
    10030    2    1    2    0    0  0.00000000000E+00  0.00000000000E+00  0.11242913480E+04  0.12295118020E+04  0.49766277348E+03 0.  0.
        5    1    3    3  502    0 -0.10822015209E+03  0.21884974638E+03  0.68032469341E+03  0.72282127201E+03  0.46999998093E+01 0. -1.
       -5    1    3    3    0  502  0.10822015209E+03 -0.21884974638E+03  0.44396665460E+03  0.50669053001E+03  0.46999998093E+01 0.  1.
</event>
<event>
 5   0  0.1191894E-01  0.5334442E+03  0.7818609E-02  0.1005400E+00
       -2   -1    0    0    0  501  0.00000000000E+00  0.00000000000E+00  0.16871777196E+03  0.16871777198E+03  0.25500000920E-02 0. -1.
        2   -1    0    0  501    0  0.00000000000E+00  0.00000000000E+00 -0.42165485447E+03  0.42165485447E+03  0.25500000920E-02 0.  1.
    10030    2    1    2    0    0  0.00000000000E+00  0.00000000000E+00 -0.25293708250E+03  0.59037262646E+03  0.53344415862E+03 0.  0.
        3    1    3    3  502    0  0.23485696498E+03 -0.90451764830E+02 -0.22421969612E+03  0.33706645945E+03  0.10100000352E+00 0.  1.
       -3    1    3    3    0  502 -0.23485696498E+03  0.90451764830E+02 -0.28717386387E+02  0.25330616701E+03  0.10100000352E+00 0. -1.
</event>
<event>
 5   0  0.7781754E-02  0.4901666E+03  0.7818609E-02  0.1016378E+00
        1   -1    0    0  501    0  0.00000000000E+00  0.00000000000E+00  0.13112847560E+03  0.13112847569E+03  0.50400001928E-02 0. -1.
       -1   -1    0    0    0  501  0.00000000000E+00  0.00000000000E+00 -0.45806846686E+03  0.45806846688E+03  0.50400001928E-02 0.  1.
    10030    2    1    2    0    0  0.00000000000E+00  0.00000000000E+00 -0.32693999126E+03  0.58919694258E+03  0.49016658317E+03 0.  0.
        2    1    3    3  502    0  0.22678978150E+03 -0.76691642287E+02 -0.10042784188E+03  0.25961695712E+03  0.25500000920E-02 0. -1.
       -2    1    3    3    0  502 -0.22678978150E+03  0.76691642287E+02 -0.22651214938E+03  0.32957998546E+03  0.25500000920E-02 0.  1.
</event>
<event>
 5   0  0.7781754E-02  0.4997923E+03  0.7818609E-02  0.1013833E+00
       -1   -1    0    0    0  501  0.00000000000E+00  0.00000000000E+00  0.15616588086E+03  0.15616588095E+03  0.50400001928E-02 0.  1.
        1   -1    0    0  501    0  0.00000000000E+00  0.00000000000E+00 -0.39988305745E+03  0.39988305748E+03  0.50400001928E-02 0. -1.
    10030    2    1    2    0    0  0.00000000000E+00  0.00000000000E+00 -0.24371717658E+03  0.55604893842E+03  0.49979231663E+03 0.  0.
        2    1    3    3  502    0  0.10203267291E+03 -0.75215123659E+02 -0.36145997209E+03  0.38304215512E+03  0.25500000920E-02 0. -1.
       -2    1    3    3    0  502 -0.10203267291E+03  0.75215123659E+02  0.11774279551E+03  0.17300678330E+03  0.25500000920E-02 0.  1.
</event>
<event>
 5   0  0.7812547E-02  0.4246463E+03  0.7818609E-02  0.1035565E+00
       -1   -1    0    0    0  501  0.00000000000E+00  0.00000000000E+00  0.14723866791E+03  0.14723866799E+03  0.50400001928E-02 0.  1.
        1   -1    0    0  501    0  0.00000000000E+00  0.00000000000E+00 -0.30617720813E+03  0.30617720817E+03  0.50400001928E-02 0. -1.
    10030    2    1    2    0    0  0.00000000000E+00  0.00000000000E+00 -0.15893854022E+03  0.45341587616E+03  0.42464632012E+03 0.  0.
        4    1    3    3  502    0  0.14426742386E+03 -0.15570363122E+03 -0.74370720763E+02  0.22492071352E+03  0.12699999809E+01 0. -1.
       -4    1    3    3    0  502 -0.14426742386E+03  0.15570363122E+03 -0.84567819458E+02  0.22849516264E+03  0.12699999809E+01 0.  1.
</event>
<event>
 5   0  0.7812547E-02  0.4992206E+03  0.7818609E-02  0.1013983E+00
       -1   -1    0    0    0  501  0.00000000000E+00  0.00000000000E+00  0.69613852032E+02  0.69613852215E+02  0.50400001928E-02 0. -1.
        1   -1    0    0  501    0  0.00000000000E+00  0.00000000000E+00 -0.89501311550E+03  0.89501311551E+03  0.50400001928E-02 0.  1.
    10030    2    1    2    0    0  0.00000000000E+00  0.00000000000E+00 -0.82539926347E+03  0.96462696773E+03  0.49922063533E+03 0.  0.
        4    1    3    3  502    0  0.42339896955E+02 -0.17702962098E+03 -0.74272443448E+03  0.76470474829E+03  0.12699999809E+01 0.  1.
       -4    1    3    3    0  502 -0.42339896955E+02  0.17702962098E+03 -0.82674828985E+02  0.19992221944E+03  0.12699999809E+01 0. -1.
</event>
<event>
 5   0  0.1279188E-01  0.4983034E+03  0.7818609E-02  0.1014223E+00
        2   -1    0    0  501    0  0.00000000000E+00  0.00000000000E+00  0.54046684305E+03  0.54046684306E+03  0.25500000920E-02 0. -1.
       -2   -1    0    0    0  501  0.00000000000E+00  0.00000000000E+00 -0.11485731573E+03  0.11485731576E+03  0.25500000920E-02 0.  1.
    10030    2    1    2    0    0  0.00000000000E+00  0.00000000000E+00  0.42560952732E+03  0.65532415882E+03  0.49830340496E+03 0.  0.
        2    1    3    3  502    0  0.40642176489E+02 -0.20907952189E+03  0.38280813669E+03  0.43807317027E+03  0.25500000920E-02 0.  1.
       -2    1    3    3    0  502 -0.40642176489E+02  0.20907952189E+03  0.42801390624E+02  0.21725098855E+03  0.25500000920E-02 0. -1.
</event>
<event>
 5   0  0.1231822E-01  0.4980448E+03  0.7818609E-02  0.1014291E+00
        2   -1    0    0  501    0  0.00000000000E+00  0.00000000000E+00  0.11470962154E+04  0.11470962154E+04  0.25500000920E-02 0. -1.
       -2   -1    0    0    0  501  0.00000000000E+00  0.00000000000E+00 -0.54060118655E+02  0.54060118715E+02  0.25500000920E-02 0.  1.
    10030    2    1    2    0    0  0.00000000000E+00  0.00000000000E+00  0.10930360967E+04  0.12011563341E+04  0.49804480742E+03 0.  0.
        1    1    3    3  502    0 -0.38772662678E+02  0.71278750363E+02  0.11143193978E+04  0.11172697526E+04  0.50400001928E-02 0. -1.
       -1    1    3    3    0  502  0.38772662678E+02 -0.71278750363E+02 -0.21283301119E+02  0.83886581504E+02  0.50400001928E-02 0.  1.
</event>
<event>
 5   0  0.1191894E-01  0.4975191E+03  0.7818609E-02  0.1014429E+00
       -2   -1    0    0    0  501  0.00000000000E+00  0.00000000000E+00  0.45365616347E+02  0.45365616419E+02  0.25500000920E-02 0. -1.
        2   -1    0    0  501    0  0.00000000000E+00  0.00000000000E+00 -0.13640576045E+04  0.13640576045E+04  0.25500000920E-02 0.  1.
    10030    2    1    2    0    0  0.00000000000E+00  0.00000000000E+00 -0.13186919881E+04  0.14094232209E+04  0.49751910119E+03 0.  0.
        3    1    3    3  502    0  0.10493803511E+03 -0.19304618067E+03 -0.32894542496E+03  0.39558048724E+03  0.10100000352E+00 0. -1.
       -3    1    3    3    0  502 -0.10493803511E+03  0.19304618067E+03 -0.98974656319E+03  0.10138427337E+04  0.10100000352E+00 0.  1.
</event>
<event>
 5   0  0.1231822E-01  0.5028142E+03  0.7818609E-02  0.1013047E+00
        2   -1    0    0  501    0  0.00000000000E+00  0.00000000000E+00  0.10977276988E+03  0.10977276991E+03  0.25500000920E-02 0. -1.
       -2   -1    0    0    0  501  0.00000000000E+00  0.00000000000E+00 -0.57578524798E+03  0.57578524798E+03  0.25500000920E-02 0.  1.
    10030    2    1    2    0    0  0.00000000000E+00  0.00000000000E+00 -0.46601247810E+03  0.68555801789E+03  0.50281424617E+03 0.  0.
        1    1    3    3  502    0 -0.50908094660E+02 -0.86813974101E+02 -0.54712278382E+03  0.55630175337E+03  0.50400001928E-02 0.  1.
       -1    1    3    3    0  502  0.50908094660E+02  0.86813974101E+02  0.81110305717E+02  0.12925626453E+03  0.50400001928E-02 0. -1.
</event>
<event>
 5   0  0.1243803E-01  0.5011759E+03  0.7818609E-02  0.1013472E+00
        2   -1    0    0  501    0  0.00000000000E+00  0.00000000000E+00  0.30289942352E+03  0.30289942353E+03  0.25500000920E-02 0.  1.
       -2   -1    0    0    0  501  0.00000000000E+00  0.00000000000E+00 -0.20731082767E+03  0.20731082768E+03  0.25500000920E-02 0. -1.
    10030    2    1    2    0    0  0.00000000000E+00  0.00000000000E+00  0.95588595847E+02  0.51021025121E+03  0.50117593795E+03 0.  0.
        4    1    3    3  502    0  0.44229254732E+02 -0.20394777553E+03 -0.93421005056E+02  0.22864824338E+03  0.12699999809E+01 0. -1.
       -4    1    3    3    0  502 -0.44229254732E+02  0.20394777553E+03  0.18900960090E+03  0.28156200783E+03  0.12699999809E+01 0.  1.
</event>
<event>
 5   0  0.7416638E-02  0.5004954E+03  0.7818609E-02  0.1013650E+00
        1   -1    0    0  501    0  0.00000000000E+00  0.00000000000E+00  0.11345964057E+04  0.11345964057E+04  0.50400001928E-02 0. -1.
       -1   -1    0    0    0  501  0.00000000000E+00  0.00000000000E+00 -0.55194882418E+02  0.55194882648E+02  0.50400001928E-02 0.  1.
    10030    2    1    2    0    0  0.00000000000E+00  0.00000000000E+00  0.10794015233E+04  0.11897912884E+04  0.50049541595E+03 0.  0.
        1    1    3    3  502    0  0.19300404557E+03 -0.15596801917E+03  0.46276777371E+03  0.52510055896E+03  0.50400001928E-02 0.  1.
       -1    1    3    3    0  502 -0.19300404557E+03  0.15596801917E+03  0.61663374957E+03  0.66469072939E+03  0.50400001928E-02 0. -1.
</event>
<event>
 5   0  0.7416638E-02  0.4994051E+03  0.7818609E-02  0.1013934E+00
        1   -1    0    0  501    0  0.00000000000E+00  0.00000000000E+00  0.25806787645E+03  0.25806787650E+03  0.50400001928E-02 0.  1.
       -1   -1    0    0    0  501  0.00000000000E+00  0.00000000000E+00 -0.24160840781E+03  0.24160840786E+03  0.50400001928E-02 0. -1.
    10030    2    1    2    0    0  0.00000000000E+00  0.00000000000E+00  0.16459468638E+02  0.49967628436E+03  0.49940512116E+03 0.  0.
        1    1    3    3  502    0 -0.56187208597E+02 -0.16935299450E+03 -0.16654748106E+03  0.24408093459E+03  0.50400001928E-02 0. -1.
       -1    1    3    3    0  502  0.56187208597E+02  0.16935299450E+03  0.18300694970E+03  0.25559534976E+03  0.50400001928E-02 0.  1.
</event>
<event>
 5   0  0.7602288E-02  0.5022001E+03  0.7818609E-02  0.1013206E+00
        1   -1    0    0  501    0  0.00000000000E+00  0.00000000000E+00  0.73987674540E+02  0.73987674711E+02  0.50400001928E-02 0. -1.
       -1   -1    0    0    0  501  0.00000000000E+00  0.00000000000E+00 -0.85218551490E+03  0.85218551492E+03  0.50400001928E-02 0.  1.
    10030    2    1    2    0    0  0.00000000000E+00  0.00000000000E+00 -0.77819784036E+03  0.92617318963E+03  0.50220005819E+03 0.  0.
        5    1    3    3  502    0 -0.88836550048E+02 -0.22936371686E+03 -0.48185271875E+03  0.54102105301E+03  0.46999998093E+01 0. -1.
       -5    1    3    3    0  502  0.88836550048E+02  0.22936371686E+03 -0.29634512162E+03  0.38515213662E+03  0.46999998093E+01 0.  1.
</event>
<event>
 5   0  0.7812547E-02  0.5022907E+03  0.7818609E-02  0.1013183E+00
        1   -1    0    0  501    0  0.00000000000E+00  0.00000000000E+00  0.26677070769E+03  0.26677070774E+03  0.50400001928E-02 0. -1.
       -1   -1    0    0    0  501  0.00000000000E+00  0.00000000000E+00 -0.23643524907E+03  0.23643524912E+03  0.50400001928E-02 0.  1.
    10030    2    1    2    0    0  0.00000000000E+00  0.00000000000E+00  0.30335458626E+02  0.50320595686E+03  0.50229074744E+03 0.  0.
        4    1    3    3  502    0  0.16030211168E+03 -0.17026871199E+03 -0.76564301863E+02  0.24607296989E+03  0.12699999809E+01 0.  1.
       -4    1    3    3    0  502 -0.16030211168E+03  0.17026871199E+03  0.10689976049E+03  0.25713298696E+03  0.12699999809E+01 0. -1.
</event>
<event>
 5   0  0.7812547E-02  0.4995295E+03  0.7818609E-02  0.1013902E+00
        1   -1    0    0  501    0  0.00000000000E+00  0.00000000000E+00  0.24125893953E+04  0.24125893953E+04  0.50400001928E-02 0. -1.
       -1   -1    0    0    0  501  0.00000000000E+00  0.00000000000E+00 -0.25857041197E+02  0.25857041688E+02  0.50400001928E-02 0.  1.
    10030    2    1    2    0    0  0.00000000000E+00  0.00000000000E+00  0.23867323541E+04  0.24384464369E+04  0.49952947456E+03 0.  0.
        4    1    3    3  502    0  0.51000182915E+02  0.37788814290E+02  0.23725437826E+04  0.23733930619E+04  0.12699999809E+01 0. -1.
       -4    1    3    3    0  502 -0.51000182915E+02 -0.37788814290E+02  0.14188571467E+02  0.65053375032E+02  0.12699999809E+01 0.  1.
</event>
<event>
 5   0  0.7531632E-02  0.5082443E+03  0.7818609E-02  0.1011649E+00
        1   -1    0    0  501    0  0.00000000000E+00  0.00000000000E+00  0.18545313457E+04  0.18545313457E+04  0.50400001928E-02 0. -1.
       -1   -1    0    0    0  501  0.00000000000E+00  0.00000000000E+00 -0.34821766017E+02  0.34821766381E+02  0.50400001928E-02 0.  1.
    10030    2    1    2    0    0  0.00000000000E+00  0.00000000000E+00  0.18197095797E+04  0.18893531121E+04  0.50824425994E+03 0.  0.
        3    1    3    3  502    0 -0.13372713501E+03  0.48599406386E+02  0.16925725353E+04  0.16985425065E+04  0.10100000352E+00 0. -1.
       -3    1    3    3    0  502  0.13372713501E+03 -0.48599406386E+02  0.12713704431E+03  0.19081060552E+03  0.10100000352E+00 0.  1.
</event>
<event>
 5   0  0.1243803E-01  0.4984607E+03  0.7818609E-02  0.1014181E+00
        2   -1    0    0  501    0  0.00000000000E+00  0.00000000000E+00  0.66245316453E+03  0.66245316454E+03  0.25500000920E-02 0. -1.
       -2   -1    0    0    0  501  0.00000000000E+00  0.00000000000E+00 -0.93766275371E+02  0.93766275406E+02  0.25500000920E-02 0.  1.
    10030    2    1    2    0    0  0.00000000000E+00  0.00000000000E+00  0.56868688916E+03  0.75621943994E+03  0.49846069398E+03 0.  0.
        4    1    3    3  502    0  0.20879930079E+03  0.11906800962E+03  0.18440042201E+03  0.30295126252E+03  0.12699999809E+01 0.  1.
       -4    1    3    3    0  502 -0.20879930079E+03 -0.11906800962E+03  0.38428646715E+03  0.45326817742E+03  0.12699999809E+01 0. -1.
</event>
<event>
 5   0  0.7781754E-02  0.5015121E+03  0.7818609E-02  0.1013385E+00
       -1   -1    0    0    0  501  0.00000000000E+00  0.00000000000E+00  0.20471447835E+03  0.20471447841E+03  0.50400001928E-02 0.  1.
        1   -1    0    0  501    0  0.00000000000E+00  0.00000000000E+00 -0.30715264739E+03  0.30715264743E+03  0.50400001928E-02 0. -1.
    10030    2    1    2    0    0  0.00000000000E+00  0.00000000000E+00 -0.10243816904E+03  0.51186712585E+03  0.50151208963E+03 0.  0.
        2    1    3    3  502    0 -0.91786053196E+02 -0.18208717814E+03 -0.20017131707E+03  0.28574284976E+03  0.25500000920E-02 0. -1.
       -2    1    3    3    0  502  0.91786053196E+02  0.18208717814E+03  0.97733148029E+02  0.22612427609E+03  0.25500000920E-02 0.  1.
</event>
<event>
 5   0  0.7531632E-02  0.4994606E+03  0.7818609E-02  0.1013920E+00
        1   -1    0    0  501    0  0.00000000000E+00  0.00000000000E+00  0.16872972216E+03  0.16872972224E+03  0.50400001928E-02 0. -1.
       -1   -1    0    0    0  501  0.00000000000E+00  0.00000000000E+00 -0.36961603791E+03  0.36961603794E+03  0.50400001928E-02 0.  1.
    10030    2    1    2    0    0  0.00000000000E+00  0.00000000000E+00 -0.20088631574E+03  0.53834576018E+03  0.49946055465E+03 0.  0.
        3    1    3    3  502    0 -0.19129523661E+03  0.15060104538E+03 -0.16036506579E+03  0.29153302891E+03  0.10100000352E+00 0.  1.
       -3    1    3    3    0  502  0.19129523661E+03 -0.15060104538E+03 -0.40521249950E+02  0.24681273127E+03  0.10100000352E+00 0. -1.
</event>
<event>
 5   0  0.1211345E-01  0.4982786E+03  0.7818609E-02  0.1014229E+00
       -2   -1    0    0    0  501  0.00000000000E+00  0.00000000000E+00  0.10785532098E+03  0.10785532101E+03  0.25500000920E-02 0.  1.
        2   -1    0    0  501    0  0.00000000000E+00  0.00000000000E+00 -0.57549682184E+03  0.57549682184E+03  0.25500000920E-02 0. -1.
    10030    2    1    2    0    0  0.00000000000E+00  0.00000000000E+00 -0.46764150086E+03  0.68335214285E+03  0.49827861464E+03 0.  0.
        5    1    3    3  502    0 -0.11286491559E+03  0.19481046709E+03 -0.37998345594E+03  0.44170026494E+03  0.46999998093E+01 0. -1.
       -5    1    3    3    0  502  0.11286491559E+03 -0.19481046709E+03 -0.87658044915E+02  0.24165187791E+03  0.46999998093E+01 0.  1.
</event>
<event>
 5   0  0.7781754E-02  0.4984534E+03  0.7818609E-02  0.1014183E+00
        1   -1    0    0  501    0  0.00000000000E+00  0.00000000000E+00  0.10016315626E+03  0.10016315638E+03  0.50400001928E-02 0. -1.
       -1   -1    0    0    0  501  0.00000000000E+00  0.00000000000E+00 -0.62012770519E+03  0.62012770521E+03  0.50400001928E-02 0.  1.
    10030    2    1    2    0    0  0.00000000000E+00  0.00000000000E+00 -0.51996454893E+03  0.72029086159E+03  0.49845340118E+03 0.  0.
        2    1    3    3  502    0 -0.11283825241E+03 -0.21086905869E+03 -0.36129798266E+03  0.43328335232E+03  0.25500000920E-02 0. -1.
       -2    1    3    3    0  502  0.11283825241E+03  0.21086905869E+03 -0.15866656627E+03  0.28700750927E+03  0.25500000920E-02 0.  1.
</event>
<event>
 5   0  0.7531632E-02  0.4914335E+03  0.7818609E-02  0.1016039E+00
        1   -1    0    0  501    0  0.00000000000E+00  0.00000000000E+00  0.85514385223E+03  0.85514385225E+03  0.50400001928E-02 0. -1.
       -1   -1    0    0    0  501  0.00000000000E+00  0.00000000000E+00 -0.70604181948E+02  0.70604182128E+02  0.50400001928E-02 0.  1.
    10030    2    1    2    0    0  0.00000000000E+00  0.00000000000E+00  0.78453967028E+03  0.92574803438E+03  0.49143354474E+03 0.  0.
        3    1    3    3  502    0 -0.52185548358E+02  0.23272838617E+03  0.50357005203E+03  0.55719712911E+03  0.10100000352E+00 0.  1.
       -3    1    3    3    0  502  0.52185548358E+02 -0.23272838617E+03  0.28096961825E+03  0.36855090526E+03  0.10100000352E+00 0. -1.
</event>
<event>
 5   0  0.7602288E-02  0.4990536E+03  0.7818609E-02  0.1014026E+00
        1   -1    0    0  501    0  0.00000000000E+00  0.00000000000E+00  0.95144032594E+02  0.95144032727E+02  0.50400001928E-02 0. -1.
       -1   -1    0    0    0  501  0.00000000000E+00  0.00000000000E+00 -0.65441441067E+03  0.65441441068E+03  0.50400001928E-02 0.  1.
    10030    2    1    2    0    0  0.00000000000E+00  0.00000000000E+00 -0.55927037807E+03  0.74955844341E+03  0.49905360865E+03 0.  0.
        5    1    3    3  502    0 -0.23725592222E+02  0.24657457523E+03 -0.23508970564E+03  0.34154236131E+03  0.46999998093E+01 0. -1.
       -5    1    3    3    0  502  0.23725592222E+02 -0.24657457523E+03 -0.32418067243E+03  0.40801608210E+03  0.46999998093E+01 0.  1.
</event>
<event>
 5   0  0.5006750E-02  0.5020245E+03  0.7818609E-02  0.1013252E+00
        3   -1    0    0  501    0  0.00000000000E+00  0.00000000000E+00  0.71437227476E+03  0.71437228190E+03  0.10100000352E+00 0.  1.
       -3   -1    0    0    0  501  0.00000000000E+00  0.00000000000E+00 -0.88199287266E+02  0.88199345095E+02  0.10100000352E+00 0. -1.
    10030    2    1    2    0    0  0.00000000000E+00  0.00000000000E+00  0.62617298749E+03  0.80257162699E+03  0.50202450756E+03 0.  0.
        5    1    3    3  502    0 -0.10936748694E+03 -0.20492360576E+03  0.46500332335E+03  0.51981257403E+03  0.46999998093E+01 0.  1.
       -5    1    3    3    0  502  0.10936748694E+03  0.20492360576E+03  0.16116966415E+03  0.28275905297E+03  0.46999998093E+01 0. -1.
</event>
<event>
 5   0  0.1279188E-01  0.5015790E+03  0.7818609E-02  0.1013368E+00
        2   -1    0    0  501    0  0.00000000000E+00  0.00000000000E+00  0.40563229444E+03  0.40563229444E+03  0.25500000920E-02 0. -1.
       -2   -1    0    0    0  501  0.00000000000E+00  0.00000000000E+00 -0.15505511931E+03  0.15505511933E+03  0.25500000920E-02 0.  1.
    10030    2    1    2    0    0  0.00000000000E+00  0.00000000000E+00  0.25057717513E+03  0.56068741377E+03  0.50157896214E+03 0.  0.
        2    1    3    3  502    0  0.96200058762E+02 -0.15803094221E+03 -0.63977860356E+02  0.19575851610E+03  0.25500000920E-02 0.  1.
       -2    1    3    3    0  502 -0.96200058762E+02  0.15803094221E+03  0.31455503549E+03  0.36492889768E+03  0.25500000920E-02 0. -1.
</event>
<event>
 5   0  0.1279188E-01  0.4975481E+03  0.7818609E-02  0.1014421E+00
       -2   -1    0    0    0  501  0.00000000000E+00  0.00000000000E+00  0.12969416630E+03  0.12969416632E+03  0.25500000920E-02 0.  1.
        2   -1    0    0  501    0  0.00000000000E+00  0.00000000000E+00 -0.47718822533E+03  0.47718822533E+03  0.25500000920E-02 0. -1.
    10030    2    1    2    0    0  0.00000000000E+00  0.00000000000E+00 -0.34749405903E+03  0.60688239166E+03  0.49754810445E+03 0.  0.
        2    1    3    3  502    0  0.18778082352E+03 -0.54030790121E+02 -0.36155453170E+03  0.41097766772E+03  0.25500000920E-02 0. -1.
       -2    1    3    3    0  502 -0.18778082352E+03  0.54030790121E+02  0.14060472668E+02  0.19590472394E+03  0.25500000920E-02 0.  1.
</event>
<event>
 5   0  0.1211345E-01  0.4996971E+03  0.7818609E-02  0.1013858E+00
        2   -1    0    0  501    0  0.00000000000E+00  0.00000000000E+00  0.31470190673E+03  0.31470190674E+03  0.25500000920E-02 0.  1.
       -2   -1    0    0    0  501  0.00000000000E+00  0.00000000000E+00 -0.19836010346E+03  0.19836010347E+03  0.25500000920E-02 0. -1.
    10030    2    1    2    0    0  0.00000000000E+00  0.00000000000E+00  0.11634180327E+03  0.51306201022E+03  0.49969711940E+03 0.  0.
        5    1    3    3  502    0 -0.60248219583E+02 -0.24155281827E+03  0.37013934008E+02  0.25173345683E+03  0.46999998093E+01 0.  1.
       -5    1    3    3    0  502  0.60248219583E+02  0.24155281827E+03  0.79327869265E+02  0.26132855339E+03  0.46999998093E+01 0. -1.
</event>
<event>
 5   0  0.1243803E-01  0.4935464E+03  0.7818609E-02  0.1015477E+00
        2   -1    0    0  501    0  0.00000000000E+00  0.00000000000E+00  0.74231963325E+03  0.74231963326E+03  0.25500000920E-02 0.  1.
       -2   -1    0    0    0  501  0.00000000000E+00  0.00000000000E+00 -0.82036120237E+02  0.82036120277E+02  0.25500000920E-02 0. -1.
    10030    2    1    2    0    0  0.00000000000E+00  0.00000000000E+00  0.66028351301E+03  0.82435575353E+03  0.49354644242E+03 0.  0.
        4    1    3    3  502    0 -0.24324442391E+02  0.14103292039E+03  0.66591771162E+03  0.68112405234E+03  0.12699999809E+01 0.  1.
       -4    1    3    3    0  502  0.24324442391E+02 -0.14103292039E+03 -0.56341986050E+01  0.14323170119E+03  0.12699999809E+01 0. -1.
</event>
<event>
 5   0  0.7416638E-02  0.5052009E+03  0.7818609E-02  0.1012430E+00
        1   -1    0    0  501    0  0.00000000000E+00  0.00000000000E+00  0.70293260034E+03  0.70293260036E+03  0.50400001928E-02 0.  1.
       -1   -1    0    0    0  501  0.00000000000E+00  0.00000000000E+00 -0.90772545184E+02  0.90772545324E+02  0.50400001928E-02 0. -1.
    10030    2    1    2    0    0  0.00000000000E+00  0.00000000000E+00  0.61216005516E+03  0.79370514568E+03  0.50520087604E+03 0.  0.
        1    1    3    3  502    0  0.13747402268E+03 -0.20478699526E+03  0.22045808221E+03  0.33081503348E+03  0.50400001928E-02 0. -1.
       -1    1    3    3    0  502 -0.13747402268E+03  0.20478699526E+03  0.39170197295E+03  0.46289011221E+03  0.50400001928E-02 0.  1.
</event>
<event>
 5   0  0.1243803E-01  0.5022672E+03  0.7818609E-02  0.1013189E+00
        2   -1    0    0  501    0  0.00000000000E+00  0.00000000000E+00  0.12025881792E+03  0.12025881795E+03  0.25500000920E-02 0.  1.
       -2   -1    0    0    0  501  0.00000000000E+00  0.00000000000E+00 -0.52443618100E+03  0.52443618101E+03  0.25500000920E-02 0. -1.
    10030    2    1    2    0    0  0.00000000000E+00  0.00000000000E+00 -0.40417736308E+03  0.64469499895E+03  0.50226716083E+03 0.  0.
        4    1    3    3  502    0 -0.24832380416E+03 -0.14286083045E+02 -0.24650944368E+03  0.35019612020E+03  0.12699999809E+01 0. -1.
       -4    1    3    3    0  502  0.24832380416E+03  0.14286083045E+02 -0.15766791940E+03  0.29449887875E+03  0.12699999809E+01 0.  1.
</event>
<event>
 5   0  0.7812547E-02  0.5001179E+03  0.7818609E-02  0.1013748E+00
       -1   -1    0    0    0  501  0.00000000000E+00  0.00000000000E+00  0.80400181844E+02  0.80400182002E+02  0.50400001928E-02 0. -1.
        1   -1    0    0  501    0  0.00000000000E+00  0.00000000000E+00 -0.77772810014E+03  0.77772810016E+03  0.50400001928E-02 0.  1.
    10030    2    1    2    0    0  0.00000000000E+00  0.00000000000E+00 -0.69732791830E+03  0.85812828216E+03  0.50011790910E+03 0.  0.
        4    1    3    3  502    0  0.40950748476E+02  0.21542750650E+03 -0.55486548647E+03  0.59662659624E+03  0.12699999809E+01 0.  1.
       -4    1    3    3    0  502 -0.40950748476E+02 -0.21542750650E+03 -0.14246243182E+03  0.26150168592E+03  0.12699999809E+01 0. -1.
</event>
<event>
 5   0  0.1231822E-01  0.5021767E+03  0.7818609E-02  0.1013212E+00
        2   -1    0    0  501    0  0.00000000000E+00  0.00000000000E+00  0.39005897991E+03  0.39005897992E+03  0.25500000920E-02 0. -1.
       -2   -1    0    0    0  501  0.00000000000E+00  0.00000000000E+00 -0.16163029251E+03  0.16163029253E+03  0.25500000920E-02 0.  1.
    10030    2    1    2    0    0  0.00000000000E+00  0.00000000000E+00  0.22842868740E+03  0.55168927246E+03  0.50217665031E+03 0.  0.
        1    1    3    3  502    0 -0.53307252819E+02  0.69502965014E+02 -0.14430148241E+03  0.16880534114E+03  0.50400001928E-02 0.  1.
       -1    1    3    3    0  502  0.53307252819E+02 -0.69502965014E+02  0.37273016980E+03  0.38288393131E+03  0.50400001928E-02 0. -1.
</event>
<event>
 5   0  0.7531632E-02  0.5000714E+03  0.7818609E-02  0.1013760E+00
        1   -1    0    0  501    0  0.00000000000E+00  0.00000000000E+00  0.42025936379E+03  0.42025936383E+03  0.50400001928E-02 0. -1.
       -1   -1    0    0    0  501  0.00000000000E+00  0.00000000000E+00 -0.14876018323E+03  0.14876018331E+03  0.50400001928E-02 0.  1.
    10030    2    1    2    0    0  0.00000000000E+00  0.00000000000E+00  0.27149918057E+03  0.56901954714E+03  0.50007143488E+03 0.  0.
        3    1    3    3  502    0  0.81393890681E+02 -0.15862798932E+03  0.33521920043E+03  0.37968371966E+03  0.10100000352E+00 0. -1.
       -3    1    3    3    0  502 -0.81393890681E+02  0.15862798932E+03 -0.63720019866E+02  0.18933582748E+03  0.10100000352E+00 0.  1.
</event>
<event>
 5   0  0.1191894E-01  0.5011804E+03  0.7818609E-02  0.1013471E+00
       -2   -1    0    0    0  501  0.00000000000E+00  0.00000000000E+00  0.25011989103E+02  0.25011989233E+02  0.25500000920E-02 0. -1.
        2   -1    0    0  501    0  0.00000000000E+00  0.00000000000E+00 -0.25106135353E+04  0.25106135353E+04  0.25500000920E-02 0.  1.
    10030    2    1    2    0    0  0.00000000000E+00  0.00000000000E+00 -0.24856015462E+04  0.25356255246E+04  0.50118036096E+03 0.  0.
        3    1    3    3  502    0  0.28810613390E+01 -0.68037173505E+02 -0.24629025692E+04  0.24638438329E+04  0.10100000352E+00 0.  1.
       -3    1    3    3    0  502 -0.28810613390E+01  0.68037173505E+02 -0.22698977008E+02  0.71781691615E+02  0.10100000352E+00 0. -1.
</event>
<event>
 5   0  0.7602288E-02  0.5050998E+03  0.7818609E-02  0.1012456E+00
       -1   -1    0    0    0  501  0.00000000000E+00  0.00000000000E+00  0.23793802947E+03  0.23793802952E+03  0.50400001928E-02 0.  1.
        1   -1    0    0  501    0  0.00000000000E+00  0.00000000000E+00 -0.26805909642E+03  0.26805909646E+03  0.50400001928E-02 0. -1.
    10030    2    1    2    0    0  0.00000000000E+00  0.00000000000E+00 -0.30121066949E+02  0.50599712598E+03  0.50509980482E+03 0.  0.
        5    1    3    3  502    0  0.18320556776E+03 -0.15318320452E+03 -0.97242783360E+02  0.25789071934E+03  0.46999998093E+01 0. -1.
       -5    1    3    3    0  502 -0.18320556776E+03  0.15318320452E+03  0.67121716410E+02  0.24810640665E+03  0.46999998093E+01 0.  1.
</event>
<event>
 5   0  0.1231822E-01  0.5041520E+03  0.7818609E-02  0.1012701E+00
       -2   -1    0    0    0  501  0.00000000000E+00  0.00000000000E+00  0.20669327215E+03  0.20669327217E+03  0.25500000920E-02 0.  1.
        2   -1    0    0  501    0  0.00000000000E+00  0.00000000000E+00 -0.30742320865E+03  0.30742320866E+03  0.25500000920E-02 0. -1.
    10030    2    1    2    0    0  0.00000000000E+00  0.00000000000E+00 -0.10072993650E+03  0.51411648083E+03  0.50415199668E+03 0.  0.
        1    1    3    3  502    0  0.83390221766E+02 -0.14429229987E+03  0.14249764324E+03  0.21927100867E+03  0.50400001928E-02 0.  1.
       -1    1    3    3    0  502 -0.83390221766E+02  0.14429229987E+03 -0.24322757973E+03  0.29484547216E+03  0.50400001928E-02 0. -1.
</event>
<event>
 5   0  0.1191894E-01  0.5023503E+03  0.7818609E-02  0.1013167E+00
       -2   -1    0    0    0  501  0.00000000000E+00  0.00000000000E+00  0.91111236058E+02  0.91111236093E+02  0.25500000920E-02 0.  1.
        2   -1    0    0  501    0  0.00000000000E+00  0.00000000000E+00 -0.69243891411E+03  0.69243891411E+03  0.25500000920E-02 0. -1.
    10030    2    1    2    0    0  0.00000000000E+00  0.00000000000E+00 -0.60132767805E+03  0.78355015021E+03  0.50235033741E+03 0.  0.
        3    1    3    3  502    0 -0.37811335563E+02  0.35717992673E+02 -0.68394650639E+03  0.68592150127E+03  0.10100000352E+00 0. -1.
       -3    1    3    3    0  502  0.37811335563E+02 -0.35717992673E+02  0.82618828336E+02  0.97628648942E+02  0.10100000352E+00 0.  1.
</event>
<event>
 5   0  0.7602288E-02  0.4945912E+03  0.7818609E-02  0.1015200E+00
       -1   -1    0    0    0  501  0.00000000000E+00  0.00000000000E+00  0.11885334833E+03  0.11885334844E+03  0.50400001928E-02 0.  1.
        1   -1    0    0  501    0  0.00000000000E+00  0.00000000000E+00 -0.51454264958E+03  0.51454264961E+03  0.50400001928E-02 0. -1.
    10030    2    1    2    0    0  0.00000000000E+00  0.00000000000E+00 -0.39568930125E+03  0.63339599805E+03  0.49459121224E+03 0.  0.
        5    1    3    3  502    0  0.94792523517E+02  0.16867420091E+02  0.93802202530E+02  0.13450306901E+03  0.46999998093E+01 0.  1.
       -5    1    3    3    0  502 -0.94792523517E+02 -0.16867420091E+02 -0.48949150378E+03  0.49889292904E+03  0.46999998093E+01 0. -1.
</event>
<event>
 5   0  0.7812547E-02  0.4951976E+03  0.7818609E-02  0.1015040E+00
       -1   -1    0    0    0  501  0.00000000000E+00  0.00000000000E+00  0.11000267898E+03  0.11000267910E+03  0.50400001928E-02 0.  1.
        1   -1    0    0  501    0  0.00000000000E+00  0.00000000000E+00 -0.55730615522E+03  0.55730615524E+03  0.50400001928E-02 0. -1.
    10030    2    1    2    0    0  0.00000000000E+00  0.00000000000E+00 -0.44730347624E+03  0.66730883434E+03  0.49519761765E+03 0.  0.
        4    1    3    3  502    0  0.12286761005E+03 -0.92944767111E+02  0.37540068678E+02  0.15857505791E+03  0.12699999809E+01 0.  1.
       -4    1    3    3    0  502 -0.12286761005E+03  0.92944767111E+02 -0.48484354492E+03  0.50873377643E+03  0.12699999809E+01 0. -1.
</event>
<event>
 5   0  0.7781754E-02  0.4547237E+03  0.7818609E-02  0.1026323E+00
        1   -1    0    0  501    0  0.00000000000E+00  0.00000000000E+00  0.22692662955E+03  0.22692662961E+03  0.50400001928E-02 0. -1.
       -1   -1    0    0    0  501  0.00000000000E+00  0.00000000000E+00 -0.22779785709E+03  0.22779785715E+03  0.50400001928E-02 0.  1.
    10030    2    1    2    0    0  0.00000000000E+00  0.00000000000E+00 -0.87122754198E+00  0.45472448676E+03  0.45472365214E+03 0.  0.
        2    1    3    3  502    0  0.95810949365E+02  0.19153069689E+03  0.75916697777E+02  0.22721595648E+03  0.25500000920E-02 0. -1.
       -2    1    3    3    0  502 -0.95810949365E+02 -0.19153069689E+03 -0.76787925319E+02  0.22750853028E+03  0.25500000920E-02 0.  1.
</event>
<event>
 5   0  0.1243803E-01  0.5040273E+03  0.7818609E-02  0.1012733E+00
       -2   -1    0    0    0  501  0.00000000000E+00  0.00000000000E+00  0.11498301647E+03  0.11498301650E+03  0.25500000920E-02 0.  1.
        2   -1    0    0  501    0  0.00000000000E+00  0.00000000000E+00 -0.55235009347E+03  0.55235009348E+03  0.25500000920E-02 0. -1.
    10030    2    1    2    0    0  0.00000000000E+00  0.00000000000E+00 -0.43736707700E+03  0.66733310998E+03  0.50402730048E+03 0.  0.
        4    1    3    3  502    0  0.22507294405E+03  0.10753983863E+03 -0.26617480557E+03  0.36479211485E+03  0.12699999809E+01 0. -1.
       -4    1    3    3    0  502 -0.22507294405E+03 -0.10753983863E+03 -0.17119227143E+03  0.30254099513E+03  0.12699999809E+01 0.  1.
</event>
<event>
 5   0  0.1231822E-01  0.5008093E+03  0.7818609E-02  0.1013568E+00
       -2   -1    0    0    0  501  0.00000000000E+00  0.00000000000E+00  0.57046485774E+02  0.57046485831E+02  0.25500000920E-02 0. -1.
        2   -1    0    0  501    0  0.00000000000E+00  0.00000000000E+00 -0.10991472812E+04  0.10991472812E+04  0.25500000920E-02 0.  1.
    10030    2    1    2    0    0  0.00000000000E+00  0.00000000000E+00 -0.10421007955E+04  0.11561937671E+04  0.50080930413E+03 0.  0.
        1    1    3    3  502    0 -0.13830950239E+03 -0.20790341747E+03 -0.56418822097E+03  0.61697787494E+03  0.50400001928E-02 0.  1.
       -1    1    3    3    0  502  0.13830950239E+03  0.20790341747E+03 -0.47791257448E+03  0.53921589213E+03  0.50400001928E-02 0. -1.
</event>
<event>
 5   0  0.7416638E-02  0.4994198E+03  0.7818609E-02  0.1013930E+00
       -1   -1    0    0    0  501  0.00000000000E+00  0.00000000000E+00  0.51170791534E+03  0.51170791536E+03  0.50400001928E-02 0. -1.
        1   -1    0    0  501    0  0.00000000000E+00  0.00000000000E+00 -0.12185666941E+03  0.12185666951E+03  0.50400001928E-02 0.  1.
    10030    2    1    2    0    0  0.00000000000E+00  0.00000000000E+00  0.38985124593E+03  0.63356458487E+03  0.49941975256E+03 0.  0.
        1    1    3    3  502    0  0.22023669073E+03  0.17812624383E+02  0.47344514810E+02  0.22597122082E+03  0.50400001928E-02 0.  1.
       -1    1    3    3    0  502 -0.22023669073E+03 -0.17812624383E+02  0.34250673112E+03  0.40759336405E+03  0.50400001928E-02 0. -1.
</event>
<event>
 5   0  0.1211345E-01  0.4985216E+03  0.7818609E-02  0.1014166E+00
       -2   -1    0    0    0  501  0.00000000000E+00  0.00000000000E+00  0.35580859387E+02  0.35580859479E+02  0.25500000920E-02 0. -1.
        2   -1    0    0  501    0  0.00000000000E+00  0.00000000000E+00 -0.17461901388E+04  0.17461901388E+04  0.25500000920E-02 0.  1.
    10030    2    1    2    0    0  0.00000000000E+00  0.00000000000E+00 -0.17106092795E+04  0.17817709983E+04  0.49852159783E+03 0.  0.
        5    1    3    3  502    0  0.19686906474E+03  0.13667316268E+03 -0.10995990108E+04  0.11254230567E+04  0.46999998093E+01 0.  1.
       -5    1    3    3    0  502 -0.19686906474E+03 -0.13667316268E+03 -0.61101026870E+03  0.65634794165E+03  0.46999998093E+01 0. -1.
</event>
<event>
 5   0  0.7812547E-02  0.5155192E+03  0.7818609E-02  0.1009806E+00
        1   -1    0    0  501    0  0.00000000000E+00  0.00000000000E+00  0.78242521284E+03  0.78242521286E+03  0.50400001928E-02 0. -1.
       -1   -1    0    0    0  501  0.00000000000E+00  0.00000000000E+00 -0.84915492661E+02  0.84915492810E+02  0.50400001928E-02 0.  1.
    10030    2    1    2    0    0  0.00000000000E+00  0.00000000000E+00  0.69750972018E+03  0.86734070567E+03  0.51551924306E+03 0.  0.
        4    1    3    3  502    0 -0.14841021922E+03  0.11591070353E+03  0.52634541729E+02  0.19553233043E+03  0.12699999809E+01 0.  1.
       -4    1    3    3    0  502  0.14841021922E+03 -0.11591070353E+03  0.64487517845E+03  0.67180837524E+03  0.12699999809E+01 0. -1.
</event>
<event>
 5   0  0.7531632E-02  0.4978737E+03  0.7818609E-02  0.1014335E+00
        1   -1    0    0  501    0  0.00000000000E+00  0.00000000000E+00  0.72640798100E+02  0.72640798275E+02  0.50400001928E-02 0. -1.
       -1   -1    0    0    0  501  0.00000000000E+00  0.00000000000E+00 -0.85309590182E+03  0.85309590183E+03  0.50400001928E-02 0.  1.
    10030    2    1    2    0    0  0.00000000000E+00  0.00000000000E+00 -0.78045510372E+03  0.92573670011E+03  0.49787374806E+03 0.  0.
        3    1    3    3  502    0  0.21653197651E+03 -0.81714218894E+02 -0.56070593501E+03  0.60659250422E+03  0.10100000352E+00 0.  1.
       -3    1    3    3    0  502 -0.21653197651E+03  0.81714218894E+02 -0.21974916871E+03  0.31914419589E+03  0.10100000352E+00 0. -1.
</event>
<event>
 5   0  0.5006750E-02  0.5019859E+03  0.7818609E-02  0.1013262E+00
       -3   -1    0    0    0  501  0.00000000000E+00  0.00000000000E+00  0.42002588924E+03  0.42002590138E+03  0.10100000352E+00 0. -1.
        3   -1    0    0  501    0  0.00000000000E+00  0.00000000000E+00 -0.14998465677E+03  0.14998469077E+03  0.10100000352E+00 0.  1.
    10030    2    1    2    0    0  0.00000000000E+00  0.00000000000E+00  0.27004123247E+03  0.57001059216E+03  0.50198586428E+03 0.  0.
        2    1    3    3  502    0 -0.41099045785E+02 -0.21693635019E+02  0.41509788026E+03  0.41769126824E+03  0.25500000920E-02 0. -1.
       -2    1    3    3    0  502  0.41099045785E+02  0.21693635019E+02 -0.14505664778E+03  0.15231932391E+03  0.25500000920E-02 0.  1.
</event>
<event>
 5   0  0.7781754E-02  0.5207238E+03  0.7818609E-02  0.1008507E+00
       -1   -1    0    0    0  501  0.00000000000E+00  0.00000000000E+00  0.70813122592E+02  0.70813122771E+02  0.50400001928E-02 0. -1.
        1   -1    0    0  501    0  0.00000000000E+00  0.00000000000E+00 -0.95728475425E+03  0.95728475427E+03  0.50400001928E-02 0.  1.
    10030    2    1    2    0    0  0.00000000000E+00  0.00000000000E+00 -0.88647163166E+03  0.10280978770E+04  0.52072381454E+03 0.  0.
        2    1    3    3  502    0 -0.21001914794E+02 -0.71903597257E+01 -0.95541292788E+03  0.95567078246E+03  0.25500000920E-02 0.  1.
       -2    1    3    3    0  502  0.21001914794E+02  0.71903597257E+01  0.68941296215E+02  0.72427094573E+02  0.25500000920E-02 0. -1.
</event>
<event>
 5   0  0.5006750E-02  0.4746112E+03  0.7818609E-02  0.1020627E+00
       -3   -1    0    0    0  501  0.00000000000E+00  0.00000000000E+00  0.60819925987E+03  0.60819926826E+03  0.10100000352E+00 0.  1.
        3   -1    0    0  501    0  0.00000000000E+00  0.00000000000E+00 -0.92591235729E+02  0.92591290815E+02  0.10100000352E+00 0. -1.
    10030    2    1    2    0    0  0.00000000000E+00  0.00000000000E+00  0.51560802414E+03  0.70079055907E+03  0.47461118099E+03 0.  0.
        4    1    3    3  502    0  0.23281245660E+01  0.72655178105E+02  0.59134954334E+03  0.59580205637E+03  0.12699999809E+01 0.  1.
       -4    1    3    3    0  502 -0.23281245660E+01 -0.72655178105E+02 -0.75741519195E+02  0.10498850270E+03  0.12699999809E+01 0. -1.
</event>
<event>
 5   0  0.1243803E-01  0.5047915E+03  0.7818609E-02  0.1012536E+00
        2   -1    0    0  501    0  0.00000000000E+00  0.00000000000E+00  0.42801511135E+03  0.42801511136E+03  0.25500000920E-02 0. -1.
       -2   -1    0    0    0  501  0.00000000000E+00  0.00000000000E+00 -0.14883495601E+03  0.14883495603E+03  0.25500000920E-02 0.  1.
    10030    2    1    2    0    0  0.00000000000E+00  0.00000000000E+00  0.27918015535E+03  0.57685006739E+03  0.50479148280E+03 0.  0.
        4    1    3    3  502    0 -0.45433228803E+02 -0.12104097460E+03  0.38729767844E+03  0.40830895219E+03  0.12699999809E+01 0. -1.
       -4    1    3    3    0  502  0.45433228803E+02  0.12104097460E+03 -0.10811752310E+03  0.16854111520E+03  0.12699999809E+01 0.  1.
</event>
<event>
 5   0  0.7416638E-02  0.5020959E+03  0.7818609E-02  0.1013233E+00
        1   -1    0    0  501    0  0.00000000000E+00  0.00000000000E+00  0.56077377404E+03  0.56077377407E+03  0.50400001928E-02 0. -1.
       -1   -1    0    0    0  501  0.00000000000E+00  0.00000000000E+00 -0.11238950178E+03  0.11238950189E+03  0.50400001928E-02 0.  1.
    10030    2    1    2    0    0  0.00000000000E+00  0.00000000000E+00  0.44838427226E+03  0.67316327596E+03  0.50209594749E+03 0.  0.
        1    1    3    3  502    0 -0.13957848519E+03  0.10709550104E+03 -0.15915944677E+02  0.17664913583E+03  0.50400001928E-02 0.  1.
       -1    1    3    3    0  502  0.13957848519E+03 -0.10709550104E+03  0.46430021694E+03  0.49651414013E+03  0.50400001928E-02 0. -1.
</event>
<event>
 5   0  0.7531632E-02  0.4971522E+03  0.7818609E-02  0.1014525E+00
       -1   -1    0    0    0  501  0.00000000000E+00  0.00000000000E+00  0.18582614467E+03  0.18582614474E+03  0.50400001928E-02 0. -1.
        1   -1    0    0  501    0  0.00000000000E+00  0.00000000000E+00 -0.33251557053E+03  0.33251557057E+03  0.50400001928E-02 0.  1.
    10030    2    1    2    0    0  0.00000000000E+00  0.00000000000E+00 -0.14668942586E+03  0.51834171531E+03  0.49715223642E+03 0.  0.
        3    1    3    3  502    0  0.26044890906E+02 -0.24714443176E+03 -0.79184311434E+02  0.26082344962E+03  0.10100000352E+00 0. -1.
       -3    1    3    3    0  502 -0.26044890906E+02  0.24714443176E+03 -0.67505114425E+02  0.25751826570E+03  0.10100000352E+00 0.  1.
</event>
<event>
 5   0  0.1279188E-01  0.4953685E+03  0.7818609E-02  0.1014995E+00
        2   -1    0    0  501    0  0.00000000000E+00  0.00000000000E+00  0.16580555926E+03  0.16580555928E+03  0.25500000920E-02 0. -1.
       -2   -1    0    0    0  501  0.00000000000E+00  0.00000000000E+00 -0.36999660285E+03  0.36999660286E+03  0.25500000920E-02 0.  1.
    10030    2    1    2    0    0  0.00000000000E+00  0.00000000000E+00 -0.20419104359E+03  0.53580216213E+03  0.49536852410E+03 0.  0.
        2    1    3    3  502    0  0.15020216501E+03 -0.19572779301E+03 -0.12572928475E+03  0.27690776873E+03  0.25500000920E-02 0.  1.
       -2    1    3    3    0  502 -0.15020216501E+03  0.19572779301E+03 -0.78461758839E+02  0.25889439341E+03  0.25500000920E-02 0. -1.
</event>
<event>
 5   0  0.1243803E-01  0.4970202E+03  0.7818609E-02  0.1014560E+00
        2   -1    0    0  501    0  0.00000000000E+00  0.00000000000E+00  0.36219087628E+03  0.36219087629E+03  0.25500000920E-02 0.  1.
       -2   -1    0    0    0  501  0.00000000000E+00  0.00000000000E+00 -0.17051029099E+03  0.17051029100E+03  0.25500000920E-02 0. -1.
    10030    2    1    2    0    0  0.00000000000E+00  0.00000000000E+00  0.19168058529E+03  0.53270116729E+03  0.49702020769E+03 0.  0.
        4    1    3    3  502    0  0.19741803576E+03 -0.13698809852E+03  0.16376199367E+03  0.29079068666E+03  0.12699999809E+01 0.  1.
       -4    1    3    3    0  502 -0.19741803576E+03  0.13698809852E+03  0.27918591623E+02  0.24191048063E+03  0.12699999809E+01 0. -1.
</event>
<event>
 5   0  0.7602288E-02  0.4471675E+03  0.7818609E-02  0.1028570E+00
        1   -1    0    0  501    0  0.00000000000E+00  0.00000000000E+00  0.65529121510E+02  0.65529121704E+02  0.50400001928E-02 0.  1.
       -1   -1    0    0    0  501  0.00000000000E+00  0.00000000000E+00 -0.76286236965E+03  0.76286236966E+03  0.50400001928E-02 0. -1.
    10030    2    1    2    0    0  0.00000000000E+00  0.00000000000E+00 -0.69733324814E+03  0.82839149137E+03  0.44716753461E+03 0.  0.
        5    1    3    3  502    0 -0.58735615379E+02 -0.98087184193E+02 -0.70450992157E+03  0.71374175148E+03  0.46999998093E+01 0. -1.
       -5    1    3    3    0  502  0.58735615379E+02  0.98087184193E+02  0.71766734322E+01  0.11464973989E+03  0.46999998093E+01 0.  1.
</event>
<event>
 5   0  0.1243803E-01  0.5032197E+03  0.7818609E-02  0.1012942E+00
       -2   -1    0    0    0  501  0.00000000000E+00  0.00000000000E+00  0.49767494893E+03  0.49767494894E+03  0.25500000920E-02 0. -1.
        2   -1    0    0  501    0  0.00000000000E+00  0.00000000000E+00 -0.12720657012E+03  0.12720657014E+03  0.25500000920E-02 0.  1.
    10030    2    1    2    0    0  0.00000000000E+00  0.00000000000E+00  0.37046837881E+03  0.62488151908E+03  0.50321972655E+03 0.  0.
        4    1    3    3  502    0  0.16586311358E+02 -0.17699993791E+03 -0.35862462774E+02  0.18136100155E+03  0.12699999809E+01 0.  1.
       -4    1    3    3    0  502 -0.16586311358E+02  0.17699993791E+03  0.40633084159E+03  0.44352051753E+03  0.12699999809E+01 0. -1.
</event>
<event>
 5   0  0.7781754E-02  0.4893850E+03  0.7818609E-02  0.1016587E+00
        1   -1    0    0  501    0  0.00000000000E+00  0.00000000000E+00  0.40955109473E+03  0.40955109476E+03  0.50400001928E-02 0.  1.
       -1   -1    0    0    0  501  0.00000000000E+00  0.00000000000E+00 -0.14619523919E+03  0.14619523928E+03  0.50400001928E-02 0. -1.
    10030    2    1    2    0    0  0.00000000000E+00  0.00000000000E+00  0.26335585554E+03  0.55574633404E+03  0.48938500299E+03 0.  0.
        2    1    3    3  502    0  0.16625789242E+03 -0.16928337511E+03  0.19958530495E+03  0.31005296618E+03  0.25500000920E-02 0.  1.
       -2    1    3    3    0  502 -0.16625789242E+03  0.16928337511E+03  0.63770550590E+02  0.24569336786E+03  0.25500000920E-02 0. -1.
</event>
<event>
 5   0  0.1211345E-01  0.4987345E+03  0.7818609E-02  0.1014110E+00
        2   -1    0    0  501    0  0.00000000000E+00  0.00000000000E+00  0.10580550885E+03  0.10580550888E+03  0.25500000920E-02 0. -1.
       -2   -1    0    0    0  501  0.00000000000E+00  0.00000000000E+00 -0.58772021711E+03  0.58772021711E+03  0.25500000920E-02 0.  1.
    10030    2    1    2    0    0  0.00000000000E+00  0.00000000000E+00 -0.48191470826E+03  0.69352572599E+03  0.49873454520E+03 0.  0.
        5    1    3    3  502    0 -0.56486135233E+02 -0.93321830948E+01 -0.57839413294E+03  0.58123974067E+03  0.46999998093E+01 0.  1.
       -5    1    3    3    0  502  0.56486135233E+02  0.93321830948E+01  0.96479424679E+02  0.11228598532E+03  0.46999998093E+01 0. -1.
</event>
<event>
 5   0  0.7781754E-02  0.4961324E+03  0.7818609E-02  0.1014793E+00
        1   -1    0    0  501    0  0.00000000000E+00  0.00000000000E+00  0.68318276778E+02  0.68318276963E+02  0.50400001928E-02 0.  1.
       -1   -1    0    0    0  501  0.00000000000E+00  0.00000000000E+00 -0.90073748879E+03  0.90073748880E+03  0.50400001928E-02 0. -1.
    10030    2    1    2    0    0  0.00000000000E+00  0.00000000000E+00 -0.83241921201E+03  0.96905576577E+03  0.49613237411E+03 0.  0.
        2    1    3    3  502    0  0.13298450788E+03  0.98271295862E+02 -0.55023827876E+02  0.17426918422E+03  0.25500000920E-02 0.  1.
       -2    1    3    3    0  502 -0.13298450788E+03 -0.98271295862E+02 -0.77739538414E+03  0.79478658155E+03  0.25500000920E-02 0. -1.
</event>
<event>
 5   0  0.1191894E-01  0.5013764E+03  0.7818609E-02  0.1013420E+00
       -2   -1    0    0    0  501  0.00000000000E+00  0.00000000000E+00  0.20911660200E+03  0.20911660201E+03  0.25500000920E-02 0.  1.
        2   -1    0    0  501    0  0.00000000000E+00  0.00000000000E+00 -0.30052408266E+03  0.30052408267E+03  0.25500000920E-02 0. -1.
    10030    2    1    2    0    0  0.00000000000E+00  0.00000000000E+00 -0.91407480663E+02  0.50964068468E+03  0.50137640547E+03 0.  0.
        3    1    3    3  502    0 -0.27483269431E+02  0.17336100466E+03  0.13623027136E+03  0.22218925507E+03  0.10100000352E+00 0.  1.
       -3    1    3    3    0  502  0.27483269431E+02 -0.17336100466E+03 -0.22763775202E+03  0.28745142961E+03  0.10100000352E+00 0. -1.
</event>
<event>
 5   0  0.5006750E-02  0.5037752E+03  0.7818609E-02  0.1012798E+00
        4   -1    0    0  501    0  0.00000000000E+00  0.00000000000E+00  0.53405905039E+03  0.53406056042E+03  0.12699999809E+01 0. -1.
       -4   -1    0    0    0  501  0.00000000000E+00  0.00000000000E+00 -0.11879705758E+03  0.11880384586E+03  0.12699999809E+01 0.  1.
    10030    2    1    2    0    0  0.00000000000E+00  0.00000000000E+00  0.41526199280E+03  0.65286440628E+03  0.50377515850E+03 0.  0.
        2    1    3    3  502    0 -0.73963573894E+02  0.25914552031E+02  0.51786055689E+03  0.52375732039E+03  0.25500000920E-02 0. -1.
       -2    1    3    3    0  502  0.73963573894E+02 -0.25914552031E+02 -0.10259856408E+03  0.12910708590E+03  0.25500000920E-02 0.  1.
</event>
<event>
 5   0  0.1279188E-01  0.4693857E+03  0.7818609E-02  0.1022094E+00
        2   -1    0    0  501    0  0.00000000000E+00  0.00000000000E+00  0.14934710405E+04  0.14934710405E+04  0.25500000920E-02 0.  1.
       -2   -1    0    0    0  501  0.00000000000E+00  0.00000000000E+00 -0.36881011240E+02  0.36881011328E+02  0.25500000920E-02 0. -1.
    10030    2    1    2    0    0  0.00000000000E+00  0.00000000000E+00  0.14565900292E+04  0.15303520518E+04  0.46938565082E+03 0.  0.
        2    1    3    3  502    0 -0.20735538644E+03  0.28709497050E+02  0.38232760726E+03  0.43588403365E+03  0.25500000920E-02 0. -1.
       -2    1    3    3    0  502  0.20735538644E+03 -0.28709497050E+02  0.10742624220E+04  0.10944680181E+04  0.25500000920E-02 0.  1.
</event>
<event>
 5   0  0.7602288E-02  0.4976845E+03  0.7818609E-02  0.1014385E+00
       -1   -1    0    0    0  501  0.00000000000E+00  0.00000000000E+00  0.16301852296E+03  0.16301852304E+03  0.50400001928E-02 0. -1.
        1   -1    0    0  501    0  0.00000000000E+00  0.00000000000E+00 -0.37984933403E+03  0.37984933406E+03  0.50400001928E-02 0.  1.
    10030    2    1    2    0    0  0.00000000000E+00  0.00000000000E+00 -0.21683081106E+03  0.54286785710E+03  0.49768454833E+03 0.  0.
        5    1    3    3  502    0 -0.11098197678E+03 -0.28627171506E+02  0.13245811922E+03  0.17522487684E+03  0.46999998093E+01 0. -1.
       -5    1    3    3    0  502  0.11098197678E+03  0.28627171506E+02 -0.34928893028E+03  0.36764298026E+03  0.46999998093E+01 0.  1.
</event>
<event>
 5   0  0.1243803E-01  0.5096258E+03  0.7818609E-02  0.1011297E+00
       -2   -1    0    0    0  501  0.00000000000E+00  0.00000000000E+00  0.46112999698E+02  0.46112999769E+02  0.25500000920E-02 0.  1.
        2   -1    0    0  501    0  0.00000000000E+00  0.00000000000E+00 -0.14080543720E+04  0.14080543720E+04  0.25500000920E-02 0. -1.
    10030    2    1    2    0    0  0.00000000000E+00  0.00000000000E+00 -0.13619413723E+04  0.14541673718E+04  0.50962578775E+03 0.  0.
        4    1    3    3  502    0 -0.12865215474E+03 -0.14422736567E+03 -0.11547994860E+04  0.11708613819E+04  0.12699999809E+01 0. -1.
       -4    1    3    3    0  502  0.12865215474E+03  0.14422736567E+03 -0.20714188635E+03  0.28330598989E+03  0.12699999809E+01 0.  1.
</event>
<event>
 5   0  0.1211345E-01  0.4504172E+03  0.7818609E-02  0.1027598E+00
        2   -1    0    0  501    0  0.00000000000E+00  0.00000000000E+00  0.12362040958E+04  0.12362040958E+04  0.25500000920E-02 0.  1.
       -2   -1    0    0    0  501  0.00000000000E+00  0.00000000000E+00 -0.41027942480E+02  0.41027942559E+02  0.25500000920E-02 0. -1.
    10030    2    1    2    0    0  0.00000000000E+00  0.00000000000E+00  0.11951761533E+04  0.12772320383E+04  0.45041718700E+03 0.  0.
        5    1    3    3  502    0  0.84755844280E+02 -0.20421199458E+03  0.47692301350E+03  0.52570309365E+03  0.46999998093E+01 0. -1.
       -5    1    3    3    0  502 -0.84755844280E+02  0.20421199458E+03  0.71825313978E+03  0.75152894467E+03  0.46999998093E+01 0.  1.
</event>
<event>
 5   0  0.7812547E-02  0.5025941E+03  0.7818609E-02  0.1013104E+00
        1   -1    0    0  501    0  0.00000000000E+00  0.00000000000E+00  0.58974102052E+03  0.58974102055E+03  0.50400001928E-02 0. -1.
       -1   -1    0    0    0  501  0.00000000000E+00  0.00000000000E+00 -0.10708123671E+03  0.10708123683E+03  0.50400001928E-02 0.  1.
    10030    2    1    2    0    0  0.00000000000E+00  0.00000000000E+00  0.48265978382E+03  0.69682225737E+03  0.50259406229E+03 0.  0.
        4    1    3    3  502    0  0.40740910243E+02  0.24301008965E+03  0.17291642242E+03  0.30102396497E+03  0.12699999809E+01 0. -1.
       -4    1    3    3    0  502 -0.40740910243E+02 -0.24301008965E+03  0.30974336139E+03  0.39579829240E+03  0.12699999809E+01 0.  1.
</event>
<event>
 5   0  0.5006750E-02  0.4862924E+03  0.7818609E-02  0.1017420E+00
        4   -1    0    0  501    0  0.00000000000E+00  0.00000000000E+00  0.41074584790E+03  0.41074781128E+03  0.12699999809E+01 0. -1.
       -4   -1    0    0    0  501  0.00000000000E+00  0.00000000000E+00 -0.14392833615E+03  0.14393393917E+03  0.12699999809E+01 0.  1.
    10030    2    1    2    0    0  0.00000000000E+00  0.00000000000E+00  0.26681751176E+03  0.55468175045E+03  0.48629236032E+03 0.  0.
        4    1    3    3  502    0 -0.12466402321E+03 -0.69667777888E+02  0.35786673324E+03  0.38531147091E+03  0.12699999809E+01 0. -1.
       -4    1    3    3    0  502  0.12466402321E+03  0.69667777888E+02 -0.91049221481E+02  0.16937027954E+03  0.12699999809E+01 0.  1.
</event>
<event>
 5   0  0.1211345E-01  0.5021617E+03  0.7818609E-02  0.1013216E+00
       -2   -1    0    0    0  501  0.00000000000E+00  0.00000000000E+00  0.83863713820E+02  0.83863713858E+02  0.25500000920E-02 0.  1.
        2   -1    0    0  501    0  0.00000000000E+00  0.00000000000E+00 -0.75171482061E+03  0.75171482062E+03  0.25500000920E-02 0. -1.
    10030    2    1    2    0    0  0.00000000000E+00  0.00000000000E+00 -0.66785110679E+03  0.83557853447E+03  0.50216171343E+03 0.  0.
        5    1    3    3  502    0 -0.84967971871E+02  0.53331270565E+02 -0.71683857909E+03  0.72383936004E+03  0.46999998093E+01 0. -1.
       -5    1    3    3    0  502  0.84967971871E+02 -0.53331270565E+02  0.48987472299E+02  0.11173917444E+03  0.46999998093E+01 0.  1.
</event>
<event>
 5   0  0.7531632E-02  0.5040875E+03  0.7818609E-02  0.1012717E+00
        1   -1    0    0  501    0  0.00000000000E+00  0.00000000000E+00  0.12054351268E+04  0.12054351268E+04  0.50400001928E-02 0. -1.
       -1   -1    0    0    0  501  0.00000000000E+00  0.00000000000E+00 -0.52699691269E+02  0.52699691510E+02  0.50400001928E-02 0.  1.
    10030    2    1    2    0    0  0.00000000000E+00  0.00000000000E+00  0.11527354355E+04  0.12581348183E+04  0.50408752885E+03 0.  0.
        3    1    3    3  502    0 -0.90778280093E+02 -0.83129964521E+02  0.27420424139E+02  0.12610779912E+03  0.10100000352E+00 0.  1.
       -3    1    3    3    0  502  0.90778280093E+02  0.83129964521E+02  0.11253150114E+04  0.11320270192E+04  0.10100000352E+00 0. -1.
</event>
<event>
 5   0  0.1231822E-01  0.5004975E+03  0.7818609E-02  0.1013649E+00
       -2   -1    0    0    0  501  0.00000000000E+00  0.00000000000E+00  0.68807997179E+02  0.68807997226E+02  0.25500000920E-02 0. -1.
        2   -1    0    0  501    0  0.00000000000E+00  0.00000000000E+00 -0.91013322673E+03  0.91013322673E+03  0.25500000920E-02 0.  1.
    10030    2    1    2    0    0  0.00000000000E+00  0.00000000000E+00 -0.84132522955E+03  0.97894122396E+03  0.50049753055E+03 0.  0.
        1    1    3    3  502    0 -0.40224702563E+02  0.21063282937E+03 -0.16835269379E+03  0.27262950141E+03  0.50400001928E-02 0. -1.
       -1    1    3    3    0  502  0.40224702563E+02 -0.21063282937E+03 -0.67297253576E+03  0.70631172255E+03  0.50400001928E-02 0.  1.
</event>
<event>
 5   0  0.7416638E-02  0.4987641E+03  0.7818609E-02  0.1014102E+00
        1   -1    0    0  501    0  0.00000000000E+00  0.00000000000E+00  0.68099834353E+03  0.68099834354E+03  0.50400001928E-02 0. -1.
       -1   -1    0    0    0  501  0.00000000000E+00  0.00000000000E+00 -0.91323884476E+02  0.91323884615E+02  0.50400001928E-02 0.  1.
    10030    2    1    2    0    0  0.00000000000E+00  0.00000000000E+00  0.58967445905E+03  0.77232222816E+03  0.49876412908E+03 0.  0.
        1    1    3    3  502    0 -0.18859047122E+03 -0.99667080382E+02  0.49489309258E+03  0.53890543313E+03  0.50400001928E-02 0. -1.
       -1    1    3    3    0  502  0.18859047122E+03  0.99667080382E+02  0.94781366469E+02  0.23341679503E+03  0.50400001928E-02 0.  1.
</event>
<event>
 5   0  0.1231822E-01  0.4963663E+03  0.7818609E-02  0.1014732E+00
       -2   -1    0    0    0  501  0.00000000000E+00  0.00000000000E+00  0.10801400415E+03  0.10801400418E+03  0.25500000920E-02 0. -1.
        2   -1    0    0  501    0  0.00000000000E+00  0.00000000000E+00 -0.57024907875E+03  0.57024907876E+03  0.25500000920E-02 0.  1.
    10030    2    1    2    0    0  0.00000000000E+00  0.00000000000E+00 -0.46223507460E+03  0.67826308294E+03  0.49636634202E+03 0.  0.
        1    1    3    3  502    0 -0.16688915304E+03  0.11630891753E+03 -0.36834827428E+02  0.20672822313E+03  0.50400001928E-02 0. -1.
       -1    1    3    3    0  502  0.16688915304E+03 -0.11630891753E+03 -0.42540024717E+03  0.47153485981E+03  0.50400001928E-02 0.  1.
</event>
<event>
 5   0  0.1231822E-01  0.5023698E+03  0.7818609E-02  0.1013162E+00
       -2   -1    0    0    0  501  0.00000000000E+00  0.00000000000E+00  0.27005627825E+03  0.27005627826E+03  0.25500000920E-02 0. -1.
        2   -1    0    0  501    0  0.00000000000E+00  0.00000000000E+00 -0.23363226239E+03  0.23363226241E+03  0.25500000920E-02 0.  1.
    10030    2    1    2    0    0  0.00000000000E+00  0.00000000000E+00  0.36424015856E+02  0.50368854067E+03  0.50236982102E+03 0.  0.
        1    1    3    3  502    0  0.14052978324E+03 -0.19670348058E+03  0.86603821617E+02  0.25678999434E+03  0.50400001928E-02 0.  1.
       -1    1    3    3    0  502 -0.14052978324E+03  0.19670348058E+03 -0.50179805761E+02  0.24689854633E+03  0.50400001928E-02 0. -1.
</event>
<event>
 5   0  0.1211345E-01  0.4963781E+03  0.7818609E-02  0.1014729E+00
        2   -1    0    0  501    0  0.00000000000E+00  0.00000000000E+00  0.62124136958E+03  0.62124136958E+03  0.25500000920E-02 0.  1.
       -2   -1    0    0    0  501  0.00000000000E+00  0.00000000000E+00 -0.99152782974E+02  0.99152783007E+02  0.25500000920E-02 0. -1.
    10030    2    1    2    0    0  0.00000000000E+00  0.00000000000E+00  0.52208858660E+03  0.72039415259E+03  0.49637812484E+03 0.  0.
        5    1    3    3  502    0 -0.62296709421E+02  0.12090188141E+03  0.56226385513E+03  0.57849881393E+03  0.46999998093E+01 0.  1.
       -5    1    3    3    0  502  0.62296709421E+02 -0.12090188141E+03 -0.40175268526E+02  0.14189533866E+03  0.46999998093E+01 0. -1.
</event>
<event>
 5   0  0.1191894E-01  0.4979602E+03  0.7818609E-02  0.1014313E+00
       -2   -1    0    0    0  501  0.00000000000E+00  0.00000000000E+00  0.34295711922E+02  0.34295712017E+02  0.25500000920E-02 0. -1.
        2   -1    0    0  501    0  0.00000000000E+00  0.00000000000E+00 -0.18075461952E+04  0.18075461952E+04  0.25500000920E-02 0.  1.
    10030    2    1    2    0    0  0.00000000000E+00  0.00000000000E+00 -0.17732504833E+04  0.18418419072E+04  0.49796017386E+03 0.  0.
        3    1    3    3  502    0 -0.16455590708E+03  0.12822109930E+03 -0.13893289331E+04  0.14049036236E+04  0.10100000352E+00 0.  1.
       -3    1    3    3    0  502  0.16455590708E+03 -0.12822109930E+03 -0.38392155018E+03  0.43693828369E+03  0.10100000352E+00 0. -1.
</event>
<event>
 5   0  0.7781754E-02  0.4982428E+03  0.7818609E-02  0.1014239E+00
        1   -1    0    0  501    0  0.00000000000E+00  0.00000000000E+00  0.41412166423E+03  0.41412166426E+03  0.50400001928E-02 0.  1.
       -1   -1    0    0    0  501  0.00000000000E+00  0.00000000000E+00 -0.14986290737E+03  0.14986290746E+03  0.50400001928E-02 0. -1.
    10030    2    1    2    0    0  0.00000000000E+00  0.00000000000E+00  0.26425875685E+03  0.56398457172E+03  0.49824281888E+03 0.  0.
        2    1    3    3  502    0  0.86009892853E+02  0.10134484199E+03  0.37062664897E+03  0.39374178290E+03  0.25500000920E-02 0.  1.
       -2    1    3    3    0  502 -0.86009892853E+02 -0.10134484199E+03 -0.10636789211E+03  0.17024278882E+03  0.25500000920E-02 0. -1.
</event>
<event>
 5   0  0.7531632E-02  0.4964126E+03  0.7818609E-02  0.1014720E+00
       -1   -1    0    0    0  501  0.00000000000E+00  0.00000000000E+00  0.11197276637E+03  0.11197276648E+03  0.50400001928E-02 0.  1.
        1   -1    0    0  501    0  0.00000000000E+00  0.00000000000E+00 -0.55019072009E+03  0.55019072012E+03  0.50400001928E-02 0. -1.
    10030    2    1    2    0    0  0.00000000000E+00  0.00000000000E+00 -0.43821795373E+03  0.66216348660E+03  0.49641263886E+03 0.  0.
        3    1    3    3  502    0  0.16909156656E+03 -0.14557684701E+02  0.22479244536E+02  0.17119933032E+03  0.10100000352E+00 0.  1.
       -3    1    3    3    0  502 -0.16909156656E+03  0.14557684701E+02 -0.46069719826E+03  0.49096415628E+03  0.10100000352E+00 0. -1.
</event>
<event>
 5   0  0.7602288E-02  0.4980810E+03  0.7818609E-02  0.1014281E+00
        1   -1    0    0  501    0  0.00000000000E+00  0.00000000000E+00  0.17924642666E+04  0.17924642666E+04  0.50400001928E-02 0.  1.
       -1   -1    0    0    0  501  0.00000000000E+00  0.00000000000E+00 -0.34601057336E+02  0.34601057703E+02  0.50400001928E-02 0. -1.
    10030    2    1    2    0    0  0.00000000000E+00  0.00000000000E+00  0.17578632092E+04  0.18270653243E+04  0.49808095407E+03 0.  0.
        5    1    3    3  502    0  0.16161512846E+03 -0.15801069824E+02  0.15713390353E+04  0.15797143974E+04  0.46999998093E+01 0.  1.
       -5    1    3    3    0  502 -0.16161512846E+03  0.15801069824E+02  0.18652417389E+03  0.24735092682E+03  0.46999998093E+01 0. -1.
</event>
<event>
 5   0  0.5006750E-02  0.4918552E+03  0.7818609E-02  0.1015927E+00
       -3   -1    0    0    0  501  0.00000000000E+00  0.00000000000E+00  0.98431419964E+02  0.98431471782E+02  0.10100000352E+00 0.  1.
        3   -1    0    0  501    0  0.00000000000E+00  0.00000000000E+00 -0.61444163125E+03  0.61444163955E+03  0.10100000352E+00 0. -1.
    10030    2    1    2    0    0  0.00000000000E+00  0.00000000000E+00 -0.51601021128E+03  0.71287311133E+03  0.49185519689E+03 0.  0.
        4    1    3    3  502    0  0.10322449772E+03  0.15159167679E+03 -0.20543153724E+02  0.18455071787E+03  0.12699999809E+01 0.  1.
       -4    1    3    3    0  502 -0.10322449772E+03 -0.15159167679E+03 -0.49546705756E+03  0.52832239346E+03  0.12699999809E+01 0. -1.
</event>
<event>
 5   0  0.7781754E-02  0.5146786E+03  0.7818609E-02  0.1010017E+00
        1   -1    0    0  501    0  0.00000000000E+00  0.00000000000E+00  0.54165983659E+03  0.54165983661E+03  0.50400001928E-02 0. -1.
       -1   -1    0    0    0  501  0.00000000000E+00  0.00000000000E+00 -0.12226032722E+03  0.12226032733E+03  0.50400001928E-02 0.  1.
    10030    2    1    2    0    0  0.00000000000E+00  0.00000000000E+00  0.41939950936E+03  0.66392016394E+03  0.51467857507E+03 0.  0.
        2    1    3    3  502    0  0.46446588635E+02 -0.20133002215E+03  0.40758494803E+03  0.45696449893E+03  0.25500000920E-02 0. -1.
       -2    1    3    3    0  502 -0.46446588635E+02  0.20133002215E+03  0.11814561333E+02  0.20695566501E+03  0.25500000920E-02 0.  1.
</event>
<event>
 5   0  0.5006750E-02  0.4785486E+03  0.7818609E-02  0.1019535E+00
       -3   -1    0    0    0  501  0.00000000000E+00  0.00000000000E+00  0.11479660956E+03  0.11479665400E+03  0.10100000352E+00 0.  1.
        3   -1    0    0  501    0  0.00000000000E+00  0.00000000000E+00 -0.49872711519E+03  0.49872712542E+03  0.10100000352E+00 0. -1.
    10030    2    1    2    0    0  0.00000000000E+00  0.00000000000E+00 -0.38393050562E+03  0.61352377941E+03  0.47854863363E+03 0.  0.
        5    1    3    3  502    0 -0.11637934487E+03 -0.74933818252E+02  0.58185477635E+02  0.15022273076E+03  0.46999998093E+01 0.  1.
       -5    1    3    3    0  502  0.11637934487E+03  0.74933818252E+02 -0.44211598326E+03  0.46330104865E+03  0.46999998093E+01 0. -1.
</event>
<event>
 5   0  0.7416638E-02  0.5152802E+03  0.7818609E-02  0.1009866E+00
       -1   -1    0    0    0  501  0.00000000000E+00  0.00000000000E+00  0.86904941294E+03  0.86904941295E+03  0.50400001928E-02 0. -1.
        1   -1    0    0  501    0  0.00000000000E+00  0.00000000000E+00 -0.76380498470E+02  0.76380498636E+02  0.50400001928E-02 0.  1.
    10030    2    1    2    0    0  0.00000000000E+00  0.00000000000E+00  0.79266891447E+03  0.94542991159E+03  0.51528022450E+03 0.  0.
        1    1    3    3  502    0  0.20686422713E+02  0.19567808986E+03  0.91182233309E+02  0.21686872212E+03  0.50400001928E-02 0.  1.
       -1    1    3    3    0  502 -0.20686422713E+02 -0.19567808986E+03  0.70148668116E+03  0.72856118947E+03  0.50400001928E-02 0. -1.
</event>
<event>
 5   0  0.1231822E-01  0.5003555E+03  0.7818609E-02  0.1013686E+00
       -2   -1    0    0    0  501  0.00000000000E+00  0.00000000000E+00  0.22162253899E+03  0.22162253901E+03  0.25500000920E-02 0.  1.
        2   -1    0    0  501    0  0.00000000000E+00  0.00000000000E+00 -0.28241220619E+03  0.28241220621E+03  0.25500000920E-02 0. -1.
    10030    2    1    2    0    0  0.00000000000E+00  0.00000000000E+00 -0.60789667200E+02  0.50403474521E+03  0.50035551436E+03 0.  0.
        1    1    3    3  502    0 -0.28925168177E+02  0.47761152935E+02 -0.27605505156E+03  0.28164549455E+03  0.50400001928E-02 0. -1.
       -1    1    3    3    0  502  0.28925168177E+02 -0.47761152935E+02  0.21526538436E+03  0.22238925067E+03  0.50400001928E-02 0.  1.
</event>
<event>
 5   0  0.7531632E-02  0.4997711E+03  0.7818609E-02  0.1013839E+00
       -1   -1    0    0    0  501  0.00000000000E+00  0.00000000000E+00  0.20854932395E+03  0.20854932401E+03  0.50400001928E-02 0. -1.
        1   -1    0    0  501    0  0.00000000000E+00  0.00000000000E+00 -0.29941501735E+03  0.29941501739E+03  0.50400001928E-02 0.  1.
    10030    2    1    2    0    0  0.00000000000E+00  0.00000000000E+00 -0.90865693394E+02  0.50796434140E+03  0.49977114553E+03 0.  0.
        3    1    3    3  502    0 -0.21834685927E+03 -0.10742052056E+03 -0.10318218053E+03  0.26431248886E+03  0.10100000352E+00 0.  1.
       -3    1    3    3    0  502  0.21834685927E+03  0.10742052056E+03  0.12316487137E+02  0.24365185254E+03  0.10100000352E+00 0. -1.
</event>
<event>
 5   0  0.1279188E-01  0.4693940E+03  0.7818609E-02  0.1022091E+00
       -2   -1    0    0    0  501  0.00000000000E+00  0.00000000000E+00  0.62254784163E+03  0.62254784164E+03  0.25500000920E-02 0.  1.
        2   -1    0    0  501    0  0.00000000000E+00  0.00000000000E+00 -0.88479419881E+02  0.88479419918E+02  0.25500000920E-02 0. -1.
    10030    2    1    2    0    0  0.00000000000E+00  0.00000000000E+00  0.53406842175E+03  0.71102726156E+03  0.46939395774E+03 0.  0.
        2    1    3    3  502    0 -0.18046343857E+03 -0.10240249220E+03  0.43317253170E+03  0.48030382602E+03  0.25500000920E-02 0.  1.
       -2    1    3    3    0  502  0.18046343857E+03  0.10240249220E+03  0.10089589006E+03  0.23072343554E+03  0.25500000920E-02 0. -1.
</event>
<event>
 5   0  0.7602288E-02  0.4403328E+03  0.7818609E-02  0.1030645E+00
       -1   -1    0    0    0  501  0.00000000000E+00  0.00000000000E+00  0.87808599905E+02  0.87808600049E+02  0.50400001928E-02 0.  1.
        1   -1    0    0  501    0  0.00000000000E+00  0.00000000000E+00 -0.55203290021E+03  0.55203290024E+03  0.50400001928E-02 0. -1.
    10030    2    1    2    0    0  0.00000000000E+00  0.00000000000E+00 -0.46422430031E+03  0.63984150029E+03  0.44033276563E+03 0.  0.
        5    1    3    3  502    0 -0.20578502386E+03  0.70010452575E+01 -0.34517921516E+03  0.40195431489E+03  0.46999998093E+01 0. -1.
       -5    1    3    3    0  502  0.20578502386E+03 -0.70010452575E+01 -0.11904508515E+03  0.23788718540E+03  0.46999998093E+01 0.  1.
</event>
<event>
 5   0  0.1243803E-01  0.5274088E+03  0.7818609E-02  0.1006862E+00
       -2   -1    0    0    0  501  0.00000000000E+00  0.00000000000E+00  0.43248758778E+03  0.43248758779E+03  0.25500000920E-02 0.  1.
        2   -1    0    0  501    0  0.00000000000E+00  0.00000000000E+00 -0.16079078136E+03  0.16079078138E+03  0.25500000920E-02 0. -1.
    10030    2    1    2    0    0  0.00000000000E+00  0.00000000000E+00  0.27169680642E+03  0.59327836917E+03  0.52740882502E+03 0.  0.
        4    1    3    3  502    0 -0.49021015121E+02 -0.20202244707E+03 -0.46655784775E+02  0.21305986060E+03  0.12699999809E+01 0. -1.
       -4    1    3    3    0  502  0.49021015121E+02  0.20202244707E+03  0.31835259119E+03  0.38021850858E+03  0.12699999809E+01 0.  1.
</event>
<event>
 5   0  0.1231822E-01  0.4994708E+03  0.7818609E-02  0.1013917E+00
        2   -1    0    0  501    0  0.00000000000E+00  0.00000000000E+00  0.53635047443E+03  0.53635047444E+03  0.25500000920E-02 0.  1.
       -2   -1    0    0    0  501  0.00000000000E+00  0.00000000000E+00 -0.11628176150E+03  0.11628176153E+03  0.25500000920E-02 0. -1.
    10030    2    1    2    0    0  0.00000000000E+00  0.00000000000E+00  0.42006871293E+03  0.65263223597E+03  0.49947083183E+03 0.  0.
        1    1    3    3  502    0  0.15490738935E+03 -0.17038686095E+03  0.33631218110E+03  0.40759522181E+03  0.50400001928E-02 0.  1.
       -1    1    3    3    0  502 -0.15490738935E+03  0.17038686095E+03  0.83756531829E+02  0.24503701416E+03  0.50400001928E-02 0. -1.
</event>
<event>
 5   0  0.1231822E-01  0.4845172E+03  0.7818609E-02  0.1017901E+00
       -2   -1    0    0    0  501  0.00000000000E+00  0.00000000000E+00  0.37322582447E+02  0.37322582534E+02  0.25500000920E-02 0. -1.
        2   -1    0    0  501    0  0.00000000000E+00  0.00000000000E+00 -0.15724860157E+04  0.15724860157E+04  0.25500000920E-02 0.  1.
    10030    2    1    2    0    0  0.00000000000E+00  0.00000000000E+00 -0.15351634332E+04  0.16098085982E+04  0.48451724030E+03 0.  0.
        1    1    3    3  502    0  0.92942428318E+02  0.66425789391E+02 -0.57789933745E+02  0.12802482941E+03  0.50400001928E-02 0. -1.
       -1    1    3    3    0  502 -0.92942428318E+02 -0.66425789391E+02 -0.14773734995E+04  0.14817837688E+04  0.50400001928E-02 0.  1.
</event>
<event>
 5   0  0.7781754E-02  0.4069930E+03  0.7818609E-02  0.1041385E+00
        1   -1    0    0  501    0  0.00000000000E+00  0.00000000000E+00  0.18134088781E+03  0.18134088788E+03  0.50400001928E-02 0. -1.
       -1   -1    0    0    0  501  0.00000000000E+00  0.00000000000E+00 -0.22835904339E+03  0.22835904344E+03  0.50400001928E-02 0.  1.
    10030    2    1    2    0    0  0.00000000000E+00  0.00000000000E+00 -0.47018155579E+02  0.40969993132E+03  0.40699303037E+03 0.  0.
        2    1    3    3  502    0 -0.12343941348E+03 -0.15798249438E+03 -0.58598833646E+02  0.20887695096E+03  0.25500000920E-02 0.  1.
       -2    1    3    3    0  502  0.12343941348E+03  0.15798249438E+03  0.11580678067E+02  0.20082298036E+03  0.25500000920E-02 0. -1.
</event>
<event>
 5   0  0.1243803E-01  0.5007812E+03  0.7818609E-02  0.1013575E+00
       -2   -1    0    0    0  501  0.00000000000E+00  0.00000000000E+00  0.18386359342E+03  0.18386359344E+03  0.25500000920E-02 0.  1.
        2   -1    0    0  501    0  0.00000000000E+00  0.00000000000E+00 -0.34098900912E+03  0.34098900913E+03  0.25500000920E-02 0. -1.
    10030    2    1    2    0    0  0.00000000000E+00  0.00000000000E+00 -0.15712541569E+03  0.52485260257E+03  0.50078124781E+03 0.  0.
        4    1    3    3  502    0  0.96064494430E+02 -0.22491515144E+03 -0.13479462816E+03  0.27926048256E+03  0.12699999809E+01 0. -1.
       -4    1    3    3    0  502 -0.96064494430E+02  0.22491515144E+03 -0.22330787533E+02  0.24559212001E+03  0.12699999809E+01 0.  1.
</event>
<event>
 5   0  0.1243803E-01  0.4964797E+03  0.7818609E-02  0.1014702E+00
        2   -1    0    0  501    0  0.00000000000E+00  0.00000000000E+00  0.10174969110E+04  0.10174969110E+04  0.25500000920E-02 0. -1.
       -2   -1    0    0    0  501  0.00000000000E+00  0.00000000000E+00 -0.60563356111E+02  0.60563356165E+02  0.25500000920E-02 0.  1.
    10030    2    1    2    0    0  0.00000000000E+00  0.00000000000E+00  0.95693355489E+03  0.10780602672E+04  0.49647971880E+03 0.  0.
        4    1    3    3  502    0  0.13214871690E+03  0.22068957025E+02  0.93223967873E+03  0.94181885400E+03  0.12699999809E+01 0. -1.
       -4    1    3    3    0  502 -0.13214871690E+03 -0.22068957025E+02  0.24693876160E+02  0.13624141317E+03  0.12699999809E+01 0.  1.
</event>
<event>
 5   0  0.5006750E-02  0.4974896E+03  0.7818609E-02  0.1014436E+00
        4   -1    0    0  501    0  0.00000000000E+00  0.00000000000E+00  0.44026253998E+03  0.44026437173E+03  0.12699999809E+01 0. -1.
       -4   -1    0    0    0  501  0.00000000000E+00  0.00000000000E+00 -0.14053380001E+03  0.14053953837E+03  0.12699999809E+01 0.  1.
    10030    2    1    2    0    0  0.00000000000E+00  0.00000000000E+00  0.29972873998E+03  0.58080391009E+03  0.49748956211E+03 0.  0.
        4    1    3    3  502    0  0.12483321799E+03  0.83268574352E+02  0.38146915771E+03  0.40992355260E+03  0.12699999809E+01 0. -1.
       -4    1    3    3    0  502 -0.12483321799E+03 -0.83268574352E+02 -0.81740417734E+02  0.17088035750E+03  0.12699999809E+01 0.  1.
</event>
<event>
 5   0  0.1231822E-01  0.4998005E+03  0.7818609E-02  0.1013831E+00
        2   -1    0    0  501    0  0.00000000000E+00  0.00000000000E+00  0.85101456716E+03  0.85101456716E+03  0.25500000920E-02 0.  1.
       -2   -1    0    0    0  501  0.00000000000E+00  0.00000000000E+00 -0.73383150517E+02  0.73383150562E+02  0.25500000920E-02 0. -1.
    10030    2    1    2    0    0  0.00000000000E+00  0.00000000000E+00  0.77763141664E+03  0.92439771772E+03  0.49980048058E+03 0.  0.
        1    1    3    3  502    0  0.31702812804E+02 -0.19309065398E+03  0.67630402290E+03  0.70404275467E+03  0.50400001928E-02 0.  1.
       -1    1    3    3    0  502 -0.31702812804E+02  0.19309065398E+03  0.10132739374E+03  0.22035496305E+03  0.50400001928E-02 0. -1.
</event>
<event>
 5   0  0.7531632E-02  0.4666010E+03  0.7818609E-02  0.1022884E+00
        1   -1    0    0  501    0  0.00000000000E+00  0.00000000000E+00  0.14425695358E+04  0.14425695358E+04  0.50400001928E-02 0.  1.
       -1   -1    0    0    0  501  0.00000000000E+00  0.00000000000E+00 -0.37730682980E+02  0.37730683317E+02  0.50400001928E-02 0. -1.
    10030    2    1    2    0    0  0.00000000000E+00  0.00000000000E+00  0.14048388528E+04  0.14803002191E+04  0.46660104623E+03 0.  0.
        3    1    3    3  502    0  0.50056543822E+02 -0.54889966380E+02  0.79386378555E+00  0.74291361606E+02  0.10100000352E+00 0. -1.
       -3    1    3    3    0  502 -0.50056543822E+02  0.54889966380E+02  0.14040449890E+04  0.14060088575E+04  0.10100000352E+00 0.  1.
</event>
<event>
 5   0  0.7602288E-02  0.5028781E+03  0.7818609E-02  0.1013030E+00
       -1   -1    0    0    0  501  0.00000000000E+00  0.00000000000E+00  0.82591893591E+03  0.82591893592E+03  0.50400001928E-02 0.  1.
        1   -1    0    0  501    0  0.00000000000E+00  0.00000000000E+00 -0.76546984885E+02  0.76546985051E+02  0.50400001928E-02 0. -1.
    10030    2    1    2    0    0  0.00000000000E+00  0.00000000000E+00  0.74937195102E+03  0.90246592097E+03  0.50287813389E+03 0.  0.
        5    1    3    3  502    0  0.13279512180E+03 -0.19509816484E+03  0.21925154978E+03  0.32216637064E+03  0.46999998093E+01 0.  1.
       -5    1    3    3    0  502 -0.13279512180E+03  0.19509816484E+03  0.53012040125E+03  0.58029955033E+03  0.46999998093E+01 0. -1.
</event>
<event>
 5   0  0.7531632E-02  0.5000812E+03  0.7818609E-02  0.1013758E+00
        1   -1    0    0  501    0  0.00000000000E+00  0.00000000000E+00  0.22390612016E+04  0.22390612016E+04  0.50400001928E-02 0.  1.
       -1   -1    0    0    0  501  0.00000000000E+00  0.00000000000E+00 -0.27922555556E+02  0.27922556011E+02  0.50400001928E-02 0. -1.
    10030    2    1    2    0    0  0.00000000000E+00  0.00000000000E+00  0.22111386461E+04  0.22669837576E+04  0.50008123867E+03 0.  0.
        3    1    3    3  502    0  0.97338399295E+02 -0.40427975188E+02  0.77703650049E+02  0.13094675478E+03  0.10100000352E+00 0. -1.
       -3    1    3    3    0  502 -0.97338399295E+02  0.40427975188E+02  0.21334349960E+04  0.21360370029E+04  0.10100000352E+00 0.  1.
</event>
<event>
 5   0  0.5006750E-02  0.4947738E+03  0.7818609E-02  0.1015152E+00
        4   -1    0    0  501    0  0.00000000000E+00  0.00000000000E+00  0.84450936285E+02  0.84460485077E+02  0.12699999809E+01 0.  1.
       -4   -1    0    0    0  501  0.00000000000E+00  0.00000000000E+00 -0.72463325256E+03  0.72463436546E+03  0.12699999809E+01 0. -1.
    10030    2    1    2    0    0  0.00000000000E+00  0.00000000000E+00 -0.64018231627E+03  0.80909485054E+03  0.49477376558E+03 0.  0.
        3    1    3    3  502    0  0.14702480449E+03  0.86577343100E+01 -0.64513418032E+03  0.66173209860E+03  0.10100000352E+00 0. -1.
       -3    1    3    3    0  502 -0.14702480449E+03 -0.86577343100E+01  0.49518640513E+01  0.14736275194E+03  0.10100000352E+00 0.  1.
</event>
<event>
 5   0  0.1191894E-01  0.5133985E+03  0.7818609E-02  0.1010340E+00
        2   -1    0    0  501    0  0.00000000000E+00  0.00000000000E+00  0.90272435349E+03  0.90272435349E+03  0.25500000920E-02 0. -1.
       -2   -1    0    0    0  501  0.00000000000E+00  0.00000000000E+00 -0.72995144891E+02  0.72995144936E+02  0.25500000920E-02 0.  1.
    10030    2    1    2    0    0  0.00000000000E+00  0.00000000000E+00  0.82972920860E+03  0.97571949843E+03  0.51339846125E+03 0.  0.
        3    1    3    3  502    0  0.23561873009E+03  0.62174835309E+02  0.56823701593E+03  0.61828408728E+03  0.10100000352E+00 0. -1.
       -3    1    3    3    0  502 -0.23561873009E+03 -0.62174835309E+02  0.26149219267E+03  0.35743541114E+03  0.10100000352E+00 0.  1.
</event>
<event>
 5   0  0.1211345E-01  0.4965885E+03  0.7818609E-02  0.1014673E+00
       -2   -1    0    0    0  501  0.00000000000E+00  0.00000000000E+00  0.10286381948E+03  0.10286381951E+03  0.25500000920E-02 0. -1.
        2   -1    0    0  501    0  0.00000000000E+00  0.00000000000E+00 -0.59933631506E+03  0.59933631507E+03  0.25500000920E-02 0.  1.
    10030    2    1    2    0    0  0.00000000000E+00  0.00000000000E+00 -0.49647249558E+03  0.70220013458E+03  0.49658845148E+03 0.  0.
        5    1    3    3  502    0  0.23108848922E+02 -0.23885635593E+03 -0.15834062767E+03  0.28754168747E+03  0.46999998093E+01 0. -1.
       -5    1    3    3    0  502 -0.23108848922E+02  0.23885635593E+03 -0.33813186791E+03  0.41465844711E+03  0.46999998093E+01 0.  1.
</event>
<event>
 5   0  0.1279188E-01  0.5024632E+03  0.7818609E-02  0.1013138E+00
        2   -1    0    0  501    0  0.00000000000E+00  0.00000000000E+00  0.67785885591E+03  0.67785885592E+03  0.25500000920E-02 0. -1.
       -2   -1    0    0    0  501  0.00000000000E+00  0.00000000000E+00 -0.93112767595E+02  0.93112767630E+02  0.25500000920E-02 0.  1.
    10030    2    1    2    0    0  0.00000000000E+00  0.00000000000E+00  0.58474608832E+03  0.77097162355E+03  0.50246318921E+03 0.  0.
        2    1    3    3  502    0  0.12900803364E+03 -0.80189116403E+02 -0.14672346376E+02  0.15260617578E+03  0.25500000920E-02 0.  1.
       -2    1    3    3    0  502 -0.12900803364E+03  0.80189116403E+02  0.59941843469E+03  0.61836544777E+03  0.25500000920E-02 0. -1.
</event>
<event>
 5   0  0.7781754E-02  0.4992541E+03  0.7818609E-02  0.1013974E+00
       -1   -1    0    0    0  501  0.00000000000E+00  0.00000000000E+00  0.43371104927E+02  0.43371105219E+02  0.50400001928E-02 0. -1.
        1   -1    0    0  501    0  0.00000000000E+00  0.00000000000E+00 -0.14367554575E+04  0.14367554575E+04  0.50400001928E-02 0.  1.
    10030    2    1    2    0    0  0.00000000000E+00  0.00000000000E+00 -0.13933843526E+04  0.14801265627E+04  0.49925413138E+03 0.  0.
        2    1    3    3  502    0  0.14817020128E+03 -0.20051594350E+03 -0.66006675828E+03  0.70558428095E+03  0.25500000920E-02 0. -1.
       -2    1    3    3    0  502 -0.14817020128E+03  0.20051594350E+03 -0.73331759432E+03  0.77454228179E+03  0.25500000920E-02 0.  1.
</event>
<event>
 5   0  0.1231822E-01  0.4970549E+03  0.7818609E-02  0.1014550E+00
       -2   -1    0    0    0  501  0.00000000000E+00  0.00000000000E+00  0.19722166514E+03  0.19722166515E+03  0.25500000920E-02 0. -1.
        2   -1    0    0  501    0  0.00000000000E+00  0.00000000000E+00 -0.31318011480E+03  0.31318011481E+03  0.25500000920E-02 0.  1.
    10030    2    1    2    0    0  0.00000000000E+00  0.00000000000E+00 -0.11595844966E+03  0.51040177996E+03  0.49705494157E+03 0.  0.
        1    1    3    3  502    0 -0.42643179370E+02 -0.27128942407E+02 -0.30784729084E+03  0.31196854772E+03  0.50400001928E-02 0.  1.
       -1    1    3    3    0  502  0.42643179370E+02  0.27128942407E+02  0.19188884118E+03  0.19843323224E+03  0.50400001928E-02 0. -1.
</event>
<event>
 5   0  0.7602288E-02  0.5014012E+03  0.7818609E-02  0.1013414E+00
        1   -1    0    0  501    0  0.00000000000E+00  0.00000000000E+00  0.22413266459E+03  0.22413266465E+03  0.50400001928E-02 0.  1.
       -1   -1    0    0    0  501  0.00000000000E+00  0.00000000000E+00 -0.28041783780E+03  0.28041783785E+03  0.50400001928E-02 0. -1.
    10030    2    1    2    0    0  0.00000000000E+00  0.00000000000E+00 -0.56285173214E+02  0.50455050250E+03  0.50140122541E+03 0.  0.
        5    1    3    3  502    0 -0.80659851610E+02 -0.21861010913E+03  0.64808123301E+02  0.24190612708E+03  0.46999998093E+01 0.  1.
       -5    1    3    3    0  502  0.80659851610E+02  0.21861010913E+03 -0.12109329651E+03  0.26264437541E+03  0.46999998093E+01 0. -1.
</event>
<event>
 5   0  0.5006750E-02  0.5031554E+03  0.7818609E-02  0.1012959E+00
        4   -1    0    0  501    0  0.00000000000E+00  0.00000000000E+00  0.12033657861E+03  0.12034328004E+03  0.12699999809E+01 0.  1.
       -4   -1    0    0    0  501  0.00000000000E+00  0.00000000000E+00 -0.52593051356E+03  0.52593204693E+03  0.12699999809E+01 0. -1.
    10030    2    1    2    0    0  0.00000000000E+00  0.00000000000E+00 -0.40559393495E+03  0.64627532698E+03  0.50315540163E+03 0.  0.
        4    1    3    3  502    0  0.20109125165E+03  0.11712647943E+03 -0.80043937183E+02  0.24609946861E+03  0.12699999809E+01 0.  1.
       -4    1    3    3    0  502 -0.20109125165E+03 -0.11712647943E+03 -0.32554999776E+03  0.40017585836E+03  0.12699999809E+01 0. -1.
</event>
<event>
 5   0  0.7416638E-02  0.4964788E+03  0.7818609E-02  0.1014702E+00
        1   -1    0    0  501    0  0.00000000000E+00  0.00000000000E+00  0.67822543206E+03  0.67822543207E+03  0.50400001928E-02 0.  1.
       -1   -1    0    0    0  501  0.00000000000E+00  0.00000000000E+00 -0.90858867273E+02  0.90858867413E+02  0.50400001928E-02 0. -1.
    10030    2    1    2    0    0  0.00000000000E+00  0.00000000000E+00  0.58736656478E+03  0.76908429949E+03  0.49647877930E+03 0.  0.
        1    1    3    3  502    0  0.10357793053E+03 -0.15119718122E+03  0.55305008576E+03  0.58262627188E+03  0.50400001928E-02 0.  1.
       -1    1    3    3    0  502 -0.10357793053E+03  0.15119718122E+03  0.34316479026E+02  0.18645802761E+03  0.50400001928E-02 0. -1.
</event>
<event>
 5   0  0.5006750E-02  0.4992600E+03  0.7818609E-02  0.1013972E+00
        3   -1    0    0  501    0  0.00000000000E+00  0.00000000000E+00  0.64807508537E+02  0.64807587239E+02  0.10100000352E+00 0.  1.
       -3   -1    0    0    0  501  0.00000000000E+00  0.00000000000E+00 -0.96154140820E+03  0.96154141350E+03  0.10100000352E+00 0. -1.
    10030    2    1    2    0    0  0.00000000000E+00  0.00000000000E+00 -0.89673389966E+03  0.10263490007E+04  0.49926003698E+03 0.  0.
        1    1    3    3  502    0 -0.21656464303E+03  0.76653292195E+02 -0.24758546981E+03  0.33774922162E+03  0.50400001928E-02 0.  1.
       -1    1    3    3    0  502  0.21656464303E+03 -0.76653292195E+02 -0.64914842985E+03  0.68859977913E+03  0.50400001928E-02 0. -1.
</event>
<event>
 5   0  0.7531632E-02  0.4994915E+03  0.7818609E-02  0.1013912E+00
        1   -1    0    0  501    0  0.00000000000E+00  0.00000000000E+00  0.75898970649E+03  0.75898970651E+03  0.50400001928E-02 0. -1.
       -1   -1    0    0    0  501  0.00000000000E+00  0.00000000000E+00 -0.82178890822E+02  0.82178890977E+02  0.50400001928E-02 0.  1.
    10030    2    1    2    0    0  0.00000000000E+00  0.00000000000E+00  0.67681081567E+03  0.84116859749E+03  0.49949147059E+03 0.  0.
        3    1    3    3  502    0  0.20448219410E+02 -0.15472184077E+03  0.10054768196E+02  0.15639081256E+03  0.10100000352E+00 0.  1.
       -3    1    3    3    0  502 -0.20448219410E+02  0.15472184077E+03  0.66675604747E+03  0.68477778493E+03  0.10100000352E+00 0. -1.
</event>
<event>
 5   0  0.7781754E-02  0.4958653E+03  0.7818609E-02  0.1014864E+00
       -1   -1    0    0    0  501  0.00000000000E+00  0.00000000000E+00  0.15304893961E+04  0.15304893961E+04  0.50400001928E-02 0. -1.
        1   -1    0    0  501    0  0.00000000000E+00  0.00000000000E+00 -0.40164019117E+02  0.40164019434E+02  0.50400001928E-02 0.  1.
    10030    2    1    2    0    0  0.00000000000E+00  0.00000000000E+00  0.14903253770E+04  0.15706534155E+04  0.49586532695E+03 0.  0.
        2    1    3    3  502    0  0.12421007089E+03  0.12194031404E+03  0.18591256789E+03  0.25467835558E+03  0.25500000920E-02 0.  1.
       -2    1    3    3    0  502 -0.12421007089E+03 -0.12194031404E+03  0.13044128091E+04  0.13159750599E+04  0.25500000920E-02 0. -1.
</event>
<event>
 5   0  0.7531632E-02  0.4995492E+03  0.7818609E-02  0.1013897E+00
       -1   -1    0    0    0  501  0.00000000000E+00  0.00000000000E+00  0.18562557905E+03  0.18562557911E+03  0.50400001928E-02 0.  1.
        1   -1    0    0  501    0  0.00000000000E+00  0.00000000000E+00 -0.33609236209E+03  0.33609236213E+03  0.50400001928E-02 0. -1.
    10030    2    1    2    0    0  0.00000000000E+00  0.00000000000E+00 -0.15046678305E+03  0.52171794124E+03  0.49954915415E+03 0.  0.
        3    1    3    3  502    0 -0.24343994313E+03  0.25672187519E+02 -0.23378576765E+02  0.24590371119E+03  0.10100000352E+00 0.  1.
       -3    1    3    3    0  502  0.24343994313E+03 -0.25672187519E+02 -0.12708820628E+03  0.27581423005E+03  0.10100000352E+00 0. -1.
</event>
<event>
 5   0  0.7812547E-02  0.5047575E+03  0.7818609E-02  0.1012545E+00
       -1   -1    0    0    0  501  0.00000000000E+00  0.00000000000E+00  0.15885794527E+03  0.15885794535E+03  0.50400001928E-02 0.  1.
        1   -1    0    0  501    0  0.00000000000E+00  0.00000000000E+00 -0.40095591924E+03  0.40095591927E+03  0.50400001928E-02 0. -1.
    10030    2    1    2    0    0  0.00000000000E+00  0.00000000000E+00 -0.24209797397E+03  0.55981386462E+03  0.50475750021E+03 0.  0.
        4    1    3    3  502    0 -0.37717030313E+02  0.70963146948E+02 -0.38638243998E+03  0.39465344978E+03  0.12699999809E+01 0. -1.
       -4    1    3    3    0  502  0.37717030313E+02 -0.70963146948E+02  0.14428446600E+03  0.16516041484E+03  0.12699999809E+01 0.  1.
</event>
<event>
 5   0  0.5006750E-02  0.4990790E+03  0.7818609E-02  0.1014020E+00
       -4   -1    0    0    0  501  0.00000000000E+00  0.00000000000E+00  0.27268445832E+03  0.27268741575E+03  0.12699999809E+01 0. -1.
        4   -1    0    0  501    0  0.00000000000E+00  0.00000000000E+00 -0.22835305005E+03  0.22835658162E+03  0.12699999809E+01 0.  1.
    10030    2    1    2    0    0  0.00000000000E+00  0.00000000000E+00  0.44331408263E+02  0.50104399736E+03  0.49907896523E+03 0.  0.
        3    1    3    3  502    0 -0.12425997331E+03  0.20467997415E+03  0.92695501018E+02  0.25676233933E+03  0.10100000352E+00 0.  1.
       -3    1    3    3    0  502  0.12425997331E+03 -0.20467997415E+03 -0.48364092755E+02  0.24428165804E+03  0.10100000352E+00 0. -1.
</event>
<event>
 5   0  0.1279188E-01  0.5001934E+03  0.7818609E-02  0.1013728E+00
       -2   -1    0    0    0  501  0.00000000000E+00  0.00000000000E+00  0.41922645258E+02  0.41922645335E+02  0.25500000920E-02 0. -1.
        2   -1    0    0  501    0  0.00000000000E+00  0.00000000000E+00 -0.14919947987E+04  0.14919947987E+04  0.25500000920E-02 0.  1.
    10030    2    1    2    0    0  0.00000000000E+00  0.00000000000E+00 -0.14500721535E+04  0.15339174441E+04  0.50019343752E+03 0.  0.
        2    1    3    3  502    0 -0.17970737311E+02  0.24777665017E+03 -0.63657227947E+03  0.68333043453E+03  0.25500000920E-02 0. -1.
       -2    1    3    3    0  502  0.17970737311E+02 -0.24777665017E+03 -0.81349987400E+03  0.85058700952E+03  0.25500000920E-02 0.  1.
</event>
<event>
 5   0  0.7781754E-02  0.4976311E+03  0.7818609E-02  0.1014399E+00
       -1   -1    0    0    0  501  0.00000000000E+00  0.00000000000E+00  0.47168291702E+02  0.47168291971E+02  0.50400001928E-02 0.  1.
        1   -1    0    0  501    0  0.00000000000E+00  0.00000000000E+00 -0.13125170505E+04  0.13125170505E+04  0.50400001928E-02 0. -1.
    10030    2    1    2    0    0  0.00000000000E+00  0.00000000000E+00 -0.12653487588E+04  0.13596853424E+04  0.49763113765E+03 0.  0.
        2    1    3    3  502    0  0.81461653961E+02  0.17785655067E+02 -0.12732078246E+04  0.12759351453E+04  0.25500000920E-02 0. -1.
       -2    1    3    3    0  502 -0.81461653961E+02 -0.17785655067E+02  0.78590658018E+01  0.83750197099E+02  0.25500000920E-02 0.  1.
</event>
<event>
 5   0  0.7602288E-02  0.5001490E+03  0.7818609E-02  0.1013740E+00
       -1   -1    0    0    0  501  0.00000000000E+00  0.00000000000E+00  0.37982034031E+03  0.37982034034E+03  0.50400001928E-02 0.  1.
        1   -1    0    0  501    0  0.00000000000E+00  0.00000000000E+00 -0.16464959589E+03  0.16464959597E+03  0.50400001928E-02 0. -1.
    10030    2    1    2    0    0  0.00000000000E+00  0.00000000000E+00  0.21517074442E+03  0.54446993631E+03  0.50014904008E+03 0.  0.
        5    1    3    3  502    0  0.50616971147E+02  0.15135497724E+03  0.31711136567E+03  0.35503818828E+03  0.46999998093E+01 0.  1.
       -5    1    3    3    0  502 -0.50616971147E+02 -0.15135497724E+03 -0.10194062125E+03  0.18943174803E+03  0.46999998093E+01 0. -1.
</event>
<event>
 5   0  0.7602288E-02  0.5018757E+03  0.7818609E-02  0.1013290E+00
       -1   -1    0    0    0  501  0.00000000000E+00  0.00000000000E+00  0.20024010996E+03  0.20024011003E+03  0.50400001928E-02 0. -1.
        1   -1    0    0  501    0  0.00000000000E+00  0.00000000000E+00 -0.31447147356E+03  0.31447147360E+03  0.50400001928E-02 0.  1.
    10030    2    1    2    0    0  0.00000000000E+00  0.00000000000E+00 -0.11423136360E+03  0.51471158363E+03  0.50187569167E+03 0.  0.
        5    1    3    3  502    0 -0.19765166413E+03 -0.10948118881E+03 -0.16897117897E+03  0.28218019129E+03  0.46999998093E+01 0.  1.
       -5    1    3    3    0  502  0.19765166413E+03  0.10948118881E+03  0.54739815374E+02  0.23253139234E+03  0.46999998093E+01 0. -1.
</event>
<event>
 5   0  0.1191894E-01  0.4977885E+03  0.7818609E-02  0.1014358E+00
       -2   -1    0    0    0  501  0.00000000000E+00  0.00000000000E+00  0.21616975875E+03  0.21616975877E+03  0.25500000920E-02 0.  1.
        2   -1    0    0  501    0  0.00000000000E+00  0.00000000000E+00 -0.28657269931E+03  0.28657269933E+03  0.25500000920E-02 0. -1.
    10030    2    1    2    0    0  0.00000000000E+00  0.00000000000E+00 -0.70402940562E+02  0.50274245809E+03  0.49778851446E+03 0.  0.
        3    1    3    3  502    0  0.14317927933E+02 -0.21134842971E+03 -0.16717393525E+03  0.26985236080E+03  0.10100000352E+00 0. -1.
       -3    1    3    3    0  502 -0.14317927933E+02  0.21134842971E+03  0.96770994687E+02  0.23289009729E+03  0.10100000352E+00 0.  1.
</event>
<event>
 5   0  0.1191894E-01  0.5024109E+03  0.7818609E-02  0.1013152E+00
        2   -1    0    0  501    0  0.00000000000E+00  0.00000000000E+00  0.21040803887E+03  0.21040803889E+03  0.25500000920E-02 0.  1.
       -2   -1    0    0    0  501  0.00000000000E+00  0.00000000000E+00 -0.29991334533E+03  0.29991334534E+03  0.25500000920E-02 0. -1.
    10030    2    1    2    0    0  0.00000000000E+00  0.00000000000E+00 -0.89505306457E+02  0.51032138423E+03  0.50241090287E+03 0.  0.
        3    1    3    3  502    0 -0.80934852900E+02  0.13612892351E+03 -0.24281677541E+03  0.28989917359E+03  0.10100000352E+00 0. -1.
       -3    1    3    3    0  502  0.80934852900E+02 -0.13612892351E+03  0.15331146895E+03  0.22042221064E+03  0.10100000352E+00 0.  1.
</event>
<event>
 5   0  0.1243803E-01  0.4997522E+03  0.7818609E-02  0.1013844E+00
       -2   -1    0    0    0  501  0.00000000000E+00  0.00000000000E+00  0.35816217224E+02  0.35816217315E+02  0.25500000920E-02 0.  1.
        2   -1    0    0  501    0  0.00000000000E+00  0.00000000000E+00 -0.17432900095E+04  0.17432900095E+04  0.25500000920E-02 0. -1.
    10030    2    1    2    0    0  0.00000000000E+00  0.00000000000E+00 -0.17074737923E+04  0.17791062268E+04  0.49975215357E+03 0.  0.
        4    1    3    3  502    0  0.93951141076E+02  0.20303366582E+03 -0.12499505853E+04  0.12698139883E+04  0.12699999809E+01 0. -1.
       -4    1    3    3    0  502 -0.93951141076E+02 -0.20303366582E+03 -0.45752320699E+03  0.50929223851E+03  0.12699999809E+01 0.  1.
</event>
<event>
 5   0  0.1191894E-01  0.4988439E+03  0.7818609E-02  0.1014081E+00
        2   -1    0    0  501    0  0.00000000000E+00  0.00000000000E+00  0.63697852772E+03  0.63697852772E+03  0.25500000920E-02 0. -1.
       -2   -1    0    0    0  501  0.00000000000E+00  0.00000000000E+00 -0.97666246655E+02  0.97666246688E+02  0.25500000920E-02 0.  1.
    10030    2    1    2    0    0  0.00000000000E+00  0.00000000000E+00  0.53931228106E+03  0.73464477441E+03  0.49884387143E+03 0.  0.
        3    1    3    3  502    0 -0.51008558993E+02  0.17602801292E+03  0.51881398017E+03  0.55023239694E+03  0.10100000352E+00 0. -1.
       -3    1    3    3    0  502  0.51008558993E+02 -0.17602801292E+03  0.20498300886E+02  0.18441237746E+03  0.10100000352E+00 0.  1.
</event>
<event>
 5   0  0.1231822E-01  0.5003895E+03  0.7818609E-02  0.1013677E+00
       -2   -1    0    0    0  501  0.00000000000E+00  0.00000000000E+00  0.47089073294E+02  0.47089073363E+02  0.25500000920E-02 0.  1.
        2   -1    0    0  501    0  0.00000000000E+00  0.00000000000E+00 -0.13293405426E+04  0.13293405426E+04  0.25500000920E-02 0. -1.
    10030    2    1    2    0    0  0.00000000000E+00  0.00000000000E+00 -0.12822514693E+04  0.13764296159E+04  0.50038950545E+03 0.  0.
        1    1    3    3  502    0  0.10134536803E+03 -0.81159584053E+02 -0.12294167917E+04  0.12362537803E+04  0.50400001928E-02 0. -1.
       -1    1    3    3    0  502 -0.10134536803E+03  0.81159584053E+02 -0.52834677601E+02  0.14017583560E+03  0.50400001928E-02 0.  1.
</event>
<event>
 5   0  0.1191894E-01  0.5015666E+03  0.7818609E-02  0.1013371E+00
        2   -1    0    0  501    0  0.00000000000E+00  0.00000000000E+00  0.27798856576E+03  0.27798856577E+03  0.25500000920E-02 0. -1.
       -2   -1    0    0    0  501  0.00000000000E+00  0.00000000000E+00 -0.22624047554E+03  0.22624047555E+03  0.25500000920E-02 0.  1.
    10030    2    1    2    0    0  0.00000000000E+00  0.00000000000E+00  0.51748090218E+02  0.50422904132E+03  0.50156660702E+03 0.  0.
        3    1    3    3  502    0 -0.10840607344E+03 -0.78143932522E+02 -0.18746435828E+03  0.23021999647E+03  0.10100000352E+00 0.  1.
       -3    1    3    3    0  502  0.10840607344E+03  0.78143932522E+02  0.23921244849E+03  0.27400904486E+03  0.10100000352E+00 0. -1.
</event>
<event>
 5   0  0.1211345E-01  0.5001809E+03  0.7818609E-02  0.1013732E+00
        2   -1    0    0  501    0  0.00000000000E+00  0.00000000000E+00  0.14684687363E+04  0.14684687363E+04  0.25500000920E-02 0. -1.
       -2   -1    0    0    0  501  0.00000000000E+00  0.00000000000E+00 -0.42592153011E+02  0.42592153088E+02  0.25500000920E-02 0.  1.
    10030    2    1    2    0    0  0.00000000000E+00  0.00000000000E+00  0.14258765833E+04  0.15110608894E+04  0.50018094793E+03 0.  0.
        5    1    3    3  502    0 -0.11065917858E+03  0.13621642366E+02  0.13890830187E+04  0.13935582965E+04  0.46999998093E+01 0. -1.
       -5    1    3    3    0  502  0.11065917858E+03 -0.13621642366E+02  0.36793564628E+02  0.11750259291E+03  0.46999998093E+01 0.  1.
</event>
<event>
 5   0  0.7531632E-02  0.4995932E+03  0.7818609E-02  0.1013885E+00
       -1   -1    0    0    0  501  0.00000000000E+00  0.00000000000E+00  0.74939762987E+02  0.74939763156E+02  0.50400001928E-02 0.  1.
        1   -1    0    0  501    0  0.00000000000E+00  0.00000000000E+00 -0.83264677453E+03  0.83264677454E+03  0.50400001928E-02 0. -1.
    10030    2    1    2    0    0  0.00000000000E+00  0.00000000000E+00 -0.75770701154E+03  0.90758653770E+03  0.49959324262E+03 0.  0.
        3    1    3    3  502    0 -0.60706931267E+02 -0.72214712398E+02 -0.79903841241E+03  0.80458852272E+03  0.10100000352E+00 0. -1.
       -3    1    3    3    0  502  0.60706931267E+02  0.72214712398E+02  0.41331400868E+02  0.10299801498E+03  0.10100000352E+00 0.  1.
</event>
<event>
 5   0  0.5006750E-02  0.5019856E+03  0.7818609E-02  0.1013262E+00
        3   -1    0    0  501    0  0.00000000000E+00  0.00000000000E+00  0.18607748213E+04  0.18607748240E+04  0.10100000352E+00 0.  1.
       -3   -1    0    0    0  501  0.00000000000E+00  0.00000000000E+00 -0.33855377281E+02  0.33855527936E+02  0.10100000352E+00 0. -1.
    10030    2    1    2    0    0  0.00000000000E+00  0.00000000000E+00  0.18269194440E+04  0.18946303519E+04  0.50198557319E+03 0.  0.
        4    1    3    3  502    0  0.53935094528E+02 -0.70594668624E+02  0.27484606011E+02  0.93003323206E+02  0.12699999809E+01 0. -1.
       -4    1    3    3    0  502 -0.53935094528E+02  0.70594668624E+02  0.17994348380E+04  0.18016270287E+04  0.12699999809E+01 0.  1.
</event>
<event>
 5   0  0.7416638E-02  0.4618573E+03  0.7818609E-02  0.1024244E+00
       -1   -1    0    0    0  501  0.00000000000E+00  0.00000000000E+00  0.17282331478E+03  0.17282331486E+03  0.50400001928E-02 0.  1.
        1   -1    0    0  501    0  0.00000000000E+00  0.00000000000E+00 -0.30856968311E+03  0.30856968315E+03  0.50400001928E-02 0. -1.
    10030    2    1    2    0    0  0.00000000000E+00  0.00000000000E+00 -0.13574636833E+03  0.48139299801E+03  0.46185727451E+03 0.  0.
        1    1    3    3  502    0  0.16534236658E+03 -0.16112291729E+03 -0.62227158088E+02  0.23910439538E+03  0.50400001928E-02 0.  1.
       -1    1    3    3    0  502 -0.16534236658E+03  0.16112291729E+03 -0.73519210239E+02  0.24228860263E+03  0.50400001928E-02 0. -1.
</event>
<event>
 5   0  0.7531632E-02  0.4989400E+03  0.7818609E-02  0.1014056E+00
        1   -1    0    0  501    0  0.00000000000E+00  0.00000000000E+00  0.52187759958E+03  0.52187759961E+03  0.50400001928E-02 0.  1.
       -1   -1    0    0    0  501  0.00000000000E+00  0.00000000000E+00 -0.11925263448E+03  0.11925263459E+03  0.50400001928E-02 0. -1.
    10030    2    1    2    0    0  0.00000000000E+00  0.00000000000E+00  0.40262496510E+03  0.64113023420E+03  0.49893999106E+03 0.  0.
        3    1    3    3  502    0 -0.16677264319E+03 -0.18379668029E+03  0.23384402740E+03  0.34099468259E+03  0.10100000352E+00 0.  1.
       -3    1    3    3    0  502  0.16677264319E+03  0.18379668029E+03  0.16878093770E+03  0.30013555160E+03  0.10100000352E+00 0. -1.
</event>
<event>
 5   0  0.7812547E-02  0.5012828E+03  0.7818609E-02  0.1013445E+00
       -1   -1    0    0    0  501  0.00000000000E+00  0.00000000000E+00  0.21530415974E+03  0.21530415980E+03  0.50400001928E-02 0.  1.
        1   -1    0    0  501    0  0.00000000000E+00  0.00000000000E+00 -0.29177843331E+03  0.29177843336E+03  0.50400001928E-02 0. -1.
    10030    2    1    2    0    0  0.00000000000E+00  0.00000000000E+00 -0.76474273574E+02  0.50708259315E+03  0.50128279619E+03 0.  0.
        4    1    3    3  502    0 -0.97896073375E+02 -0.71669900801E+02  0.18361580803E+03  0.22008315184E+03  0.12699999809E+01 0.  1.
       -4    1    3    3    0  502  0.97896073375E+02  0.71669900801E+02 -0.26009008161E+03  0.28699944131E+03  0.12699999809E+01 0. -1.
</event>
<event>
 5   0  0.7812547E-02  0.4970677E+03  0.7818609E-02  0.1014547E+00
       -1   -1    0    0    0  501  0.00000000000E+00  0.00000000000E+00  0.57246648352E+02  0.57246648574E+02  0.50400001928E-02 0.  1.
        1   -1    0    0  501    0  0.00000000000E+00  0.00000000000E+00 -0.10789990475E+04  0.10789990475E+04  0.50400001928E-02 0. -1.
    10030    2    1    2    0    0  0.00000000000E+00  0.00000000000E+00 -0.10217523992E+04  0.11362456961E+04  0.49706771844E+03 0.  0.
        4    1    3    3  502    0 -0.24609118009E+03  0.13521967682E+02 -0.43773628567E+03  0.50235284534E+03  0.12699999809E+01 0.  1.
       -4    1    3    3    0  502  0.24609118009E+03 -0.13521967682E+02 -0.58401611351E+03  0.63389285078E+03  0.12699999809E+01 0. -1.
</event>
<event>
 5   0  0.1243803E-01  0.5023296E+03  0.7818609E-02  0.1013173E+00
        2   -1    0    0  501    0  0.00000000000E+00  0.00000000000E+00  0.10226158167E+04  0.10226158167E+04  0.25500000920E-02 0. -1.
       -2   -1    0    0    0  501  0.00000000000E+00  0.00000000000E+00 -0.61688619841E+02  0.61688619893E+02  0.25500000920E-02 0.  1.
    10030    2    1    2    0    0  0.00000000000E+00  0.00000000000E+00  0.96092719689E+03  0.10843044366E+04  0.50232960650E+03 0.  0.
        4    1    3    3  502    0  0.10273758237E+03  0.22324408742E+02  0.97282520254E+03  0.97849061194E+03  0.12699999809E+01 0. -1.
       -4    1    3    3    0  502 -0.10273758237E+03 -0.22324408742E+02 -0.11898005651E+02  0.10581382469E+03  0.12699999809E+01 0.  1.
</event>
<event>
 5   0  0.1211345E-01  0.4953536E+03  0.7818609E-02  0.1014999E+00
        2   -1    0    0  501    0  0.00000000000E+00  0.00000000000E+00  0.44018219917E+03  0.44018219918E+03  0.25500000920E-02 0. -1.
       -2   -1    0    0    0  501  0.00000000000E+00  0.00000000000E+00 -0.13936001930E+03  0.13936001932E+03  0.25500000920E-02 0.  1.
    10030    2    1    2    0    0  0.00000000000E+00  0.00000000000E+00  0.30082217988E+03  0.57954221850E+03  0.49535361018E+03 0.  0.
        5    1    3    3  502    0  0.16271904795E+03  0.18142295574E+03  0.99013732678E+02  0.26309235392E+03  0.46999998093E+01 0.  1.
       -5    1    3    3    0  502 -0.16271904795E+03 -0.18142295574E+03  0.20180844720E+03  0.31644986458E+03  0.46999998093E+01 0. -1.
</event>
<event>
 5   0  0.7812547E-02  0.5018331E+03  0.7818609E-02  0.1013302E+00
       -1   -1    0    0    0  501  0.00000000000E+00  0.00000000000E+00  0.60097137167E+02  0.60097137379E+02  0.50400001928E-02 0. -1.
        1   -1    0    0  501    0  0.00000000000E+00  0.00000000000E+00 -0.10476226039E+04  0.10476226039E+04  0.50400001928E-02 0.  1.
    10030    2    1    2    0    0  0.00000000000E+00  0.00000000000E+00 -0.98752546674E+03  0.11077197413E+04  0.50183311748E+03 0.  0.
        4    1    3    3  502    0  0.25083809493E+03 -0.46921235018E+01 -0.50252027139E+03  0.56166716296E+03  0.12699999809E+01 0. -1.
       -4    1    3    3    0  502 -0.25083809493E+03  0.46921235018E+01 -0.48500519535E+03  0.54605257833E+03  0.12699999809E+01 0.  1.
</event>
<event>
 5   0  0.1191894E-01  0.5173798E+03  0.7818609E-02  0.1009340E+00
        2   -1    0    0  501    0  0.00000000000E+00  0.00000000000E+00  0.10695560923E+04  0.10695560923E+04  0.25500000920E-02 0. -1.
       -2   -1    0    0    0  501  0.00000000000E+00  0.00000000000E+00 -0.62568442629E+02  0.62568442681E+02  0.25500000920E-02 0.  1.
    10030    2    1    2    0    0  0.00000000000E+00  0.00000000000E+00  0.10069876497E+04  0.11321245350E+04  0.51737977939E+03 0.  0.
        3    1    3    3  502    0 -0.86683212310E+02  0.73495745065E+02 -0.50180662953E+01  0.11375761526E+03  0.10100000352E+00 0.  1.
       -3    1    3    3    0  502  0.86683212310E+02 -0.73495745065E+02  0.10120057160E+04  0.10183669197E+04  0.10100000352E+00 0. -1.
</event>
<event>
 5   0  0.1231822E-01  0.4286542E+03  0.7818609E-02  0.1034286E+00
        2   -1    0    0  501    0  0.00000000000E+00  0.00000000000E+00  0.41322269950E+03  0.41322269951E+03  0.25500000920E-02 0. -1.
       -2   -1    0    0    0  501  0.00000000000E+00  0.00000000000E+00 -0.11116549646E+03  0.11116549649E+03  0.25500000920E-02 0.  1.
    10030    2    1    2    0    0  0.00000000000E+00  0.00000000000E+00  0.30205720304E+03  0.52438819600E+03  0.42865420351E+03 0.  0.
        1    1    3    3  502    0  0.83856157118E+02 -0.26809368203E+02  0.39008210527E+03  0.39989329350E+03  0.50400001928E-02 0. -1.
       -1    1    3    3    0  502 -0.83856157118E+02  0.26809368203E+02 -0.88024902225E+02  0.12449490250E+03  0.50400001928E-02 0.  1.
</event>
<event>
 5   0  0.5006750E-02  0.5034320E+03  0.7818609E-02  0.1012887E+00
        3   -1    0    0  501    0  0.00000000000E+00  0.00000000000E+00  0.45086427433E+02  0.45086540560E+02  0.10100000352E+00 0.  1.
       -3   -1    0    0    0  501  0.00000000000E+00  0.00000000000E+00 -0.14053201385E+04  0.14053201422E+04  0.10100000352E+00 0. -1.
    10030    2    1    2    0    0  0.00000000000E+00  0.00000000000E+00 -0.13602337111E+04  0.14504066827E+04  0.50343201773E+03 0.  0.
        3    1    3    3  502    0  0.24174311648E+03  0.69242821838E+02 -0.71253796327E+03  0.75560880226E+03  0.10100000352E+00 0. -1.
       -3    1    3    3    0  502 -0.24174311648E+03 -0.69242821838E+02 -0.64769574783E+03  0.69479788046E+03  0.10100000352E+00 0.  1.
</event>
<event>
 5   0  0.1279188E-01  0.4995697E+03  0.7818609E-02  0.1013891E+00
        2   -1    0    0  501    0  0.00000000000E+00  0.00000000000E+00  0.14247952029E+04  0.14247952029E+04  0.25500000920E-02 0. -1.
       -2   -1    0    0    0  501  0.00000000000E+00  0.00000000000E+00 -0.43790486047E+02  0.43790486122E+02  0.25500000920E-02 0.  1.
    10030    2    1    2    0    0  0.00000000000E+00  0.00000000000E+00  0.13810047168E+04  0.14685856890E+04  0.49956971289E+03 0.  0.
        2    1    3    3  502    0  0.35212491807E+02 -0.24709385821E+03  0.66152278493E+03  0.70704150468E+03  0.25500000920E-02 0.  1.
       -2    1    3    3    0  502 -0.35212491807E+02  0.24709385821E+03  0.71948193190E+03  0.76154418433E+03  0.25500000920E-02 0. -1.
</event>
<event>
 5   0  0.5006750E-02  0.5020167E+03  0.7818609E-02  0.1013254E+00
        4   -1    0    0  501    0  0.00000000000E+00  0.00000000000E+00  0.41716161008E+03  0.41716354326E+03  0.12699999809E+01 0. -1.
       -4   -1    0    0    0  501  0.00000000000E+00  0.00000000000E+00 -0.15102812176E+03  0.15103346140E+03  0.12699999809E+01 0.  1.
    10030    2    1    2    0    0  0.00000000000E+00  0.00000000000E+00  0.26613348832E+03  0.56819700466E+03  0.50201673528E+03 0.  0.
        4    1    3    3  502    0 -0.15458368412E+03 -0.15277400994E+03 -0.90558698690E+01  0.21753076837E+03  0.12699999809E+01 0.  1.
       -4    1    3    3    0  502  0.15458368412E+03  0.15277400994E+03  0.27518935819E+03  0.35066623628E+03  0.12699999809E+01 0. -1.
</event>
<event>
 5   0  0.7812547E-02  0.5054247E+03  0.7818609E-02  0.1012373E+00
        1   -1    0    0  501    0  0.00000000000E+00  0.00000000000E+00  0.11228006693E+04  0.11228006693E+04  0.50400001928E-02 0. -1.
       -1   -1    0    0    0  501  0.00000000000E+00  0.00000000000E+00 -0.56878787518E+02  0.56878787742E+02  0.50400001928E-02 0.  1.
    10030    2    1    2    0    0  0.00000000000E+00  0.00000000000E+00  0.10659218818E+04  0.11796794571E+04  0.50542473558E+03 0.  0.
        4    1    3    3  502    0  0.16067071832E+01  0.16167481789E+03  0.98627252613E+03  0.99943806059E+03  0.12699999809E+01 0. -1.
       -4    1    3    3    0  502 -0.16067071832E+01 -0.16167481789E+03  0.79649355669E+02  0.18024139649E+03  0.12699999809E+01 0.  1.
</event>
<event>
 5   0  0.1211345E-01  0.4936514E+03  0.7818609E-02  0.1015449E+00
        2   -1    0    0  501    0  0.00000000000E+00  0.00000000000E+00  0.30324402302E+03  0.30324402303E+03  0.25500000920E-02 0. -1.
       -2   -1    0    0    0  501  0.00000000000E+00  0.00000000000E+00 -0.20090394667E+03  0.20090394668E+03  0.25500000920E-02 0.  1.
    10030    2    1    2    0    0  0.00000000000E+00  0.00000000000E+00  0.10234007636E+03  0.50414796971E+03  0.49365137915E+03 0.  0.
        5    1    3    3  502    0 -0.72810121217E+02  0.20634806380E+03  0.16770146323E+03  0.27572941075E+03  0.46999998093E+01 0. -1.
       -5    1    3    3    0  502  0.72810121217E+02 -0.20634806380E+03 -0.65361386871E+02  0.22841855896E+03  0.46999998093E+01 0.  1.
</event>
<event>
 5   0  0.5006750E-02  0.5162500E+03  0.7818609E-02  0.1009622E+00
        4   -1    0    0  501    0  0.00000000000E+00  0.00000000000E+00  0.23002924351E+03  0.23003274935E+03  0.12699999809E+01 0. -1.
       -4   -1    0    0    0  501  0.00000000000E+00  0.00000000000E+00 -0.28964530308E+03  0.28964808734E+03  0.12699999809E+01 0.  1.
    10030    2    1    2    0    0  0.00000000000E+00  0.00000000000E+00 -0.59616059568E+02  0.51968083668E+03  0.51625003385E+03 0.  0.
        2    1    3    3  502    0 -0.40014453176E+01  0.80702929759E+02  0.21697325398E+03  0.23153048910E+03  0.25500000920E-02 0. -1.
       -2    1    3    3    0  502  0.40014453176E+01 -0.80702929759E+02 -0.27658931354E+03  0.28815034758E+03  0.25500000920E-02 0.  1.
</event>
<event>
 5   0  0.7602288E-02  0.5005091E+03  0.7818609E-02  0.1013646E+00
       -1   -1    0    0    0  501  0.00000000000E+00  0.00000000000E+00  0.55104630070E+02  0.55104630300E+02  0.50400001928E-02 0. -1.
        1   -1    0    0  501    0  0.00000000000E+00  0.00000000000E+00 -0.11365167218E+04  0.11365167218E+04  0.50400001928E-02 0.  1.
    10030    2    1    2    0    0  0.00000000000E+00  0.00000000000E+00 -0.10814120917E+04  0.11916213521E+04  0.50050907551E+03 0.  0.
        5    1    3    3  502    0 -0.27188935076E+02 -0.13840306015E+03 -0.10327389515E+04  0.10423370266E+04  0.46999998093E+01 0.  1.
       -5    1    3    3    0  502  0.27188935076E+02  0.13840306015E+03 -0.48673140273E+02  0.14928432547E+03  0.46999998093E+01 0. -1.
</event>
<event>
 5   0  0.7812547E-02  0.4984840E+03  0.7818609E-02  0.1014175E+00
       -1   -1    0    0    0  501  0.00000000000E+00  0.00000000000E+00  0.72123670716E+02  0.72123670892E+02  0.50400001928E-02 0. -1.
        1   -1    0    0  501    0  0.00000000000E+00  0.00000000000E+00 -0.86132023813E+03  0.86132023815E+03  0.50400001928E-02 0.  1.
    10030    2    1    2    0    0  0.00000000000E+00  0.00000000000E+00 -0.78919656742E+03  0.93344390904E+03  0.49848401108E+03 0.  0.
        4    1    3    3  502    0  0.10374705026E+03  0.20141945234E+03 -0.58908129036E+03  0.63115103246E+03  0.12699999809E+01 0.  1.
       -4    1    3    3    0  502 -0.10374705026E+03 -0.20141945234E+03 -0.20011527706E+03  0.30229287658E+03  0.12699999809E+01 0. -1.
</event>
<event>
 5   0  0.7531632E-02  0.5019094E+03  0.7818609E-02  0.1013282E+00
       -1   -1    0    0    0  501  0.00000000000E+00  0.00000000000E+00  0.81244324935E+02  0.81244325091E+02  0.50400001928E-02 0. -1.
        1   -1    0    0  501    0  0.00000000000E+00  0.00000000000E+00 -0.77517123838E+03  0.77517123840E+03  0.50400001928E-02 0.  1.
    10030    2    1    2    0    0  0.00000000000E+00  0.00000000000E+00 -0.69392691345E+03  0.85641556349E+03  0.50190941033E+03 0.  0.
        3    1    3    3  502    0  0.18058275263E+03  0.16421941358E+03 -0.24746747607E+03  0.34758928099E+03  0.10100000352E+00 0.  1.
       -3    1    3    3    0  502 -0.18058275263E+03 -0.16421941358E+03 -0.44645943738E+03  0.50882628250E+03  0.10100000352E+00 0. -1.
</event>
<event>
 5   0  0.5006750E-02  0.4935364E+03  0.7818609E-02  0.1015480E+00
       -3   -1    0    0    0  501  0.00000000000E+00  0.00000000000E+00  0.21695131614E+03  0.21695133965E+03  0.10100000352E+00 0. -1.
        3   -1    0    0  501    0  0.00000000000E+00  0.00000000000E+00 -0.28068295751E+03  0.28068297568E+03  0.10100000352E+00 0.  1.
    10030    2    1    2    0    0  0.00000000000E+00  0.00000000000E+00 -0.63731641377E+02  0.49763431533E+03  0.49353641171E+03 0.  0.
        1    1    3    3  502    0 -0.22845746559E+03  0.75751326508E+00  0.62188705092E+02  0.23677166739E+03  0.50400001928E-02 0. -1.
       -1    1    3    3    0  502  0.22845746559E+03 -0.75751326508E+00 -0.12592034647E+03  0.26086264794E+03  0.50400001928E-02 0.  1.
</event>
<event>
 5   0  0.5006750E-02  0.4981957E+03  0.7818609E-02  0.1014251E+00
        3   -1    0    0  501    0  0.00000000000E+00  0.00000000000E+00  0.10162731758E+03  0.10162736777E+03  0.10100000352E+00 0. -1.
       -3   -1    0    0    0  501  0.00000000000E+00  0.00000000000E+00 -0.61056136098E+03  0.61056136933E+03  0.10100000352E+00 0.  1.
    10030    2    1    2    0    0  0.00000000000E+00  0.00000000000E+00 -0.50893404340E+03  0.71218873710E+03  0.49819568115E+03 0.  0.
        2    1    3    3  502    0 -0.21042556034E+03  0.12909368599E+02 -0.64795176318E+02  0.22055381004E+03  0.25500000920E-02 0. -1.
       -2    1    3    3    0  502  0.21042556034E+03 -0.12909368599E+02 -0.44413886708E+03  0.49163492706E+03  0.25500000920E-02 0.  1.
</event>
<event>
 5   0  0.7602288E-02  0.4856570E+03  0.7818609E-02  0.1017592E+00
       -1   -1    0    0    0  501  0.00000000000E+00  0.00000000000E+00  0.33284009029E+02  0.33284009411E+02  0.50400001928E-02 0. -1.
        1   -1    0    0  501    0  0.00000000000E+00  0.00000000000E+00 -0.17715922167E+04  0.17715922167E+04  0.50400001928E-02 0.  1.
    10030    2    1    2    0    0  0.00000000000E+00  0.00000000000E+00 -0.17383082077E+04  0.18048762261E+04  0.48565704643E+03 0.  0.
        5    1    3    3  502    0  0.74053955359E+02 -0.22751032148E+03 -0.71598475870E+03  0.75491800838E+03  0.46999998093E+01 0.  1.
       -5    1    3    3    0  502 -0.74053955359E+02  0.22751032148E+03 -0.10223234490E+04  0.10499582178E+04  0.46999998093E+01 0. -1.
</event>
<event>
 5   0  0.7812547E-02  0.4985536E+03  0.7818609E-02  0.1014157E+00
        1   -1    0    0  501    0  0.00000000000E+00  0.00000000000E+00  0.69627361752E+03  0.69627361754E+03  0.50400001928E-02 0. -1.
       -1   -1    0    0    0  501  0.00000000000E+00  0.00000000000E+00 -0.89244975457E+02  0.89244975599E+02  0.50400001928E-02 0.  1.
    10030    2    1    2    0    0  0.00000000000E+00  0.00000000000E+00  0.60702864206E+03  0.78551859313E+03  0.49855359579E+03 0.  0.
        4    1    3    3  502    0 -0.53383787617E+01 -0.14681104997E+03 -0.13784579143E+02  0.14755883641E+03  0.12699999809E+01 0.  1.
       -4    1    3    3    0  502  0.53383787617E+01  0.14681104997E+03  0.62081322120E+03  0.63795975673E+03  0.12699999809E+01 0. -1.
</event>
<event>
 5   0  0.7602288E-02  0.5007909E+03  0.7818609E-02  0.1013573E+00
       -1   -1    0    0    0  501  0.00000000000E+00  0.00000000000E+00  0.23238997312E+03  0.23238997318E+03  0.50400001928E-02 0. -1.
        1   -1    0    0  501    0  0.00000000000E+00  0.00000000000E+00 -0.26979596959E+03  0.26979596964E+03  0.50400001928E-02 0.  1.
    10030    2    1    2    0    0  0.00000000000E+00  0.00000000000E+00 -0.37405996468E+02  0.50218594281E+03  0.50079088708E+03 0.  0.
        5    1    3    3  502    0 -0.22075176782E+02  0.18457675087E+03 -0.18686001847E+03  0.26361837359E+03  0.46999998093E+01 0.  1.
       -5    1    3    3    0  502  0.22075176782E+02 -0.18457675087E+03  0.14945402201E+03  0.23856756922E+03  0.46999998093E+01 0. -1.
</event>
<event>
 5   0  0.1231822E-01  0.4976747E+03  0.7818609E-02  0.1014388E+00
       -2   -1    0    0    0  501  0.00000000000E+00  0.00000000000E+00  0.37866251483E+02  0.37866251569E+02  0.25500000920E-02 0. -1.
        2   -1    0    0  501    0  0.00000000000E+00  0.00000000000E+00 -0.16352300451E+04  0.16352300451E+04  0.25500000920E-02 0.  1.
    10030    2    1    2    0    0  0.00000000000E+00  0.00000000000E+00 -0.15973637936E+04  0.16730962966E+04  0.49767472185E+03 0.  0.
        1    1    3    3  502    0  0.10929156547E+03 -0.17671736491E+03 -0.33838948184E+03  0.39709081428E+03  0.50400001928E-02 0. -1.
       -1    1    3    3    0  502 -0.10929156547E+03  0.17671736491E+03 -0.12589743118E+04  0.12760054824E+04  0.50400001928E-02 0.  1.
</event>
<event>
 5   0  0.7416638E-02  0.4954108E+03  0.7818609E-02  0.1014984E+00
       -1   -1    0    0    0  501  0.00000000000E+00  0.00000000000E+00  0.12502685151E+03  0.12502685161E+03  0.50400001928E-02 0.  1.
        1   -1    0    0  501    0  0.00000000000E+00  0.00000000000E+00 -0.49075820513E+03  0.49075820516E+03  0.50400001928E-02 0. -1.
    10030    2    1    2    0    0  0.00000000000E+00  0.00000000000E+00 -0.36573135362E+03  0.61578505676E+03  0.49541075191E+03 0.  0.
        1    1    3    3  502    0  0.24366006828E+02  0.17470647276E+03  0.33290798263E+02  0.17951136785E+03  0.50400001928E-02 0.  1.
       -1    1    3    3    0  502 -0.24366006828E+02 -0.17470647276E+03 -0.39902215189E+03  0.43627368891E+03  0.50400001928E-02 0. -1.
</event>
<event>
 5   0  0.1231822E-01  0.4989450E+03  0.7818609E-02  0.1014055E+00
       -2   -1    0    0    0  501  0.00000000000E+00  0.00000000000E+00  0.92444189568E+02  0.92444189603E+02  0.25500000920E-02 0.  1.
        2   -1    0    0  501    0  0.00000000000E+00  0.00000000000E+00 -0.67323361920E+03  0.67323361921E+03  0.25500000920E-02 0. -1.
    10030    2    1    2    0    0  0.00000000000E+00  0.00000000000E+00 -0.58078942964E+03  0.76567780881E+03  0.49894503237E+03 0.  0.
        1    1    3    3  502    0  0.17307463139E+03 -0.14993985959E+03 -0.13847967062E+03  0.26760681742E+03  0.50400001928E-02 0.  1.
       -1    1    3    3    0  502 -0.17307463139E+03  0.14993985959E+03 -0.44230975901E+03  0.49807099139E+03  0.50400001928E-02 0. -1.
</event>
<event>
 5   0  0.1211345E-01  0.5041668E+03  0.7818609E-02  0.1012697E+00
        2   -1    0    0  501    0  0.00000000000E+00  0.00000000000E+00  0.47422739422E+03  0.47422739423E+03  0.25500000920E-02 0. -1.
       -2   -1    0    0    0  501  0.00000000000E+00  0.00000000000E+00 -0.13399911890E+03  0.13399911892E+03  0.25500000920E-02 0.  1.
    10030    2    1    2    0    0  0.00000000000E+00  0.00000000000E+00  0.34022827532E+03  0.60822651315E+03  0.50416684934E+03 0.  0.
        5    1    3    3  502    0  0.18031416401E+03  0.37348570031E+02  0.37772647568E+03  0.42024694390E+03  0.46999998093E+01 0. -1.
       -5    1    3    3    0  502 -0.18031416401E+03 -0.37348570031E+02 -0.37498200359E+02  0.18797956925E+03  0.46999998093E+01 0.  1.
</event>
<event>
 5   0  0.5006750E-02  0.4925970E+03  0.7818609E-02  0.1015729E+00
       -4   -1    0    0    0  501  0.00000000000E+00  0.00000000000E+00  0.13928438362E+03  0.13929017345E+03  0.12699999809E+01 0. -1.
        4   -1    0    0  501    0  0.00000000000E+00  0.00000000000E+00 -0.43551722212E+03  0.43551907383E+03  0.12699999809E+01 0.  1.
    10030    2    1    2    0    0  0.00000000000E+00  0.00000000000E+00 -0.29623283850E+03  0.57480924728E+03  0.49259697131E+03 0.  0.
        1    1    3    3  502    0 -0.70199837331E+02  0.20852607080E+03 -0.18955228343E+02  0.22084030445E+03  0.50400001928E-02 0. -1.
       -1    1    3    3    0  502  0.70199837331E+02 -0.20852607080E+03 -0.27727761016E+03  0.35396894283E+03  0.50400001928E-02 0.  1.
</event>
<event>
 5   0  0.7416638E-02  0.5026947E+03  0.7818609E-02  0.1013078E+00
       -1   -1    0    0    0  501  0.00000000000E+00  0.00000000000E+00  0.46826651215E+02  0.46826651486E+02  0.50400001928E-02 0.  1.
        1   -1    0    0  501    0  0.00000000000E+00  0.00000000000E+00 -0.13491351218E+04  0.13491351219E+04  0.50400001928E-02 0. -1.
    10030    2    1    2    0    0  0.00000000000E+00  0.00000000000E+00 -0.13023084706E+04  0.13959617733E+04  0.50269465877E+03 0.  0.
        1    1    3    3  502    0  0.13643533390E+03  0.88697541687E+02 -0.11921188420E+03  0.20172587240E+03  0.50400001928E-02 0.  1.
       -1    1    3    3    0  502 -0.13643533390E+03 -0.88697541687E+02 -0.11830965864E+04  0.11942359009E+04  0.50400001928E-02 0. -1.
</event>
<event>
 5   0  0.1279188E-01  0.4869935E+03  0.7818609E-02  0.1017231E+00
        2   -1    0    0  501    0  0.00000000000E+00  0.00000000000E+00  0.57865628398E+03  0.57865628398E+03  0.25500000920E-02 0. -1.
       -2   -1    0    0    0  501  0.00000000000E+00  0.00000000000E+00 -0.10246268201E+03  0.10246268204E+03  0.25500000920E-02 0.  1.
    10030    2    1    2    0    0  0.00000000000E+00  0.00000000000E+00  0.47619360197E+03  0.68111896602E+03  0.48699353109E+03 0.  0.
        2    1    3    3  502    0 -0.94804996142E+02  0.16319490177E+03  0.22917776823E+02  0.19012045592E+03  0.25500000920E-02 0.  1.
       -2    1    3    3    0  502  0.94804996142E+02 -0.16319490177E+03  0.45327582514E+03  0.49099851010E+03  0.25500000920E-02 0. -1.
</event>
<event>
 5   0  0.7531632E-02  0.4531256E+03  0.7818609E-02  0.1026794E+00
        1   -1    0    0  501    0  0.00000000000E+00  0.00000000000E+00  0.35612046947E+03  0.35612046950E+03  0.50400001928E-02 0. -1.
       -1   -1    0    0    0  501  0.00000000000E+00  0.00000000000E+00 -0.14413860008E+03  0.14413860017E+03  0.50400001928E-02 0.  1.
    10030    2    1    2    0    0  0.00000000000E+00  0.00000000000E+00  0.21198186938E+03  0.50025906967E+03  0.45312561596E+03 0.  0.
        3    1    3    3  502    0  0.15397076546E+03  0.74732048224E+02  0.26988775453E+03  0.31957985840E+03  0.10100000352E+00 0. -1.
       -3    1    3    3    0  502 -0.15397076546E+03 -0.74732048224E+02 -0.57905885150E+02  0.18067921127E+03  0.10100000352E+00 0.  1.
</event>
<event>
 5   0  0.7531632E-02  0.5003540E+03  0.7818609E-02  0.1013687E+00
        1   -1    0    0  501    0  0.00000000000E+00  0.00000000000E+00  0.55424262096E+02  0.55424262326E+02  0.50400001928E-02 0. -1.
       -1   -1    0    0    0  501  0.00000000000E+00  0.00000000000E+00 -0.11292624895E+04  0.11292624896E+04  0.50400001928E-02 0.  1.
    10030    2    1    2    0    0  0.00000000000E+00  0.00000000000E+00 -0.10738382274E+04  0.11846867519E+04  0.50035403601E+03 0.  0.
        3    1    3    3  502    0 -0.20795789829E+03  0.74261696700E+02 -0.25850328442E+03  0.33997830124E+03  0.10100000352E+00 0. -1.
       -3    1    3    3    0  502  0.20795789829E+03 -0.74261696700E+02 -0.81533494302E+03  0.84470845064E+03  0.10100000352E+00 0.  1.
</event>
<event>
 5   0  0.1279188E-01  0.4958263E+03  0.7818609E-02  0.1014874E+00
        2   -1    0    0  501    0  0.00000000000E+00  0.00000000000E+00  0.27769228871E+03  0.27769228872E+03  0.25500000920E-02 0.  1.
       -2   -1    0    0    0  501  0.00000000000E+00  0.00000000000E+00 -0.22132746687E+03  0.22132746689E+03  0.25500000920E-02 0. -1.
    10030    2    1    2    0    0  0.00000000000E+00  0.00000000000E+00  0.56364821833E+02  0.49901975561E+03  0.49582630361E+03 0.  0.
        2    1    3    3  502    0 -0.17985430870E+03  0.17062249722E+03  0.29339560719E+02  0.24964057913E+03  0.25500000920E-02 0.  1.
       -2    1    3    3    0  502  0.17985430870E+03 -0.17062249722E+03  0.27025261114E+02  0.24937917648E+03  0.25500000920E-02 0. -1.
</event>
<event>
 5   0  0.7531632E-02  0.4976121E+03  0.7818609E-02  0.1014404E+00
       -1   -1    0    0    0  501  0.00000000000E+00  0.00000000000E+00  0.32330440008E+03  0.32330440012E+03  0.50400001928E-02 0.  1.
        1   -1    0    0  501    0  0.00000000000E+00  0.00000000000E+00 -0.19147421327E+03  0.19147421333E+03  0.50400001928E-02 0. -1.
    10030    2    1    2    0    0  0.00000000000E+00  0.00000000000E+00  0.13183018681E+03  0.51477861345E+03  0.49761212074E+03 0.  0.
        3    1    3    3  502    0 -0.21637429963E+03  0.12268633049E+03  0.72006541483E+02  0.25894927195E+03  0.10100000352E+00 0. -1.
       -3    1    3    3    0  502  0.21637429963E+03 -0.12268633049E+03  0.59823645332E+02  0.25582934150E+03  0.10100000352E+00 0.  1.
</event>
<event>
 5   0  0.1191894E-01  0.5055682E+03  0.7818609E-02  0.1012336E+00
       -2   -1    0    0    0  501  0.00000000000E+00  0.00000000000E+00  0.27841560747E+03  0.27841560748E+03  0.25500000920E-02 0. -1.
        2   -1    0    0  501    0  0.00000000000E+00  0.00000000000E+00 -0.22951224071E+03  0.22951224072E+03  0.25500000920E-02 0.  1.
    10030    2    1    2    0    0  0.00000000000E+00  0.00000000000E+00  0.48903366764E+02  0.50792784820E+03  0.50556815535E+03 0.  0.
        3    1    3    3  502    0 -0.19787981591E+03 -0.10449282100E+03 -0.93675197043E+02  0.24259065095E+03  0.10100000352E+00 0.  1.
       -3    1    3    3    0  502  0.19787981591E+03  0.10449282100E+03  0.14257856381E+03  0.26533719725E+03  0.10100000352E+00 0. -1.
</event>
<event>
 5   0  0.1191894E-01  0.5463000E+03  0.7818609E-02  0.1002354E+00
        2   -1    0    0  501    0  0.00000000000E+00  0.00000000000E+00  0.28384190455E+03  0.28384190457E+03  0.25500000920E-02 0. -1.
       -2   -1    0    0    0  501  0.00000000000E+00  0.00000000000E+00 -0.26286087368E+03  0.26286087370E+03  0.25500000920E-02 0.  1.
    10030    2    1    2    0    0  0.00000000000E+00  0.00000000000E+00  0.20981030870E+02  0.54670277826E+03  0.54630003121E+03 0.  0.
        3    1    3    3  502    0  0.26431854774E+03  0.68565115934E+02  0.37438077755E+01  0.27309246804E+03  0.10100000352E+00 0.  1.
       -3    1    3    3    0  502 -0.26431854774E+03 -0.68565115934E+02  0.17237223094E+02  0.27361031023E+03  0.10100000352E+00 0. -1.
</event>
<event>
 5   0  0.1279188E-01  0.4922254E+03  0.7818609E-02  0.1015828E+00
       -2   -1    0    0    0  501  0.00000000000E+00  0.00000000000E+00  0.84135017104E+02  0.84135017142E+02  0.25500000920E-02 0.  1.
        2   -1    0    0  501    0  0.00000000000E+00  0.00000000000E+00 -0.71993164229E+03  0.71993164230E+03  0.25500000920E-02 0. -1.
    10030    2    1    2    0    0  0.00000000000E+00  0.00000000000E+00 -0.63579662519E+03  0.80406665944E+03  0.49222539981E+03 0.  0.
        2    1    3    3  502    0 -0.18997174025E+03  0.11243540366E+02 -0.62963543168E+02  0.20044971207E+03  0.25500000920E-02 0.  1.
       -2    1    3    3    0  502  0.18997174025E+03 -0.11243540366E+02 -0.57283308202E+03  0.60361694737E+03  0.25500000920E-02 0. -1.
</event>
<event>
 5   0  0.7812547E-02  0.4966223E+03  0.7818609E-02  0.1014664E+00
        1   -1    0    0  501    0  0.00000000000E+00  0.00000000000E+00  0.82175240615E+03  0.82175240616E+03  0.50400001928E-02 0.  1.
       -1   -1    0    0    0  501  0.00000000000E+00  0.00000000000E+00 -0.75032843118E+02  0.75032843287E+02  0.50400001928E-02 0. -1.
    10030    2    1    2    0    0  0.00000000000E+00  0.00000000000E+00  0.74671956303E+03  0.89678524945E+03  0.49662226875E+03 0.  0.
        4    1    3    3  502    0  0.18336082026E+03 -0.16468549821E+03  0.31875793901E+03  0.40292771102E+03  0.12699999809E+01 0. -1.
       -4    1    3    3    0  502 -0.18336082026E+03  0.16468549821E+03  0.42796162402E+03  0.49385753843E+03  0.12699999809E+01 0.  1.
</event>
<event>
 5   0  0.1231822E-01  0.4964904E+03  0.7818609E-02  0.1014699E+00
       -2   -1    0    0    0  501  0.00000000000E+00  0.00000000000E+00  0.10407842207E+03  0.10407842210E+03  0.25500000920E-02 0. -1.
        2   -1    0    0  501    0  0.00000000000E+00  0.00000000000E+00 -0.59210817653E+03  0.59210817653E+03  0.25500000920E-02 0.  1.
    10030    2    1    2    0    0  0.00000000000E+00  0.00000000000E+00 -0.48802975446E+03  0.69618659864E+03  0.49649042175E+03 0.  0.
        1    1    3    3  502    0 -0.15101409985E+03 -0.19205063814E+03 -0.30572795565E+03  0.39135442869E+03  0.50400001928E-02 0.  1.
       -1    1    3    3    0  502  0.15101409985E+03  0.19205063814E+03 -0.18230179881E+03  0.30483216995E+03  0.50400001928E-02 0. -1.
</event>
<event>
 5   0  0.1279188E-01  0.4936256E+03  0.7818609E-02  0.1015456E+00
        2   -1    0    0  501    0  0.00000000000E+00  0.00000000000E+00  0.48338955834E+03  0.48338955834E+03  0.25500000920E-02 0.  1.
       -2   -1    0    0    0  501  0.00000000000E+00  0.00000000000E+00 -0.12601959562E+03  0.12601959564E+03  0.25500000920E-02 0. -1.
    10030    2    1    2    0    0  0.00000000000E+00  0.00000000000E+00  0.35736996272E+03  0.60940915398E+03  0.49362559365E+03 0.  0.
        2    1    3    3  502    0 -0.21640438285E+03 -0.25998528520E+02  0.32164746041E+03  0.38854069182E+03  0.25500000920E-02 0.  1.
       -2    1    3    3    0  502  0.21640438285E+03  0.25998528520E+02  0.35722502307E+02  0.22086846217E+03  0.25500000920E-02 0. -1.
</event>
<event>
 5   0  0.1231822E-01  0.5055903E+03  0.7818609E-02  0.1012330E+00
        2   -1    0    0  501    0  0.00000000000E+00  0.00000000000E+00  0.29115632275E+03  0.29115632277E+03  0.25500000920E-02 0. -1.
       -2   -1    0    0    0  501  0.00000000000E+00  0.00000000000E+00 -0.21948825219E+03  0.21948825221E+03  0.25500000920E-02 0.  1.
    10030    2    1    2    0    0  0.00000000000E+00  0.00000000000E+00  0.71668070561E+02  0.51064457497E+03  0.50559031796E+03 0.  0.
        1    1    3    3  502    0 -0.11467162976E+03 -0.20615277699E+03  0.12760957924E+03  0.26820282413E+03  0.50400001928E-02 0. -1.
       -1    1    3    3    0  502  0.11467162976E+03  0.20615277699E+03 -0.55941508683E+02  0.24244175084E+03  0.50400001928E-02 0.  1.
</event>
<event>
 5   0  0.1191894E-01  0.4879183E+03  0.7818609E-02  0.1016981E+00
        2   -1    0    0  501    0  0.00000000000E+00  0.00000000000E+00  0.13983959451E+03  0.13983959453E+03  0.25500000920E-02 0.  1.
       -2   -1    0    0    0  501  0.00000000000E+00  0.00000000000E+00 -0.42560240547E+03  0.42560240548E+03  0.25500000920E-02 0. -1.
    10030    2    1    2    0    0  0.00000000000E+00  0.00000000000E+00 -0.28576281096E+03  0.56544200001E+03  0.48791830387E+03 0.  0.
        3    1    3    3  502    0  0.10009740070E+03  0.51810908015E+02  0.10785677442E+03  0.15600305704E+03  0.10100000352E+00 0.  1.
       -3    1    3    3    0  502 -0.10009740070E+03 -0.51810908015E+02 -0.39361958539E+03  0.40943894297E+03  0.10100000352E+00 0. -1.
</event>
<event>
 5   0  0.5006750E-02  0.4979315E+03  0.7818609E-02  0.1014320E+00
        4   -1    0    0  501    0  0.00000000000E+00  0.00000000000E+00  0.84911273523E+03  0.84911368499E+03  0.12699999809E+01 0.  1.
       -4   -1    0    0    0  501  0.00000000000E+00  0.00000000000E+00 -0.72991961829E+02  0.73003009470E+02  0.12699999809E+01 0. -1.
    10030    2    1    2    0    0  0.00000000000E+00  0.00000000000E+00  0.77612077340E+03  0.92211669446E+03  0.49793146445E+03 0.  0.
        1    1    3    3  502    0 -0.75830123800E+02  0.22742244111E+02 -0.49067285183E+02  0.93139765103E+02  0.50400001928E-02 0. -1.
       -1    1    3    3    0  502  0.75830123800E+02 -0.22742244111E+02  0.82518805858E+03  0.82897692935E+03  0.50400001928E-02 0.  1.
</event>
<event>
 5   0  0.1191894E-01  0.5043987E+03  0.7818609E-02  0.1012637E+00
       -2   -1    0    0    0  501  0.00000000000E+00  0.00000000000E+00  0.68511063125E+02  0.68511063172E+02  0.25500000920E-02 0.  1.
        2   -1    0    0  501    0  0.00000000000E+00  0.00000000000E+00 -0.92838309940E+03  0.92838309941E+03  0.25500000920E-02 0. -1.
    10030    2    1    2    0    0  0.00000000000E+00  0.00000000000E+00 -0.85987203628E+03  0.99689416258E+03  0.50439870401E+03 0.  0.
        3    1    3    3  502    0 -0.40738486507E+02 -0.33519754887E+02 -0.91735558225E+03  0.91887130369E+03  0.10100000352E+00 0. -1.
       -3    1    3    3    0  502  0.40738486507E+02  0.33519754887E+02  0.57483545975E+02  0.78022858890E+02  0.10100000352E+00 0.  1.
</event>
<event>
 5   0  0.1243803E-01  0.5011568E+03  0.7818609E-02  0.1013477E+00
       -2   -1    0    0    0  501  0.00000000000E+00  0.00000000000E+00  0.80391202934E+02  0.80391202974E+02  0.25500000920E-02 0.  1.
        2   -1    0    0  501    0  0.00000000000E+00  0.00000000000E+00 -0.78104969362E+03  0.78104969362E+03  0.25500000920E-02 0. -1.
    10030    2    1    2    0    0  0.00000000000E+00  0.00000000000E+00 -0.70065849069E+03  0.86144089660E+03  0.50115675967E+03 0.  0.
        4    1    3    3  502    0  0.17770670557E+03  0.57080917924E+02 -0.63770018956E+03  0.66445545303E+03  0.12699999809E+01 0. -1.
       -4    1    3    3    0  502 -0.17770670557E+03 -0.57080917924E+02 -0.62958301126E+02  0.19698544357E+03  0.12699999809E+01 0.  1.
</event>
<event>
 5   0  0.7416638E-02  0.4568341E+03  0.7818609E-02  0.1025703E+00
        1   -1    0    0  501    0  0.00000000000E+00  0.00000000000E+00  0.49532666880E+03  0.49532666883E+03  0.50400001928E-02 0.  1.
       -1   -1    0    0    0  501  0.00000000000E+00  0.00000000000E+00 -0.10533319587E+03  0.10533319599E+03  0.50400001928E-02 0. -1.
    10030    2    1    2    0    0  0.00000000000E+00  0.00000000000E+00  0.38999347294E+03  0.60065986482E+03  0.45683406645E+03 0.  0.
        1    1    3    3  502    0 -0.13110037316E+03 -0.52916048355E+02 -0.40893451315E+02  0.14717231534E+03  0.50400001928E-02 0. -1.
       -1    1    3    3    0  502  0.13110037316E+03  0.52916048355E+02  0.43088692425E+03  0.45348754948E+03  0.50400001928E-02 0.  1.
</event>
<event>
 5   0  0.5006750E-02  0.5119953E+03  0.7818609E-02  0.1010695E+00
        4   -1    0    0  501    0  0.00000000000E+00  0.00000000000E+00  0.43859404968E+03  0.43859588839E+03  0.12699999809E+01 0. -1.
       -4   -1    0    0    0  501  0.00000000000E+00  0.00000000000E+00 -0.14941530277E+03  0.14942070004E+03  0.12699999809E+01 0.  1.
    10030    2    1    2    0    0  0.00000000000E+00  0.00000000000E+00  0.28917874691E+03  0.58801658843E+03  0.51199527401E+03 0.  0.
        5    1    3    3  502    0 -0.11250596756E+03  0.17313695752E+03  0.31830516938E+03  0.37943941499E+03  0.46999998093E+01 0. -1.
       -5    1    3    3    0  502  0.11250596756E+03 -0.17313695752E+03 -0.29126422468E+02  0.20857717344E+03  0.46999998093E+01 0.  1.
</event>
<event>
 5   0  0.7602288E-02  0.5015560E+03  0.7818609E-02  0.1013374E+00
       -1   -1    0    0    0  501  0.00000000000E+00  0.00000000000E+00  0.10645140735E+03  0.10645140746E+03  0.50400001928E-02 0.  1.
        1   -1    0    0  501    0  0.00000000000E+00  0.00000000000E+00 -0.59078218880E+03  0.59078218882E+03  0.50400001928E-02 0. -1.
    10030    2    1    2    0    0  0.00000000000E+00  0.00000000000E+00 -0.48433078146E+03  0.69723359629E+03  0.50155596091E+03 0.  0.
        5    1    3    3  502    0  0.69580625304E+02 -0.12925193492E+03 -0.52474378780E+03  0.54490885378E+03  0.46999998093E+01 0. -1.
       -5    1    3    3    0  502 -0.69580625304E+02  0.12925193492E+03  0.40413006344E+02  0.15232474250E+03  0.46999998093E+01 0.  1.
</event>
<event>
 5   0  0.7602288E-02  0.4937440E+03  0.7818609E-02  0.1015425E+00
        1   -1    0    0  501    0  0.00000000000E+00  0.00000000000E+00  0.11910334559E+04  0.11910334559E+04  0.50400001928E-02 0. -1.
       -1   -1    0    0    0  501  0.00000000000E+00  0.00000000000E+00 -0.51170509828E+02  0.51170510076E+02  0.50400001928E-02 0.  1.
    10030    2    1    2    0    0  0.00000000000E+00  0.00000000000E+00  0.11398629461E+04  0.12422039660E+04  0.49374402000E+03 0.  0.
        5    1    3    3  502    0  0.16058880087E+03 -0.24505193278E+02  0.10374698024E+04  0.10501213969E+04  0.46999998093E+01 0. -1.
       -5    1    3    3    0  502 -0.16058880087E+03  0.24505193278E+02  0.10239314372E+03  0.19208256908E+03  0.46999998093E+01 0.  1.
</event>
<event>
 5   0  0.7416638E-02  0.5067603E+03  0.7818609E-02  0.1012029E+00
        1   -1    0    0  501    0  0.00000000000E+00  0.00000000000E+00  0.11150441928E+04  0.11150441928E+04  0.50400001928E-02 0. -1.
       -1   -1    0    0    0  501  0.00000000000E+00  0.00000000000E+00 -0.57577533825E+02  0.57577534045E+02  0.50400001928E-02 0.  1.
    10030    2    1    2    0    0  0.00000000000E+00  0.00000000000E+00  0.10574666589E+04  0.11726217268E+04  0.50676027809E+03 0.  0.
        1    1    3    3  502    0  0.97435377838E+02 -0.51145926708E+02  0.60359357962E+00  0.11004509541E+03  0.50400001928E-02 0.  1.
       -1    1    3    3    0  502 -0.97435377838E+02  0.51145926708E+02  0.10568630654E+04  0.10625766314E+04  0.50400001928E-02 0. -1.
</event>
<event>
 5   0  0.1243803E-01  0.4545645E+03  0.7818609E-02  0.1026370E+00
       -2   -1    0    0    0  501  0.00000000000E+00  0.00000000000E+00  0.65918575656E+02  0.65918575705E+02  0.25500000920E-02 0.  1.
        2   -1    0    0  501    0  0.00000000000E+00  0.00000000000E+00 -0.78365210548E+03  0.78365210549E+03  0.25500000920E-02 0. -1.
    10030    2    1    2    0    0  0.00000000000E+00  0.00000000000E+00 -0.71773352983E+03  0.84957068119E+03  0.45456454163E+03 0.  0.
        4    1    3    3  502    0 -0.71193585285E+02 -0.16498849096E+02  0.43353759931E+02  0.84981762792E+02  0.12699999809E+01 0.  1.
       -4    1    3    3    0  502  0.71193585285E+02  0.16498849096E+02 -0.76108728976E+03  0.76458891840E+03  0.12699999809E+01 0. -1.
</event>
<event>
 5   0  0.7416638E-02  0.4990275E+03  0.7818609E-02  0.1014033E+00
       -1   -1    0    0    0  501  0.00000000000E+00  0.00000000000E+00  0.44418457345E+02  0.44418457631E+02  0.50400001928E-02 0.  1.
        1   -1    0    0  501    0  0.00000000000E+00  0.00000000000E+00 -0.14016047147E+04  0.14016047147E+04  0.50400001928E-02 0. -1.
    10030    2    1    2    0    0  0.00000000000E+00  0.00000000000E+00 -0.13571862574E+04  0.14460231723E+04  0.49902753210E+03 0.  0.
        1    1    3    3  502    0  0.11399989655E+03  0.89471116958E+02 -0.12671583996E+04  0.12754181537E+04  0.50400001928E-02 0. -1.
       -1    1    3    3    0  502 -0.11399989655E+03 -0.89471116958E+02 -0.90027857802E+02  0.17060501865E+03  0.50400001928E-02 0.  1.
</event>
<event>
 5   0  0.1211345E-01  0.5030313E+03  0.7818609E-02  0.1012991E+00
       -2   -1    0    0    0  501  0.00000000000E+00  0.00000000000E+00  0.40995620557E+02  0.40995620636E+02  0.25500000920E-02 0. -1.
        2   -1    0    0  501    0  0.00000000000E+00  0.00000000000E+00 -0.15430946994E+04  0.15430946994E+04  0.25500000920E-02 0.  1.
    10030    2    1    2    0    0  0.00000000000E+00  0.00000000000E+00 -0.15020990789E+04  0.15840903201E+04  0.50303131054E+03 0.  0.
        5    1    3    3  502    0 -0.12358521614E+03 -0.20473313599E+02 -0.14377067158E+04  0.14431615131E+04  0.46999998093E+01 0.  1.
       -5    1    3    3    0  502  0.12358521614E+03  0.20473313599E+02 -0.64392363087E+02  0.14092880699E+03  0.46999998093E+01 0. -1.
</event>
<event>
 5   0  0.1211345E-01  0.5022913E+03  0.7818609E-02  0.1013183E+00
       -2   -1    0    0    0  501  0.00000000000E+00  0.00000000000E+00  0.28792368894E+02  0.28792369007E+02  0.25500000920E-02 0.  1.
        2   -1    0    0  501    0  0.00000000000E+00  0.00000000000E+00 -0.21906545194E+04  0.21906545194E+04  0.25500000920E-02 0. -1.
    10030    2    1    2    0    0  0.00000000000E+00  0.00000000000E+00 -0.21618621505E+04  0.22194468884E+04  0.50229128270E+03 0.  0.
        5    1    3    3  502    0 -0.80025730616E+02  0.40685752831E+02 -0.44736717567E+02  0.10041370395E+03  0.46999998093E+01 0.  1.
       -5    1    3    3    0  502  0.80025730616E+02 -0.40685752831E+02 -0.21171254330E+04  0.21190331845E+04  0.46999998093E+01 0. -1.
</event>
<event>
 5   0  0.1211345E-01  0.5065060E+03  0.7818609E-02  0.1012095E+00
        2   -1    0    0  501    0  0.00000000000E+00  0.00000000000E+00  0.10413827183E+04  0.10413827183E+04  0.25500000920E-02 0.  1.
       -2   -1    0    0    0  501  0.00000000000E+00  0.00000000000E+00 -0.61588388404E+02  0.61588388457E+02  0.25500000920E-02 0. -1.
    10030    2    1    2    0    0  0.00000000000E+00  0.00000000000E+00  0.97979432986E+03  0.11029711067E+04  0.50650600534E+03 0.  0.
        5    1    3    3  502    0 -0.14411342815E+03 -0.76191130261E+02  0.91182070478E+03  0.92628983378E+03  0.46999998093E+01 0.  1.
       -5    1    3    3    0  502  0.14411342815E+03  0.76191130261E+02  0.67973625088E+02  0.17668127295E+03  0.46999998093E+01 0. -1.
</event>
<event>
 5   0  0.5006750E-02  0.4973290E+03  0.7818609E-02  0.1014478E+00
       -3   -1    0    0    0  501  0.00000000000E+00  0.00000000000E+00  0.53536678114E+03  0.53536679067E+03  0.10100000352E+00 0.  1.
        3   -1    0    0  501    0  0.00000000000E+00  0.00000000000E+00 -0.11549842358E+03  0.11549846774E+03  0.10100000352E+00 0. -1.
    10030    2    1    2    0    0  0.00000000000E+00  0.00000000000E+00  0.41986835756E+03  0.65086525841E+03  0.49732901276E+03 0.  0.
        3    1    3    3  502    0  0.20259380546E+03  0.63384269277E+02  0.37942354389E+03  0.43476896331E+03  0.10100000352E+00 0.  1.
       -3    1    3    3    0  502 -0.20259380546E+03 -0.63384269277E+02  0.40444813665E+02  0.21609629510E+03  0.10100000352E+00 0. -1.
</event>
<event>
 5   0  0.1279188E-01  0.4661273E+03  0.7818609E-02  0.1023019E+00
        2   -1    0    0  501    0  0.00000000000E+00  0.00000000000E+00  0.78892724990E+02  0.78892725031E+02  0.25500000920E-02 0. -1.
       -2   -1    0    0    0  501  0.00000000000E+00  0.00000000000E+00 -0.68851297237E+03  0.68851297237E+03  0.25500000920E-02 0.  1.
    10030    2    1    2    0    0  0.00000000000E+00  0.00000000000E+00 -0.60962024738E+03  0.76740569740E+03  0.46612729849E+03 0.  0.
        2    1    3    3  502    0 -0.10074877748E+03  0.36293220923E+02  0.35991554637E+02  0.11297303245E+03  0.25500000920E-02 0. -1.
       -2    1    3    3    0  502  0.10074877748E+03 -0.36293220923E+02 -0.64561180202E+03  0.65443266495E+03  0.25500000920E-02 0.  1.
</event>
<event>
 5   0  0.7812547E-02  0.5020148E+03  0.7818609E-02  0.1013254E+00
        1   -1    0    0  501    0  0.00000000000E+00  0.00000000000E+00  0.39082949311E+03  0.39082949314E+03  0.50400001928E-02 0.  1.
       -1   -1    0    0    0  501  0.00000000000E+00  0.00000000000E+00 -0.16120767180E+03  0.16120767188E+03  0.50400001928E-02 0. -1.
    10030    2    1    2    0    0  0.00000000000E+00  0.00000000000E+00  0.22962182131E+03  0.55203716503E+03  0.50201479137E+03 0.  0.
        4    1    3    3  502    0 -0.10935172707E+03  0.21664212703E+03  0.18532101163E+03  0.30534750968E+03  0.12699999809E+01 0.  1.
       -4    1    3    3    0  502  0.10935172707E+03 -0.21664212703E+03  0.44300809681E+02  0.24668965535E+03  0.12699999809E+01 0. -1.
</event>
<event>
 5   0  0.1231822E-01  0.4999209E+03  0.7818609E-02  0.1013800E+00
        2   -1    0    0  501    0  0.00000000000E+00  0.00000000000E+00  0.18940025649E+03  0.18940025650E+03  0.25500000920E-02 0.  1.
       -2   -1    0    0    0  501  0.00000000000E+00  0.00000000000E+00 -0.32988454401E+03  0.32988454402E+03  0.25500000920E-02 0. -1.
    10030    2    1    2    0    0  0.00000000000E+00  0.00000000000E+00 -0.14048428752E+03  0.51928480052E+03  0.49992086275E+03 0.  0.
        1    1    3    3  502    0  0.13576554163E+03  0.26224150868E+02 -0.28653896284E+03  0.31815808277E+03  0.50400001928E-02 0. -1.
       -1    1    3    3    0  502 -0.13576554163E+03 -0.26224150868E+02  0.14605467532E+03  0.20112671775E+03  0.50400001928E-02 0.  1.
</event>
<event>
 5   0  0.1211345E-01  0.5027448E+03  0.7818609E-02  0.1013065E+00
        2   -1    0    0  501    0  0.00000000000E+00  0.00000000000E+00  0.97536199724E+03  0.97536199725E+03  0.25500000920E-02 0.  1.
       -2   -1    0    0    0  501  0.00000000000E+00  0.00000000000E+00 -0.64784233614E+02  0.64784233664E+02  0.25500000920E-02 0. -1.
    10030    2    1    2    0    0  0.00000000000E+00  0.00000000000E+00  0.91057776363E+03  0.10401462309E+04  0.50274478422E+03 0.  0.
        5    1    3    3  502    0 -0.73378888394E+02  0.24027870308E+03  0.46957398952E+03  0.53257876230E+03  0.46999998093E+01 0. -1.
       -5    1    3    3    0  502  0.73378888394E+02 -0.24027870308E+03  0.44100377411E+03  0.50756746861E+03  0.46999998093E+01 0.  1.
</event>
<event>
 5   0  0.1243803E-01  0.5071492E+03  0.7818609E-02  0.1011930E+00
        2   -1    0    0  501    0  0.00000000000E+00  0.00000000000E+00  0.46078777204E+03  0.46078777204E+03  0.25500000920E-02 0. -1.
       -2   -1    0    0    0  501  0.00000000000E+00  0.00000000000E+00 -0.13954378041E+03  0.13954378043E+03  0.25500000920E-02 0.  1.
    10030    2    1    2    0    0  0.00000000000E+00  0.00000000000E+00  0.32124399163E+03  0.60033155247E+03  0.50714916024E+03 0.  0.
        4    1    3    3  502    0  0.22672284775E+03  0.10096765254E+03  0.99104775239E+02  0.26724723746E+03  0.12699999809E+01 0. -1.
       -4    1    3    3    0  502 -0.22672284775E+03 -0.10096765254E+03  0.22213921639E+03  0.33308431502E+03  0.12699999809E+01 0.  1.
</event>
<event>
 5   0  0.1191894E-01  0.5015658E+03  0.7818609E-02  0.1013371E+00
        2   -1    0    0  501    0  0.00000000000E+00  0.00000000000E+00  0.11209205612E+04  0.11209205612E+04  0.25500000920E-02 0.  1.
       -2   -1    0    0    0  501  0.00000000000E+00  0.00000000000E+00 -0.56107522046E+02  0.56107522104E+02  0.25500000920E-02 0. -1.
    10030    2    1    2    0    0  0.00000000000E+00  0.00000000000E+00  0.10648130392E+04  0.11770280833E+04  0.50156584866E+03 0.  0.
        3    1    3    3  502    0  0.75604547651E+01  0.23217253150E+03  0.31063563078E+03  0.38788625932E+03  0.10100000352E+00 0. -1.
       -3    1    3    3    0  502 -0.75604547651E+01 -0.23217253150E+03  0.75417740839E+03  0.78914182400E+03  0.10100000352E+00 0.  1.
</event>
<event>
 5   0  0.1211345E-01  0.4985181E+03  0.7818609E-02  0.1014166E+00
       -2   -1    0    0    0  501  0.00000000000E+00  0.00000000000E+00  0.10237292501E+03  0.10237292504E+03  0.25500000920E-02 0. -1.
        2   -1    0    0  501    0  0.00000000000E+00  0.00000000000E+00 -0.60689957684E+03  0.60689957685E+03  0.25500000920E-02 0.  1.
    10030    2    1    2    0    0  0.00000000000E+00  0.00000000000E+00 -0.50452665183E+03  0.70927250189E+03  0.49851814363E+03 0.  0.
        5    1    3    3  502    0 -0.14533265906E+03  0.20106693149E+03 -0.28588695454E+03  0.37855373926E+03  0.46999998093E+01 0. -1.
       -5    1    3    3    0  502  0.14533265906E+03 -0.20106693149E+03 -0.21863969729E+03  0.33071876263E+03  0.46999998093E+01 0.  1.
</event>
<event>
 5   0  0.7812547E-02  0.5024432E+03  0.7818609E-02  0.1013143E+00
       -1   -1    0    0    0  501  0.00000000000E+00  0.00000000000E+00  0.14780249225E+03  0.14780249233E+03  0.50400001928E-02 0. -1.
        1   -1    0    0  501    0  0.00000000000E+00  0.00000000000E+00 -0.42700423272E+03  0.42700423275E+03  0.50400001928E-02 0.  1.
    10030    2    1    2    0    0  0.00000000000E+00  0.00000000000E+00 -0.27920174047E+03  0.57480672509E+03  0.50244319014E+03 0.  0.
        4    1    3    3  502    0 -0.71523763242E+02 -0.13552366324E+03  0.88138414868E+02  0.17678321493E+03  0.12699999809E+01 0. -1.
       -4    1    3    3    0  502  0.71523763242E+02  0.13552366324E+03 -0.36734015534E+03  0.39802351015E+03  0.12699999809E+01 0.  1.
</event>
<event>
 5   0  0.7531632E-02  0.4592019E+03  0.7818609E-02  0.1025013E+00
       -1   -1    0    0    0  501  0.00000000000E+00  0.00000000000E+00  0.33778906324E+03  0.33778906327E+03  0.50400001928E-02 0.  1.
        1   -1    0    0  501    0  0.00000000000E+00  0.00000000000E+00 -0.15606363282E+03  0.15606363290E+03  0.50400001928E-02 0. -1.
    10030    2    1    2    0    0  0.00000000000E+00  0.00000000000E+00  0.18172543041E+03  0.49385269618E+03  0.45920186570E+03 0.  0.
        3    1    3    3  502    0  0.89777051388E+02  0.21110257409E+03  0.80526978574E+02  0.24312305572E+03  0.10100000352E+00 0.  1.
       -3    1    3    3    0  502 -0.89777051388E+02 -0.21110257409E+03  0.10119845184E+03  0.25072964045E+03  0.10100000352E+00 0. -1.
</event>
<event>
 5   0  0.7602288E-02  0.5043908E+03  0.7818609E-02  0.1012639E+00
        1   -1    0    0  501    0  0.00000000000E+00  0.00000000000E+00  0.85591271678E+03  0.85591271680E+03  0.50400001928E-02 0. -1.
       -1   -1    0    0    0  501  0.00000000000E+00  0.00000000000E+00 -0.74309588328E+02  0.74309588499E+02  0.50400001928E-02 0.  1.
    10030    2    1    2    0    0  0.00000000000E+00  0.00000000000E+00  0.78160312845E+03  0.93022230529E+03  0.50439080767E+03 0.  0.
        5    1    3    3  502    0 -0.12021787586E+03 -0.20761950666E+03  0.24768219385E+03  0.34485758854E+03  0.46999998093E+01 0.  1.
       -5    1    3    3    0  502  0.12021787586E+03  0.20761950666E+03  0.53392093460E+03  0.58536471676E+03  0.46999998093E+01 0. -1.
</event>
<event>
 5   0  0.1231822E-01  0.4959139E+03  0.7818609E-02  0.1014851E+00
       -2   -1    0    0    0  501  0.00000000000E+00  0.00000000000E+00  0.12071496589E+03  0.12071496592E+03  0.25500000920E-02 0.  1.
        2   -1    0    0  501    0  0.00000000000E+00  0.00000000000E+00 -0.50932075367E+03  0.50932075367E+03  0.25500000920E-02 0. -1.
    10030    2    1    2    0    0  0.00000000000E+00  0.00000000000E+00 -0.38860578777E+03  0.63003571959E+03  0.49591385307E+03 0.  0.
        1    1    3    3  502    0  0.11334031378E+03  0.16505483936E+03 -0.84796825869E+01  0.20040217505E+03  0.50400001928E-02 0.  1.
       -1    1    3    3    0  502 -0.11334031378E+03 -0.16505483936E+03 -0.38012610519E+03  0.42963354454E+03  0.50400001928E-02 0. -1.
</event>
<event>
 5   0  0.1211345E-01  0.5133524E+03  0.7818609E-02  0.1010351E+00
       -2   -1    0    0    0  501  0.00000000000E+00  0.00000000000E+00  0.12938400560E+03  0.12938400563E+03  0.25500000920E-02 0.  1.
        2   -1    0    0  501    0  0.00000000000E+00  0.00000000000E+00 -0.50920261890E+03  0.50920261891E+03  0.25500000920E-02 0. -1.
    10030    2    1    2    0    0  0.00000000000E+00  0.00000000000E+00 -0.37981861330E+03  0.63858662453E+03  0.51335241114E+03 0.  0.
        5    1    3    3  502    0  0.34006804825E+02 -0.23187243128E+03 -0.32001578605E+03  0.39667805646E+03  0.46999998093E+01 0. -1.
       -5    1    3    3    0  502 -0.34006804825E+02  0.23187243128E+03 -0.59802827249E+02  0.24190856807E+03  0.46999998093E+01 0.  1.
</event>
<event>
 5   0  0.7602288E-02  0.4969804E+03  0.7818609E-02  0.1014570E+00
        1   -1    0    0  501    0  0.00000000000E+00  0.00000000000E+00  0.13937540315E+03  0.13937540325E+03  0.50400001928E-02 0. -1.
       -1   -1    0    0    0  501  0.00000000000E+00  0.00000000000E+00 -0.44302920593E+03  0.44302920595E+03  0.50400001928E-02 0.  1.
    10030    2    1    2    0    0  0.00000000000E+00  0.00000000000E+00 -0.30365380277E+03  0.58240460920E+03  0.49698037877E+03 0.  0.
        5    1    3    3  502    0 -0.10932758234E+02  0.60819069874E+01 -0.44260774845E+03  0.44280946668E+03  0.46999998093E+01 0.  1.
       -5    1    3    3    0  502  0.10932758234E+02 -0.60819069874E+01  0.13895394568E+03  0.13959514252E+03  0.46999998093E+01 0. -1.
</event>
<event>
 5   0  0.7416638E-02  0.5511059E+03  0.7818609E-02  0.1001238E+00
       -1   -1    0    0    0  501  0.00000000000E+00  0.00000000000E+00  0.11064598121E+03  0.11064598132E+03  0.50400001928E-02 0. -1.
        1   -1    0    0  501    0  0.00000000000E+00  0.00000000000E+00 -0.68623753965E+03  0.68623753967E+03  0.50400001928E-02 0.  1.
    10030    2    1    2    0    0  0.00000000000E+00  0.00000000000E+00 -0.57559155844E+03  0.79688352099E+03  0.55110589171E+03 0.  0.
        1    1    3    3  502    0  0.70204832207E+01  0.76473884995E+02  0.94859488216E+02  0.12204861655E+03  0.50400001928E-02 0. -1.
       -1    1    3    3    0  502 -0.70204832207E+01 -0.76473884995E+02 -0.67045104665E+03  0.67483490444E+03  0.50400001928E-02 0.  1.
</event>
<event>
 5   0  0.5006750E-02  0.4936886E+03  0.7818609E-02  0.1015440E+00
        3   -1    0    0  501    0  0.00000000000E+00  0.00000000000E+00  0.69871664702E+03  0.69871665432E+03  0.10100000352E+00 0. -1.
       -3   -1    0    0    0  501  0.00000000000E+00  0.00000000000E+00 -0.87205704678E+02  0.87205763166E+02  0.10100000352E+00 0.  1.
    10030    2    1    2    0    0  0.00000000000E+00  0.00000000000E+00  0.61151094235E+03  0.78592241749E+03  0.49368857968E+03 0.  0.
        5    1    3    3  502    0 -0.22411042252E+03  0.48252810961E+01  0.47012852774E+03  0.52085668606E+03  0.46999998093E+01 0. -1.
       -5    1    3    3    0  502  0.22411042252E+03 -0.48252810961E+01  0.14138241461E+03  0.26506573143E+03  0.46999998093E+01 0.  1.
</event>
<event>
 5   0  0.1243803E-01  0.5001114E+03  0.7818609E-02  0.1013750E+00
       -2   -1    0    0    0  501  0.00000000000E+00  0.00000000000E+00  0.13792980188E+03  0.13792980190E+03  0.25500000920E-02 0.  1.
        2   -1    0    0  501    0  0.00000000000E+00  0.00000000000E+00 -0.45333098553E+03  0.45333098553E+03  0.25500000920E-02 0. -1.
    10030    2    1    2    0    0  0.00000000000E+00  0.00000000000E+00 -0.31540118364E+03  0.59126078744E+03  0.50011139971E+03 0.  0.
        4    1    3    3  502    0  0.18518366200E+03  0.18131467591E+02  0.39791384705E+02  0.19028059803E+03  0.12699999809E+01 0.  1.
       -4    1    3    3    0  502 -0.18518366200E+03 -0.18131467591E+02 -0.35519256835E+03  0.40098018941E+03  0.12699999809E+01 0. -1.
</event>
<event>
 5   0  0.7812547E-02  0.4954061E+03  0.7818609E-02  0.1014985E+00
        1   -1    0    0  501    0  0.00000000000E+00  0.00000000000E+00  0.46810166925E+03  0.46810166927E+03  0.50400001928E-02 0.  1.
       -1   -1    0    0    0  501  0.00000000000E+00  0.00000000000E+00 -0.13107579576E+03  0.13107579586E+03  0.50400001928E-02 0. -1.
    10030    2    1    2    0    0  0.00000000000E+00  0.00000000000E+00  0.33702587348E+03  0.59917746513E+03  0.49540609133E+03 0.  0.
        4    1    3    3  502    0  0.55215021079E+02 -0.20592718595E+03  0.16002604720E+02  0.21380458537E+03  0.12699999809E+01 0. -1.
       -4    1    3    3    0  502 -0.55215021079E+02  0.20592718595E+03  0.32102326876E+03  0.38537287976E+03  0.12699999809E+01 0.  1.
</event>
<event>
 5   0  0.1243803E-01  0.4992024E+03  0.7818609E-02  0.1013987E+00
       -2   -1    0    0    0  501  0.00000000000E+00  0.00000000000E+00  0.77624186270E+03  0.77624186270E+03  0.25500000920E-02 0. -1.
        2   -1    0    0  501    0  0.00000000000E+00  0.00000000000E+00 -0.80259457844E+02  0.80259457884E+02  0.25500000920E-02 0.  1.
    10030    2    1    2    0    0  0.00000000000E+00  0.00000000000E+00  0.69598240486E+03  0.85650132059E+03  0.49920236808E+03 0.  0.
        4    1    3    3  502    0 -0.23616657158E+03 -0.73952190568E+02  0.40373458330E+03  0.47354704378E+03  0.12699999809E+01 0. -1.
       -4    1    3    3    0  502  0.23616657158E+03  0.73952190568E+02  0.29224782156E+03  0.38295427681E+03  0.12699999809E+01 0.  1.
</event>
<event>
 5   0  0.1231822E-01  0.5007542E+03  0.7818609E-02  0.1013582E+00
       -2   -1    0    0    0  501  0.00000000000E+00  0.00000000000E+00  0.25183017385E+03  0.25183017386E+03  0.25500000920E-02 0. -1.
        2   -1    0    0  501    0  0.00000000000E+00  0.00000000000E+00 -0.24893237308E+03  0.24893237310E+03  0.25500000920E-02 0.  1.
    10030    2    1    2    0    0  0.00000000000E+00  0.00000000000E+00  0.28978007632E+01  0.50076254696E+03  0.50075416243E+03 0.  0.
        1    1    3    3  502    0  0.74998097357E+02  0.17324696544E+03 -0.16302104508E+03  0.24942952272E+03  0.50400001928E-02 0.  1.
       -1    1    3    3    0  502 -0.74998097357E+02 -0.17324696544E+03  0.16591884584E+03  0.25133302424E+03  0.50400001928E-02 0. -1.
</event>
<event>
 5   0  0.5006750E-02  0.5014054E+03  0.7818609E-02  0.1013413E+00
        4   -1    0    0  501    0  0.00000000000E+00  0.00000000000E+00  0.16610097979E+03  0.16610583490E+03  0.12699999809E+01 0.  1.
       -4   -1    0    0    0  501  0.00000000000E+00  0.00000000000E+00 -0.37838392246E+03  0.37838605376E+03  0.12699999809E+01 0. -1.
    10030    2    1    2    0    0  0.00000000000E+00  0.00000000000E+00 -0.21228294267E+03  0.54449188866E+03  0.50140539393E+03 0.  0.
        2    1    3    3  502    0 -0.18988600497E+03 -0.17089143750E+02  0.70645729880E+02  0.20332130453E+03  0.25500000920E-02 0.  1.
       -2    1    3    3    0  502  0.18988600497E+03  0.17089143750E+02 -0.28292867255E+03  0.34117058413E+03  0.25500000920E-02 0. -1.
</event>
<event>
 5   0  0.7416638E-02  0.5036800E+03  0.7818609E-02  0.1012823E+00
        1   -1    0    0  501    0  0.00000000000E+00  0.00000000000E+00  0.21017573447E+03  0.21017573453E+03  0.50400001928E-02 0. -1.
       -1   -1    0    0    0  501  0.00000000000E+00  0.00000000000E+00 -0.30176355734E+03  0.30176355739E+03  0.50400001928E-02 0.  1.
    10030    2    1    2    0    0  0.00000000000E+00  0.00000000000E+00 -0.91587822875E+02  0.51193929191E+03  0.50367996715E+03 0.  0.
        1    1    3    3  502    0 -0.13169611131E+03 -0.20597467555E+03 -0.10723300002E+03  0.26696132495E+03  0.50400001928E-02 0. -1.
       -1    1    3    3    0  502  0.13169611131E+03  0.20597467555E+03  0.15645177141E+02  0.24497796696E+03  0.50400001928E-02 0.  1.
</event>
<event>
 5   0  0.7602288E-02  0.4437088E+03  0.7818609E-02  0.1029615E+00
       -1   -1    0    0    0  501  0.00000000000E+00  0.00000000000E+00  0.12135111362E+03  0.12135111372E+03  0.50400001928E-02 0. -1.
        1   -1    0    0  501    0  0.00000000000E+00  0.00000000000E+00 -0.40559468302E+03  0.40559468305E+03  0.50400001928E-02 0.  1.
    10030    2    1    2    0    0  0.00000000000E+00  0.00000000000E+00 -0.28424356940E+03  0.52694579677E+03  0.44370876258E+03 0.  0.
        5    1    3    3  502    0  0.14584837954E+02 -0.18919948524E+03 -0.27850448406E+03  0.33704005749E+03  0.46999998093E+01 0.  1.
       -5    1    3    3    0  502 -0.14584837954E+02  0.18919948524E+03 -0.57390853388E+01  0.18990573928E+03  0.46999998093E+01 0. -1.
</event>
<event>
 5   0  0.1243803E-01  0.4913876E+03  0.7818609E-02  0.1016052E+00
       -2   -1    0    0    0  501  0.00000000000E+00  0.00000000000E+00  0.59517236410E+02  0.59517236465E+02  0.25500000920E-02 0.  1.
        2   -1    0    0  501    0  0.00000000000E+00  0.00000000000E+00 -0.10142515341E+04  0.10142515341E+04  0.25500000920E-02 0. -1.
    10030    2    1    2    0    0  0.00000000000E+00  0.00000000000E+00 -0.95473429772E+03  0.10737687706E+04  0.49138762039E+03 0.  0.
        4    1    3    3  502    0  0.77659231033E+02  0.22117402425E+03 -0.31656827858E+03  0.39391114870E+03  0.12699999809E+01 0.  1.
       -4    1    3    3    0  502 -0.77659231033E+02 -0.22117402425E+03 -0.63816601914E+03  0.67985762190E+03  0.12699999809E+01 0. -1.
</event>
<event>
 5   0  0.5006750E-02  0.4984358E+03  0.7818609E-02  0.1014188E+00
        3   -1    0    0  501    0  0.00000000000E+00  0.00000000000E+00  0.17208934170E+03  0.17208937134E+03  0.10100000352E+00 0.  1.
       -3   -1    0    0    0  501  0.00000000000E+00  0.00000000000E+00 -0.36091459181E+03  0.36091460594E+03  0.10100000352E+00 0. -1.
    10030    2    1    2    0    0  0.00000000000E+00  0.00000000000E+00 -0.18882525011E+03  0.53300397728E+03  0.49843581806E+03 0.  0.
        1    1    3    3  502    0 -0.20837068188E+03  0.65562158304E+02  0.33877810988E+02  0.22105303384E+03  0.50400001928E-02 0.  1.
       -1    1    3    3    0  502  0.20837068188E+03 -0.65562158304E+02 -0.22270306109E+03  0.31195094344E+03  0.50400001928E-02 0. -1.
</event>
<event>
 5   0  0.7812547E-02  0.4771656E+03  0.7818609E-02  0.1019917E+00
        1   -1    0    0  501    0  0.00000000000E+00  0.00000000000E+00  0.16382425220E+04  0.16382425221E+04  0.50400001928E-02 0. -1.
       -1   -1    0    0    0  501  0.00000000000E+00  0.00000000000E+00 -0.34745625768E+02  0.34745626134E+02  0.50400001928E-02 0.  1.
    10030    2    1    2    0    0  0.00000000000E+00  0.00000000000E+00  0.16034968963E+04  0.16729881482E+04  0.47716563959E+03 0.  0.
        4    1    3    3  502    0  0.60238285672E+02  0.21515014643E+03  0.10951294849E+04  0.11176888825E+04  0.12699999809E+01 0. -1.
       -4    1    3    3    0  502 -0.60238285672E+02 -0.21515014643E+03  0.50836741138E+03  0.55529926565E+03  0.12699999809E+01 0.  1.
</event>
<event>
 5   0  0.1243803E-01  0.5039373E+03  0.7818609E-02  0.1012756E+00
       -2   -1    0    0    0  501  0.00000000000E+00  0.00000000000E+00  0.10300000006E+03  0.10300000009E+03  0.25500000920E-02 0. -1.
        2   -1    0    0  501    0  0.00000000000E+00  0.00000000000E+00 -0.61639035912E+03  0.61639035912E+03  0.25500000920E-02 0.  1.
    10030    2    1    2    0    0  0.00000000000E+00  0.00000000000E+00 -0.51339035906E+03  0.71939035921E+03  0.50393732563E+03 0.  0.
        4    1    3    3  502    0  0.15330370908E+03 -0.19770016299E+03 -0.29950261872E+03  0.39024455561E+03  0.12699999809E+01 0. -1.
       -4    1    3    3    0  502 -0.15330370908E+03  0.19770016299E+03 -0.21388774034E+03  0.32914580360E+03  0.12699999809E+01 0.  1.
</event>
<event>
 5   0  0.5006750E-02  0.5016383E+03  0.7818609E-02  0.1013352E+00
        4   -1    0    0  501    0  0.00000000000E+00  0.00000000000E+00  0.13297421235E+03  0.13298027692E+03  0.12699999809E+01 0.  1.
       -4   -1    0    0    0  501  0.00000000000E+00  0.00000000000E+00 -0.47308332003E+03  0.47308502470E+03  0.12699999809E+01 0. -1.
    10030    2    1    2    0    0  0.00000000000E+00  0.00000000000E+00 -0.34010910768E+03  0.60606530162E+03  0.50163826080E+03 0.  0.
        1    1    3    3  502    0 -0.77439136074E+02  0.18603195575E+03  0.10386360478E+02  0.20177359804E+03  0.50400001928E-02 0.  1.
       -1    1    3    3    0  502  0.77439136074E+02 -0.18603195575E+03 -0.35049546816E+03  0.40429170358E+03  0.50400001928E-02 0. -1.
</event>
<event>
 5   0  0.1231822E-01  0.4971003E+03  0.7818609E-02  0.1014539E+00
       -2   -1    0    0    0  501  0.00000000000E+00  0.00000000000E+00  0.99848137644E+02  0.99848137676E+02  0.25500000920E-02 0. -1.
        2   -1    0    0  501    0  0.00000000000E+00  0.00000000000E+00 -0.61871132048E+03  0.61871132048E+03  0.25500000920E-02 0.  1.
    10030    2    1    2    0    0  0.00000000000E+00  0.00000000000E+00 -0.51886318284E+03  0.71855945816E+03  0.49710028406E+03 0.  0.
        1    1    3    3  502    0 -0.15846584902E+03 -0.19136935431E+03 -0.24989587846E+03  0.35239410490E+03  0.50400001928E-02 0.  1.
       -1    1    3    3    0  502  0.15846584902E+03  0.19136935431E+03 -0.26896730438E+03  0.36616535326E+03  0.50400001928E-02 0. -1.
</event>
<event>
 5   0  0.7416638E-02  0.4959390E+03  0.7818609E-02  0.1014844E+00
        1   -1    0    0  501    0  0.00000000000E+00  0.00000000000E+00  0.27026057763E+03  0.27026057768E+03  0.50400001928E-02 0. -1.
       -1   -1    0    0    0  501  0.00000000000E+00  0.00000000000E+00 -0.22751698760E+03  0.22751698765E+03  0.50400001928E-02 0.  1.
    10030    2    1    2    0    0  0.00000000000E+00  0.00000000000E+00  0.42743590032E+02  0.49777756533E+03  0.49593899832E+03 0.  0.
        1    1    3    3  502    0  0.67354438209E+02  0.12648392534E+03 -0.18174956059E+03  0.23144698425E+03  0.50400001928E-02 0.  1.
       -1    1    3    3    0  502 -0.67354438209E+02 -0.12648392534E+03  0.22449315062E+03  0.26633058108E+03  0.50400001928E-02 0. -1.
</event>
<event>
 5   0  0.7812547E-02  0.4914753E+03  0.7818609E-02  0.1016028E+00
        1   -1    0    0  501    0  0.00000000000E+00  0.00000000000E+00  0.13584563545E+04  0.13584563546E+04  0.50400001928E-02 0.  1.
       -1   -1    0    0    0  501  0.00000000000E+00  0.00000000000E+00 -0.44452662151E+02  0.44452662437E+02  0.50400001928E-02 0. -1.
    10030    2    1    2    0    0  0.00000000000E+00  0.00000000000E+00  0.13140036924E+04  0.14029090170E+04  0.49147533644E+03 0.  0.
        4    1    3    3  502    0 -0.61402236636E+02  0.14306431339E+03  0.11997126291E+04  0.12097725562E+04  0.12699999809E+01 0.  1.
       -4    1    3    3    0  502  0.61402236636E+02 -0.14306431339E+03  0.11429106325E+03  0.19313646075E+03  0.12699999809E+01 0. -1.
</event>
<event>
 5   0  0.7531632E-02  0.5001210E+03  0.7818609E-02  0.1013747E+00
       -1   -1    0    0    0  501  0.00000000000E+00  0.00000000000E+00  0.74468054893E+02  0.74468055063E+02  0.50400001928E-02 0. -1.
        1   -1    0    0  501    0  0.00000000000E+00  0.00000000000E+00 -0.83969224751E+03  0.83969224753E+03  0.50400001928E-02 0.  1.
    10030    2    1    2    0    0  0.00000000000E+00  0.00000000000E+00 -0.76522419262E+03  0.91416030259E+03  0.50012097923E+03 0.  0.
        3    1    3    3  502    0 -0.15850758658E+03  0.16244789216E+03 -0.57446328050E+03  0.61767470687E+03  0.10100000352E+00 0.  1.
       -3    1    3    3    0  502  0.15850758658E+03 -0.16244789216E+03 -0.19076091212E+03  0.29648559571E+03  0.10100000352E+00 0. -1.
</event>
<event>
 5   0  0.1191894E-01  0.4984756E+03  0.7818609E-02  0.1014178E+00
       -2   -1    0    0    0  501  0.00000000000E+00  0.00000000000E+00  0.58217094141E+02  0.58217094197E+02  0.25500000920E-02 0. -1.
        2   -1    0    0  501    0  0.00000000000E+00  0.00000000000E+00 -0.10670315200E+04  0.10670315200E+04  0.25500000920E-02 0.  1.
    10030    2    1    2    0    0  0.00000000000E+00  0.00000000000E+00 -0.10088144258E+04  0.11252486142E+04  0.49847557406E+03 0.  0.
        3    1    3    3  502    0  0.58561840718E+01  0.65274428306E+02  0.38418287272E+02  0.75967235572E+02  0.10100000352E+00 0. -1.
       -3    1    3    3    0  502 -0.58561840718E+01 -0.65274428306E+02 -0.10472327131E+04  0.10492813786E+04  0.10100000352E+00 0.  1.
</event>
<event>
 5   0  0.1279188E-01  0.5012237E+03  0.7818609E-02  0.1013460E+00
        2   -1    0    0  501    0  0.00000000000E+00  0.00000000000E+00  0.60835392544E+03  0.60835392545E+03  0.25500000920E-02 0.  1.
       -2   -1    0    0    0  501  0.00000000000E+00  0.00000000000E+00 -0.10323975747E+03  0.10323975750E+03  0.25500000920E-02 0. -1.
    10030    2    1    2    0    0  0.00000000000E+00  0.00000000000E+00  0.50511416797E+03  0.71159368295E+03  0.50122374936E+03 0.  0.
        2    1    3    3  502    0 -0.50311587655E+01  0.24236052000E+03  0.34282197823E+03  0.41987003106E+03  0.25500000920E-02 0.  1.
       -2    1    3    3    0  502  0.50311587655E+01 -0.24236052000E+03  0.16229218974E+03  0.29172365189E+03  0.25500000920E-02 0. -1.
</event>
<event>
 5   0  0.7781754E-02  0.5023822E+03  0.7818609E-02  0.1013159E+00
        1   -1    0    0  501    0  0.00000000000E+00  0.00000000000E+00  0.93305816448E+02  0.93305816585E+02  0.50400001928E-02 0. -1.
       -1   -1    0    0    0  501  0.00000000000E+00  0.00000000000E+00 -0.67623822222E+03  0.67623822224E+03  0.50400001928E-02 0.  1.
    10030    2    1    2    0    0  0.00000000000E+00  0.00000000000E+00 -0.58293240577E+03  0.76954403883E+03  0.50238216329E+03 0.  0.
        2    1    3    3  502    0 -0.98613270784E+02  0.16250220328E+03 -0.39928650354E+02  0.19423140933E+03  0.25500000920E-02 0. -1.
       -2    1    3    3    0  502  0.98613270784E+02 -0.16250220328E+03 -0.54300375542E+03  0.57531262949E+03  0.25500000920E-02 0.  1.
</event>
<event>
 5   0  0.1231822E-01  0.5014524E+03  0.7818609E-02  0.1013401E+00
        2   -1    0    0  501    0  0.00000000000E+00  0.00000000000E+00  0.10086562772E+04  0.10086562772E+04  0.25500000920E-02 0. -1.
       -2   -1    0    0    0  501  0.00000000000E+00  0.00000000000E+00 -0.62324131366E+02  0.62324131419E+02  0.25500000920E-02 0.  1.
    10030    2    1    2    0    0  0.00000000000E+00  0.00000000000E+00  0.94633214582E+03  0.10709804086E+04  0.50145239596E+03 0.  0.
        1    1    3    3  502    0  0.12096404259E+03 -0.21478257148E+02  0.93996461092E+03  0.94795943212E+03  0.50400001928E-02 0. -1.
       -1    1    3    3    0  502 -0.12096404259E+03  0.21478257148E+02  0.63675348924E+01  0.12302097649E+03  0.50400001928E-02 0.  1.
</event>
<event>
 5   0  0.1211345E-01  0.4940057E+03  0.7818609E-02  0.1015355E+00
        2   -1    0    0  501    0  0.00000000000E+00  0.00000000000E+00  0.31179193437E+03  0.31179193438E+03  0.25500000920E-02 0.  1.
       -2   -1    0    0    0  501  0.00000000000E+00  0.00000000000E+00 -0.19567664209E+03  0.19567664211E+03  0.25500000920E-02 0. -1.
    10030    2    1    2    0    0  0.00000000000E+00  0.00000000000E+00  0.11611529228E+03  0.50746857649E+03  0.49400566295E+03 0.  0.
        5    1    3    3  502    0 -0.12168623276E+03  0.29356817787E+02 -0.16062641557E+03  0.20369658164E+03  0.46999998093E+01 0. -1.
       -5    1    3    3    0  502  0.12168623276E+03 -0.29356817787E+02  0.27674170785E+03  0.30377199485E+03  0.46999998093E+01 0.  1.
</event>
<event>
 5   0  0.7812547E-02  0.4318609E+03  0.7818609E-02  0.1033274E+00
       -1   -1    0    0    0  501  0.00000000000E+00  0.00000000000E+00  0.24712707679E+03  0.24712707684E+03  0.50400001928E-02 0. -1.
        1   -1    0    0  501    0  0.00000000000E+00  0.00000000000E+00 -0.18867198125E+03  0.18867198131E+03  0.50400001928E-02 0.  1.
    10030    2    1    2    0    0  0.00000000000E+00  0.00000000000E+00  0.58455095544E+02  0.43579905816E+03  0.43186088141E+03 0.  0.
        4    1    3    3  502    0  0.10325627214E+03 -0.24471744180E+02 -0.16053948539E+03  0.19244548129E+03  0.12699999809E+01 0.  1.
       -4    1    3    3    0  502 -0.10325627214E+03  0.24471744180E+02  0.21899458093E+03  0.24335357687E+03  0.12699999809E+01 0. -1.
</event>
<event>
 5   0  0.1231822E-01  0.4978908E+03  0.7818609E-02  0.1014331E+00
        2   -1    0    0  501    0  0.00000000000E+00  0.00000000000E+00  0.41644105171E+03  0.41644105172E+03  0.25500000920E-02 0.  1.
       -2   -1    0    0    0  501  0.00000000000E+00  0.00000000000E+00 -0.14881772887E+03  0.14881772889E+03  0.25500000920E-02 0. -1.
    10030    2    1    2    0    0  0.00000000000E+00  0.00000000000E+00  0.26762332285E+03  0.56525878061E+03  0.49789079739E+03 0.  0.
        1    1    3    3  502    0  0.16815328741E+03  0.61142048301E+02 -0.62697878869E+02  0.18959140850E+03  0.50400001928E-02 0. -1.
       -1    1    3    3    0  502 -0.16815328741E+03 -0.61142048301E+02  0.33032120172E+03  0.37566737211E+03  0.50400001928E-02 0.  1.
</event>
<event>
 5   0  0.7416638E-02  0.4919439E+03  0.7818609E-02  0.1015903E+00
       -1   -1    0    0    0  501  0.00000000000E+00  0.00000000000E+00  0.33151105471E+02  0.33151105854E+02  0.50400001928E-02 0. -1.
        1   -1    0    0  501    0  0.00000000000E+00  0.00000000000E+00 -0.18250434409E+04  0.18250434409E+04  0.50400001928E-02 0.  1.
    10030    2    1    2    0    0  0.00000000000E+00  0.00000000000E+00 -0.17918923354E+04  0.18581945467E+04  0.49194393160E+03 0.  0.
        1    1    3    3  502    0 -0.14845290220E+03 -0.19252604658E+03 -0.75473236691E+03  0.79292212005E+03  0.50400001928E-02 0.  1.
       -1    1    3    3    0  502  0.14845290220E+03  0.19252604658E+03 -0.10371599685E+04  0.10652724267E+04  0.50400001928E-02 0. -1.
</event>
<event>
 5   0  0.1231822E-01  0.4976571E+03  0.7818609E-02  0.1014392E+00
        2   -1    0    0  501    0  0.00000000000E+00  0.00000000000E+00  0.26091728512E+03  0.26091728514E+03  0.25500000920E-02 0. -1.
       -2   -1    0    0    0  501  0.00000000000E+00  0.00000000000E+00 -0.23729986609E+03  0.23729986611E+03  0.25500000920E-02 0.  1.
    10030    2    1    2    0    0  0.00000000000E+00  0.00000000000E+00  0.23617419030E+02  0.49821715124E+03  0.49765705793E+03 0.  0.
        1    1    3    3  502    0  0.11245620267E+03 -0.18499442370E+03 -0.11099271383E+03  0.24328731342E+03  0.50400001928E-02 0.  1.
       -1    1    3    3    0  502 -0.11245620267E+03  0.18499442370E+03  0.13461013286E+03  0.25492983783E+03  0.50400001928E-02 0. -1.
</event>
<event>
 5   0  0.7781754E-02  0.5013589E+03  0.7818609E-02  0.1013425E+00
        1   -1    0    0  501    0  0.00000000000E+00  0.00000000000E+00  0.19532237835E+03  0.19532237841E+03  0.50400001928E-02 0. -1.
       -1   -1    0    0    0  501  0.00000000000E+00  0.00000000000E+00 -0.32172548528E+03  0.32172548532E+03  0.50400001928E-02 0.  1.
    10030    2    1    2    0    0  0.00000000000E+00  0.00000000000E+00 -0.12640310693E+03  0.51704786374E+03  0.50135890134E+03 0.  0.
        2    1    3    3  502    0  0.93545472109E+02  0.19470388454E+03 -0.19438196271E+03  0.29059371198E+03  0.25500000920E-02 0.  1.
       -2    1    3    3    0  502 -0.93545472109E+02 -0.19470388454E+03  0.67978855783E+02  0.22645415175E+03  0.25500000920E-02 0. -1.
</event>
<event>
 5   0  0.1279188E-01  0.5001359E+03  0.7818609E-02  0.1013743E+00
        2   -1    0    0  501    0  0.00000000000E+00  0.00000000000E+00  0.52043906433E+03  0.52043906433E+03  0.25500000920E-02 0.  1.
       -2   -1    0    0    0  501  0.00000000000E+00  0.00000000000E+00 -0.12015621430E+03  0.12015621433E+03  0.25500000920E-02 0. -1.
    10030    2    1    2    0    0  0.00000000000E+00  0.00000000000E+00  0.40028285003E+03  0.64059527866E+03  0.50013593254E+03 0.  0.
        2    1    3    3  502    0  0.23750921027E+03  0.76602506107E+02  0.22061162765E+03  0.33308866562E+03  0.25500000920E-02 0. -1.
       -2    1    3    3    0  502 -0.23750921027E+03 -0.76602506107E+02  0.17967122238E+03  0.30750661304E+03  0.25500000920E-02 0.  1.
</event>
<event>
 5   0  0.1279188E-01  0.4971005E+03  0.7818609E-02  0.1014539E+00
       -2   -1    0    0    0  501  0.00000000000E+00  0.00000000000E+00  0.17320156241E+03  0.17320156243E+03  0.25500000920E-02 0. -1.
        2   -1    0    0  501    0  0.00000000000E+00  0.00000000000E+00 -0.35667818552E+03  0.35667818553E+03  0.25500000920E-02 0.  1.
    10030    2    1    2    0    0  0.00000000000E+00  0.00000000000E+00 -0.18347662311E+03  0.52987974796E+03  0.49710046879E+03 0.  0.
        2    1    3    3  502    0 -0.34235183294E+02  0.12547299345E+03  0.13403417060E+03  0.18676369764E+03  0.25500000920E-02 0.  1.
       -2    1    3    3    0  502  0.34235183294E+02 -0.12547299345E+03 -0.31751079371E+03  0.34311605032E+03  0.25500000920E-02 0. -1.
</event>
<event>
 5   0  0.7812547E-02  0.4982989E+03  0.7818609E-02  0.1014224E+00
       -1   -1    0    0    0  501  0.00000000000E+00  0.00000000000E+00  0.63685415970E+02  0.63685416169E+02  0.50400001928E-02 0.  1.
        1   -1    0    0  501    0  0.00000000000E+00  0.00000000000E+00 -0.97471980738E+03  0.97471980739E+03  0.50400001928E-02 0. -1.
    10030    2    1    2    0    0  0.00000000000E+00  0.00000000000E+00 -0.91103439141E+03  0.10384052236E+04  0.49829885208E+03 0.  0.
        4    1    3    3  502    0  0.14392200919E+03  0.72148567579E+02 -0.59275350008E+02  0.17156380898E+03  0.12699999809E+01 0.  1.
       -4    1    3    3    0  502 -0.14392200919E+03 -0.72148567579E+02 -0.85175904140E+03  0.86684141459E+03  0.12699999809E+01 0. -1.
</event>
<event>
 5   0  0.7602288E-02  0.5023501E+03  0.7818609E-02  0.1013167E+00
       -1   -1    0    0    0  501  0.00000000000E+00  0.00000000000E+00  0.79890012286E+02  0.79890012445E+02  0.50400001928E-02 0. -1.
        1   -1    0    0  501    0  0.00000000000E+00  0.00000000000E+00 -0.78969708727E+03  0.78969708729E+03  0.50400001928E-02 0.  1.
    10030    2    1    2    0    0  0.00000000000E+00  0.00000000000E+00 -0.70980707499E+03  0.86958709973E+03  0.50235011727E+03 0.  0.
        5    1    3    3  502    0  0.19483143283E+03  0.69127007982E+02 -0.10809255685E+03  0.23333221229E+03  0.46999998093E+01 0. -1.
       -5    1    3    3    0  502 -0.19483143283E+03 -0.69127007982E+02 -0.60171451814E+03  0.63625488744E+03  0.46999998093E+01 0.  1.
</event>
<event>
 5   0  0.5006750E-02  0.4972140E+03  0.7818609E-02  0.1014509E+00
       -4   -1    0    0    0  501  0.00000000000E+00  0.00000000000E+00  0.18320061223E+03  0.18320501418E+03  0.12699999809E+01 0.  1.
        4   -1    0    0  501    0  0.00000000000E+00  0.00000000000E+00 -0.33735520462E+03  0.33735759512E+03  0.12699999809E+01 0. -1.
    10030    2    1    2    0    0  0.00000000000E+00  0.00000000000E+00 -0.15415459239E+03  0.52056260930E+03  0.49721403021E+03 0.  0.
        1    1    3    3  502    0 -0.91792182755E+01  0.24031130504E+03 -0.11096737943E+02  0.24074243289E+03  0.50400001928E-02 0. -1.
       -1    1    3    3    0  502  0.91792182755E+01 -0.24031130504E+03 -0.14305785445E+03  0.27982017640E+03  0.50400001928E-02 0.  1.
</event>
<event>
 5   0  0.1191894E-01  0.5011577E+03  0.7818609E-02  0.1013477E+00
        2   -1    0    0  501    0  0.00000000000E+00  0.00000000000E+00  0.51111934265E+03  0.51111934266E+03  0.25500000920E-02 0. -1.
       -2   -1    0    0    0  501  0.00000000000E+00  0.00000000000E+00 -0.12284755514E+03  0.12284755517E+03  0.25500000920E-02 0.  1.
    10030    2    1    2    0    0  0.00000000000E+00  0.00000000000E+00  0.38827178751E+03  0.63396689783E+03  0.50115770628E+03 0.  0.
        3    1    3    3  502    0 -0.11143278342E+03 -0.16947535518E+03  0.80013242512E+01  0.20298569562E+03  0.10100000352E+00 0.  1.
       -3    1    3    3    0  502  0.11143278342E+03  0.16947535518E+03  0.38027046326E+03  0.43098120221E+03  0.10100000352E+00 0. -1.
</event>
<event>
 5   0  0.5006750E-02  0.4990873E+03  0.7818609E-02  0.1014017E+00
       -4   -1    0    0    0  501  0.00000000000E+00  0.00000000000E+00  0.81817246167E+03  0.81817344734E+03  0.12699999809E+01 0. -1.
        4   -1    0    0  501    0  0.00000000000E+00  0.00000000000E+00 -0.76104807015E+02  0.76115402849E+02  0.12699999809E+01 0.  1.
    10030    2    1    2    0    0  0.00000000000E+00  0.00000000000E+00  0.74206765465E+03  0.89428885019E+03  0.49908731049E+03 0.  0.
        3    1    3    3  502    0 -0.53375680777E+02  0.67348897040E+02 -0.48760707814E+02  0.98805131741E+02  0.10100000352E+00 0.  1.
       -3    1    3    3    0  502  0.53375680777E+02 -0.67348897040E+02  0.79082836246E+03  0.79548371844E+03  0.10100000352E+00 0. -1.
</event>
<event>
 5   0  0.7416638E-02  0.4862640E+03  0.7818609E-02  0.1017428E+00
       -1   -1    0    0    0  501  0.00000000000E+00  0.00000000000E+00  0.21705776071E+03  0.21705776077E+03  0.50400001928E-02 0.  1.
        1   -1    0    0  501    0  0.00000000000E+00  0.00000000000E+00 -0.27233838915E+03  0.27233838920E+03  0.50400001928E-02 0. -1.
    10030    2    1    2    0    0  0.00000000000E+00  0.00000000000E+00 -0.55280628441E+02  0.48939614997E+03  0.48626396507E+03 0.  0.
        1    1    3    3  502    0 -0.17434916822E+03 -0.72465245087E+02 -0.18180766775E+03  0.26211232761E+03  0.50400001928E-02 0. -1.
       -1    1    3    3    0  502  0.17434916822E+03  0.72465245087E+02  0.12652703931E+03  0.22728382236E+03  0.50400001928E-02 0.  1.
</event>
<event>
 5   0  0.1231822E-01  0.4984677E+03  0.7818609E-02  0.1014180E+00
        2   -1    0    0  501    0  0.00000000000E+00  0.00000000000E+00  0.15385538158E+04  0.15385538158E+04  0.25500000920E-02 0. -1.
       -2   -1    0    0    0  501  0.00000000000E+00  0.00000000000E+00 -0.40373964649E+02  0.40373964730E+02  0.25500000920E-02 0.  1.
    10030    2    1    2    0    0  0.00000000000E+00  0.00000000000E+00  0.14981798512E+04  0.15789277805E+04  0.49846772187E+03 0.  0.
        1    1    3    3  502    0  0.98034851330E+02  0.10219963172E+03  0.13987254636E+04  0.14058764239E+04  0.50400001928E-02 0. -1.
       -1    1    3    3    0  502 -0.98034851330E+02 -0.10219963172E+03  0.99454387583E+02  0.17305135664E+03  0.50400001928E-02 0.  1.
</event>
<event>
 5   0  0.7602288E-02  0.5146240E+03  0.7818609E-02  0.1010031E+00
        1   -1    0    0  501    0  0.00000000000E+00  0.00000000000E+00  0.36537899371E+03  0.36537899374E+03  0.50400001928E-02 0.  1.
       -1   -1    0    0    0  501  0.00000000000E+00  0.00000000000E+00 -0.18120761495E+03  0.18120761502E+03  0.50400001928E-02 0. -1.
    10030    2    1    2    0    0  0.00000000000E+00  0.00000000000E+00  0.18417137875E+03  0.54658660876E+03  0.51462396381E+03 0.  0.
        5    1    3    3  502    0  0.47339297136E+02  0.17243706283E+03  0.28853795773E+03  0.33948754431E+03  0.46999998093E+01 0. -1.
       -5    1    3    3    0  502 -0.47339297136E+02 -0.17243706283E+03 -0.10436657898E+03  0.20709906445E+03  0.46999998093E+01 0.  1.
</event>
<event>
 5   0  0.7602288E-02  0.5006387E+03  0.7818609E-02  0.1013612E+00
        1   -1    0    0  501    0  0.00000000000E+00  0.00000000000E+00  0.14817392161E+04  0.14817392161E+04  0.50400001928E-02 0.  1.
       -1   -1    0    0    0  501  0.00000000000E+00  0.00000000000E+00 -0.42287997147E+02  0.42287997447E+02  0.50400001928E-02 0. -1.
    10030    2    1    2    0    0  0.00000000000E+00  0.00000000000E+00  0.14394512190E+04  0.15240272136E+04  0.50063872794E+03 0.  0.
        5    1    3    3  502    0  0.17906918634E+03  0.12596086105E+03  0.35056756141E+03  0.41334200987E+03  0.46999998093E+01 0.  1.
       -5    1    3    3    0  502 -0.17906918634E+03 -0.12596086105E+03  0.10888836576E+04  0.11106852037E+04  0.46999998093E+01 0. -1.
</event>
<event>
 5   0  0.1279188E-01  0.4992386E+03  0.7818609E-02  0.1013978E+00
        2   -1    0    0  501    0  0.00000000000E+00  0.00000000000E+00  0.72632969551E+03  0.72632969551E+03  0.25500000920E-02 0.  1.
       -2   -1    0    0    0  501  0.00000000000E+00  0.00000000000E+00 -0.85787211464E+02  0.85787211501E+02  0.25500000920E-02 0. -1.
    10030    2    1    2    0    0  0.00000000000E+00  0.00000000000E+00  0.64054248404E+03  0.81211690701E+03  0.49923861709E+03 0.  0.
        2    1    3    3  502    0  0.23713405117E+03  0.12498487678E+02  0.19509873050E+03  0.30733090483E+03  0.25500000920E-02 0. -1.
       -2    1    3    3    0  502 -0.23713405117E+03 -0.12498487678E+02  0.44544375355E+03  0.50478600218E+03  0.25500000920E-02 0.  1.
</event>
<event>
 5   0  0.1279188E-01  0.5028393E+03  0.7818609E-02  0.1013040E+00
       -2   -1    0    0    0  501  0.00000000000E+00  0.00000000000E+00  0.59822335033E+02  0.59822335087E+02  0.25500000920E-02 0.  1.
        2   -1    0    0  501    0  0.00000000000E+00  0.00000000000E+00 -0.10566594299E+04  0.10566594300E+04  0.25500000920E-02 0. -1.
    10030    2    1    2    0    0  0.00000000000E+00  0.00000000000E+00 -0.99683709492E+03  0.11164817650E+04  0.50283927637E+03 0.  0.
        2    1    3    3  502    0 -0.13569955909E+03 -0.18456611673E+03 -0.26839133508E+03  0.35286389803E+03  0.25500000920E-02 0.  1.
       -2    1    3    3    0  502  0.13569955909E+03  0.18456611673E+03 -0.72844575984E+03  0.76361786701E+03  0.25500000920E-02 0. -1.
</event>
<event>
 5   0  0.7416638E-02  0.5139680E+03  0.7818609E-02  0.1010196E+00
       -1   -1    0    0    0  501  0.00000000000E+00  0.00000000000E+00  0.86982106620E+02  0.86982106766E+02  0.50400001928E-02 0.  1.
        1   -1    0    0  501    0  0.00000000000E+00  0.00000000000E+00 -0.75924559480E+03  0.75924559481E+03  0.50400001928E-02 0. -1.
    10030    2    1    2    0    0  0.00000000000E+00  0.00000000000E+00 -0.67226348818E+03  0.84622770158E+03  0.51396801981E+03 0.  0.
        1    1    3    3  502    0  0.19743807046E+03  0.64302639784E+02 -0.58541772629E+03  0.62115258627E+03  0.50400001928E-02 0. -1.
       -1    1    3    3    0  502 -0.19743807046E+03 -0.64302639784E+02 -0.86845761886E+02  0.22507511531E+03  0.50400001928E-02 0.  1.
</event>
<event>
 5   0  0.1211345E-01  0.5092366E+03  0.7818609E-02  0.1011396E+00
       -2   -1    0    0    0  501  0.00000000000E+00  0.00000000000E+00  0.39983443064E+02  0.39983443145E+02  0.25500000920E-02 0. -1.
        2   -1    0    0  501    0  0.00000000000E+00  0.00000000000E+00 -0.16214331918E+04  0.16214331918E+04  0.25500000920E-02 0.  1.
    10030    2    1    2    0    0  0.00000000000E+00  0.00000000000E+00 -0.15814497487E+04  0.16614166349E+04  0.50923661210E+03 0.  0.
        5    1    3    3  502    0  0.11650282602E+03 -0.22110058082E+03 -0.94888404795E+03  0.98125501362E+03  0.46999998093E+01 0. -1.
       -5    1    3    3    0  502 -0.11650282602E+03  0.22110058082E+03 -0.63256570079E+03  0.68016162132E+03  0.46999998093E+01 0.  1.
</event>
<event>
 5   0  0.7812547E-02  0.4971684E+03  0.7818609E-02  0.1014521E+00
       -1   -1    0    0    0  501  0.00000000000E+00  0.00000000000E+00  0.10562929851E+03  0.10562929863E+03  0.50400001928E-02 0.  1.
        1   -1    0    0  501    0  0.00000000000E+00  0.00000000000E+00 -0.58500919862E+03  0.58500919864E+03  0.50400001928E-02 0. -1.
    10030    2    1    2    0    0  0.00000000000E+00  0.00000000000E+00 -0.47937990011E+03  0.69063849727E+03  0.49716842747E+03 0.  0.
        4    1    3    3  502    0  0.74114278784E+02  0.23696485710E+03 -0.22283438434E+03  0.33361961208E+03  0.12699999809E+01 0. -1.
       -4    1    3    3    0  502 -0.74114278784E+02 -0.23696485710E+03 -0.25654551577E+03  0.35701888519E+03  0.12699999809E+01 0.  1.
</event>
<event>
 5   0  0.1279188E-01  0.4862156E+03  0.7818609E-02  0.1017441E+00
        2   -1    0    0  501    0  0.00000000000E+00  0.00000000000E+00  0.36429705917E+03  0.36429705918E+03  0.25500000920E-02 0. -1.
       -2   -1    0    0    0  501  0.00000000000E+00  0.00000000000E+00 -0.16223412277E+03  0.16223412279E+03  0.25500000920E-02 0.  1.
    10030    2    1    2    0    0  0.00000000000E+00  0.00000000000E+00  0.20206293640E+03  0.52653118197E+03  0.48621564693E+03 0.  0.
        2    1    3    3  502    0  0.17520651197E+03  0.80258357667E+02  0.26151774849E+03  0.32485421129E+03  0.25500000920E-02 0. -1.
       -2    1    3    3    0  502 -0.17520651197E+03 -0.80258357667E+02 -0.59454812092E+02  0.20167697067E+03  0.25500000920E-02 0.  1.
</event>
<event>
 5   0  0.7531632E-02  0.4912349E+03  0.7818609E-02  0.1016092E+00
       -1   -1    0    0    0  501  0.00000000000E+00  0.00000000000E+00  0.10031898701E+04  0.10031898701E+04  0.50400001928E-02 0.  1.
        1   -1    0    0  501    0  0.00000000000E+00  0.00000000000E+00 -0.60136112639E+02  0.60136112850E+02  0.50400001928E-02 0. -1.
    10030    2    1    2    0    0  0.00000000000E+00  0.00000000000E+00  0.94305375748E+03  0.10633259830E+04  0.49123493014E+03 0.  0.
        3    1    3    3  502    0  0.13319770611E+03 -0.10244988516E+03  0.83765798280E+02  0.18776135663E+03  0.10100000352E+00 0. -1.
       -3    1    3    3    0  502 -0.13319770611E+03  0.10244988516E+03  0.85928795920E+03  0.87556462634E+03  0.10100000352E+00 0.  1.
</event>
<event>
 5   0  0.7602288E-02  0.4731800E+03  0.7818609E-02  0.1021027E+00
       -1   -1    0    0    0  501  0.00000000000E+00  0.00000000000E+00  0.66648417514E+02  0.66648417705E+02  0.50400001928E-02 0. -1.
        1   -1    0    0  501    0  0.00000000000E+00  0.00000000000E+00 -0.83985236115E+03  0.83985236117E+03  0.50400001928E-02 0.  1.
    10030    2    1    2    0    0  0.00000000000E+00  0.00000000000E+00 -0.77320394364E+03  0.90650077887E+03  0.47318001188E+03 0.  0.
        5    1    3    3  502    0  0.28422135669E+02 -0.23014008922E+03 -0.29714460783E+03  0.37694732579E+03  0.46999998093E+01 0.  1.
       -5    1    3    3    0  502 -0.28422135669E+02  0.23014008922E+03 -0.47605933581E+03  0.52955345309E+03  0.46999998093E+01 0. -1.
</event>
<event>
 5   0  0.5006750E-02  0.4980763E+03  0.7818609E-02  0.1014282E+00
       -4   -1    0    0    0  501  0.00000000000E+00  0.00000000000E+00  0.80751716528E+03  0.80751816396E+03  0.12699999809E+01 0.  1.
        4   -1    0    0  501    0  0.00000000000E+00  0.00000000000E+00 -0.76797029141E+02  0.76807529480E+02  0.12699999809E+01 0. -1.
    10030    2    1    2    0    0  0.00000000000E+00  0.00000000000E+00  0.73072013614E+03  0.88432569344E+03  0.49807631415E+03 0.  0.
        3    1    3    3  502    0 -0.14797535968E+02 -0.82839414974E+02  0.78151531637E+03  0.78603278281E+03  0.10100000352E+00 0.  1.
       -3    1    3    3    0  502  0.14797535968E+02  0.82839414974E+02 -0.50795180226E+02  0.98292910625E+02  0.10100000352E+00 0. -1.
</event>
<event>
 5   0  0.7602288E-02  0.5025045E+03  0.7818609E-02  0.1013127E+00
       -1   -1    0    0    0  501  0.00000000000E+00  0.00000000000E+00  0.95426440923E+02  0.95426441056E+02  0.50400001928E-02 0.  1.
        1   -1    0    0  501    0  0.00000000000E+00  0.00000000000E+00 -0.66153243610E+03  0.66153243612E+03  0.50400001928E-02 0. -1.
    10030    2    1    2    0    0  0.00000000000E+00  0.00000000000E+00 -0.56610599518E+03  0.75695887717E+03  0.50250447158E+03 0.  0.
        5    1    3    3  502    0 -0.10825026494E+03  0.14493041262E+03 -0.54562305116E+03  0.57484741308E+03  0.46999998093E+01 0. -1.
       -5    1    3    3    0  502  0.10825026494E+03 -0.14493041262E+03 -0.20482944012E+02  0.18211146410E+03  0.46999998093E+01 0.  1.
</event>
<event>
 5   0  0.1279188E-01  0.5058376E+03  0.7818609E-02  0.1012266E+00
        2   -1    0    0  501    0  0.00000000000E+00  0.00000000000E+00  0.33909663836E+03  0.33909663837E+03  0.25500000920E-02 0.  1.
       -2   -1    0    0    0  501  0.00000000000E+00  0.00000000000E+00 -0.18864211928E+03  0.18864211930E+03  0.25500000920E-02 0. -1.
    10030    2    1    2    0    0  0.00000000000E+00  0.00000000000E+00  0.15045451908E+03  0.52773875766E+03  0.50583755696E+03 0.  0.
        2    1    3    3  502    0  0.24057276451E+03  0.25746268230E+02  0.15210474358E+03  0.28578659586E+03  0.25500000920E-02 0.  1.
       -2    1    3    3    0  502 -0.24057276451E+03 -0.25746268230E+02 -0.16502244968E+01  0.24195216180E+03  0.25500000920E-02 0. -1.
</event>
<event>
 5   0  0.1279188E-01  0.4970728E+03  0.7818609E-02  0.1014546E+00
       -2   -1    0    0    0  501  0.00000000000E+00  0.00000000000E+00  0.16744654519E+03  0.16744654521E+03  0.25500000920E-02 0. -1.
        2   -1    0    0  501    0  0.00000000000E+00  0.00000000000E+00 -0.36889582044E+03  0.36889582045E+03  0.25500000920E-02 0.  1.
    10030    2    1    2    0    0  0.00000000000E+00  0.00000000000E+00 -0.20144927524E+03  0.53634236566E+03  0.49707275393E+03 0.  0.
        2    1    3    3  502    0 -0.22651877555E+03 -0.89299553049E+02 -0.46934860764E+02  0.24796783464E+03  0.25500000920E-02 0.  1.
       -2    1    3    3    0  502  0.22651877555E+03  0.89299553049E+02 -0.15451441448E+03  0.28837453102E+03  0.25500000920E-02 0. -1.
</event>
<event>
 5   0  0.7781754E-02  0.4970939E+03  0.7818609E-02  0.1014540E+00
        1   -1    0    0  501    0  0.00000000000E+00  0.00000000000E+00  0.38219975659E+03  0.38219975662E+03  0.50400001928E-02 0. -1.
       -1   -1    0    0    0  501  0.00000000000E+00  0.00000000000E+00 -0.16163170316E+03  0.16163170324E+03  0.50400001928E-02 0.  1.
    10030    2    1    2    0    0  0.00000000000E+00  0.00000000000E+00  0.22056805343E+03  0.54383145987E+03  0.49709394540E+03 0.  0.
        2    1    3    3  502    0  0.17971577173E+03  0.10550298876E+03  0.25847027119E+03  0.33201734946E+03  0.25500000920E-02 0. -1.
       -2    1    3    3    0  502 -0.17971577173E+03 -0.10550298876E+03 -0.37902217769E+02  0.21181411040E+03  0.25500000920E-02 0.  1.
</event>
<event>
 5   0  0.1243803E-01  0.4954837E+03  0.7818609E-02  0.1014965E+00
        2   -1    0    0  501    0  0.00000000000E+00  0.00000000000E+00  0.24339485889E+03  0.24339485890E+03  0.25500000920E-02 0. -1.
       -2   -1    0    0    0  501  0.00000000000E+00  0.00000000000E+00 -0.25216645150E+03  0.25216645151E+03  0.25500000920E-02 0.  1.
    10030    2    1    2    0    0  0.00000000000E+00  0.00000000000E+00 -0.87715926121E+01  0.49556131041E+03  0.49548367435E+03 0.  0.
        4    1    3    3  502    0 -0.59051873557E+02 -0.23248123773E+03 -0.66361264820E+02  0.24887764069E+03  0.12699999809E+01 0.  1.
       -4    1    3    3    0  502  0.59051873557E+02  0.23248123773E+03  0.57589672208E+02  0.24668366973E+03  0.12699999809E+01 0. -1.
</event>
<event>
 5   0  0.7602288E-02  0.4953413E+03  0.7818609E-02  0.1015002E+00
        1   -1    0    0  501    0  0.00000000000E+00  0.00000000000E+00  0.73436866825E+03  0.73436866827E+03  0.50400001928E-02 0.  1.
       -1   -1    0    0    0  501  0.00000000000E+00  0.00000000000E+00 -0.83528538102E+02  0.83528538254E+02  0.50400001928E-02 0. -1.
    10030    2    1    2    0    0  0.00000000000E+00  0.00000000000E+00  0.65084013015E+03  0.81789720652E+03  0.49534126158E+03 0.  0.
        5    1    3    3  502    0 -0.23734490191E+03  0.30949979529E+02  0.22062353327E+03  0.32555696449E+03  0.46999998093E+01 0. -1.
       -5    1    3    3    0  502  0.23734490191E+03 -0.30949979529E+02  0.43021659688E+03  0.49234024203E+03  0.46999998093E+01 0.  1.
</event>
<event>
 5   0  0.7602288E-02  0.4886953E+03  0.7818609E-02  0.1016772E+00
       -1   -1    0    0    0  501  0.00000000000E+00  0.00000000000E+00  0.68232360158E+02  0.68232360344E+02  0.50400001928E-02 0.  1.
        1   -1    0    0  501    0  0.00000000000E+00  0.00000000000E+00 -0.87503615146E+03  0.87503615148E+03  0.50400001928E-02 0. -1.
    10030    2    1    2    0    0  0.00000000000E+00  0.00000000000E+00 -0.80680379131E+03  0.94326851182E+03  0.48869533222E+03 0.  0.
        5    1    3    3  502    0 -0.20399184230E+03  0.11323906384E+00 -0.66287259830E+03  0.69356676400E+03  0.46999998093E+01 0. -1.
       -5    1    3    3    0  502  0.20399184230E+03 -0.11323906384E+00 -0.14393119301E+03  0.24970174782E+03  0.46999998093E+01 0.  1.
</event>
<event>
 5   0  0.7531632E-02  0.5096846E+03  0.7818609E-02  0.1011282E+00
        1   -1    0    0  501    0  0.00000000000E+00  0.00000000000E+00  0.99951953240E+02  0.99951953367E+02  0.50400001928E-02 0.  1.
       -1   -1    0    0    0  501  0.00000000000E+00  0.00000000000E+00 -0.64975818317E+03  0.64975818319E+03  0.50400001928E-02 0. -1.
    10030    2    1    2    0    0  0.00000000000E+00  0.00000000000E+00 -0.54980622993E+03  0.74971013656E+03  0.50968460678E+03 0.  0.
        3    1    3    3  502    0  0.20974122736E+03 -0.99098105855E+02 -0.43010376278E+03  0.48867276781E+03  0.10100000352E+00 0. -1.
       -3    1    3    3    0  502 -0.20974122736E+03  0.99098105855E+02 -0.11970246715E+03  0.26103736875E+03  0.10100000352E+00 0.  1.
</event>
<event>
 5   0  0.1279188E-01  0.4916667E+03  0.7818609E-02  0.1015977E+00
       -2   -1    0    0    0  501  0.00000000000E+00  0.00000000000E+00  0.18929668610E+03  0.18929668611E+03  0.25500000920E-02 0.  1.
        2   -1    0    0  501    0  0.00000000000E+00  0.00000000000E+00 -0.31925567120E+03  0.31925567121E+03  0.25500000920E-02 0. -1.
    10030    2    1    2    0    0  0.00000000000E+00  0.00000000000E+00 -0.12995898510E+03  0.50855235732E+03  0.49166671875E+03 0.  0.
        2    1    3    3  502    0 -0.39192613976E+02  0.56565542789E+02  0.17913069482E+03  0.19189457380E+03  0.25500000920E-02 0.  1.
       -2    1    3    3    0  502  0.39192613976E+02 -0.56565542789E+02 -0.30908967992E+03  0.31665778352E+03  0.25500000920E-02 0. -1.
</event>
<event>
 5   0  0.7812547E-02  0.4794291E+03  0.7818609E-02  0.1019292E+00
        1   -1    0    0  501    0  0.00000000000E+00  0.00000000000E+00  0.29167772217E+03  0.29167772221E+03  0.50400001928E-02 0. -1.
       -1   -1    0    0    0  501  0.00000000000E+00  0.00000000000E+00 -0.19700873653E+03  0.19700873659E+03  0.50400001928E-02 0.  1.
    10030    2    1    2    0    0  0.00000000000E+00  0.00000000000E+00  0.94668985637E+02  0.48868645880E+03  0.47942907523E+03 0.  0.
        4    1    3    3  502    0 -0.17573825329E+03  0.82624863929E+02  0.19058513461E+03  0.27209393275E+03  0.12699999809E+01 0. -1.
       -4    1    3    3    0  502  0.17573825329E+03 -0.82624863929E+02 -0.95916148969E+02  0.21659252605E+03  0.12699999809E+01 0.  1.
</event>
<event>
 5   0  0.1279188E-01  0.5007847E+03  0.7818609E-02  0.1013574E+00
       -2   -1    0    0    0  501  0.00000000000E+00  0.00000000000E+00  0.11447536366E+03  0.11447536369E+03  0.25500000920E-02 0. -1.
        2   -1    0    0  501    0  0.00000000000E+00  0.00000000000E+00 -0.54768412813E+03  0.54768412813E+03  0.25500000920E-02 0.  1.
    10030    2    1    2    0    0  0.00000000000E+00  0.00000000000E+00 -0.43320876446E+03  0.66215949182E+03  0.50078474318E+03 0.  0.
        2    1    3    3  502    0  0.13336160717E+03 -0.11092809100E+03  0.22154836564E+02  0.17487480215E+03  0.25500000920E-02 0. -1.
       -2    1    3    3    0  502 -0.13336160717E+03  0.11092809100E+03 -0.45536360103E+03  0.48728468967E+03  0.25500000920E-02 0.  1.
</event>
<event>
 5   0  0.1279188E-01  0.4883395E+03  0.7818609E-02  0.1016868E+00
       -2   -1    0    0    0  501  0.00000000000E+00  0.00000000000E+00  0.23453851142E+03  0.23453851144E+03  0.25500000920E-02 0. -1.
        2   -1    0    0  501    0  0.00000000000E+00  0.00000000000E+00 -0.25419645209E+03  0.25419645210E+03  0.25500000920E-02 0.  1.
    10030    2    1    2    0    0  0.00000000000E+00  0.00000000000E+00 -0.19657940666E+02  0.48873496354E+03  0.48833946180E+03 0.  0.
        2    1    3    3  502    0 -0.15654052404E+03 -0.18720586043E+03 -0.18075038654E+02  0.24469915585E+03  0.25500000920E-02 0.  1.
       -2    1    3    3    0  502  0.15654052404E+03  0.18720586043E+03 -0.15829020127E+01  0.24403580768E+03  0.25500000920E-02 0. -1.
</event>
<event>
 5   0  0.7531632E-02  0.5361229E+03  0.7818609E-02  0.1004758E+00
       -1   -1    0    0    0  501  0.00000000000E+00  0.00000000000E+00  0.83674024655E+02  0.83674024807E+02  0.50400001928E-02 0.  1.
        1   -1    0    0  501    0  0.00000000000E+00  0.00000000000E+00 -0.85877227607E+03  0.85877227609E+03  0.50400001928E-02 0. -1.
    10030    2    1    2    0    0  0.00000000000E+00  0.00000000000E+00 -0.77509825142E+03  0.94244630090E+03  0.53612286905E+03 0.  0.
        3    1    3    3  502    0 -0.34316910563E+02  0.21560857039E+03 -0.66096902018E+03  0.69609249516E+03  0.10100000352E+00 0. -1.
       -3    1    3    3    0  502  0.34316910563E+02 -0.21560857039E+03 -0.11412923123E+03  0.24635380573E+03  0.10100000352E+00 0.  1.
</event>
<event>
 5   0  0.7416638E-02  0.5022481E+03  0.7818609E-02  0.1013194E+00
        1   -1    0    0  501    0  0.00000000000E+00  0.00000000000E+00  0.14213128383E+04  0.14213128383E+04  0.50400001928E-02 0.  1.
       -1   -1    0    0    0  501  0.00000000000E+00  0.00000000000E+00 -0.44369741982E+02  0.44369742269E+02  0.50400001928E-02 0. -1.
    10030    2    1    2    0    0  0.00000000000E+00  0.00000000000E+00  0.13769430963E+04  0.14656825806E+04  0.50224808263E+03 0.  0.
        1    1    3    3  502    0 -0.15985238270E+03 -0.18983636656E+03  0.80045967148E+03  0.83804911313E+03  0.50400001928E-02 0. -1.
       -1    1    3    3    0  502  0.15985238270E+03  0.18983636656E+03  0.57648342482E+03  0.62763346743E+03  0.50400001928E-02 0.  1.
</event>
<event>
 5   0  0.7531632E-02  0.4589005E+03  0.7818609E-02  0.1025101E+00
        1   -1    0    0  501    0  0.00000000000E+00  0.00000000000E+00  0.39291013505E+03  0.39291013508E+03  0.50400001928E-02 0. -1.
       -1   -1    0    0    0  501  0.00000000000E+00  0.00000000000E+00 -0.13399354590E+03  0.13399354599E+03  0.50400001928E-02 0.  1.
    10030    2    1    2    0    0  0.00000000000E+00  0.00000000000E+00  0.25891658915E+03  0.52690368108E+03  0.45890052189E+03 0.  0.
        3    1    3    3  502    0 -0.51436076486E+01  0.19032530417E+03 -0.17569003905E+02  0.19120370867E+03  0.10100000352E+00 0.  1.
       -3    1    3    3    0  502  0.51436076486E+01 -0.19032530417E+03  0.27648559305E+03  0.33569997241E+03  0.10100000352E+00 0. -1.
</event>
<event>
 5   0  0.7602288E-02  0.5103452E+03  0.7818609E-02  0.1011113E+00
       -1   -1    0    0    0  501  0.00000000000E+00  0.00000000000E+00  0.36567794781E+03  0.36567794784E+03  0.50400001928E-02 0.  1.
        1   -1    0    0  501    0  0.00000000000E+00  0.00000000000E+00 -0.17806118860E+03  0.17806118867E+03  0.50400001928E-02 0. -1.
    10030    2    1    2    0    0  0.00000000000E+00  0.00000000000E+00  0.18761675921E+03  0.54373913651E+03  0.51034517754E+03 0.  0.
        5    1    3    3  502    0  0.87150083667E+02  0.84579433562E+02  0.33286040340E+03  0.35435428009E+03  0.46999998093E+01 0.  1.
       -5    1    3    3    0  502 -0.87150083667E+02 -0.84579433562E+02 -0.14524364420E+03  0.18938485642E+03  0.46999998093E+01 0. -1.
</event>
<event>
 5   0  0.7812547E-02  0.5029217E+03  0.7818609E-02  0.1013019E+00
       -1   -1    0    0    0  501  0.00000000000E+00  0.00000000000E+00  0.14519195341E+03  0.14519195350E+03  0.50400001928E-02 0. -1.
        1   -1    0    0  501    0  0.00000000000E+00  0.00000000000E+00 -0.43551010003E+03  0.43551010006E+03  0.50400001928E-02 0.  1.
    10030    2    1    2    0    0  0.00000000000E+00  0.00000000000E+00 -0.29031814662E+03  0.58070205356E+03  0.50292171235E+03 0.  0.
        4    1    3    3  502    0  0.18222528195E+03  0.17022580091E+03 -0.18253987935E+03  0.30903931325E+03  0.12699999809E+01 0. -1.
       -4    1    3    3    0  502 -0.18222528195E+03 -0.17022580091E+03 -0.10777826727E+03  0.27166274031E+03  0.12699999809E+01 0.  1.
</event>
<event>
 5   0  0.7812547E-02  0.5028061E+03  0.7818609E-02  0.1013049E+00
       -1   -1    0    0    0  501  0.00000000000E+00  0.00000000000E+00  0.30843226954E+02  0.30843227366E+02  0.50400001928E-02 0. -1.
        1   -1    0    0  501    0  0.00000000000E+00  0.00000000000E+00 -0.20491854764E+04  0.20491854764E+04  0.50400001928E-02 0.  1.
    10030    2    1    2    0    0  0.00000000000E+00  0.00000000000E+00 -0.20183422495E+04  0.20800287038E+04  0.50280609843E+03 0.  0.
        4    1    3    3  502    0 -0.13975640511E+03 -0.20179885238E+03 -0.78458789205E+03  0.82209148082E+03  0.12699999809E+01 0.  1.
       -4    1    3    3    0  502  0.13975640511E+03  0.20179885238E+03 -0.12337543574E+04  0.12579372230E+04  0.12699999809E+01 0. -1.
</event>
<event>
 5   0  0.1231822E-01  0.4998050E+03  0.7818609E-02  0.1013830E+00
       -2   -1    0    0    0  501  0.00000000000E+00  0.00000000000E+00  0.53536371714E+02  0.53536371774E+02  0.25500000920E-02 0.  1.
        2   -1    0    0  501    0  0.00000000000E+00  0.00000000000E+00 -0.11665202717E+04  0.11665202717E+04  0.25500000920E-02 0. -1.
    10030    2    1    2    0    0  0.00000000000E+00  0.00000000000E+00 -0.11129839000E+04  0.12200566435E+04  0.49980501364E+03 0.  0.
        1    1    3    3  502    0 -0.76160856641E+02 -0.23716784814E+03 -0.60544724489E+03  0.65468727699E+03  0.50400001928E-02 0. -1.
       -1    1    3    3    0  502  0.76160856641E+02  0.23716784814E+03 -0.50753665508E+03  0.56536936647E+03  0.50400001928E-02 0.  1.
</event>
<event>
 5   0  0.1191894E-01  0.5018571E+03  0.7818609E-02  0.1013295E+00
        2   -1    0    0  501    0  0.00000000000E+00  0.00000000000E+00  0.11405994727E+04  0.11405994727E+04  0.25500000920E-02 0.  1.
       -2   -1    0    0    0  501  0.00000000000E+00  0.00000000000E+00 -0.55203542118E+02  0.55203542177E+02  0.25500000920E-02 0. -1.
    10030    2    1    2    0    0  0.00000000000E+00  0.00000000000E+00  0.10853959306E+04  0.11958030149E+04  0.50185707555E+03 0.  0.
        3    1    3    3  502    0  0.21147999532E+03 -0.37224344122E+02  0.23334609947E+03  0.31711173513E+03  0.10100000352E+00 0. -1.
       -3    1    3    3    0  502 -0.21147999532E+03  0.37224344122E+02  0.85204983113E+03  0.87869127978E+03  0.10100000352E+00 0.  1.
</event>
<event>
 5   0  0.7602288E-02  0.4963859E+03  0.7818609E-02  0.1014727E+00
       -1   -1    0    0    0  501  0.00000000000E+00  0.00000000000E+00  0.17972712982E+03  0.17972712989E+03  0.50400001928E-02 0. -1.
        1   -1    0    0  501    0  0.00000000000E+00  0.00000000000E+00 -0.34274039375E+03  0.34274039379E+03  0.50400001928E-02 0.  1.
    10030    2    1    2    0    0  0.00000000000E+00  0.00000000000E+00 -0.16301326393E+03  0.52246752368E+03  0.49638592757E+03 0.  0.
        5    1    3    3  502    0  0.11856880224E+03  0.18461458349E+03  0.40500089604E+02  0.22316687155E+03  0.46999998093E+01 0. -1.
       -5    1    3    3    0  502 -0.11856880224E+03 -0.18461458349E+03 -0.20351335353E+03  0.29930065213E+03  0.46999998093E+01 0.  1.
</event>
<event>
 5   0  0.1279188E-01  0.5089261E+03  0.7818609E-02  0.1011475E+00
        2   -1    0    0  501    0  0.00000000000E+00  0.00000000000E+00  0.22654500651E+03  0.22654500653E+03  0.25500000920E-02 0.  1.
       -2   -1    0    0    0  501  0.00000000000E+00  0.00000000000E+00 -0.28582148982E+03  0.28582148983E+03  0.25500000920E-02 0. -1.
    10030    2    1    2    0    0  0.00000000000E+00  0.00000000000E+00 -0.59276483307E+02  0.51236649636E+03  0.50892605074E+03 0.  0.
        2    1    3    3  502    0 -0.47603742588E+02  0.10215709266E+03 -0.25932356859E+03  0.28275590378E+03  0.25500000920E-02 0. -1.
       -2    1    3    3    0  502  0.47603742588E+02 -0.10215709266E+03  0.20004708528E+03  0.22961059258E+03  0.25500000920E-02 0.  1.
</event>
<event>
 5   0  0.1243803E-01  0.4983853E+03  0.7818609E-02  0.1014201E+00
        2   -1    0    0  501    0  0.00000000000E+00  0.00000000000E+00  0.25065172921E+03  0.25065172922E+03  0.25500000920E-02 0. -1.
       -2   -1    0    0    0  501  0.00000000000E+00  0.00000000000E+00 -0.24774210782E+03  0.24774210784E+03  0.25500000920E-02 0.  1.
    10030    2    1    2    0    0  0.00000000000E+00  0.00000000000E+00  0.29096213831E+01  0.49839383706E+03  0.49838534381E+03 0.  0.
        4    1    3    3  502    0  0.67632881959E+02 -0.22966034378E+03 -0.67664343175E+02  0.24879340116E+03  0.12699999809E+01 0.  1.
       -4    1    3    3    0  502 -0.67632881959E+02  0.22966034378E+03  0.70573964558E+02  0.24960043589E+03  0.12699999809E+01 0. -1.
</event>
<event>
 5   0  0.7812547E-02  0.4986426E+03  0.7818609E-02  0.1014134E+00
        1   -1    0    0  501    0  0.00000000000E+00  0.00000000000E+00  0.10202950695E+03  0.10202950708E+03  0.50400001928E-02 0.  1.
       -1   -1    0    0    0  501  0.00000000000E+00  0.00000000000E+00 -0.60924642979E+03  0.60924642981E+03  0.50400001928E-02 0. -1.
    10030    2    1    2    0    0  0.00000000000E+00  0.00000000000E+00 -0.50721692284E+03  0.71127593688E+03  0.49864260907E+03 0.  0.
        4    1    3    3  502    0 -0.86626639691E+02  0.19102025922E+03 -0.44586688986E+03  0.49273908969E+03  0.12699999809E+01 0. -1.
       -4    1    3    3    0  502  0.86626639691E+02 -0.19102025922E+03 -0.61350032980E+02  0.21853684720E+03  0.12699999809E+01 0.  1.
</event>
<event>
 5   0  0.1211345E-01  0.4984029E+03  0.7818609E-02  0.1014197E+00
        2   -1    0    0  501    0  0.00000000000E+00  0.00000000000E+00  0.33182463566E+03  0.33182463567E+03  0.25500000920E-02 0.  1.
       -2   -1    0    0    0  501  0.00000000000E+00  0.00000000000E+00 -0.18715118585E+03  0.18715118587E+03  0.25500000920E-02 0. -1.
    10030    2    1    2    0    0  0.00000000000E+00  0.00000000000E+00  0.14467344982E+03  0.51897582154E+03  0.49840294568E+03 0.  0.
        5    1    3    3  502    0 -0.14303353324E+03  0.22552672631E+02  0.28346733054E+03  0.31834420390E+03  0.46999998093E+01 0.  1.
       -5    1    3    3    0  502  0.14303353324E+03 -0.22552672631E+02 -0.13879388072E+03  0.20063161764E+03  0.46999998093E+01 0. -1.
</event>
<event>
 5   0  0.1191894E-01  0.4987372E+03  0.7818609E-02  0.1014109E+00
        2   -1    0    0  501    0  0.00000000000E+00  0.00000000000E+00  0.12582802057E+04  0.12582802057E+04  0.25500000920E-02 0.  1.
       -2   -1    0    0    0  501  0.00000000000E+00  0.00000000000E+00 -0.49420397799E+02  0.49420397865E+02  0.25500000920E-02 0. -1.
    10030    2    1    2    0    0  0.00000000000E+00  0.00000000000E+00  0.12088598079E+04  0.13077006036E+04  0.49873723884E+03 0.  0.
        3    1    3    3  502    0 -0.16722128690E+03 -0.14982580631E+03  0.31991964101E+03  0.39084436536E+03  0.10100000352E+00 0. -1.
       -3    1    3    3    0  502  0.16722128690E+03  0.14982580631E+03  0.88894016688E+03  0.91685623820E+03  0.10100000352E+00 0.  1.
</event>
<event>
 5   0  0.7812547E-02  0.5067028E+03  0.7818609E-02  0.1012044E+00
        1   -1    0    0  501    0  0.00000000000E+00  0.00000000000E+00  0.31334598095E+03  0.31334598099E+03  0.50400001928E-02 0. -1.
       -1   -1    0    0    0  501  0.00000000000E+00  0.00000000000E+00 -0.20484365117E+03  0.20484365123E+03  0.50400001928E-02 0.  1.
    10030    2    1    2    0    0  0.00000000000E+00  0.00000000000E+00  0.10850232978E+03  0.51818963222E+03  0.50670281169E+03 0.  0.
        4    1    3    3  502    0  0.87782052791E+02 -0.18159334663E+02  0.29658261967E+03  0.30983594597E+03  0.12699999809E+01 0. -1.
       -4    1    3    3    0  502 -0.87782052791E+02  0.18159334663E+02 -0.18808028989E+03  0.20835368625E+03  0.12699999809E+01 0.  1.
</event>
<event>
 5   0  0.5006750E-02  0.4934228E+03  0.7818609E-02  0.1015510E+00
        3   -1    0    0  501    0  0.00000000000E+00  0.00000000000E+00  0.11805292040E+03  0.11805296361E+03  0.10100000352E+00 0. -1.
       -3   -1    0    0    0  501  0.00000000000E+00  0.00000000000E+00 -0.51558661828E+03  0.51558662818E+03  0.10100000352E+00 0.  1.
    10030    2    1    2    0    0  0.00000000000E+00  0.00000000000E+00 -0.39753369788E+03  0.63363959178E+03  0.49342283218E+03 0.  0.
        4    1    3    3  502    0  0.67016346814E+02  0.20571843328E+03 -0.35100291731E+03  0.41232987448E+03  0.12699999809E+01 0.  1.
       -4    1    3    3    0  502 -0.67016346814E+02 -0.20571843328E+03 -0.46530780577E+02  0.22130971730E+03  0.12699999809E+01 0. -1.
</event>
<event>
 5   0  0.7416638E-02  0.4998327E+03  0.7818609E-02  0.1013823E+00
       -1   -1    0    0    0  501  0.00000000000E+00  0.00000000000E+00  0.81103195389E+02  0.81103195545E+02  0.50400001928E-02 0.  1.
        1   -1    0    0  501    0  0.00000000000E+00  0.00000000000E+00 -0.77010761332E+03  0.77010761334E+03  0.50400001928E-02 0. -1.
    10030    2    1    2    0    0  0.00000000000E+00  0.00000000000E+00 -0.68900441794E+03  0.85121080889E+03  0.49983272525E+03 0.  0.
        1    1    3    3  502    0  0.79610376203E+02 -0.12726187875E+03 -0.42242919032E+01  0.15017071102E+03  0.50400001928E-02 0.  1.
       -1    1    3    3    0  502 -0.79610376203E+02  0.12726187875E+03 -0.68478012603E+03  0.70104009787E+03  0.50400001928E-02 0. -1.
</event>
<event>
 5   0  0.1243803E-01  0.4979423E+03  0.7818609E-02  0.1014317E+00
        2   -1    0    0  501    0  0.00000000000E+00  0.00000000000E+00  0.51952496439E+03  0.51952496440E+03  0.25500000920E-02 0. -1.
       -2   -1    0    0    0  501  0.00000000000E+00  0.00000000000E+00 -0.11931408452E+03  0.11931408454E+03  0.25500000920E-02 0.  1.
    10030    2    1    2    0    0  0.00000000000E+00  0.00000000000E+00  0.40021087988E+03  0.63883904894E+03  0.49794234815E+03 0.  0.
        4    1    3    3  502    0 -0.76626127466E+02 -0.49284188518E+01 -0.10373944981E+03  0.12907106209E+03  0.12699999809E+01 0.  1.
       -4    1    3    3    0  502  0.76626127466E+02  0.49284188518E+01  0.50395032969E+03  0.50976798685E+03  0.12699999809E+01 0. -1.
</event>
<event>
 5   0  0.1191894E-01  0.5014736E+03  0.7818609E-02  0.1013395E+00
        2   -1    0    0  501    0  0.00000000000E+00  0.00000000000E+00  0.15244622068E+04  0.15244622068E+04  0.25500000920E-02 0.  1.
       -2   -1    0    0    0  501  0.00000000000E+00  0.00000000000E+00 -0.41240080054E+02  0.41240080133E+02  0.25500000920E-02 0. -1.
    10030    2    1    2    0    0  0.00000000000E+00  0.00000000000E+00  0.14832221268E+04  0.15657022870E+04  0.50147360255E+03 0.  0.
        3    1    3    3  502    0  0.15124526664E+03 -0.16804475567E+03  0.10801183664E+04  0.11035261058E+04  0.10100000352E+00 0.  1.
       -3    1    3    3    0  502 -0.15124526664E+03  0.16804475567E+03  0.40310376037E+03  0.46217618114E+03  0.10100000352E+00 0. -1.
</event>
<event>
 5   0  0.1279188E-01  0.5002017E+03  0.7818609E-02  0.1013726E+00
        2   -1    0    0  501    0  0.00000000000E+00  0.00000000000E+00  0.71748789306E+03  0.71748789306E+03  0.25500000920E-02 0.  1.
       -2   -1    0    0    0  501  0.00000000000E+00  0.00000000000E+00 -0.87179768641E+02  0.87179768678E+02  0.25500000920E-02 0. -1.
    10030    2    1    2    0    0  0.00000000000E+00  0.00000000000E+00  0.63030812441E+03  0.80466766174E+03  0.50020167347E+03 0.  0.
        2    1    3    3  502    0 -0.94549713821E+02 -0.20341359066E+03  0.49308446674E+03  0.54170935804E+03  0.25500000920E-02 0.  1.
       -2    1    3    3    0  502  0.94549713821E+02  0.20341359066E+03  0.13722365768E+03  0.26295830369E+03  0.25500000920E-02 0. -1.
</event>
<event>
 5   0  0.1279188E-01  0.5006161E+03  0.7818609E-02  0.1013618E+00
       -2   -1    0    0    0  501  0.00000000000E+00  0.00000000000E+00  0.25405678765E+02  0.25405678893E+02  0.25500000920E-02 0. -1.
        2   -1    0    0  501    0  0.00000000000E+00  0.00000000000E+00 -0.24661461584E+04  0.24661461584E+04  0.25500000920E-02 0.  1.
    10030    2    1    2    0    0  0.00000000000E+00  0.00000000000E+00 -0.24407404796E+04  0.24915518372E+04  0.50061608942E+03 0.  0.
        2    1    3    3  502    0  0.12676601529E+03 -0.18915818831E+03 -0.70306024745E+03  0.73901566586E+03  0.25500000920E-02 0. -1.
       -2    1    3    3    0  502 -0.12676601529E+03  0.18915818831E+03 -0.17376802321E+04  0.17525361714E+04  0.25500000920E-02 0.  1.
</event>
<event>
 5   0  0.1243803E-01  0.4858236E+03  0.7818609E-02  0.1017547E+00
        2   -1    0    0  501    0  0.00000000000E+00  0.00000000000E+00  0.91795023269E+03  0.91795023270E+03  0.25500000920E-02 0.  1.
       -2   -1    0    0    0  501  0.00000000000E+00  0.00000000000E+00 -0.64280339938E+02  0.64280339988E+02  0.25500000920E-02 0. -1.
    10030    2    1    2    0    0  0.00000000000E+00  0.00000000000E+00  0.85366989276E+03  0.98223057269E+03  0.48582364302E+03 0.  0.
        4    1    3    3  502    0  0.18854504539E+03 -0.14340459649E+03  0.53553152053E+03  0.58558495098E+03  0.12699999809E+01 0. -1.
       -4    1    3    3    0  502 -0.18854504539E+03  0.14340459649E+03  0.31813837223E+03  0.39664562171E+03  0.12699999809E+01 0.  1.
</event>
<event>
 5   0  0.1211345E-01  0.4969191E+03  0.7818609E-02  0.1014586E+00
        2   -1    0    0  501    0  0.00000000000E+00  0.00000000000E+00  0.95939591136E+03  0.95939591136E+03  0.25500000920E-02 0. -1.
       -2   -1    0    0    0  501  0.00000000000E+00  0.00000000000E+00 -0.64344820919E+02  0.64344820970E+02  0.25500000920E-02 0.  1.
    10030    2    1    2    0    0  0.00000000000E+00  0.00000000000E+00  0.89505109044E+03  0.10237407323E+04  0.49691914084E+03 0.  0.
        5    1    3    3  502    0  0.11152306991E+03 -0.19852617937E+03  0.24295488052E+03  0.33301531944E+03  0.46999998093E+01 0.  1.
       -5    1    3    3    0  502 -0.11152306991E+03  0.19852617937E+03  0.65209620992E+03  0.69072541289E+03  0.46999998093E+01 0. -1.
</event>
<event>
 5   0  0.1211345E-01  0.5014456E+03  0.7818609E-02  0.1013402E+00
        2   -1    0    0  501    0  0.00000000000E+00  0.00000000000E+00  0.54362537695E+03  0.54362537696E+03  0.25500000920E-02 0.  1.
       -2   -1    0    0    0  501  0.00000000000E+00  0.00000000000E+00 -0.11563465407E+03  0.11563465410E+03  0.25500000920E-02 0. -1.
    10030    2    1    2    0    0  0.00000000000E+00  0.00000000000E+00  0.42799072288E+03  0.65926003105E+03  0.50144563980E+03 0.  0.
        5    1    3    3  502    0  0.91229754100E+01  0.17715620429E+03  0.44686132676E+03  0.48080628609E+03  0.46999998093E+01 0.  1.
       -5    1    3    3    0  502 -0.91229754100E+01 -0.17715620429E+03 -0.18870603875E+02  0.17845374496E+03  0.46999998093E+01 0. -1.
</event>
<event>
 5   0  0.1191894E-01  0.4952888E+03  0.7818609E-02  0.1015016E+00
       -2   -1    0    0    0  501  0.00000000000E+00  0.00000000000E+00  0.16283133198E+03  0.16283133200E+03  0.25500000920E-02 0. -1.
        2   -1    0    0  501    0  0.00000000000E+00  0.00000000000E+00 -0.37663355978E+03  0.37663355979E+03  0.25500000920E-02 0.  1.
    10030    2    1    2    0    0  0.00000000000E+00  0.00000000000E+00 -0.21380222779E+03  0.53946489179E+03  0.49528878129E+03 0.  0.
        3    1    3    3  502    0  0.33885046624E+02 -0.16797382896E+03  0.87830965286E+02  0.19255568614E+03  0.10100000352E+00 0. -1.
       -3    1    3    3    0  502 -0.33885046624E+02  0.16797382896E+03 -0.30163319308E+03  0.34690920566E+03  0.10100000352E+00 0.  1.
</event>
<event>
 5   0  0.7812547E-02  0.5008754E+03  0.7818609E-02  0.1013551E+00
       -1   -1    0    0    0  501  0.00000000000E+00  0.00000000000E+00  0.98520656202E+02  0.98520656331E+02  0.50400001928E-02 0. -1.
        1   -1    0    0  501    0  0.00000000000E+00  0.00000000000E+00 -0.63660812611E+03  0.63660812613E+03  0.50400001928E-02 0.  1.
    10030    2    1    2    0    0  0.00000000000E+00  0.00000000000E+00 -0.53808746991E+03  0.73512878246E+03  0.50087543514E+03 0.  0.
        4    1    3    3  502    0  0.24976874870E+03  0.12661780754E+02 -0.28833079277E+03  0.38168181445E+03  0.12699999809E+01 0.  1.
       -4    1    3    3    0  502 -0.24976874870E+03 -0.12661780754E+02 -0.24975667713E+03  0.35344696801E+03  0.12699999809E+01 0. -1.
</event>
<event>
 5   0  0.7416638E-02  0.4994595E+03  0.7818609E-02  0.1013920E+00
       -1   -1    0    0    0  501  0.00000000000E+00  0.00000000000E+00  0.22109560151E+03  0.22109560157E+03  0.50400001928E-02 0. -1.
        1   -1    0    0  501    0  0.00000000000E+00  0.00000000000E+00 -0.28207229426E+03  0.28207229430E+03  0.50400001928E-02 0.  1.
    10030    2    1    2    0    0  0.00000000000E+00  0.00000000000E+00 -0.60976692742E+02  0.50316789587E+03  0.49945948222E+03 0.  0.
        1    1    3    3  502    0 -0.10867706138E+03  0.13070095975E+02  0.19564075171E+03  0.22418036228E+03  0.50400001928E-02 0. -1.
       -1    1    3    3    0  502  0.10867706138E+03 -0.13070095975E+02 -0.25661744445E+03  0.27898753359E+03  0.50400001928E-02 0.  1.
</event>
<event>
 5   0  0.1279188E-01  0.4961048E+03  0.7818609E-02  0.1014801E+00
        2   -1    0    0  501    0  0.00000000000E+00  0.00000000000E+00  0.24172201739E+03  0.24172201740E+03  0.25500000920E-02 0. -1.
       -2   -1    0    0    0  501  0.00000000000E+00  0.00000000000E+00 -0.25454858306E+03  0.25454858307E+03  0.25500000920E-02 0.  1.
    10030    2    1    2    0    0  0.00000000000E+00  0.00000000000E+00 -0.12826565671E+02  0.49627060048E+03  0.49610481565E+03 0.  0.
        2    1    3    3  502    0 -0.18106288791E+02  0.23954741233E+03 -0.68233583256E+02  0.24973310221E+03  0.25500000920E-02 0.  1.
       -2    1    3    3    0  502  0.18106288791E+02 -0.23954741233E+03  0.55407017585E+02  0.24653749827E+03  0.25500000920E-02 0. -1.
</event>
<event>
 5   0  0.1243803E-01  0.5011452E+03  0.7818609E-02  0.1013480E+00
        2   -1    0    0  501    0  0.00000000000E+00  0.00000000000E+00  0.38192775511E+03  0.38192775512E+03  0.25500000920E-02 0.  1.
       -2   -1    0    0    0  501  0.00000000000E+00  0.00000000000E+00 -0.16439401893E+03  0.16439401895E+03  0.25500000920E-02 0. -1.
    10030    2    1    2    0    0  0.00000000000E+00  0.00000000000E+00  0.21753373618E+03  0.54632177407E+03  0.50114524287E+03 0.  0.
        4    1    3    3  502    0 -0.32898067384E+02  0.23949561185E+03  0.36911447487E+02  0.24454958350E+03  0.12699999809E+01 0. -1.
       -4    1    3    3    0  502  0.32898067384E+02 -0.23949561185E+03  0.18062228869E+03  0.30177219058E+03  0.12699999809E+01 0.  1.
</event>
<event>
 5   0  0.7602288E-02  0.4951808E+03  0.7818609E-02  0.1015044E+00
       -1   -1    0    0    0  501  0.00000000000E+00  0.00000000000E+00  0.81505497551E+02  0.81505497707E+02  0.50400001928E-02 0. -1.
        1   -1    0    0  501    0  0.00000000000E+00  0.00000000000E+00 -0.75210890740E+03  0.75210890741E+03  0.50400001928E-02 0.  1.
    10030    2    1    2    0    0  0.00000000000E+00  0.00000000000E+00 -0.67060340985E+03  0.83361440512E+03  0.49518081862E+03 0.  0.
        5    1    3    3  502    0  0.81436550348E+01 -0.99161308223E+01 -0.75147357188E+03  0.75159781001E+03  0.46999998093E+01 0.  1.
       -5    1    3    3    0  502 -0.81436550348E+01  0.99161308223E+01  0.80870162038E+02  0.82016595114E+02  0.46999998093E+01 0. -1.
</event>
<event>
 5   0  0.7602288E-02  0.5015258E+03  0.7818609E-02  0.1013381E+00
       -1   -1    0    0    0  501  0.00000000000E+00  0.00000000000E+00  0.57717034406E+02  0.57717034626E+02  0.50400001928E-02 0. -1.
        1   -1    0    0  501    0  0.00000000000E+00  0.00000000000E+00 -0.10894882591E+04  0.10894882592E+04  0.50400001928E-02 0.  1.
    10030    2    1    2    0    0  0.00000000000E+00  0.00000000000E+00 -0.10317712247E+04  0.11472052938E+04  0.50152579783E+03 0.  0.
        5    1    3    3  502    0  0.37057860883E+02 -0.42221446392E+02 -0.10748055483E+04  0.10762829518E+04  0.46999998093E+01 0.  1.
       -5    1    3    3    0  502 -0.37057860883E+02  0.42221446392E+02  0.43034323593E+02  0.70922341994E+02  0.46999998093E+01 0. -1.
</event>
<event>
 5   0  0.1231822E-01  0.5018313E+03  0.7818609E-02  0.1013302E+00
        2   -1    0    0  501    0  0.00000000000E+00  0.00000000000E+00  0.33156167409E+03  0.33156167410E+03  0.25500000920E-02 0. -1.
       -2   -1    0    0    0  501  0.00000000000E+00  0.00000000000E+00 -0.18988519224E+03  0.18988519226E+03  0.25500000920E-02 0.  1.
    10030    2    1    2    0    0  0.00000000000E+00  0.00000000000E+00  0.14167648185E+03  0.52144686636E+03  0.50183125543E+03 0.  0.
        1    1    3    3  502    0  0.22214677393E+03 -0.85038289782E+02 -0.12145496137E+02  0.23817685236E+03  0.50400001928E-02 0. -1.
       -1    1    3    3    0  502 -0.22214677393E+03  0.85038289782E+02  0.15382197798E+03  0.28327001400E+03  0.50400001928E-02 0.  1.
</event>
<event>
 5   0  0.5006750E-02  0.4757118E+03  0.7818609E-02  0.1020320E+00
        3   -1    0    0  501    0  0.00000000000E+00  0.00000000000E+00  0.85514154341E+03  0.85514154937E+03  0.10100000352E+00 0. -1.
       -3   -1    0    0    0  501  0.00000000000E+00  0.00000000000E+00 -0.66159100795E+02  0.66159177890E+02  0.10100000352E+00 0.  1.
    10030    2    1    2    0    0  0.00000000000E+00  0.00000000000E+00  0.78898244261E+03  0.92130072726E+03  0.47571181960E+03 0.  0.
        3    1    3    3  502    0 -0.11120650379E+03  0.20594096373E+03  0.47658574378E+03  0.53095437507E+03  0.10100000352E+00 0.  1.
       -3    1    3    3    0  502  0.11120650379E+03 -0.20594096373E+03  0.31239669883E+03  0.39034635219E+03  0.10100000352E+00 0. -1.
</event>
<event>
 5   0  0.7602288E-02  0.5051507E+03  0.7818609E-02  0.1012443E+00
       -1   -1    0    0    0  501  0.00000000000E+00  0.00000000000E+00  0.13449061439E+03  0.13449061449E+03  0.50400001928E-02 0.  1.
        1   -1    0    0  501    0  0.00000000000E+00  0.00000000000E+00 -0.47434020017E+03  0.47434020020E+03  0.50400001928E-02 0. -1.
    10030    2    1    2    0    0  0.00000000000E+00  0.00000000000E+00 -0.33984958578E+03  0.60883081468E+03  0.50515069034E+03 0.  0.
        5    1    3    3  502    0  0.25242686400E+03 -0.67707918953E+01 -0.17312487389E+03  0.30620169374E+03  0.46999998093E+01 0.  1.
       -5    1    3    3    0  502 -0.25242686400E+03  0.67707918953E+01 -0.16672471189E+03  0.30262912094E+03  0.46999998093E+01 0. -1.
</event>
<event>
 5   0  0.7812547E-02  0.4964233E+03  0.7818609E-02  0.1014717E+00
       -1   -1    0    0    0  501  0.00000000000E+00  0.00000000000E+00  0.58468099212E+02  0.58468099429E+02  0.50400001928E-02 0.  1.
        1   -1    0    0  501    0  0.00000000000E+00  0.00000000000E+00 -0.10537204069E+04  0.10537204069E+04  0.50400001928E-02 0. -1.
    10030    2    1    2    0    0  0.00000000000E+00  0.00000000000E+00 -0.99525230771E+03  0.11121885064E+04  0.49642332508E+03 0.  0.
        4    1    3    3  502    0 -0.11046044785E+03  0.88070943751E+02 -0.95485189817E+03  0.96524699533E+03  0.12699999809E+01 0. -1.
       -4    1    3    3    0  502  0.11046044785E+03 -0.88070943751E+02 -0.40400409548E+02  0.14694151103E+03  0.12699999809E+01 0.  1.
</event>
<event>
 5   0  0.7812547E-02  0.4935498E+03  0.7818609E-02  0.1015476E+00
       -1   -1    0    0    0  501  0.00000000000E+00  0.00000000000E+00  0.56038180024E+02  0.56038180251E+02  0.50400001928E-02 0. -1.
        1   -1    0    0  501    0  0.00000000000E+00  0.00000000000E+00 -0.10867208587E+04  0.10867208588E+04  0.50400001928E-02 0.  1.
    10030    2    1    2    0    0  0.00000000000E+00  0.00000000000E+00 -0.10306826787E+04  0.11427590390E+04  0.49354983236E+03 0.  0.
        4    1    3    3  502    0  0.21539904151E+03  0.10464347759E+03 -0.65328173094E+03  0.69579137488E+03  0.12699999809E+01 0. -1.
       -4    1    3    3    0  502 -0.21539904151E+03 -0.10464347759E+03 -0.37740094779E+03  0.44696766413E+03  0.12699999809E+01 0.  1.
</event>
<event>
 5   0  0.7416638E-02  0.4967082E+03  0.7818609E-02  0.1014642E+00
       -1   -1    0    0    0  501  0.00000000000E+00  0.00000000000E+00  0.61595846775E+02  0.61595846982E+02  0.50400001928E-02 0. -1.
        1   -1    0    0  501    0  0.00000000000E+00  0.00000000000E+00 -0.10013624757E+04  0.10013624757E+04  0.50400001928E-02 0.  1.
    10030    2    1    2    0    0  0.00000000000E+00  0.00000000000E+00 -0.93976662891E+03  0.10629583227E+04  0.49670824328E+03 0.  0.
        1    1    3    3  502    0  0.97280155811E+02 -0.16981277595E+03 -0.14266562721E+03  0.24218441074E+03  0.50400001928E-02 0. -1.
       -1    1    3    3    0  502 -0.97280155811E+02  0.16981277595E+03 -0.79710100170E+03  0.82077391195E+03  0.50400001928E-02 0.  1.
</event>
<event>
 5   0  0.7416638E-02  0.4764046E+03  0.7818609E-02  0.1020128E+00
       -1   -1    0    0    0  501  0.00000000000E+00  0.00000000000E+00  0.16816208501E+03  0.16816208509E+03  0.50400001928E-02 0. -1.
        1   -1    0    0  501    0  0.00000000000E+00  0.00000000000E+00 -0.33741453247E+03  0.33741453251E+03  0.50400001928E-02 0.  1.
    10030    2    1    2    0    0  0.00000000000E+00  0.00000000000E+00 -0.16925244746E+03  0.50557661760E+03  0.47640458152E+03 0.  0.
        1    1    3    3  502    0  0.31643683786E+02 -0.44559450975E+02  0.16141862589E+03  0.17041960041E+03  0.50400001928E-02 0. -1.
       -1    1    3    3    0  502 -0.31643683786E+02  0.44559450975E+02 -0.33067107335E+03  0.33515701719E+03  0.50400001928E-02 0.  1.
</event>
<event>
 5   0  0.5006750E-02  0.4961866E+03  0.7818609E-02  0.1014779E+00
        4   -1    0    0  501    0  0.00000000000E+00  0.00000000000E+00  0.78176058852E+02  0.78186373989E+02  0.12699999809E+01 0. -1.
       -4   -1    0    0    0  501  0.00000000000E+00  0.00000000000E+00 -0.78726636172E+03  0.78726738609E+03  0.12699999809E+01 0.  1.
    10030    2    1    2    0    0  0.00000000000E+00  0.00000000000E+00 -0.70909030287E+03  0.86545376008E+03  0.49618661128E+03 0.  0.
        4    1    3    3  502    0  0.23880245444E+03  0.67243765530E+02 -0.35352937936E+03  0.43189462977E+03  0.12699999809E+01 0. -1.
       -4    1    3    3    0  502 -0.23880245444E+03 -0.67243765530E+02 -0.35556092351E+03  0.43355913031E+03  0.12699999809E+01 0.  1.
</event>
<event>
 5   0  0.7602288E-02  0.5009383E+03  0.7818609E-02  0.1013534E+00
       -1   -1    0    0    0  501  0.00000000000E+00  0.00000000000E+00  0.32626948670E+03  0.32626948674E+03  0.50400001928E-02 0. -1.
        1   -1    0    0  501    0  0.00000000000E+00  0.00000000000E+00 -0.19227906146E+03  0.19227906152E+03  0.50400001928E-02 0.  1.
    10030    2    1    2    0    0  0.00000000000E+00  0.00000000000E+00  0.13399042525E+03  0.51854854826E+03  0.50093828248E+03 0.  0.
        5    1    3    3  502    0 -0.16221218761E+03 -0.12064897327E+03  0.21998717726E+03  0.29880665441E+03  0.46999998093E+01 0. -1.
       -5    1    3    3    0  502  0.16221218761E+03  0.12064897327E+03 -0.85996752016E+02  0.21974189386E+03  0.46999998093E+01 0.  1.
</event>
<event>
 5   0  0.1191894E-01  0.4990805E+03  0.7818609E-02  0.1014019E+00
        2   -1    0    0  501    0  0.00000000000E+00  0.00000000000E+00  0.10111037039E+04  0.10111037039E+04  0.25500000920E-02 0.  1.
       -2   -1    0    0    0  501  0.00000000000E+00  0.00000000000E+00 -0.61586488774E+02  0.61586488827E+02  0.25500000920E-02 0. -1.
    10030    2    1    2    0    0  0.00000000000E+00  0.00000000000E+00  0.94951721512E+03  0.10726901927E+04  0.49908046221E+03 0.  0.
        3    1    3    3  502    0 -0.15962578189E+03  0.17840820626E+03  0.32338025541E+03  0.40234895065E+03  0.10100000352E+00 0. -1.
       -3    1    3    3    0  502  0.15962578189E+03 -0.17840820626E+03  0.62613695971E+03  0.67034124207E+03  0.10100000352E+00 0.  1.
</event>
<event>
 5   0  0.7531632E-02  0.5055110E+03  0.7818609E-02  0.1012350E+00
       -1   -1    0    0    0  501  0.00000000000E+00  0.00000000000E+00  0.74487323078E+02  0.74487323249E+02  0.50400001928E-02 0. -1.
        1   -1    0    0  501    0  0.00000000000E+00  0.00000000000E+00 -0.85766720155E+03  0.85766720157E+03  0.50400001928E-02 0.  1.
    10030    2    1    2    0    0  0.00000000000E+00  0.00000000000E+00 -0.78317987847E+03  0.93215452482E+03  0.50551096535E+03 0.  0.
        3    1    3    3  502    0  0.51236270005E+02  0.12949578990E+03 -0.78053965487E+03  0.79286598994E+03  0.10100000352E+00 0.  1.
       -3    1    3    3    0  502 -0.51236270005E+02 -0.12949578990E+03 -0.26402236001E+01  0.13928853488E+03  0.10100000352E+00 0. -1.
</event>
<event>
 5   0  0.5006750E-02  0.5109162E+03  0.7818609E-02  0.1010968E+00
        3   -1    0    0  501    0  0.00000000000E+00  0.00000000000E+00  0.25184446620E+03  0.25184448645E+03  0.10100000352E+00 0. -1.
       -3   -1    0    0    0  501  0.00000000000E+00  0.00000000000E+00 -0.25912358865E+03  0.25912360833E+03  0.10100000352E+00 0.  1.
    10030    2    1    2    0    0  0.00000000000E+00  0.00000000000E+00 -0.72791224443E+01  0.51096809478E+03  0.51091624388E+03 0.  0.
        1    1    3    3  502    0 -0.16965109157E+03 -0.34509900337E+02  0.18422631773E+03  0.25280775752E+03  0.50400001928E-02 0. -1.
       -1    1    3    3    0  502  0.16965109157E+03  0.34509900337E+02 -0.19150544018E+03  0.25816033726E+03  0.50400001928E-02 0.  1.
</event>
<event>
 5   0  0.5006750E-02  0.4792669E+03  0.7818609E-02  0.1019337E+00
        4   -1    0    0  501    0  0.00000000000E+00  0.00000000000E+00  0.17836915722E+03  0.17837367841E+03  0.12699999809E+01 0. -1.
       -4   -1    0    0    0  501  0.00000000000E+00  0.00000000000E+00 -0.32193026057E+03  0.32193276561E+03  0.12699999809E+01 0.  1.
    10030    2    1    2    0    0  0.00000000000E+00  0.00000000000E+00 -0.14356110335E+03  0.50030644402E+03  0.47926688549E+03 0.  0.
        3    1    3    3  502    0  0.28685481835E+02 -0.26619952141E+02  0.17501436531E+03  0.17933632367E+03  0.10100000352E+00 0. -1.
       -3    1    3    3    0  502 -0.28685481835E+02  0.26619952141E+02 -0.31857546866E+03  0.32097012035E+03  0.10100000352E+00 0.  1.
</event>
<event>
 5   0  0.1211345E-01  0.5068081E+03  0.7818609E-02  0.1012017E+00
       -2   -1    0    0    0  501  0.00000000000E+00  0.00000000000E+00  0.19311411639E+03  0.19311411641E+03  0.25500000920E-02 0.  1.
        2   -1    0    0  501    0  0.00000000000E+00  0.00000000000E+00 -0.33251641014E+03  0.33251641015E+03  0.25500000920E-02 0. -1.
    10030    2    1    2    0    0  0.00000000000E+00  0.00000000000E+00 -0.13940229376E+03  0.52563052656E+03  0.50680810071E+03 0.  0.
        5    1    3    3  502    0 -0.13018586535E+03 -0.57229552309E+02 -0.28717402307E+03  0.32049117105E+03  0.46999998093E+01 0. -1.
       -5    1    3    3    0  502  0.13018586535E+03  0.57229552309E+02  0.14777172932E+03  0.20513935551E+03  0.46999998093E+01 0.  1.
</event>
<event>
 5   0  0.1191894E-01  0.5018357E+03  0.7818609E-02  0.1013301E+00
        2   -1    0    0  501    0  0.00000000000E+00  0.00000000000E+00  0.10538294188E+04  0.10538294188E+04  0.25500000920E-02 0.  1.
       -2   -1    0    0    0  501  0.00000000000E+00  0.00000000000E+00 -0.59743797993E+02  0.59743798048E+02  0.25500000920E-02 0. -1.
    10030    2    1    2    0    0  0.00000000000E+00  0.00000000000E+00  0.99408562083E+03  0.11135732169E+04  0.50183571794E+03 0.  0.
        3    1    3    3  502    0 -0.93825355937E+01 -0.14412723573E+03  0.41747205888E+02  0.15034470877E+03  0.10100000352E+00 0. -1.
       -3    1    3    3    0  502  0.93825355937E+01  0.14412723573E+03  0.95233841494E+03  0.96322850810E+03  0.10100000352E+00 0.  1.
</event>
<event>
 5   0  0.7416638E-02  0.4063969E+03  0.7818609E-02  0.1041587E+00
       -1   -1    0    0    0  501  0.00000000000E+00  0.00000000000E+00  0.54841988539E+02  0.54841988771E+02  0.50400001928E-02 0. -1.
        1   -1    0    0  501    0  0.00000000000E+00  0.00000000000E+00 -0.75288316205E+03  0.75288316206E+03  0.50400001928E-02 0.  1.
    10030    2    1    2    0    0  0.00000000000E+00  0.00000000000E+00 -0.69804117351E+03  0.80772515083E+03  0.40639689883E+03 0.  0.
        1    1    3    3  502    0 -0.49375423174E+01  0.14701441192E+03 -0.70397869557E+02  0.16307506462E+03  0.50400001928E-02 0. -1.
       -1    1    3    3    0  502  0.49375423174E+01 -0.14701441192E+03 -0.62764330395E+03  0.64465008621E+03  0.50400001928E-02 0.  1.
</event>
<event>
 5   0  0.1243803E-01  0.5051102E+03  0.7818609E-02  0.1012454E+00
       -2   -1    0    0    0  501  0.00000000000E+00  0.00000000000E+00  0.69940926376E+02  0.69940926423E+02  0.25500000920E-02 0.  1.
        2   -1    0    0  501    0  0.00000000000E+00  0.00000000000E+00 -0.91197065072E+03  0.91197065072E+03  0.25500000920E-02 0. -1.
    10030    2    1    2    0    0  0.00000000000E+00  0.00000000000E+00 -0.84202972434E+03  0.98191157715E+03  0.50511017477E+03 0.  0.
        4    1    3    3  502    0 -0.16736744619E+03  0.16971812233E+03 -0.25876321996E+03  0.35181830538E+03  0.12699999809E+01 0.  1.
       -4    1    3    3    0  502  0.16736744619E+03 -0.16971812233E+03 -0.58326650438E+03  0.63009327177E+03  0.12699999809E+01 0. -1.
</event>
<event>
 5   0  0.1231822E-01  0.5014818E+03  0.7818609E-02  0.1013393E+00
       -2   -1    0    0    0  501  0.00000000000E+00  0.00000000000E+00  0.18792311606E+03  0.18792311607E+03  0.25500000920E-02 0. -1.
        2   -1    0    0  501    0  0.00000000000E+00  0.00000000000E+00 -0.33455704415E+03  0.33455704416E+03  0.25500000920E-02 0.  1.
    10030    2    1    2    0    0  0.00000000000E+00  0.00000000000E+00 -0.14663392809E+03  0.52248016024E+03  0.50148181320E+03 0.  0.
        1    1    3    3  502    0  0.13652671872E+03 -0.16899458724E+03 -0.20374795728E+03  0.29784550620E+03  0.50400001928E-02 0.  1.
       -1    1    3    3    0  502 -0.13652671872E+03  0.16899458724E+03  0.57114029185E+02  0.22463465404E+03  0.50400001928E-02 0. -1.
</event>
<event>
 5   0  0.1191894E-01  0.4943240E+03  0.7818609E-02  0.1015271E+00
        2   -1    0    0  501    0  0.00000000000E+00  0.00000000000E+00  0.84571993256E+03  0.84571993256E+03  0.25500000920E-02 0. -1.
       -2   -1    0    0    0  501  0.00000000000E+00  0.00000000000E+00 -0.72233188840E+02  0.72233188885E+02  0.25500000920E-02 0.  1.
    10030    2    1    2    0    0  0.00000000000E+00  0.00000000000E+00  0.77348674372E+03  0.91795312145E+03  0.49432397319E+03 0.  0.
        3    1    3    3  502    0  0.36765267889E+02  0.22677718578E+03  0.21746742805E+03  0.31634106496E+03  0.10100000352E+00 0. -1.
       -3    1    3    3    0  502 -0.36765267889E+02 -0.22677718578E+03  0.55601931567E+03  0.60161205649E+03  0.10100000352E+00 0.  1.
</event>
<event>
 5   0  0.7602288E-02  0.5020121E+03  0.7818609E-02  0.1013255E+00
       -1   -1    0    0    0  501  0.00000000000E+00  0.00000000000E+00  0.43729755796E+02  0.43729756086E+02  0.50400001928E-02 0. -1.
        1   -1    0    0  501    0  0.00000000000E+00  0.00000000000E+00 -0.14407587134E+04  0.14407587134E+04  0.50400001928E-02 0.  1.
    10030    2    1    2    0    0  0.00000000000E+00  0.00000000000E+00 -0.13970289576E+04  0.14844884695E+04  0.50201205930E+03 0.  0.
        5    1    3    3  502    0  0.10833044376E+02 -0.93899844917E+02 -0.13859786787E+04  0.13892060767E+04  0.46999998093E+01 0.  1.
       -5    1    3    3    0  502 -0.10833044376E+02  0.93899844917E+02 -0.11050278969E+02  0.95282392862E+02  0.46999998093E+01 0. -1.
</event>
<event>
 5   0  0.7781754E-02  0.5022042E+03  0.7818609E-02  0.1013205E+00
       -1   -1    0    0    0  501  0.00000000000E+00  0.00000000000E+00  0.58582790213E+02  0.58582790429E+02  0.50400001928E-02 0.  1.
        1   -1    0    0  501    0  0.00000000000E+00  0.00000000000E+00 -0.10762932920E+04  0.10762932920E+04  0.50400001928E-02 0. -1.
    10030    2    1    2    0    0  0.00000000000E+00  0.00000000000E+00 -0.10177105018E+04  0.11348760824E+04  0.50220419856E+03 0.  0.
        2    1    3    3  502    0 -0.11431720221E+03 -0.21962124364E+02 -0.60760391032E+01  0.11656618672E+03  0.25500000920E-02 0.  1.
       -2    1    3    3    0  502  0.11431720221E+03  0.21962124364E+02 -0.10116344627E+04  0.10183098957E+04  0.25500000920E-02 0. -1.
</event>
<event>
 5   0  0.7416638E-02  0.5009710E+03  0.7818609E-02  0.1013526E+00
        1   -1    0    0  501    0  0.00000000000E+00  0.00000000000E+00  0.14332602481E+03  0.14332602490E+03  0.50400001928E-02 0.  1.
       -1   -1    0    0    0  501  0.00000000000E+00  0.00000000000E+00 -0.43776401803E+03  0.43776401806E+03  0.50400001928E-02 0. -1.
    10030    2    1    2    0    0  0.00000000000E+00  0.00000000000E+00 -0.29443799322E+03  0.58109004296E+03  0.50097096340E+03 0.  0.
        1    1    3    3  502    0  0.11394004918E+03  0.18074704060E+03  0.44219579936E+01  0.21370863630E+03  0.50400001928E-02 0.  1.
       -1    1    3    3    0  502 -0.11394004918E+03 -0.18074704060E+03 -0.29885995121E+03  0.36738140666E+03  0.50400001928E-02 0. -1.
</event>
<event>
 5   0  0.1279188E-01  0.4945915E+03  0.7818609E-02  0.1015200E+00
        2   -1    0    0  501    0  0.00000000000E+00  0.00000000000E+00  0.48653438232E+03  0.48653438233E+03  0.25500000920E-02 0.  1.
       -2   -1    0    0    0  501  0.00000000000E+00  0.00000000000E+00 -0.12569551150E+03  0.12569551153E+03  0.25500000920E-02 0. -1.
    10030    2    1    2    0    0  0.00000000000E+00  0.00000000000E+00  0.36083887082E+03  0.61222989386E+03  0.49459150037E+03 0.  0.
        2    1    3    3  502    0 -0.10044476376E+01 -0.16385102866E+03 -0.48856977119E+02  0.17098296034E+03  0.25500000920E-02 0. -1.
       -2    1    3    3    0  502  0.10044476376E+01  0.16385102866E+03  0.40969584794E+03  0.44124693352E+03  0.25500000920E-02 0.  1.
</event>
<event>
 5   0  0.1243803E-01  0.5158830E+03  0.7818609E-02  0.1009714E+00
        2   -1    0    0  501    0  0.00000000000E+00  0.00000000000E+00  0.73838716582E+03  0.73838716583E+03  0.25500000920E-02 0. -1.
       -2   -1    0    0    0  501  0.00000000000E+00  0.00000000000E+00 -0.90106937031E+02  0.90106937067E+02  0.25500000920E-02 0.  1.
    10030    2    1    2    0    0  0.00000000000E+00  0.00000000000E+00  0.64828022879E+03  0.82849410290E+03  0.51588295522E+03 0.  0.
        4    1    3    3  502    0 -0.12704889181E+03  0.21729655471E+03  0.41460329787E+03  0.48503270107E+03  0.12699999809E+01 0. -1.
       -4    1    3    3    0  502  0.12704889181E+03 -0.21729655471E+03  0.23367693092E+03  0.34346140183E+03  0.12699999809E+01 0.  1.
</event>
<event>
 5   0  0.7781754E-02  0.5010940E+03  0.7818609E-02  0.1013494E+00
       -1   -1    0    0    0  501  0.00000000000E+00  0.00000000000E+00  0.57763105498E+02  0.57763105718E+02  0.50400001928E-02 0. -1.
        1   -1    0    0  501    0  0.00000000000E+00  0.00000000000E+00 -0.10867454009E+04  0.10867454009E+04  0.50400001928E-02 0.  1.
    10030    2    1    2    0    0  0.00000000000E+00  0.00000000000E+00 -0.10289822954E+04  0.11445085067E+04  0.50109396076E+03 0.  0.
        2    1    3    3  502    0  0.21327311242E+03  0.24787897561E+02 -0.21956122938E+03  0.30709443792E+03  0.25500000920E-02 0. -1.
       -2    1    3    3    0  502 -0.21327311242E+03 -0.24787897561E+02 -0.80942106605E+03  0.83741406874E+03  0.25500000920E-02 0.  1.
</event>
<event>
 5   0  0.5006750E-02  0.5007163E+03  0.7818609E-02  0.1013592E+00
        3   -1    0    0  501    0  0.00000000000E+00  0.00000000000E+00  0.48299105431E+03  0.48299106487E+03  0.10100000352E+00 0. -1.
       -3   -1    0    0    0  501  0.00000000000E+00  0.00000000000E+00 -0.12977297224E+03  0.12977301154E+03  0.10100000352E+00 0.  1.
    10030    2    1    2    0    0  0.00000000000E+00  0.00000000000E+00  0.35321808207E+03  0.61276407640E+03  0.50071628677E+03 0.  0.
        4    1    3    3  502    0  0.20810673657E+02  0.14265421255E+03  0.42709243361E+03  0.45076919620E+03  0.12699999809E+01 0. -1.
       -4    1    3    3    0  502 -0.20810673657E+02 -0.14265421255E+03 -0.73874351538E+02  0.16199488021E+03  0.12699999809E+01 0.  1.
</event>
<event>
 5   0  0.7531632E-02  0.4959204E+03  0.7818609E-02  0.1014849E+00
       -1   -1    0    0    0  501  0.00000000000E+00  0.00000000000E+00  0.32801884581E+02  0.32801884969E+02  0.50400001928E-02 0. -1.
        1   -1    0    0  501    0  0.00000000000E+00  0.00000000000E+00 -0.18744121431E+04  0.18744121431E+04  0.50400001928E-02 0.  1.
    10030    2    1    2    0    0  0.00000000000E+00  0.00000000000E+00 -0.18416102585E+04  0.19072140280E+04  0.49592036115E+03 0.  0.
        3    1    3    3  502    0  0.20087987023E+03  0.10176576616E+03 -0.52159539684E+03  0.56812917689E+03  0.10100000352E+00 0. -1.
       -3    1    3    3    0  502 -0.20087987023E+03 -0.10176576616E+03 -0.13200148616E+04  0.13390848511E+04  0.10100000352E+00 0.  1.
</event>
<event>
 5   0  0.5006750E-02  0.4969725E+03  0.7818609E-02  0.1014572E+00
       -4   -1    0    0    0  501  0.00000000000E+00  0.00000000000E+00  0.34112494343E+03  0.34112730751E+03  0.12699999809E+01 0.  1.
        4   -1    0    0  501    0  0.00000000000E+00  0.00000000000E+00 -0.18100004425E+03  0.18100449972E+03  0.12699999809E+01 0. -1.
    10030    2    1    2    0    0  0.00000000000E+00  0.00000000000E+00  0.16012489918E+03  0.52213180722E+03  0.49697247487E+03 0.  0.
        5    1    3    3  502    0  0.19734411220E+03  0.38959691833E+02  0.23325485938E+03  0.30804622320E+03  0.46999998093E+01 0.  1.
       -5    1    3    3    0  502 -0.19734411220E+03 -0.38959691833E+02 -0.73129960196E+02  0.21408558402E+03  0.46999998093E+01 0. -1.
</event>
<event>
 5   0  0.7602288E-02  0.5023018E+03  0.7818609E-02  0.1013180E+00
        1   -1    0    0  501    0  0.00000000000E+00  0.00000000000E+00  0.20567563260E+03  0.20567563266E+03  0.50400001928E-02 0. -1.
       -1   -1    0    0    0  501  0.00000000000E+00  0.00000000000E+00 -0.30668079533E+03  0.30668079537E+03  0.50400001928E-02 0.  1.
    10030    2    1    2    0    0  0.00000000000E+00  0.00000000000E+00 -0.10100516272E+03  0.51235642803E+03  0.50230176831E+03 0.  0.
        5    1    3    3  502    0  0.42208532937E+02  0.24393011704E+03 -0.75743451553E+01  0.24771540718E+03  0.46999998093E+01 0. -1.
       -5    1    3    3    0  502 -0.42208532937E+02 -0.24393011704E+03 -0.93430817569E+02  0.26464102086E+03  0.46999998093E+01 0.  1.
</event>
<event>
 5   0  0.1279188E-01  0.5177586E+03  0.7818609E-02  0.1009245E+00
        2   -1    0    0  501    0  0.00000000000E+00  0.00000000000E+00  0.94079015677E+02  0.94079015712E+02  0.25500000920E-02 0. -1.
       -2   -1    0    0    0  501  0.00000000000E+00  0.00000000000E+00 -0.71236388627E+03  0.71236388627E+03  0.25500000920E-02 0.  1.
    10030    2    1    2    0    0  0.00000000000E+00  0.00000000000E+00 -0.61828487059E+03  0.80644290198E+03  0.51775860491E+03 0.  0.
        2    1    3    3  502    0 -0.15407080401E+03 -0.58788411174E+02 -0.61997179053E+03  0.64152857379E+03  0.25500000920E-02 0.  1.
       -2    1    3    3    0  502  0.15407080401E+03  0.58788411174E+02  0.16869199379E+01  0.16491432819E+03  0.25500000920E-02 0. -1.
</event>
<event>
 5   0  0.1191894E-01  0.5030333E+03  0.7818609E-02  0.1012990E+00
       -2   -1    0    0    0  501  0.00000000000E+00  0.00000000000E+00  0.13820423214E+03  0.13820423216E+03  0.25500000920E-02 0. -1.
        2   -1    0    0  501    0  0.00000000000E+00  0.00000000000E+00 -0.45773284266E+03  0.45773284267E+03  0.25500000920E-02 0.  1.
    10030    2    1    2    0    0  0.00000000000E+00  0.00000000000E+00 -0.31952861052E+03  0.59593707483E+03  0.50303326352E+03 0.  0.
        3    1    3    3  502    0 -0.10643960723E+03  0.16965345830E+03  0.20483118984E+02  0.20132375485E+03  0.10100000352E+00 0. -1.
       -3    1    3    3    0  502  0.10643960723E+03 -0.16965345830E+03 -0.34001172951E+03  0.39461331998E+03  0.10100000352E+00 0.  1.
</event>
<event>
 5   0  0.1279188E-01  0.4991125E+03  0.7818609E-02  0.1014011E+00
       -2   -1    0    0    0  501  0.00000000000E+00  0.00000000000E+00  0.80135283335E+02  0.80135283375E+02  0.25500000920E-02 0.  1.
        2   -1    0    0  501    0  0.00000000000E+00  0.00000000000E+00 -0.77716478061E+03  0.77716478062E+03  0.25500000920E-02 0. -1.
    10030    2    1    2    0    0  0.00000000000E+00  0.00000000000E+00 -0.69702949728E+03  0.85730006399E+03  0.49911249197E+03 0.  0.
        2    1    3    3  502    0  0.58229066921E+02  0.18287746775E+03 -0.74532089081E+02  0.20588789366E+03  0.25500000920E-02 0. -1.
       -2    1    3    3    0  502 -0.58229066921E+02 -0.18287746775E+03 -0.62249740820E+03  0.65141217034E+03  0.25500000920E-02 0.  1.
</event>
<event>
 5   0  0.7531632E-02  0.4992318E+03  0.7818609E-02  0.1013980E+00
        1   -1    0    0  501    0  0.00000000000E+00  0.00000000000E+00  0.49869809408E+02  0.49869809662E+02  0.50400001928E-02 0. -1.
       -1   -1    0    0    0  501  0.00000000000E+00  0.00000000000E+00 -0.12494150173E+04  0.12494150173E+04  0.50400001928E-02 0.  1.
    10030    2    1    2    0    0  0.00000000000E+00  0.00000000000E+00 -0.11995452079E+04  0.12992848269E+04  0.49923176563E+03 0.  0.
        3    1    3    3  502    0  0.82213845256E+02 -0.44752132382E+02 -0.12020083366E+04  0.12056475112E+04  0.10100000352E+00 0.  1.
       -3    1    3    3    0  502 -0.82213845256E+02  0.44752132382E+02  0.24631287309E+01  0.93637315792E+02  0.10100000352E+00 0. -1.
</event>
<event>
 5   0  0.7531632E-02  0.5596083E+03  0.7818609E-02  0.9992941E-01
       -1   -1    0    0    0  501  0.00000000000E+00  0.00000000000E+00  0.64798193958E+03  0.64798193960E+03  0.50400001928E-02 0. -1.
        1   -1    0    0  501    0  0.00000000000E+00  0.00000000000E+00 -0.12082184633E+03  0.12082184644E+03  0.50400001928E-02 0.  1.
    10030    2    1    2    0    0  0.00000000000E+00  0.00000000000E+00  0.52716009325E+03  0.76880378604E+03  0.55960834296E+03 0.  0.
        3    1    3    3  502    0  0.15710403257E+03  0.13209107242E+03  0.23342200664E+01  0.20526857345E+03  0.10100000352E+00 0.  1.
       -3    1    3    3    0  502 -0.15710403257E+03 -0.13209107242E+03  0.52482587318E+03  0.56353521259E+03  0.10100000352E+00 0. -1.
</event>
<event>
 5   0  0.1211345E-01  0.5095672E+03  0.7818609E-02  0.1011311E+00
       -2   -1    0    0    0  501  0.00000000000E+00  0.00000000000E+00  0.42681417621E+03  0.42681417622E+03  0.25500000920E-02 0. -1.
        2   -1    0    0  501    0  0.00000000000E+00  0.00000000000E+00 -0.15209123043E+03  0.15209123045E+03  0.25500000920E-02 0.  1.
    10030    2    1    2    0    0  0.00000000000E+00  0.00000000000E+00  0.27472294578E+03  0.57890540667E+03  0.50956724084E+03 0.  0.
        5    1    3    3  502    0 -0.15983466765E+03  0.84821875549E+02 -0.66343455307E+02  0.19278333853E+03  0.46999998093E+01 0.  1.
       -5    1    3    3    0  502  0.15983466765E+03 -0.84821875549E+02  0.34106640108E+03  0.38612206814E+03  0.46999998093E+01 0. -1.
</event>
<event>
 5   0  0.7531632E-02  0.5008806E+03  0.7818609E-02  0.1013549E+00
       -1   -1    0    0    0  501  0.00000000000E+00  0.00000000000E+00  0.38605979466E+03  0.38605979469E+03  0.50400001928E-02 0.  1.
        1   -1    0    0  501    0  0.00000000000E+00  0.00000000000E+00 -0.16246274800E+03  0.16246274808E+03  0.50400001928E-02 0. -1.
    10030    2    1    2    0    0  0.00000000000E+00  0.00000000000E+00  0.22359704666E+03  0.54852254277E+03  0.50088056526E+03 0.  0.
        3    1    3    3  502    0  0.79494257788E+02  0.22130749514E+03  0.17440526586E+02  0.23579763908E+03  0.10100000352E+00 0.  1.
       -3    1    3    3    0  502 -0.79494257788E+02 -0.22130749514E+03  0.20615652007E+03  0.31272490370E+03  0.10100000352E+00 0. -1.
</event>
<event>
 5   0  0.7781754E-02  0.5006305E+03  0.7818609E-02  0.1013614E+00
        1   -1    0    0  501    0  0.00000000000E+00  0.00000000000E+00  0.12215355431E+03  0.12215355442E+03  0.50400001928E-02 0. -1.
       -1   -1    0    0    0  501  0.00000000000E+00  0.00000000000E+00 -0.51294232276E+03  0.51294232279E+03  0.50400001928E-02 0.  1.
    10030    2    1    2    0    0  0.00000000000E+00  0.00000000000E+00 -0.39078876845E+03  0.63509587721E+03  0.50063051415E+03 0.  0.
        2    1    3    3  502    0 -0.46109770497E+02  0.18692682560E+03 -0.39832937683E+03  0.44241840098E+03  0.25500000920E-02 0.  1.
       -2    1    3    3    0  502  0.46109770497E+02 -0.18692682560E+03  0.75406083856E+01  0.19267747623E+03  0.25500000920E-02 0. -1.
</event>
<event>
 5   0  0.1211345E-01  0.5025145E+03  0.7818609E-02  0.1013125E+00
       -2   -1    0    0    0  501  0.00000000000E+00  0.00000000000E+00  0.83151539550E+02  0.83151539589E+02  0.25500000920E-02 0. -1.
        2   -1    0    0  501    0  0.00000000000E+00  0.00000000000E+00 -0.75921873935E+03  0.75921873936E+03  0.25500000920E-02 0.  1.
    10030    2    1    2    0    0  0.00000000000E+00  0.00000000000E+00 -0.67606719980E+03  0.84237027895E+03  0.50251450546E+03 0.  0.
        5    1    3    3  502    0  0.32122365376E+02 -0.14427173694E+03  0.24759030066E+01  0.14789996799E+03  0.46999998093E+01 0. -1.
       -5    1    3    3    0  502 -0.32122365376E+02  0.14427173694E+03 -0.67854310281E+03  0.69447031096E+03  0.46999998093E+01 0.  1.
</event>
<event>
 5   0  0.7416638E-02  0.5023321E+03  0.7818609E-02  0.1013172E+00
       -1   -1    0    0    0  501  0.00000000000E+00  0.00000000000E+00  0.16919615758E+03  0.16919615766E+03  0.50400001928E-02 0. -1.
        1   -1    0    0  501    0  0.00000000000E+00  0.00000000000E+00 -0.37284768136E+03  0.37284768140E+03  0.50400001928E-02 0.  1.
    10030    2    1    2    0    0  0.00000000000E+00  0.00000000000E+00 -0.20365152378E+03  0.54204383905E+03  0.50233214143E+03 0.  0.
        1    1    3    3  502    0  0.11757975670E+01  0.12359155004E+03  0.13411032662E+03  0.18237827029E+03  0.50400001928E-02 0. -1.
       -1    1    3    3    0  502 -0.11757975670E+01 -0.12359155004E+03 -0.33776185041E+03  0.35966556877E+03  0.50400001928E-02 0.  1.
</event>
<event>
 5   0  0.1191894E-01  0.5022542E+03  0.7818609E-02  0.1013192E+00
        2   -1    0    0  501    0  0.00000000000E+00  0.00000000000E+00  0.11051753584E+03  0.11051753587E+03  0.25500000920E-02 0.  1.
       -2   -1    0    0    0  501  0.00000000000E+00  0.00000000000E+00 -0.57063171871E+03  0.57063171872E+03  0.25500000920E-02 0. -1.
    10030    2    1    2    0    0  0.00000000000E+00  0.00000000000E+00 -0.46011418287E+03  0.68114925459E+03  0.50225416449E+03 0.  0.
        3    1    3    3  502    0 -0.16885720147E+03 -0.11021629151E+03 -0.27061992933E+02  0.20345207560E+03  0.10100000352E+00 0.  1.
       -3    1    3    3    0  502  0.16885720147E+03  0.11021629151E+03 -0.43305218994E+03  0.47769717899E+03  0.10100000352E+00 0. -1.
</event>
<event>
 5   0  0.1231822E-01  0.4962442E+03  0.7818609E-02  0.1014764E+00
        2   -1    0    0  501    0  0.00000000000E+00  0.00000000000E+00  0.40209347040E+03  0.40209347041E+03  0.25500000920E-02 0.  1.
       -2   -1    0    0    0  501  0.00000000000E+00  0.00000000000E+00 -0.15311013745E+03  0.15311013747E+03  0.25500000920E-02 0. -1.
    10030    2    1    2    0    0  0.00000000000E+00  0.00000000000E+00  0.24898333295E+03  0.55520360788E+03  0.49624424038E+03 0.  0.
        1    1    3    3  502    0  0.12798295937E+03 -0.87162411955E+02  0.34140160940E+03  0.37487595665E+03  0.50400001928E-02 0.  1.
       -1    1    3    3    0  502 -0.12798295937E+03  0.87162411955E+02 -0.92418276456E+02  0.18032765122E+03  0.50400001928E-02 0. -1.
</event>
<event>
 5   0  0.1191894E-01  0.4953860E+03  0.7818609E-02  0.1014990E+00
       -2   -1    0    0    0  501  0.00000000000E+00  0.00000000000E+00  0.13134118519E+03  0.13134118522E+03  0.25500000920E-02 0. -1.
        2   -1    0    0  501    0  0.00000000000E+00  0.00000000000E+00 -0.46711784719E+03  0.46711784719E+03  0.25500000920E-02 0.  1.
    10030    2    1    2    0    0  0.00000000000E+00  0.00000000000E+00 -0.33577666199E+03  0.59845903241E+03  0.49538595735E+03 0.  0.
        3    1    3    3  502    0  0.15224351712E+03  0.11840090186E+03 -0.35564428191E+03  0.40457351313E+03  0.10100000352E+00 0. -1.
       -3    1    3    3    0  502 -0.15224351712E+03 -0.11840090186E+03  0.19867619920E+02  0.19388551929E+03  0.10100000352E+00 0.  1.
</event>
<event>
 5   0  0.5006750E-02  0.4527179E+03  0.7818609E-02  0.1026915E+00
        4   -1    0    0  501    0  0.00000000000E+00  0.00000000000E+00  0.23986014872E+03  0.23986351086E+03  0.12699999809E+01 0.  1.
       -4   -1    0    0    0  501  0.00000000000E+00  0.00000000000E+00 -0.21361091152E+03  0.21361468681E+03  0.12699999809E+01 0. -1.
    10030    2    1    2    0    0  0.00000000000E+00  0.00000000000E+00  0.26249237202E+02  0.45347819767E+03  0.45271785177E+03 0.  0.
        4    1    3    3  502    0 -0.15925105917E+03 -0.15849186899E+03 -0.14420257506E+02  0.22514468484E+03  0.12699999809E+01 0.  1.
       -4    1    3    3    0  502  0.15925105917E+03  0.15849186899E+03  0.40669494708E+02  0.22833351283E+03  0.12699999809E+01 0. -1.
</event>
<event>
 5   0  0.1243803E-01  0.4931388E+03  0.7818609E-02  0.1015585E+00
        2   -1    0    0  501    0  0.00000000000E+00  0.00000000000E+00  0.11347534781E+04  0.11347534781E+04  0.25500000920E-02 0. -1.
       -2   -1    0    0    0  501  0.00000000000E+00  0.00000000000E+00 -0.53576815741E+02  0.53576815802E+02  0.25500000920E-02 0.  1.
    10030    2    1    2    0    0  0.00000000000E+00  0.00000000000E+00  0.10811766624E+04  0.11883302939E+04  0.49313883662E+03 0.  0.
        4    1    3    3  502    0 -0.46904800059E+02 -0.63416895192E+02 -0.22345414446E+02  0.81992031998E+02  0.12699999809E+01 0.  1.
       -4    1    3    3    0  502  0.46904800059E+02  0.63416895192E+02  0.11035220768E+04  0.11063382619E+04  0.12699999809E+01 0. -1.
</event>
<event>
 5   0  0.7531632E-02  0.5014847E+03  0.7818609E-02  0.1013392E+00
       -1   -1    0    0    0  501  0.00000000000E+00  0.00000000000E+00  0.14967369260E+03  0.14967369268E+03  0.50400001928E-02 0.  1.
        1   -1    0    0  501    0  0.00000000000E+00  0.00000000000E+00 -0.42005863232E+03  0.42005863235E+03  0.50400001928E-02 0. -1.
    10030    2    1    2    0    0  0.00000000000E+00  0.00000000000E+00 -0.27038493972E+03  0.56973232503E+03  0.50148470221E+03 0.  0.
        3    1    3    3  502    0  0.11659025732E+03 -0.58374176688E+01  0.11691829434E+03  0.16521882852E+03  0.10100000352E+00 0.  1.
       -3    1    3    3    0  502 -0.11659025732E+03  0.58374176688E+01 -0.38730323405E+03  0.40451349651E+03  0.10100000352E+00 0. -1.
</event>
<event>
 5   0  0.5006750E-02  0.5012086E+03  0.7818609E-02  0.1013464E+00
       -4   -1    0    0    0  501  0.00000000000E+00  0.00000000000E+00  0.32262473241E+03  0.32262723205E+03  0.12699999809E+01 0. -1.
        4   -1    0    0  501    0  0.00000000000E+00  0.00000000000E+00 -0.19465587264E+03  0.19466001555E+03  0.12699999809E+01 0.  1.
    10030    2    1    2    0    0  0.00000000000E+00  0.00000000000E+00  0.12796885976E+03  0.51728724760E+03  0.50120860673E+03 0.  0.
        2    1    3    3  502    0 -0.35994142494E+02 -0.24796131393E+03  0.59129774415E+02  0.25744265717E+03  0.25500000920E-02 0.  1.
       -2    1    3    3    0  502  0.35994142494E+02  0.24796131393E+03  0.68839085349E+02  0.25984459043E+03  0.25500000920E-02 0. -1.
</event>
<event>
 5   0  0.5006750E-02  0.5008066E+03  0.7818609E-02  0.1013569E+00
       -3   -1    0    0    0  501  0.00000000000E+00  0.00000000000E+00  0.74152881186E+02  0.74152949970E+02  0.10100000352E+00 0. -1.
        3   -1    0    0  501    0  0.00000000000E+00  0.00000000000E+00 -0.84557442163E+03  0.84557442766E+03  0.10100000352E+00 0.  1.
    10030    2    1    2    0    0  0.00000000000E+00  0.00000000000E+00 -0.77142154044E+03  0.91972737763E+03  0.50080660549E+03 0.  0.
        2    1    3    3  502    0  0.19105086149E+03 -0.13534333460E+03 -0.54877187034E+03  0.59663122243E+03  0.25500000920E-02 0.  1.
       -2    1    3    3    0  502 -0.19105086149E+03  0.13534333460E+03 -0.22264967010E+03  0.32309615519E+03  0.25500000920E-02 0. -1.
</event>
<event>
 5   0  0.5006750E-02  0.5019923E+03  0.7818609E-02  0.1013260E+00
        3   -1    0    0  501    0  0.00000000000E+00  0.00000000000E+00  0.10651620908E+04  0.10651620956E+04  0.10100000352E+00 0.  1.
       -3   -1    0    0    0  501  0.00000000000E+00  0.00000000000E+00 -0.59145001115E+02  0.59145087352E+02  0.10100000352E+00 0. -1.
    10030    2    1    2    0    0  0.00000000000E+00  0.00000000000E+00  0.10060170897E+04  0.11243071829E+04  0.50199228766E+03 0.  0.
        4    1    3    3  502    0  0.12607824515E+03 -0.16386738483E+03  0.82171580503E+03  0.84732916913E+03  0.12699999809E+01 0.  1.
       -4    1    3    3    0  502 -0.12607824515E+03  0.16386738483E+03  0.18430128464E+03  0.27697801381E+03  0.12699999809E+01 0. -1.
</event>
<event>
 5   0  0.7602288E-02  0.5017344E+03  0.7818609E-02  0.1013327E+00
        1   -1    0    0  501    0  0.00000000000E+00  0.00000000000E+00  0.42323117634E+02  0.42323117934E+02  0.50400001928E-02 0.  1.
       -1   -1    0    0    0  501  0.00000000000E+00  0.00000000000E+00 -0.14869971909E+04  0.14869971909E+04  0.50400001928E-02 0. -1.
    10030    2    1    2    0    0  0.00000000000E+00  0.00000000000E+00 -0.14446740733E+04  0.15293203088E+04  0.50173442085E+03 0.  0.
        5    1    3    3  502    0 -0.17489889678E+03  0.12127294417E+03 -0.11268870748E+04  0.11468187827E+04  0.46999998093E+01 0. -1.
       -5    1    3    3    0  502  0.17489889678E+03 -0.12127294417E+03 -0.31778699845E+03  0.38250152610E+03  0.46999998093E+01 0.  1.
</event>
<event>
 5   0  0.5006750E-02  0.5038529E+03  0.7818609E-02  0.1012778E+00
        4   -1    0    0  501    0  0.00000000000E+00  0.00000000000E+00  0.25124216678E+03  0.25124537662E+03  0.12699999809E+01 0. -1.
       -4   -1    0    0    0  501  0.00000000000E+00  0.00000000000E+00 -0.25260618004E+03  0.25260937253E+03  0.12699999809E+01 0.  1.
    10030    2    1    2    0    0  0.00000000000E+00  0.00000000000E+00 -0.13640132512E+01  0.50385474915E+03  0.50385290285E+03 0.  0.
        3    1    3    3  502    0  0.56030069328E+02 -0.61609198497E+01 -0.24622231487E+03  0.25259209042E+03  0.10100000352E+00 0.  1.
       -3    1    3    3    0  502 -0.56030069328E+02  0.61609198497E+01  0.24485830162E+03  0.25126265873E+03  0.10100000352E+00 0. -1.
</event>
<event>
 5   0  0.7531632E-02  0.5052731E+03  0.7818609E-02  0.1012412E+00
        1   -1    0    0  501    0  0.00000000000E+00  0.00000000000E+00  0.40908162495E+03  0.40908162499E+03  0.50400001928E-02 0.  1.
       -1   -1    0    0    0  501  0.00000000000E+00  0.00000000000E+00 -0.15602076152E+03  0.15602076160E+03  0.50400001928E-02 0. -1.
    10030    2    1    2    0    0  0.00000000000E+00  0.00000000000E+00  0.25306086344E+03  0.56510238658E+03  0.50527310112E+03 0.  0.
        3    1    3    3  502    0  0.52766488226E+02 -0.12401184524E+03 -0.11245879038E+03  0.17552843010E+03  0.10100000352E+00 0. -1.
       -3    1    3    3    0  502 -0.52766488226E+02  0.12401184524E+03  0.36551965382E+03  0.38957395648E+03  0.10100000352E+00 0.  1.
</event>
<event>
 5   0  0.7531632E-02  0.4457053E+03  0.7818609E-02  0.1029011E+00
       -1   -1    0    0    0  501  0.00000000000E+00  0.00000000000E+00  0.12662859002E+03  0.12662859012E+03  0.50400001928E-02 0. -1.
        1   -1    0    0  501    0  0.00000000000E+00  0.00000000000E+00 -0.39219669073E+03  0.39219669077E+03  0.50400001928E-02 0.  1.
    10030    2    1    2    0    0  0.00000000000E+00  0.00000000000E+00 -0.26556810072E+03  0.51882528089E+03  0.44570534658E+03 0.  0.
        3    1    3    3  502    0  0.37179488520E+02 -0.15884877297E+03 -0.30950597934E+03  0.34987027380E+03  0.10100000352E+00 0.  1.
       -3    1    3    3    0  502 -0.37179488520E+02  0.15884877297E+03  0.43937878620E+02  0.16895500709E+03  0.10100000352E+00 0. -1.
</event>
<event>
 5   0  0.1211345E-01  0.4822770E+03  0.7818609E-02  0.1018511E+00
        2   -1    0    0  501    0  0.00000000000E+00  0.00000000000E+00  0.11189652670E+04  0.11189652670E+04  0.25500000920E-02 0. -1.
       -2   -1    0    0    0  501  0.00000000000E+00  0.00000000000E+00 -0.51965658288E+02  0.51965658351E+02  0.25500000920E-02 0.  1.
    10030    2    1    2    0    0  0.00000000000E+00  0.00000000000E+00  0.10669996087E+04  0.11709309253E+04  0.48227696083E+03 0.  0.
        5    1    3    3  502    0 -0.60998364484E+02  0.98910144075E+02  0.20629421106E+02  0.11811723026E+03  0.46999998093E+01 0.  1.
       -5    1    3    3    0  502  0.60998364484E+02 -0.98910144075E+02  0.10463701876E+04  0.10528136951E+04  0.46999998093E+01 0. -1.
</event>
<event>
 5   0  0.7416638E-02  0.4995966E+03  0.7818609E-02  0.1013884E+00
       -1   -1    0    0    0  501  0.00000000000E+00  0.00000000000E+00  0.43515205962E+02  0.43515206254E+02  0.50400001928E-02 0.  1.
        1   -1    0    0  501    0  0.00000000000E+00  0.00000000000E+00 -0.14339627128E+04  0.14339627128E+04  0.50400001928E-02 0. -1.
    10030    2    1    2    0    0  0.00000000000E+00  0.00000000000E+00 -0.13904475069E+04  0.14774779191E+04  0.49959656929E+03 0.  0.
        1    1    3    3  502    0  0.15716917308E+03  0.16188229753E+02 -0.12674138367E+04  0.12772243504E+04  0.50400001928E-02 0. -1.
       -1    1    3    3    0  502 -0.15716917308E+03 -0.16188229753E+02 -0.12303367013E+03  0.20025356866E+03  0.50400001928E-02 0.  1.
</event>
<event>
 5   0  0.7602288E-02  0.5013138E+03  0.7818609E-02  0.1013437E+00
        1   -1    0    0  501    0  0.00000000000E+00  0.00000000000E+00  0.38633438039E+03  0.38633438042E+03  0.50400001928E-02 0.  1.
       -1   -1    0    0    0  501  0.00000000000E+00  0.00000000000E+00 -0.16262822096E+03  0.16262822103E+03  0.50400001928E-02 0. -1.
    10030    2    1    2    0    0  0.00000000000E+00  0.00000000000E+00  0.22370615943E+03  0.54896260145E+03  0.50131376605E+03 0.  0.
        5    1    3    3  502    0  0.11094474578E+03  0.21406211001E+03  0.18672953490E+03  0.30499398807E+03  0.46999998093E+01 0.  1.
       -5    1    3    3    0  502 -0.11094474578E+03 -0.21406211001E+03  0.36976624535E+02  0.24396861339E+03  0.46999998093E+01 0. -1.
</event>
<event>
 5   0  0.7812547E-02  0.5004488E+03  0.7818609E-02  0.1013662E+00
        1   -1    0    0  501    0  0.00000000000E+00  0.00000000000E+00  0.47488533501E+03  0.47488533503E+03  0.50400001928E-02 0. -1.
       -1   -1    0    0    0  501  0.00000000000E+00  0.00000000000E+00 -0.13184708705E+03  0.13184708714E+03  0.50400001928E-02 0.  1.
    10030    2    1    2    0    0  0.00000000000E+00  0.00000000000E+00  0.34303824796E+03  0.60673242218E+03  0.50044879114E+03 0.  0.
        4    1    3    3  502    0  0.11741399012E+03  0.16612017476E+03  0.34816318086E+03  0.40323835500E+03  0.12699999809E+01 0. -1.
       -4    1    3    3    0  502 -0.11741399012E+03 -0.16612017476E+03 -0.51249329050E+01  0.20349406717E+03  0.12699999809E+01 0.  1.
</event>
<event>
 5   0  0.7781754E-02  0.5016137E+03  0.7818609E-02  0.1013359E+00
       -1   -1    0    0    0  501  0.00000000000E+00  0.00000000000E+00  0.86164287798E+03  0.86164287800E+03  0.50400001928E-02 0. -1.
        1   -1    0    0  501    0  0.00000000000E+00  0.00000000000E+00 -0.73004808822E+02  0.73004808996E+02  0.50400001928E-02 0.  1.
    10030    2    1    2    0    0  0.00000000000E+00  0.00000000000E+00  0.78863806916E+03  0.93464768699E+03  0.50161369068E+03 0.  0.
        2    1    3    3  502    0 -0.17075728262E+02  0.24910463560E+03  0.43838766676E+03  0.50450812317E+03  0.25500000920E-02 0. -1.
       -2    1    3    3    0  502  0.17075728262E+02 -0.24910463560E+03  0.35025040240E+03  0.43013956382E+03  0.25500000920E-02 0.  1.
</event>
<event>
 5   0  0.1279188E-01  0.5019999E+03  0.7818609E-02  0.1013258E+00
       -2   -1    0    0    0  501  0.00000000000E+00  0.00000000000E+00  0.38512473048E+02  0.38512473133E+02  0.25500000920E-02 0.  1.
        2   -1    0    0  501    0  0.00000000000E+00  0.00000000000E+00 -0.16358590893E+04  0.16358590893E+04  0.25500000920E-02 0. -1.
    10030    2    1    2    0    0  0.00000000000E+00  0.00000000000E+00 -0.15973466162E+04  0.16743715624E+04  0.50199991697E+03 0.  0.
        2    1    3    3  502    0 -0.61169631295E+01  0.45402087656E+02  0.24449675868E+02  0.51928349271E+02  0.25500000920E-02 0.  1.
       -2    1    3    3    0  502  0.61169631295E+01 -0.45402087656E+02 -0.16217962921E+04  0.16224432131E+04  0.25500000920E-02 0. -1.
</event>
<event>
 5   0  0.1191894E-01  0.4998552E+03  0.7818609E-02  0.1013817E+00
        2   -1    0    0  501    0  0.00000000000E+00  0.00000000000E+00  0.10676238164E+04  0.10676238164E+04  0.25500000920E-02 0. -1.
       -2   -1    0    0    0  501  0.00000000000E+00  0.00000000000E+00 -0.58507323977E+02  0.58507324033E+02  0.25500000920E-02 0.  1.
    10030    2    1    2    0    0  0.00000000000E+00  0.00000000000E+00  0.10091164924E+04  0.11261311404E+04  0.49985522921E+03 0.  0.
        3    1    3    3  502    0 -0.19150277605E+03 -0.70664164304E+02  0.82945528466E+03  0.85420303020E+03  0.10100000352E+00 0. -1.
       -3    1    3    3    0  502  0.19150277605E+03  0.70664164304E+02  0.17966120772E+03  0.27192811020E+03  0.10100000352E+00 0.  1.
</event>
<event>
 5   0  0.1243803E-01  0.4957208E+03  0.7818609E-02  0.1014902E+00
        2   -1    0    0  501    0  0.00000000000E+00  0.00000000000E+00  0.14189291574E+04  0.14189291574E+04  0.25500000920E-02 0.  1.
       -2   -1    0    0    0  501  0.00000000000E+00  0.00000000000E+00 -0.43296584706E+02  0.43296584781E+02  0.25500000920E-02 0. -1.
    10030    2    1    2    0    0  0.00000000000E+00  0.00000000000E+00  0.13756325727E+04  0.14622257422E+04  0.49572083480E+03 0.  0.
        4    1    3    3  502    0  0.10813882424E+03  0.47329415915E+02  0.13306814896E+04  0.13359075262E+04  0.12699999809E+01 0.  1.
       -4    1    3    3    0  502 -0.10813882424E+03 -0.47329415915E+02  0.44951083111E+02  0.12631821599E+03  0.12699999809E+01 0. -1.
</event>
<event>
 5   0  0.7531632E-02  0.4990874E+03  0.7818609E-02  0.1014017E+00
       -1   -1    0    0    0  501  0.00000000000E+00  0.00000000000E+00  0.13049369214E+03  0.13049369224E+03  0.50400001928E-02 0.  1.
        1   -1    0    0  501    0  0.00000000000E+00  0.00000000000E+00 -0.47720365601E+03  0.47720365603E+03  0.50400001928E-02 0. -1.
    10030    2    1    2    0    0  0.00000000000E+00  0.00000000000E+00 -0.34670996387E+03  0.60769734827E+03  0.49908743528E+03 0.  0.
        3    1    3    3  502    0 -0.11572880866E+03  0.20963948913E+03 -0.87859674179E+02  0.25507098052E+03  0.10100000352E+00 0.  1.
       -3    1    3    3    0  502  0.11572880866E+03 -0.20963948913E+03 -0.25885028969E+03  0.35262636775E+03  0.10100000352E+00 0. -1.
</event>
<event>
 5   0  0.1231822E-01  0.4929189E+03  0.7818609E-02  0.1015644E+00
        2   -1    0    0  501    0  0.00000000000E+00  0.00000000000E+00  0.66026532576E+03  0.66026532577E+03  0.25500000920E-02 0. -1.
       -2   -1    0    0    0  501  0.00000000000E+00  0.00000000000E+00 -0.91996735342E+02  0.91996735377E+02  0.25500000920E-02 0.  1.
    10030    2    1    2    0    0  0.00000000000E+00  0.00000000000E+00  0.56826859042E+03  0.75226206114E+03  0.49291887545E+03 0.  0.
        1    1    3    3  502    0 -0.12599043077E+03  0.13470498076E+03  0.34652869469E+02  0.18766950172E+03  0.50400001928E-02 0.  1.
       -1    1    3    3    0  502  0.12599043077E+03 -0.13470498076E+03  0.53361572095E+03  0.56459255942E+03  0.50400001928E-02 0. -1.
</event>
<event>
 5   0  0.1211345E-01  0.4992193E+03  0.7818609E-02  0.1013983E+00
        2   -1    0    0  501    0  0.00000000000E+00  0.00000000000E+00  0.37118269401E+03  0.37118269402E+03  0.25500000920E-02 0.  1.
       -2   -1    0    0    0  501  0.00000000000E+00  0.00000000000E+00 -0.16785529230E+03  0.16785529232E+03  0.25500000920E-02 0. -1.
    10030    2    1    2    0    0  0.00000000000E+00  0.00000000000E+00  0.20332740171E+03  0.53903798634E+03  0.49921930896E+03 0.  0.
        5    1    3    3  502    0  0.11710765133E+02  0.12706177184E+03 -0.12992207781E+03  0.18216386080E+03  0.46999998093E+01 0. -1.
       -5    1    3    3    0  502 -0.11710765133E+02 -0.12706177184E+03  0.33324947952E+03  0.35687412554E+03  0.46999998093E+01 0.  1.
</event>
<event>
 5   0  0.7812547E-02  0.5015479E+03  0.7818609E-02  0.1013376E+00
        1   -1    0    0  501    0  0.00000000000E+00  0.00000000000E+00  0.19817597376E+03  0.19817597382E+03  0.50400001928E-02 0.  1.
       -1   -1    0    0    0  501  0.00000000000E+00  0.00000000000E+00 -0.31733196131E+03  0.31733196135E+03  0.50400001928E-02 0. -1.
    10030    2    1    2    0    0  0.00000000000E+00  0.00000000000E+00 -0.11915598755E+03  0.51550793517E+03  0.50154788591E+03 0.  0.
        4    1    3    3  502    0 -0.16063306742E+02  0.19230553527E+03 -0.22418074048E+03  0.29580072012E+03  0.12699999809E+01 0. -1.
       -4    1    3    3    0  502  0.16063306742E+02 -0.19230553527E+03  0.10502475293E+03  0.21970721506E+03  0.12699999809E+01 0.  1.
</event>
<event>
 5   0  0.7781754E-02  0.4952915E+03  0.7818609E-02  0.1015015E+00
       -1   -1    0    0    0  501  0.00000000000E+00  0.00000000000E+00  0.11366546723E+03  0.11366546734E+03  0.50400001928E-02 0.  1.
        1   -1    0    0  501    0  0.00000000000E+00  0.00000000000E+00 -0.53955187581E+03  0.53955187583E+03  0.50400001928E-02 0. -1.
    10030    2    1    2    0    0  0.00000000000E+00  0.00000000000E+00 -0.42588640857E+03  0.65321734317E+03  0.49529149439E+03 0.  0.
        2    1    3    3  502    0 -0.27746912459E+02 -0.14418490199E+02  0.11105137826E+03  0.11536980814E+03  0.25500000920E-02 0.  1.
       -2    1    3    3    0  502  0.27746912459E+02  0.14418490199E+02 -0.53693778683E+03  0.53784753504E+03  0.25500000920E-02 0. -1.
</event>
<event>
 5   0  0.5006750E-02  0.5372988E+03  0.7818609E-02  0.1004477E+00
        4   -1    0    0  501    0  0.00000000000E+00  0.00000000000E+00  0.10269791034E+03  0.10270576268E+03  0.12699999809E+01 0. -1.
       -4   -1    0    0    0  501  0.00000000000E+00  0.00000000000E+00 -0.70272985784E+03  0.70273100543E+03  0.12699999809E+01 0.  1.
    10030    2    1    2    0    0  0.00000000000E+00  0.00000000000E+00 -0.60003194750E+03  0.80543676812E+03  0.53729884554E+03 0.  0.
        5    1    3    3  502    0 -0.20209613211E+03  0.15633741455E+03 -0.17580115597E+03  0.31018118937E+03  0.46999998093E+01 0. -1.
       -5    1    3    3    0  502  0.20209613211E+03 -0.15633741455E+03 -0.42423079153E+03  0.49525557875E+03  0.46999998093E+01 0.  1.
</event>
<event>
 5   0  0.7531632E-02  0.5056646E+03  0.7818609E-02  0.1012311E+00
       -1   -1    0    0    0  501  0.00000000000E+00  0.00000000000E+00  0.16704887486E+03  0.16704887494E+03  0.50400001928E-02 0. -1.
        1   -1    0    0  501    0  0.00000000000E+00  0.00000000000E+00 -0.38266753211E+03  0.38266753215E+03  0.50400001928E-02 0.  1.
    10030    2    1    2    0    0  0.00000000000E+00  0.00000000000E+00 -0.21561865725E+03  0.54971640708E+03  0.50566463477E+03 0.  0.
        3    1    3    3  502    0 -0.15840660680E+03  0.16312875951E+03  0.12367587350E+02  0.22772047048E+03  0.10100000352E+00 0. -1.
       -3    1    3    3    0  502  0.15840660680E+03 -0.16312875951E+03 -0.22798624460E+03  0.32199593660E+03  0.10100000352E+00 0.  1.
</event>
<event>
 5   0  0.7781754E-02  0.4989995E+03  0.7818609E-02  0.1014040E+00
        1   -1    0    0  501    0  0.00000000000E+00  0.00000000000E+00  0.75317810320E+03  0.75317810321E+03  0.50400001928E-02 0.  1.
       -1   -1    0    0    0  501  0.00000000000E+00  0.00000000000E+00 -0.82649923836E+02  0.82649923989E+02  0.50400001928E-02 0. -1.
    10030    2    1    2    0    0  0.00000000000E+00  0.00000000000E+00  0.67052817936E+03  0.83582802720E+03  0.49899945064E+03 0.  0.
        2    1    3    3  502    0 -0.40469500942E+02 -0.15095627286E+03  0.94996556491E+01  0.15657528632E+03  0.25500000920E-02 0. -1.
       -2    1    3    3    0  502  0.40469500942E+02  0.15095627286E+03  0.66102852371E+03  0.67925274088E+03  0.25500000920E-02 0.  1.
</event>
<event>
 5   0  0.1279188E-01  0.5083452E+03  0.7818609E-02  0.1011623E+00
       -2   -1    0    0    0  501  0.00000000000E+00  0.00000000000E+00  0.86643784400E+02  0.86643784438E+02  0.25500000920E-02 0.  1.
        2   -1    0    0  501    0  0.00000000000E+00  0.00000000000E+00 -0.74562430170E+03  0.74562430170E+03  0.25500000920E-02 0. -1.
    10030    2    1    2    0    0  0.00000000000E+00  0.00000000000E+00 -0.65898051730E+03  0.83226808614E+03  0.50834520262E+03 0.  0.
        2    1    3    3  502    0  0.11644067503E+03  0.22591715035E+03 -0.33373490730E+03  0.41949490817E+03  0.25500000920E-02 0.  1.
       -2    1    3    3    0  502 -0.11644067503E+03 -0.22591715035E+03 -0.32524561000E+03  0.41277317797E+03  0.25500000920E-02 0. -1.
</event>
<event>
 5   0  0.1279188E-01  0.5004381E+03  0.7818609E-02  0.1013665E+00
       -2   -1    0    0    0  501  0.00000000000E+00  0.00000000000E+00  0.23816838717E+03  0.23816838719E+03  0.25500000920E-02 0. -1.
        2   -1    0    0  501    0  0.00000000000E+00  0.00000000000E+00 -0.26287943062E+03  0.26287943063E+03  0.25500000920E-02 0.  1.
    10030    2    1    2    0    0  0.00000000000E+00  0.00000000000E+00 -0.24711043441E+02  0.50104781782E+03  0.50043808815E+03 0.  0.
        2    1    3    3  502    0  0.18590717363E+03  0.46756287960E+02 -0.17336794574E+03  0.25846483762E+03  0.25500000920E-02 0.  1.
       -2    1    3    3    0  502 -0.18590717363E+03 -0.46756287960E+02  0.14865690230E+03  0.24258298019E+03  0.25500000920E-02 0. -1.
</event>
<event>
 5   0  0.1191894E-01  0.5037321E+03  0.7818609E-02  0.1012809E+00
       -2   -1    0    0    0  501  0.00000000000E+00  0.00000000000E+00  0.15200188710E+03  0.15200188712E+03  0.25500000920E-02 0. -1.
        2   -1    0    0  501    0  0.00000000000E+00  0.00000000000E+00 -0.41734032167E+03  0.41734032168E+03  0.25500000920E-02 0.  1.
    10030    2    1    2    0    0  0.00000000000E+00  0.00000000000E+00 -0.26533843457E+03  0.56934220880E+03  0.50373213701E+03 0.  0.
        3    1    3    3  502    0 -0.12947475799E+03  0.12631779810E+03 -0.33075821067E+03  0.37698926139E+03  0.10100000352E+00 0.  1.
       -3    1    3    3    0  502  0.12947475799E+03 -0.12631779810E+03  0.65419776102E+02  0.19235294741E+03  0.10100000352E+00 0. -1.
</event>
<event>
 5   0  0.5006750E-02  0.4978732E+03  0.7818609E-02  0.1014336E+00
       -3   -1    0    0    0  501  0.00000000000E+00  0.00000000000E+00  0.19633550184E+03  0.19633552782E+03  0.10100000352E+00 0. -1.
        3   -1    0    0  501    0  0.00000000000E+00  0.00000000000E+00 -0.31563017989E+03  0.31563019605E+03  0.10100000352E+00 0.  1.
    10030    2    1    2    0    0  0.00000000000E+00  0.00000000000E+00 -0.11929467806E+03  0.51196572387E+03  0.49787315875E+03 0.  0.
        4    1    3    3  502    0  0.68822283523E+02  0.65217388516E+02  0.17703721894E+03  0.20083227894E+03  0.12699999809E+01 0. -1.
       -4    1    3    3    0  502 -0.68822283523E+02 -0.65217388516E+02 -0.29633189700E+03  0.31113344493E+03  0.12699999809E+01 0.  1.
</event>
<event>
 5   0  0.7812547E-02  0.5040463E+03  0.7818609E-02  0.1012728E+00
       -1   -1    0    0    0  501  0.00000000000E+00  0.00000000000E+00  0.48598245191E+02  0.48598245453E+02  0.50400001928E-02 0. -1.
        1   -1    0    0  501    0  0.00000000000E+00  0.00000000000E+00 -0.13069537272E+04  0.13069537272E+04  0.50400001928E-02 0.  1.
    10030    2    1    2    0    0  0.00000000000E+00  0.00000000000E+00 -0.12583554820E+04  0.13555519727E+04  0.50404625927E+03 0.  0.
        4    1    3    3  502    0  0.77236664378E+02  0.97045930303E+02 -0.39171574453E+02  0.13007474796E+03  0.12699999809E+01 0. -1.
       -4    1    3    3    0  502 -0.77236664378E+02 -0.97045930303E+02 -0.12191839076E+04  0.12254772247E+04  0.12699999809E+01 0.  1.
</event>
<event>
 5   0  0.7781754E-02  0.5077740E+03  0.7818609E-02  0.1011769E+00
       -1   -1    0    0    0  501  0.00000000000E+00  0.00000000000E+00  0.33131736439E+03  0.33131736443E+03  0.50400001928E-02 0.  1.
        1   -1    0    0  501    0  0.00000000000E+00  0.00000000000E+00 -0.19455243882E+03  0.19455243889E+03  0.50400001928E-02 0. -1.
    10030    2    1    2    0    0  0.00000000000E+00  0.00000000000E+00  0.13676492557E+03  0.52586980331E+03  0.50777397055E+03 0.  0.
        2    1    3    3  502    0 -0.22220453068E+03 -0.62358772350E+02  0.17796021705E+03  0.29143319784E+03  0.25500000920E-02 0.  1.
       -2    1    3    3    0  502  0.22220453068E+03  0.62358772350E+02 -0.41195291484E+02  0.23443660548E+03  0.25500000920E-02 0. -1.
</event>
<event>
 5   0  0.5006750E-02  0.5025799E+03  0.7818609E-02  0.1013108E+00
        3   -1    0    0  501    0  0.00000000000E+00  0.00000000000E+00  0.62635408955E+03  0.62635409770E+03  0.10100000352E+00 0.  1.
       -3   -1    0    0    0  501  0.00000000000E+00  0.00000000000E+00 -0.10081616312E+03  0.10081621371E+03  0.10100000352E+00 0. -1.
    10030    2    1    2    0    0  0.00000000000E+00  0.00000000000E+00  0.52553792644E+03  0.72717031141E+03  0.50257989382E+03 0.  0.
        1    1    3    3  502    0 -0.95858528072E+02 -0.90955494850E+02 -0.46486416780E+02  0.14008121365E+03  0.50400001928E-02 0. -1.
       -1    1    3    3    0  502  0.95858528072E+02  0.90955494850E+02  0.57202434322E+03  0.58708909776E+03  0.50400001928E-02 0.  1.
</event>
<event>
 5   0  0.7781754E-02  0.4865933E+03  0.7818609E-02  0.1017339E+00
        1   -1    0    0  501    0  0.00000000000E+00  0.00000000000E+00  0.16049908508E+03  0.16049908516E+03  0.50400001928E-02 0. -1.
       -1   -1    0    0    0  501  0.00000000000E+00  0.00000000000E+00 -0.36880752549E+03  0.36880752552E+03  0.50400001928E-02 0.  1.
    10030    2    1    2    0    0  0.00000000000E+00  0.00000000000E+00 -0.20830844040E+03  0.52930661068E+03  0.48659334333E+03 0.  0.
        2    1    3    3  502    0  0.37982160712E+02  0.11755209126E+03 -0.33215287954E+03  0.35438210181E+03  0.25500000920E-02 0.  1.
       -2    1    3    3    0  502 -0.37982160712E+02 -0.11755209126E+03  0.12384443914E+03  0.17492450887E+03  0.25500000920E-02 0. -1.
</event>
<event>
 5   0  0.1191894E-01  0.5033890E+03  0.7818609E-02  0.1012898E+00
        2   -1    0    0  501    0  0.00000000000E+00  0.00000000000E+00  0.79179653648E+03  0.79179653648E+03  0.25500000920E-02 0.  1.
       -2   -1    0    0    0  501  0.00000000000E+00  0.00000000000E+00 -0.80008076087E+02  0.80008076128E+02  0.25500000920E-02 0. -1.
    10030    2    1    2    0    0  0.00000000000E+00  0.00000000000E+00  0.71178846039E+03  0.87180461261E+03  0.50338898500E+03 0.  0.
        3    1    3    3  502    0  0.16893359739E+03  0.74240813607E+02  0.65234196935E+03  0.67793828178E+03  0.10100000352E+00 0.  1.
       -3    1    3    3    0  502 -0.16893359739E+03 -0.74240813607E+02  0.59446491045E+02  0.19386633083E+03  0.10100000352E+00 0. -1.
</event>
<event>
 5   0  0.1279188E-01  0.4996027E+03  0.7818609E-02  0.1013883E+00
       -2   -1    0    0    0  501  0.00000000000E+00  0.00000000000E+00  0.14062145898E+03  0.14062145901E+03  0.25500000920E-02 0. -1.
        2   -1    0    0  501    0  0.00000000000E+00  0.00000000000E+00 -0.44374964302E+03  0.44374964303E+03  0.25500000920E-02 0.  1.
    10030    2    1    2    0    0  0.00000000000E+00  0.00000000000E+00 -0.30312818404E+03  0.58437110203E+03  0.49960273111E+03 0.  0.
        2    1    3    3  502    0 -0.11375373914E+03 -0.64596349335E+02 -0.40048196270E+03  0.42130559452E+03  0.25500000920E-02 0.  1.
       -2    1    3    3    0  502  0.11375373914E+03  0.64596349335E+02  0.97353778664E+02  0.16306550752E+03  0.25500000920E-02 0. -1.
</event>
<event>
 5   0  0.1279188E-01  0.5065139E+03  0.7818609E-02  0.1012093E+00
        2   -1    0    0  501    0  0.00000000000E+00  0.00000000000E+00  0.11160678757E+04  0.11160678757E+04  0.25500000920E-02 0. -1.
       -2   -1    0    0    0  501  0.00000000000E+00  0.00000000000E+00 -0.57468807961E+02  0.57468808018E+02  0.25500000920E-02 0.  1.
    10030    2    1    2    0    0  0.00000000000E+00  0.00000000000E+00  0.10585990677E+04  0.11735366837E+04  0.50651393053E+03 0.  0.
        2    1    3    3  502    0 -0.19310783525E+03 -0.37924226141E+02  0.89862510771E+03  0.91992171796E+03  0.25500000920E-02 0. -1.
       -2    1    3    3    0  502  0.19310783525E+03  0.37924226141E+02  0.15997396002E+03  0.25361496575E+03  0.25500000920E-02 0.  1.
</event>
<event>
 5   0  0.7781754E-02  0.4911270E+03  0.7818609E-02  0.1016121E+00
       -1   -1    0    0    0  501  0.00000000000E+00  0.00000000000E+00  0.81764562400E+02  0.81764562555E+02  0.50400001928E-02 0. -1.
        1   -1    0    0  501    0  0.00000000000E+00  0.00000000000E+00 -0.73750069836E+03  0.73750069838E+03  0.50400001928E-02 0.  1.
    10030    2    1    2    0    0  0.00000000000E+00  0.00000000000E+00 -0.65573613596E+03  0.81926526094E+03  0.49112695687E+03 0.  0.
        2    1    3    3  502    0 -0.22361359093E+03 -0.80928849061E+02 -0.22573109059E+03  0.32788266488E+03  0.25500000920E-02 0. -1.
       -2    1    3    3    0  502  0.22361359093E+03  0.80928849061E+02 -0.43000504537E+03  0.49138259606E+03  0.25500000920E-02 0.  1.
</event>
<event>
 5   0  0.7602288E-02  0.5032859E+03  0.7818609E-02  0.1012925E+00
       -1   -1    0    0    0  501  0.00000000000E+00  0.00000000000E+00  0.18296229464E+03  0.18296229471E+03  0.50400001928E-02 0.  1.
        1   -1    0    0  501    0  0.00000000000E+00  0.00000000000E+00 -0.34610499576E+03  0.34610499580E+03  0.50400001928E-02 0. -1.
    10030    2    1    2    0    0  0.00000000000E+00  0.00000000000E+00 -0.16314270112E+03  0.52906729051E+03  0.50328586008E+03 0.  0.
        5    1    3    3  502    0  0.59595062199E+02  0.23154821331E+03  0.77347248085E+00  0.23914187167E+03  0.46999998093E+01 0.  1.
       -5    1    3    3    0  502 -0.59595062199E+02 -0.23154821331E+03 -0.16391617360E+03  0.28992541884E+03  0.46999998093E+01 0. -1.
</event>
<event>
 5   0  0.5006750E-02  0.5009103E+03  0.7818609E-02  0.1013542E+00
        3   -1    0    0  501    0  0.00000000000E+00  0.00000000000E+00  0.32377488694E+02  0.32377646226E+02  0.10100000352E+00 0.  1.
       -3   -1    0    0    0  501  0.00000000000E+00  0.00000000000E+00 -0.19373840707E+04  0.19373840733E+04  0.10100000352E+00 0. -1.
    10030    2    1    2    0    0  0.00000000000E+00  0.00000000000E+00 -0.19050065820E+04  0.19697617195E+04  0.50091032566E+03 0.  0.
        3    1    3    3  502    0 -0.21459095468E+03 -0.12324015937E+03 -0.80069348076E+03  0.83806173701E+03  0.10100000352E+00 0.  1.
       -3    1    3    3    0  502  0.21459095468E+03  0.12324015937E+03 -0.11043131012E+04  0.11316999825E+04  0.10100000352E+00 0. -1.
</event>
<event>
 5   0  0.1231822E-01  0.4432373E+03  0.7818609E-02  0.1029758E+00
       -2   -1    0    0    0  501  0.00000000000E+00  0.00000000000E+00  0.13591567570E+03  0.13591567573E+03  0.25500000920E-02 0. -1.
        2   -1    0    0  501    0  0.00000000000E+00  0.00000000000E+00 -0.36136250204E+03  0.36136250205E+03  0.25500000920E-02 0.  1.
    10030    2    1    2    0    0  0.00000000000E+00  0.00000000000E+00 -0.22544682634E+03  0.49727817778E+03  0.44323731182E+03 0.  0.
        1    1    3    3  502    0  0.16183562531E+03  0.70571713901E+02 -0.26300957550E+03  0.31677306269E+03  0.50400001928E-02 0.  1.
       -1    1    3    3    0  502 -0.16183562531E+03 -0.70571713901E+02  0.37562749157E+02  0.18050511508E+03  0.50400001928E-02 0. -1.
</event>
<event>
 5   0  0.1191894E-01  0.4994808E+03  0.7818609E-02  0.1013915E+00
        2   -1    0    0  501    0  0.00000000000E+00  0.00000000000E+00  0.57203014575E+03  0.57203014575E+03  0.25500000920E-02 0.  1.
       -2   -1    0    0    0  501  0.00000000000E+00  0.00000000000E+00 -0.10903319156E+03  0.10903319159E+03  0.25500000920E-02 0. -1.
    10030    2    1    2    0    0  0.00000000000E+00  0.00000000000E+00  0.46299695419E+03  0.68106333735E+03  0.49948082034E+03 0.  0.
        3    1    3    3  502    0 -0.36322644096E+01  0.72678831579E+02  0.55725348390E+03  0.56198475195E+03  0.10100000352E+00 0.  1.
       -3    1    3    3    0  502  0.36322644096E+01 -0.72678831579E+02 -0.94256529715E+02  0.11907858539E+03  0.10100000352E+00 0. -1.
</event>
<event>
 5   0  0.5006750E-02  0.4589262E+03  0.7818609E-02  0.1025093E+00
       -4   -1    0    0    0  501  0.00000000000E+00  0.00000000000E+00  0.42137068802E+03  0.42137260189E+03  0.12699999809E+01 0.  1.
        4   -1    0    0  501    0  0.00000000000E+00  0.00000000000E+00 -0.12495179784E+03  0.12495825176E+03  0.12699999809E+01 0. -1.
    10030    2    1    2    0    0  0.00000000000E+00  0.00000000000E+00  0.29641889018E+03  0.54633085365E+03  0.45892618490E+03 0.  0.
        4    1    3    3  502    0  0.24765100069E+02 -0.18407474568E+03 -0.12192462882E+02  0.18613729135E+03  0.12699999809E+01 0. -1.
       -4    1    3    3    0  502 -0.24765100069E+02  0.18407474568E+03  0.30861135307E+03  0.36019356230E+03  0.12699999809E+01 0.  1.
</event>
<event>
 5   0  0.1191894E-01  0.5006402E+03  0.7818609E-02  0.1013612E+00
        2   -1    0    0  501    0  0.00000000000E+00  0.00000000000E+00  0.10825984334E+04  0.10825984335E+04  0.25500000920E-02 0. -1.
       -2   -1    0    0    0  501  0.00000000000E+00  0.00000000000E+00 -0.57879410079E+02  0.57879410135E+02  0.25500000920E-02 0.  1.
    10030    2    1    2    0    0  0.00000000000E+00  0.00000000000E+00  0.10247190234E+04  0.11404778436E+04  0.50064022497E+03 0.  0.
        3    1    3    3  502    0 -0.19509536637E+03 -0.34431511766E+02  0.86092488502E+03  0.88342481221E+03  0.10100000352E+00 0. -1.
       -3    1    3    3    0  502  0.19509536637E+03  0.34431511766E+02  0.16379413835E+03  0.25705303137E+03  0.10100000352E+00 0.  1.
</event>
<event>
 5   0  0.1279188E-01  0.4979829E+03  0.7818609E-02  0.1014307E+00
        2   -1    0    0  501    0  0.00000000000E+00  0.00000000000E+00  0.32686409843E+03  0.32686409844E+03  0.25500000920E-02 0. -1.
       -2   -1    0    0    0  501  0.00000000000E+00  0.00000000000E+00 -0.18967127596E+03  0.18967127598E+03  0.25500000920E-02 0.  1.
    10030    2    1    2    0    0  0.00000000000E+00  0.00000000000E+00  0.13719282247E+03  0.51653537442E+03  0.49798285361E+03 0.  0.
        2    1    3    3  502    0 -0.39061337544E+02 -0.58752925263E+01 -0.18640058071E+03  0.19053997914E+03  0.25500000920E-02 0.  1.
       -2    1    3    3    0  502  0.39061337544E+02  0.58752925263E+01  0.32359340319E+03  0.32599539528E+03  0.25500000920E-02 0. -1.
</event>
<event>
 5   0  0.1211345E-01  0.4991254E+03  0.7818609E-02  0.1014007E+00
       -2   -1    0    0    0  501  0.00000000000E+00  0.00000000000E+00  0.17527515391E+03  0.17527515393E+03  0.25500000920E-02 0. -1.
        2   -1    0    0  501    0  0.00000000000E+00  0.00000000000E+00 -0.35533585788E+03  0.35533585789E+03  0.25500000920E-02 0.  1.
    10030    2    1    2    0    0  0.00000000000E+00  0.00000000000E+00 -0.18006070397E+03  0.53061101182E+03  0.49912542386E+03 0.  0.
        5    1    3    3  502    0 -0.95597566133E+02  0.16395721078E+03  0.82171119988E+02  0.20686963184E+03  0.46999998093E+01 0. -1.
       -5    1    3    3    0  502  0.95597566133E+02 -0.16395721078E+03 -0.26223182396E+03  0.32374137998E+03  0.46999998093E+01 0.  1.
</event>
<event>
 5   0  0.7531632E-02  0.4988785E+03  0.7818609E-02  0.1014072E+00
        1   -1    0    0  501    0  0.00000000000E+00  0.00000000000E+00  0.65447973464E+03  0.65447973466E+03  0.50400001928E-02 0.  1.
       -1   -1    0    0    0  501  0.00000000000E+00  0.00000000000E+00 -0.95067777816E+02  0.95067777950E+02  0.50400001928E-02 0. -1.
    10030    2    1    2    0    0  0.00000000000E+00  0.00000000000E+00  0.55941195682E+03  0.74954751261E+03  0.49887847841E+03 0.  0.
        3    1    3    3  502    0  0.71602071011E+02  0.19952805584E+03  0.82192538904E+02  0.22736298136E+03  0.10100000352E+00 0. -1.
       -3    1    3    3    0  502 -0.71602071011E+02 -0.19952805584E+03  0.47721941792E+03  0.52218453125E+03  0.10100000352E+00 0.  1.
</event>
<event>
 5   0  0.7602288E-02  0.4773341E+03  0.7818609E-02  0.1019870E+00
        1   -1    0    0  501    0  0.00000000000E+00  0.00000000000E+00  0.73517608939E+03  0.73517608941E+03  0.50400001928E-02 0.  1.
       -1   -1    0    0    0  501  0.00000000000E+00  0.00000000000E+00 -0.77480708816E+02  0.77480708980E+02  0.50400001928E-02 0. -1.
    10030    2    1    2    0    0  0.00000000000E+00  0.00000000000E+00  0.65769538057E+03  0.81265679839E+03  0.47733411604E+03 0.  0.
        5    1    3    3  502    0  0.17639051757E+03 -0.11188426317E+03  0.52524877986E+03  0.56527875758E+03  0.46999998093E+01 0.  1.
       -5    1    3    3    0  502 -0.17639051757E+03  0.11188426317E+03  0.13244660071E+03  0.24737804080E+03  0.46999998093E+01 0. -1.
</event>
<event>
 5   0  0.1231822E-01  0.4937700E+03  0.7818609E-02  0.1015418E+00
        2   -1    0    0  501    0  0.00000000000E+00  0.00000000000E+00  0.41695862653E+03  0.41695862654E+03  0.25500000920E-02 0.  1.
       -2   -1    0    0    0  501  0.00000000000E+00  0.00000000000E+00 -0.14618286958E+03  0.14618286960E+03  0.25500000920E-02 0. -1.
    10030    2    1    2    0    0  0.00000000000E+00  0.00000000000E+00  0.27077575696E+03  0.56314149614E+03  0.49377002149E+03 0.  0.
        1    1    3    3  502    0  0.97352468576E+02  0.24267120182E+02 -0.12188331847E+03  0.15786684138E+03  0.50400001928E-02 0. -1.
       -1    1    3    3    0  502 -0.97352468576E+02 -0.24267120182E+02  0.39265907542E+03  0.40527465477E+03  0.50400001928E-02 0.  1.
</event>
<event>
 5   0  0.7781754E-02  0.4999621E+03  0.7818609E-02  0.1013789E+00
        1   -1    0    0  501    0  0.00000000000E+00  0.00000000000E+00  0.45943172082E+03  0.45943172085E+03  0.50400001928E-02 0. -1.
       -1   -1    0    0    0  501  0.00000000000E+00  0.00000000000E+00 -0.13601698124E+03  0.13601698133E+03  0.50400001928E-02 0.  1.
    10030    2    1    2    0    0  0.00000000000E+00  0.00000000000E+00  0.32341473958E+03  0.59544870218E+03  0.49996206171E+03 0.  0.
        2    1    3    3  502    0 -0.72057461622E+02  0.16100026764E+03 -0.49259404388E+02  0.18313888960E+03  0.25500000920E-02 0.  1.
       -2    1    3    3    0  502  0.72057461622E+02 -0.16100026764E+03  0.37267414397E+03  0.41230981258E+03  0.25500000920E-02 0. -1.
</event>
<event>
 5   0  0.1279188E-01  0.4985211E+03  0.7818609E-02  0.1014166E+00
       -2   -1    0    0    0  501  0.00000000000E+00  0.00000000000E+00  0.28377744273E+02  0.28377744388E+02  0.25500000920E-02 0.  1.
        2   -1    0    0  501    0  0.00000000000E+00  0.00000000000E+00 -0.21894205187E+04  0.21894205187E+04  0.25500000920E-02 0. -1.
    10030    2    1    2    0    0  0.00000000000E+00  0.00000000000E+00 -0.21610427744E+04  0.22177982631E+04  0.49852107564E+03 0.  0.
        2    1    3    3  502    0  0.61022347477E+02  0.12814876649E+03 -0.19920818992E+04  0.19971319752E+04  0.25500000920E-02 0. -1.
       -2    1    3    3    0  502 -0.61022347477E+02 -0.12814876649E+03 -0.16896087521E+03  0.22066628787E+03  0.25500000920E-02 0.  1.
</event>
<event>
 5   0  0.7416638E-02  0.5025502E+03  0.7818609E-02  0.1013115E+00
       -1   -1    0    0    0  501  0.00000000000E+00  0.00000000000E+00  0.17568291796E+03  0.17568291803E+03  0.50400001928E-02 0. -1.
        1   -1    0    0  501    0  0.00000000000E+00  0.00000000000E+00 -0.35939274804E+03  0.35939274807E+03  0.50400001928E-02 0.  1.
    10030    2    1    2    0    0  0.00000000000E+00  0.00000000000E+00 -0.18370983008E+03  0.53507566610E+03  0.50255016345E+03 0.  0.
        1    1    3    3  502    0  0.80270747229E+02  0.97958882943E+02 -0.32292592201E+03  0.34687243583E+03  0.50400001928E-02 0.  1.
       -1    1    3    3    0  502 -0.80270747229E+02 -0.97958882943E+02  0.13921609193E+03  0.18820323027E+03  0.50400001928E-02 0. -1.
</event>
<event>
 5   0  0.1243803E-01  0.5135743E+03  0.7818609E-02  0.1010295E+00
       -2   -1    0    0    0  501  0.00000000000E+00  0.00000000000E+00  0.37318823045E+02  0.37318823132E+02  0.25500000920E-02 0.  1.
        2   -1    0    0  501    0  0.00000000000E+00  0.00000000000E+00 -0.17669271810E+04  0.17669271810E+04  0.25500000920E-02 0. -1.
    10030    2    1    2    0    0  0.00000000000E+00  0.00000000000E+00 -0.17296083580E+04  0.18042460041E+04  0.51357430964E+03 0.  0.
        4    1    3    3  502    0 -0.15134035729E+03  0.20742427061E+03 -0.85409165429E+03  0.89185363072E+03  0.12699999809E+01 0.  1.
       -4    1    3    3    0  502  0.15134035729E+03 -0.20742427061E+03 -0.87551670366E+03  0.91239237342E+03  0.12699999809E+01 0. -1.
</event>
<event>
 5   0  0.7812547E-02  0.5377385E+03  0.7818609E-02  0.1004372E+00
        1   -1    0    0  501    0  0.00000000000E+00  0.00000000000E+00  0.52865794861E+03  0.52865794863E+03  0.50400001928E-02 0.  1.
       -1   -1    0    0    0  501  0.00000000000E+00  0.00000000000E+00 -0.13674375263E+03  0.13674375272E+03  0.50400001928E-02 0. -1.
    10030    2    1    2    0    0  0.00000000000E+00  0.00000000000E+00  0.39191419598E+03  0.66540170136E+03  0.53773849328E+03 0.  0.
        4    1    3    3  502    0 -0.25037343517E+03  0.41891232526E+02  0.30557302018E+03  0.39726340879E+03  0.12699999809E+01 0.  1.
       -4    1    3    3    0  502  0.25037343517E+03 -0.41891232526E+02  0.86341175805E+02  0.26813829257E+03  0.12699999809E+01 0. -1.
</event>
<event>
 5   0  0.1211345E-01  0.4989524E+03  0.7818609E-02  0.1014053E+00
        2   -1    0    0  501    0  0.00000000000E+00  0.00000000000E+00  0.55027740383E+03  0.55027740383E+03  0.25500000920E-02 0. -1.
       -2   -1    0    0    0  501  0.00000000000E+00  0.00000000000E+00 -0.11310363019E+03  0.11310363022E+03  0.25500000920E-02 0.  1.
    10030    2    1    2    0    0  0.00000000000E+00  0.00000000000E+00  0.43717377364E+03  0.66338103405E+03  0.49895239050E+03 0.  0.
        5    1    3    3  502    0 -0.35970278359E+02  0.21999228722E+03  0.36738825810E+03  0.42975189302E+03  0.46999998093E+01 0.  1.
       -5    1    3    3    0  502  0.35970278359E+02 -0.21999228722E+03  0.69785515533E+02  0.23362914103E+03  0.46999998093E+01 0. -1.
</event>
<event>
 5   0  0.7781754E-02  0.4942526E+03  0.7818609E-02  0.1015290E+00
       -1   -1    0    0    0  501  0.00000000000E+00  0.00000000000E+00  0.25270412120E+02  0.25270412623E+02  0.50400001928E-02 0. -1.
        1   -1    0    0  501    0  0.00000000000E+00  0.00000000000E+00 -0.24167159611E+04  0.24167159611E+04  0.50400001928E-02 0.  1.
    10030    2    1    2    0    0  0.00000000000E+00  0.00000000000E+00 -0.23914455490E+04  0.24419863737E+04  0.49425260317E+03 0.  0.
        2    1    3    3  502    0 -0.44995708114E+02 -0.68741857596E+02 -0.23472641763E+04  0.23487015924E+04  0.25500000920E-02 0.  1.
       -2    1    3    3    0  502  0.44995708114E+02  0.68741857596E+02 -0.44181372711E+02  0.93284781371E+02  0.25500000920E-02 0. -1.
</event>
<event>
 5   0  0.7531632E-02  0.5046895E+03  0.7818609E-02  0.1012562E+00
       -1   -1    0    0    0  501  0.00000000000E+00  0.00000000000E+00  0.14655001710E+03  0.14655001718E+03  0.50400001928E-02 0.  1.
        1   -1    0    0  501    0  0.00000000000E+00  0.00000000000E+00 -0.43451288070E+03  0.43451288073E+03  0.50400001928E-02 0. -1.
    10030    2    1    2    0    0  0.00000000000E+00  0.00000000000E+00 -0.28796286360E+03  0.58106289791E+03  0.50468948921E+03 0.  0.
        3    1    3    3  502    0 -0.28933644104E+02 -0.17330187369E+03  0.64555622849E+02  0.18718475854E+03  0.10100000352E+00 0.  1.
       -3    1    3    3    0  502  0.28933644104E+02  0.17330187369E+03 -0.35251848645E+03  0.39387813938E+03  0.10100000352E+00 0. -1.
</event>
<event>
 5   0  0.1231822E-01  0.5070425E+03  0.7818609E-02  0.1011957E+00
        2   -1    0    0  501    0  0.00000000000E+00  0.00000000000E+00  0.26457402597E+04  0.26457402597E+04  0.25500000920E-02 0.  1.
       -2   -1    0    0    0  501  0.00000000000E+00  0.00000000000E+00 -0.24293023785E+02  0.24293023918E+02  0.25500000920E-02 0. -1.
    10030    2    1    2    0    0  0.00000000000E+00  0.00000000000E+00  0.26214472359E+04  0.26700332836E+04  0.50704252775E+03 0.  0.
        1    1    3    3  502    0  0.89292594699E+02  0.20316578261E+02  0.65841934526E+02  0.11278781489E+03  0.50400001928E-02 0. -1.
       -1    1    3    3    0  502 -0.89292594699E+02 -0.20316578261E+02  0.25556053013E+04  0.25572454687E+04  0.50400001928E-02 0.  1.
</event>
<event>
 5   0  0.7531632E-02  0.5088020E+03  0.7818609E-02  0.1011507E+00
       -1   -1    0    0    0  501  0.00000000000E+00  0.00000000000E+00  0.81809206734E+03  0.81809206736E+03  0.50400001928E-02 0. -1.
        1   -1    0    0  501    0  0.00000000000E+00  0.00000000000E+00 -0.79110732335E+02  0.79110732495E+02  0.50400001928E-02 0.  1.
    10030    2    1    2    0    0  0.00000000000E+00  0.00000000000E+00  0.73898133501E+03  0.89720279985E+03  0.50880197580E+03 0.  0.
        3    1    3    3  502    0 -0.54084911552E+02  0.33408182288E+02 -0.64879002689E+02  0.90832700567E+02  0.10100000352E+00 0.  1.
       -3    1    3    3    0  502  0.54084911552E+02 -0.33408182288E+02  0.80386033769E+03  0.80637009928E+03  0.10100000352E+00 0. -1.
</event>
<event>
 5   0  0.1231822E-01  0.4917906E+03  0.7818609E-02  0.1015944E+00
       -2   -1    0    0    0  501  0.00000000000E+00  0.00000000000E+00  0.40839975858E+02  0.40839975938E+02  0.25500000920E-02 0.  1.
        2   -1    0    0  501    0  0.00000000000E+00  0.00000000000E+00 -0.14805221188E+04  0.14805221188E+04  0.25500000920E-02 0. -1.
    10030    2    1    2    0    0  0.00000000000E+00  0.00000000000E+00 -0.14396821429E+04  0.15213620947E+04  0.49179055562E+03 0.  0.
        1    1    3    3  502    0  0.69102344401E+02  0.21998748943E+03 -0.45562402597E+03  0.51064947133E+03  0.50400001928E-02 0.  1.
       -1    1    3    3    0  502 -0.69102344401E+02 -0.21998748943E+03 -0.98405811693E+03  0.10107126234E+04  0.50400001928E-02 0. -1.
</event>
<event>
 5   0  0.7531632E-02  0.4937351E+03  0.7818609E-02  0.1015427E+00
        1   -1    0    0  501    0  0.00000000000E+00  0.00000000000E+00  0.19038453948E+04  0.19038453948E+04  0.50400001928E-02 0.  1.
       -1   -1    0    0    0  501  0.00000000000E+00  0.00000000000E+00 -0.32010784418E+02  0.32010784815E+02  0.50400001928E-02 0. -1.
    10030    2    1    2    0    0  0.00000000000E+00  0.00000000000E+00  0.18718346104E+04  0.19358561796E+04  0.49373509047E+03 0.  0.
        3    1    3    3  502    0  0.17322863577E+03  0.17446865998E+03  0.10232474540E+04  0.10523701040E+04  0.10100000352E+00 0.  1.
       -3    1    3    3    0  502 -0.17322863577E+03 -0.17446865998E+03  0.84858715642E+03  0.88348607561E+03  0.10100000352E+00 0. -1.
</event>
<event>
 5   0  0.7602288E-02  0.5019891E+03  0.7818609E-02  0.1013261E+00
        1   -1    0    0  501    0  0.00000000000E+00  0.00000000000E+00  0.11345930599E+04  0.11345930599E+04  0.50400001928E-02 0. -1.
       -1   -1    0    0    0  501  0.00000000000E+00  0.00000000000E+00 -0.55524975960E+02  0.55524976189E+02  0.50400001928E-02 0.  1.
    10030    2    1    2    0    0  0.00000000000E+00  0.00000000000E+00  0.10790680839E+04  0.11901180361E+04  0.50198905373E+03 0.  0.
        5    1    3    3  502    0  0.38822198522E+02  0.98828272478E+02  0.10786092309E+04  0.10838330838E+04  0.46999998093E+01 0. -1.
       -5    1    3    3    0  502 -0.38822198522E+02 -0.98828272478E+02  0.45885302142E+00  0.10628495229E+03  0.46999998093E+01 0.  1.
</event>
<event>
 5   0  0.1243803E-01  0.4995557E+03  0.7818609E-02  0.1013895E+00
        2   -1    0    0  501    0  0.00000000000E+00  0.00000000000E+00  0.12718900658E+03  0.12718900661E+03  0.25500000920E-02 0.  1.
       -2   -1    0    0    0  501  0.00000000000E+00  0.00000000000E+00 -0.49052165420E+03  0.49052165421E+03  0.25500000920E-02 0. -1.
    10030    2    1    2    0    0  0.00000000000E+00  0.00000000000E+00 -0.36333264762E+03  0.61771066081E+03  0.49955565021E+03 0.  0.
        4    1    3    3  502    0  0.69744499329E+02  0.22983199970E+03 -0.26644063615E+03  0.35871892724E+03  0.12699999809E+01 0. -1.
       -4    1    3    3    0  502 -0.69744499329E+02 -0.22983199970E+03 -0.96892011468E+02  0.25899173357E+03  0.12699999809E+01 0.  1.
</event>
<event>
 5   0  0.1279188E-01  0.4931018E+03  0.7818609E-02  0.1015595E+00
       -2   -1    0    0    0  501  0.00000000000E+00  0.00000000000E+00  0.53711085483E+02  0.53711085543E+02  0.25500000920E-02 0.  1.
        2   -1    0    0  501    0  0.00000000000E+00  0.00000000000E+00 -0.11317465985E+04  0.11317465985E+04  0.25500000920E-02 0. -1.
    10030    2    1    2    0    0  0.00000000000E+00  0.00000000000E+00 -0.10780355130E+04  0.11854576840E+04  0.49310176772E+03 0.  0.
        2    1    3    3  502    0 -0.23332030840E+03  0.61320834898E+02 -0.66133639595E+03  0.70396337953E+03  0.25500000920E-02 0. -1.
       -2    1    3    3    0  502  0.23332030840E+03 -0.61320834898E+02 -0.41669911704E+03  0.48149430449E+03  0.25500000920E-02 0.  1.
</event>
<event>
 5   0  0.7812547E-02  0.5288426E+03  0.7818609E-02  0.1006513E+00
       -1   -1    0    0    0  501  0.00000000000E+00  0.00000000000E+00  0.29703704074E+03  0.29703704078E+03  0.50400001928E-02 0. -1.
        1   -1    0    0  501    0  0.00000000000E+00  0.00000000000E+00 -0.23538684871E+03  0.23538684876E+03  0.50400001928E-02 0.  1.
    10030    2    1    2    0    0  0.00000000000E+00  0.00000000000E+00  0.61650192028E+02  0.53242388955E+03  0.52884255878E+03 0.  0.
        4    1    3    3  502    0 -0.90859224939E+02  0.24519008666E+03  0.70377563612E+02  0.27079178664E+03  0.12699999809E+01 0.  1.
       -4    1    3    3    0  502  0.90859224939E+02 -0.24519008666E+03 -0.87273715846E+01  0.26163210290E+03  0.12699999809E+01 0. -1.
</event>
<event>
 5   0  0.5006750E-02  0.4903392E+03  0.7818609E-02  0.1016332E+00
       -3   -1    0    0    0  501  0.00000000000E+00  0.00000000000E+00  0.28177095704E+03  0.28177097514E+03  0.10100000352E+00 0.  1.
        3   -1    0    0  501    0  0.00000000000E+00  0.00000000000E+00 -0.21332264460E+03  0.21332266851E+03  0.10100000352E+00 0. -1.
    10030    2    1    2    0    0  0.00000000000E+00  0.00000000000E+00  0.68448312439E+02  0.49509364365E+03  0.49033921372E+03 0.  0.
        2    1    3    3  502    0  0.20377002360E+03 -0.96550601821E+02  0.13140653689E+03  0.26098260320E+03  0.25500000920E-02 0. -1.
       -2    1    3    3    0  502 -0.20377002360E+03  0.96550601821E+02 -0.62958224450E+02  0.23411104045E+03  0.25500000920E-02 0.  1.
</event>
<event>
 5   0  0.1211345E-01  0.5067424E+03  0.7818609E-02  0.1012034E+00
       -2   -1    0    0    0  501  0.00000000000E+00  0.00000000000E+00  0.37871301703E+02  0.37871301789E+02  0.25500000920E-02 0. -1.
        2   -1    0    0  501    0  0.00000000000E+00  0.00000000000E+00 -0.16951347427E+04  0.16951347427E+04  0.25500000920E-02 0.  1.
    10030    2    1    2    0    0  0.00000000000E+00  0.00000000000E+00 -0.16572634410E+04  0.17330060445E+04  0.50674237772E+03 0.  0.
        5    1    3    3  502    0  0.37075471627E+02  0.13410023370E+03 -0.10463564665E+03  0.17414985450E+03  0.46999998093E+01 0. -1.
       -5    1    3    3    0  502 -0.37075471627E+02 -0.13410023370E+03 -0.15526277944E+04  0.15588561900E+04  0.46999998093E+01 0.  1.
</event>
<event>
 5   0  0.7812547E-02  0.5890403E+03  0.7818609E-02  0.9928408E-01
       -1   -1    0    0    0  501  0.00000000000E+00  0.00000000000E+00  0.16128059088E+03  0.16128059095E+03  0.50400001928E-02 0. -1.
        1   -1    0    0  501    0  0.00000000000E+00  0.00000000000E+00 -0.53783360013E+03  0.53783360015E+03  0.50400001928E-02 0.  1.
    10030    2    1    2    0    0  0.00000000000E+00  0.00000000000E+00 -0.37655300925E+03  0.69911419111E+03  0.58904030713E+03 0.  0.
        4    1    3    3  502    0 -0.91453860964E+02  0.24910034922E+03 -0.33992538671E+03  0.43123737558E+03  0.12699999809E+01 0.  1.
       -4    1    3    3    0  502  0.91453860964E+02 -0.24910034922E+03 -0.36627622541E+02  0.26787681553E+03  0.12699999809E+01 0. -1.
</event>
<event>
 5   0  0.1243803E-01  0.4988367E+03  0.7818609E-02  0.1014083E+00
        2   -1    0    0  501    0  0.00000000000E+00  0.00000000000E+00  0.92414261398E+03  0.92414261398E+03  0.25500000920E-02 0. -1.
       -2   -1    0    0    0  501  0.00000000000E+00  0.00000000000E+00 -0.67315919038E+02  0.67315919087E+02  0.25500000920E-02 0.  1.
    10030    2    1    2    0    0  0.00000000000E+00  0.00000000000E+00  0.85682669494E+03  0.99145853307E+03  0.49883668433E+03 0.  0.
        4    1    3    3  502    0 -0.17924171516E+03 -0.85249977046E+02  0.72860938020E+03  0.75516117012E+03  0.12699999809E+01 0. -1.
       -4    1    3    3    0  502  0.17924171516E+03  0.85249977046E+02  0.12821731474E+03  0.23629736295E+03  0.12699999809E+01 0.  1.
</event>
<event>
 5   0  0.7781754E-02  0.5006545E+03  0.7818609E-02  0.1013608E+00
        1   -1    0    0  501    0  0.00000000000E+00  0.00000000000E+00  0.72160504332E+03  0.72160504334E+03  0.50400001928E-02 0. -1.
       -1   -1    0    0    0  501  0.00000000000E+00  0.00000000000E+00 -0.86839390415E+02  0.86839390561E+02  0.50400001928E-02 0.  1.
    10030    2    1    2    0    0  0.00000000000E+00  0.00000000000E+00  0.63476565290E+03  0.80844443390E+03  0.50065454017E+03 0.  0.
        2    1    3    3  502    0 -0.12874582627E+03  0.15139922080E+03  0.71605105308E+02  0.21124512528E+03  0.25500000920E-02 0.  1.
       -2    1    3    3    0  502  0.12874582627E+03 -0.15139922080E+03  0.56316054760E+03  0.59719930862E+03  0.25500000920E-02 0. -1.
</event>
<event>
 5   0  0.7781754E-02  0.5074189E+03  0.7818609E-02  0.1011860E+00
        1   -1    0    0  501    0  0.00000000000E+00  0.00000000000E+00  0.78185991119E+03  0.78185991121E+03  0.50400001928E-02 0.  1.
       -1   -1    0    0    0  501  0.00000000000E+00  0.00000000000E+00 -0.82327381211E+02  0.82327381365E+02  0.50400001928E-02 0. -1.
    10030    2    1    2    0    0  0.00000000000E+00  0.00000000000E+00  0.69953252998E+03  0.86418729257E+03  0.50741887642E+03 0.  0.
        2    1    3    3  502    0  0.25033386039E+03 -0.32805181400E+02  0.30717988821E+03  0.39762130893E+03  0.25500000920E-02 0. -1.
       -2    1    3    3    0  502 -0.25033386039E+03  0.32805181400E+02  0.39235264177E+03  0.46656598364E+03  0.25500000920E-02 0.  1.
</event>
<event>
 5   0  0.1279188E-01  0.5108056E+03  0.7818609E-02  0.1010996E+00
       -2   -1    0    0    0  501  0.00000000000E+00  0.00000000000E+00  0.87903233984E+02  0.87903234021E+02  0.25500000920E-02 0. -1.
        2   -1    0    0  501    0  0.00000000000E+00  0.00000000000E+00 -0.74207281143E+03  0.74207281143E+03  0.25500000920E-02 0.  1.
    10030    2    1    2    0    0  0.00000000000E+00  0.00000000000E+00 -0.65416957744E+03  0.82997604545E+03  0.51080563816E+03 0.  0.
        2    1    3    3  502    0 -0.15100195514E+03 -0.32785940076E+02 -0.65750691291E+03  0.67541975753E+03  0.25500000920E-02 0.  1.
       -2    1    3    3    0  502  0.15100195514E+03  0.32785940076E+02  0.33373354687E+01  0.15455628793E+03  0.25500000920E-02 0. -1.
</event>
<event>
 5   0  0.7602288E-02  0.5076717E+03  0.7818609E-02  0.1011796E+00
       -1   -1    0    0    0  501  0.00000000000E+00  0.00000000000E+00  0.12929761335E+03  0.12929761345E+03  0.50400001928E-02 0. -1.
        1   -1    0    0  501    0  0.00000000000E+00  0.00000000000E+00 -0.49832822937E+03  0.49832822940E+03  0.50400001928E-02 0.  1.
    10030    2    1    2    0    0  0.00000000000E+00  0.00000000000E+00 -0.36903061602E+03  0.62762584284E+03  0.50767174734E+03 0.  0.
        5    1    3    3  502    0  0.96757184916E+02 -0.38908570385E+02  0.10153053146E+03  0.14562406566E+03  0.46999998093E+01 0. -1.
       -5    1    3    3    0  502 -0.96757184916E+02  0.38908570385E+02 -0.47056114749E+03  0.48200177718E+03  0.46999998093E+01 0.  1.
</event>
<event>
 5   0  0.7812547E-02  0.4826158E+03  0.7818609E-02  0.1018419E+00
        1   -1    0    0  501    0  0.00000000000E+00  0.00000000000E+00  0.43182983106E+03  0.43182983109E+03  0.50400001928E-02 0.  1.
       -1   -1    0    0    0  501  0.00000000000E+00  0.00000000000E+00 -0.13484365795E+03  0.13484365804E+03  0.50400001928E-02 0. -1.
    10030    2    1    2    0    0  0.00000000000E+00  0.00000000000E+00  0.29698617311E+03  0.56667348913E+03  0.48261584750E+03 0.  0.
        4    1    3    3  502    0 -0.11928874982E+02 -0.12447719930E+03 -0.93827542676E+02  0.15633966825E+03  0.12699999809E+01 0. -1.
       -4    1    3    3    0  502  0.11928874982E+02  0.12447719930E+03  0.39081371579E+03  0.41033382087E+03  0.12699999809E+01 0.  1.
</event>
<event>
 5   0  0.7602288E-02  0.5030021E+03  0.7818609E-02  0.1012998E+00
        1   -1    0    0  501    0  0.00000000000E+00  0.00000000000E+00  0.71292069858E+03  0.71292069860E+03  0.50400001928E-02 0. -1.
       -1   -1    0    0    0  501  0.00000000000E+00  0.00000000000E+00 -0.88723456169E+02  0.88723456312E+02  0.50400001928E-02 0.  1.
    10030    2    1    2    0    0  0.00000000000E+00  0.00000000000E+00  0.62419724241E+03  0.80164415491E+03  0.50300214082E+03 0.  0.
        5    1    3    3  502    0  0.11305848134E+03  0.13550622355E+03  0.26620222714E+02  0.17853538327E+03  0.46999998093E+01 0.  1.
       -5    1    3    3    0  502 -0.11305848134E+03 -0.13550622355E+03  0.59757701970E+03  0.62310877164E+03  0.46999998093E+01 0. -1.
</event>
<event>
 5   0  0.1279188E-01  0.5003725E+03  0.7818609E-02  0.1013682E+00
       -2   -1    0    0    0  501  0.00000000000E+00  0.00000000000E+00  0.16279143651E+03  0.16279143653E+03  0.25500000920E-02 0.  1.
        2   -1    0    0  501    0  0.00000000000E+00  0.00000000000E+00 -0.38449904942E+03  0.38449904942E+03  0.25500000920E-02 0. -1.
    10030    2    1    2    0    0  0.00000000000E+00  0.00000000000E+00 -0.22170761290E+03  0.54729048596E+03  0.50037247166E+03 0.  0.
        2    1    3    3  502    0 -0.17792538160E+03  0.47044648425E+01  0.81454983497E+02  0.19574086888E+03  0.25500000920E-02 0.  1.
       -2    1    3    3    0  502  0.17792538160E+03 -0.47044648425E+01 -0.30316259640E+03  0.35154961708E+03  0.25500000920E-02 0. -1.
</event>
<event>
 5   0  0.1279188E-01  0.4972582E+03  0.7818609E-02  0.1014497E+00
       -2   -1    0    0    0  501  0.00000000000E+00  0.00000000000E+00  0.60749932341E+02  0.60749932395E+02  0.25500000920E-02 0. -1.
        2   -1    0    0  501    0  0.00000000000E+00  0.00000000000E+00 -0.10175555888E+04  0.10175555888E+04  0.25500000920E-02 0.  1.
    10030    2    1    2    0    0  0.00000000000E+00  0.00000000000E+00 -0.95680565648E+03  0.10783055212E+04  0.49725821544E+03 0.  0.
        2    1    3    3  502    0  0.15429315297E+03  0.15963443819E+03 -0.23569616094E+03  0.32379346998E+03  0.25500000920E-02 0. -1.
       -2    1    3    3    0  502 -0.15429315297E+03 -0.15963443819E+03 -0.72110949554E+03  0.75451205124E+03  0.25500000920E-02 0.  1.
</event>
<event>
 5   0  0.7812547E-02  0.5055957E+03  0.7818609E-02  0.1012329E+00
        1   -1    0    0  501    0  0.00000000000E+00  0.00000000000E+00  0.11153604066E+04  0.11153604067E+04  0.50400001928E-02 0.  1.
       -1   -1    0    0    0  501  0.00000000000E+00  0.00000000000E+00 -0.57296946731E+02  0.57296946952E+02  0.50400001928E-02 0. -1.
    10030    2    1    2    0    0  0.00000000000E+00  0.00000000000E+00  0.10580634599E+04  0.11726573536E+04  0.50559567222E+03 0.  0.
        4    1    3    3  502    0  0.37554416384E+02 -0.24990817472E+03  0.51423446959E+03  0.57297742765E+03  0.12699999809E+01 0.  1.
       -4    1    3    3    0  502 -0.37554416384E+02  0.24990817472E+03  0.54382899033E+03  0.59967992596E+03  0.12699999809E+01 0. -1.
</event>
<event>
 5   0  0.1191894E-01  0.5012453E+03  0.7818609E-02  0.1013454E+00
        2   -1    0    0  501    0  0.00000000000E+00  0.00000000000E+00  0.11857867104E+03  0.11857867106E+03  0.25500000920E-02 0. -1.
       -2   -1    0    0    0  501  0.00000000000E+00  0.00000000000E+00 -0.52970504894E+03  0.52970504894E+03  0.25500000920E-02 0.  1.
    10030    2    1    2    0    0  0.00000000000E+00  0.00000000000E+00 -0.41112637790E+03  0.64828372001E+03  0.50124533217E+03 0.  0.
        3    1    3    3  502    0 -0.28597334651E+02  0.29228029253E+02 -0.52536149625E+03  0.52695046938E+03  0.10100000352E+00 0.  1.
       -3    1    3    3    0  502  0.28597334651E+02 -0.29228029253E+02  0.11423511834E+03  0.12133325062E+03  0.10100000352E+00 0. -1.
</event>
<event>
 5   0  0.1191894E-01  0.5038311E+03  0.7818609E-02  0.1012784E+00
        2   -1    0    0  501    0  0.00000000000E+00  0.00000000000E+00  0.51861819891E+03  0.51861819891E+03  0.25500000920E-02 0.  1.
       -2   -1    0    0    0  501  0.00000000000E+00  0.00000000000E+00 -0.12236638130E+03  0.12236638133E+03  0.25500000920E-02 0. -1.
    10030    2    1    2    0    0  0.00000000000E+00  0.00000000000E+00  0.39625181761E+03  0.64098458024E+03  0.50383105219E+03 0.  0.
        3    1    3    3  502    0  0.48589124633E+02 -0.22930765375E+03  0.80705199507E+02  0.24790369608E+03  0.10100000352E+00 0. -1.
       -3    1    3    3    0  502 -0.48589124633E+02  0.22930765375E+03  0.31554661810E+03  0.39308088417E+03  0.10100000352E+00 0.  1.
</event>
<event>
 5   0  0.1243803E-01  0.4984810E+03  0.7818609E-02  0.1014176E+00
       -2   -1    0    0    0  501  0.00000000000E+00  0.00000000000E+00  0.56794272314E+03  0.56794272315E+03  0.25500000920E-02 0.  1.
        2   -1    0    0  501    0  0.00000000000E+00  0.00000000000E+00 -0.10937869500E+03  0.10937869503E+03  0.25500000920E-02 0. -1.
    10030    2    1    2    0    0  0.00000000000E+00  0.00000000000E+00  0.45856402814E+03  0.67732141818E+03  0.49848102834E+03 0.  0.
        4    1    3    3  502    0 -0.78425920382E+02  0.12862392437E+03 -0.40510051576E+02  0.15600453868E+03  0.12699999809E+01 0. -1.
       -4    1    3    3    0  502  0.78425920382E+02 -0.12862392437E+03  0.49907407971E+03  0.52131687950E+03  0.12699999809E+01 0.  1.
</event>
<event>
 5   0  0.7812547E-02  0.4979054E+03  0.7818609E-02  0.1014327E+00
        1   -1    0    0  501    0  0.00000000000E+00  0.00000000000E+00  0.50613362076E+03  0.50613362078E+03  0.50400001928E-02 0. -1.
       -1   -1    0    0    0  501  0.00000000000E+00  0.00000000000E+00 -0.12245275280E+03  0.12245275291E+03  0.50400001928E-02 0.  1.
    10030    2    1    2    0    0  0.00000000000E+00  0.00000000000E+00  0.38368086795E+03  0.62858637369E+03  0.49790543355E+03 0.  0.
        4    1    3    3  502    0 -0.11857517038E+03 -0.20857297379E+03  0.27570708197E+03  0.36548428745E+03  0.12699999809E+01 0. -1.
       -4    1    3    3    0  502  0.11857517038E+03  0.20857297379E+03  0.10797378599E+03  0.26310208624E+03  0.12699999809E+01 0.  1.
</event>
<event>
 5   0  0.7812547E-02  0.5455738E+03  0.7818609E-02  0.1002524E+00
        1   -1    0    0  501    0  0.00000000000E+00  0.00000000000E+00  0.58372695560E+03  0.58372695562E+03  0.50400001928E-02 0. -1.
       -1   -1    0    0    0  501  0.00000000000E+00  0.00000000000E+00 -0.12747860485E+03  0.12747860495E+03  0.50400001928E-02 0.  1.
    10030    2    1    2    0    0  0.00000000000E+00  0.00000000000E+00  0.45624835074E+03  0.71120556057E+03  0.54557381886E+03 0.  0.
        4    1    3    3  502    0 -0.12491023292E+03 -0.23940008982E+03  0.27854665762E+03  0.38794951046E+03  0.12699999809E+01 0.  1.
       -4    1    3    3    0  502  0.12491023292E+03  0.23940008982E+03  0.17770169312E+03  0.32325605011E+03  0.12699999809E+01 0. -1.
</event>
<event>
 5   0  0.1211345E-01  0.5058343E+03  0.7818609E-02  0.1012267E+00
       -2   -1    0    0    0  501  0.00000000000E+00  0.00000000000E+00  0.55701954089E+03  0.55701954089E+03  0.25500000920E-02 0.  1.
        2   -1    0    0  501    0  0.00000000000E+00  0.00000000000E+00 -0.11483812039E+03  0.11483812042E+03  0.25500000920E-02 0. -1.
    10030    2    1    2    0    0  0.00000000000E+00  0.00000000000E+00  0.44218142049E+03  0.67185766132E+03  0.50583426973E+03 0.  0.
        5    1    3    3  502    0 -0.16475617127E+03  0.90062474875E+02  0.44606236519E+03  0.48399335634E+03  0.46999998093E+01 0.  1.
       -5    1    3    3    0  502  0.16475617127E+03 -0.90062474875E+02 -0.38809446916E+01  0.18786430497E+03  0.46999998093E+01 0. -1.
</event>
<event>
 5   0  0.7812547E-02  0.4982131E+03  0.7818609E-02  0.1014246E+00
       -1   -1    0    0    0  501  0.00000000000E+00  0.00000000000E+00  0.44978786216E+03  0.44978786219E+03  0.50400001928E-02 0. -1.
        1   -1    0    0  501    0  0.00000000000E+00  0.00000000000E+00 -0.13796298549E+03  0.13796298559E+03  0.50400001928E-02 0.  1.
    10030    2    1    2    0    0  0.00000000000E+00  0.00000000000E+00  0.31182487667E+03  0.58775084778E+03  0.49821311239E+03 0.  0.
        4    1    3    3  502    0 -0.10343209060E+03 -0.31253947764E+02 -0.10887430032E+03  0.15339567395E+03  0.12699999809E+01 0.  1.
       -4    1    3    3    0  502  0.10343209060E+03  0.31253947764E+02  0.42069917699E+03  0.43435517383E+03  0.12699999809E+01 0. -1.
</event>
<event>
 5   0  0.1191894E-01  0.4936429E+03  0.7818609E-02  0.1015452E+00
        2   -1    0    0  501    0  0.00000000000E+00  0.00000000000E+00  0.97688859459E+02  0.97688859492E+02  0.25500000920E-02 0. -1.
       -2   -1    0    0    0  501  0.00000000000E+00  0.00000000000E+00 -0.62362113251E+03  0.62362113252E+03  0.25500000920E-02 0.  1.
    10030    2    1    2    0    0  0.00000000000E+00  0.00000000000E+00 -0.52593227305E+03  0.72130999201E+03  0.49364293648E+03 0.  0.
        3    1    3    3  502    0  0.11124995665E+03 -0.15987250779E+03 -0.41436518596E+02  0.19913002505E+03  0.10100000352E+00 0. -1.
       -3    1    3    3    0  502 -0.11124995665E+03  0.15987250779E+03 -0.48449575446E+03  0.52217996696E+03  0.10100000352E+00 0.  1.
</event>
<event>
 5   0  0.1191894E-01  0.4804335E+03  0.7818609E-02  0.1019016E+00
       -2   -1    0    0    0  501  0.00000000000E+00  0.00000000000E+00  0.13292498209E+03  0.13292498211E+03  0.25500000920E-02 0. -1.
        2   -1    0    0  501    0  0.00000000000E+00  0.00000000000E+00 -0.43411011119E+03  0.43411011120E+03  0.25500000920E-02 0.  1.
    10030    2    1    2    0    0  0.00000000000E+00  0.00000000000E+00 -0.30118512911E+03  0.56703509331E+03  0.48043346579E+03 0.  0.
        3    1    3    3  502    0 -0.23907243377E+02  0.23976351805E+02  0.13009446985E+03  0.13442843084E+03  0.10100000352E+00 0. -1.
       -3    1    3    3    0  502  0.23907243377E+02 -0.23976351805E+02 -0.43127959896E+03  0.43260666247E+03  0.10100000352E+00 0.  1.
</event>
<event>
 5   0  0.7812547E-02  0.5006577E+03  0.7818609E-02  0.1013607E+00
       -1   -1    0    0    0  501  0.00000000000E+00  0.00000000000E+00  0.30460439490E+02  0.30460439907E+02  0.50400001928E-02 0.  1.
        1   -1    0    0  501    0  0.00000000000E+00  0.00000000000E+00 -0.20572434735E+04  0.20572434735E+04  0.50400001928E-02 0. -1.
    10030    2    1    2    0    0  0.00000000000E+00  0.00000000000E+00 -0.20267830340E+04  0.20877039134E+04  0.50065773051E+03 0.  0.
        4    1    3    3  502    0  0.16623212468E+03  0.18574358574E+03 -0.91747161082E+03  0.95073107053E+03  0.12699999809E+01 0. -1.
       -4    1    3    3    0  502 -0.16623212468E+03 -0.18574358574E+03 -0.11093114232E+04  0.11369728429E+04  0.12699999809E+01 0.  1.
</event>
<event>
 5   0  0.7531632E-02  0.5028919E+03  0.7818609E-02  0.1013027E+00
       -1   -1    0    0    0  501  0.00000000000E+00  0.00000000000E+00  0.37502635236E+02  0.37502635574E+02  0.50400001928E-02 0. -1.
        1   -1    0    0  501    0  0.00000000000E+00  0.00000000000E+00 -0.16858832906E+04  0.16858832906E+04  0.50400001928E-02 0.  1.
    10030    2    1    2    0    0  0.00000000000E+00  0.00000000000E+00 -0.16483806554E+04  0.17233859262E+04  0.50289190248E+03 0.  0.
        3    1    3    3  502    0 -0.22914145371E+03 -0.98948998781E+02 -0.92860531508E+03  0.96156359725E+03  0.10100000352E+00 0. -1.
       -3    1    3    3    0  502  0.22914145371E+03  0.98948998781E+02 -0.71977534028E+03  0.76182232892E+03  0.10100000352E+00 0.  1.
</event>
<event>
 5   0  0.7812547E-02  0.5461017E+03  0.7818609E-02  0.1002400E+00
        1   -1    0    0  501    0  0.00000000000E+00  0.00000000000E+00  0.27353864566E+04  0.27353864566E+04  0.50400001928E-02 0.  1.
       -1   -1    0    0    0  501  0.00000000000E+00  0.00000000000E+00 -0.27256390786E+02  0.27256391252E+02  0.50400001928E-02 0. -1.
    10030    2    1    2    0    0  0.00000000000E+00  0.00000000000E+00  0.27081300658E+04  0.27626428479E+04  0.54610168600E+03 0.  0.
        4    1    3    3  502    0 -0.16503332380E+03  0.15686556259E+03  0.21164638889E+04  0.21286765392E+04  0.12699999809E+01 0.  1.
       -4    1    3    3    0  502  0.16503332380E+03 -0.15686556259E+03  0.59166617696E+03  0.63396630868E+03  0.12699999809E+01 0. -1.
</event>
<event>
 5   0  0.1211345E-01  0.4963264E+03  0.7818609E-02  0.1014742E+00
        2   -1    0    0  501    0  0.00000000000E+00  0.00000000000E+00  0.30343473617E+03  0.30343473618E+03  0.25500000920E-02 0. -1.
       -2   -1    0    0    0  501  0.00000000000E+00  0.00000000000E+00 -0.20295955548E+03  0.20295955550E+03  0.25500000920E-02 0.  1.
    10030    2    1    2    0    0  0.00000000000E+00  0.00000000000E+00  0.10047518069E+03  0.50639429168E+03  0.49632642154E+03 0.  0.
        5    1    3    3  502    0  0.59577478953E+02  0.15019579539E+03 -0.14187592691E+03  0.21507933789E+03  0.46999998093E+01 0.  1.
       -5    1    3    3    0  502 -0.59577478953E+02 -0.15019579539E+03  0.24235110760E+03  0.29131495380E+03  0.46999998093E+01 0. -1.
</event>
<event>
 5   0  0.7812547E-02  0.4962658E+03  0.7818609E-02  0.1014758E+00
        1   -1    0    0  501    0  0.00000000000E+00  0.00000000000E+00  0.10684198478E+04  0.10684198478E+04  0.50400001928E-02 0. -1.
       -1   -1    0    0    0  501  0.00000000000E+00  0.00000000000E+00 -0.57627107139E+02  0.57627107359E+02  0.50400001928E-02 0.  1.
    10030    2    1    2    0    0  0.00000000000E+00  0.00000000000E+00  0.10107927407E+04  0.11260469552E+04  0.49626583671E+03 0.  0.
        4    1    3    3  502    0  0.43997758465E+02  0.19735488622E+03  0.17906790393E+03  0.27009568856E+03  0.12699999809E+01 0.  1.
       -4    1    3    3    0  502 -0.43997758465E+02 -0.19735488622E+03  0.83172483677E+03  0.85595126664E+03  0.12699999809E+01 0. -1.
</event>
<event>
 5   0  0.7602288E-02  0.5054864E+03  0.7818609E-02  0.1012357E+00
       -1   -1    0    0    0  501  0.00000000000E+00  0.00000000000E+00  0.29689818020E+03  0.29689818024E+03  0.50400001928E-02 0. -1.
        1   -1    0    0  501    0  0.00000000000E+00  0.00000000000E+00 -0.21515502014E+03  0.21515502020E+03  0.50400001928E-02 0.  1.
    10030    2    1    2    0    0  0.00000000000E+00  0.00000000000E+00  0.81743160060E+02  0.51205320044E+03  0.50548643489E+03 0.  0.
        5    1    3    3  502    0 -0.97568020989E+02  0.84922498621E+02  0.26077625447E+03  0.29113174747E+03  0.46999998093E+01 0. -1.
       -5    1    3    3    0  502  0.97568020989E+02 -0.84922498621E+02 -0.17903309441E+03  0.22092145297E+03  0.46999998093E+01 0.  1.
</event>
<event>
 5   0  0.7781754E-02  0.4696467E+03  0.7818609E-02  0.1022020E+00
       -1   -1    0    0    0  501  0.00000000000E+00  0.00000000000E+00  0.24011422747E+02  0.24011423276E+02  0.50400001928E-02 0. -1.
        1   -1    0    0  501    0  0.00000000000E+00  0.00000000000E+00 -0.22964906860E+04  0.22964906860E+04  0.50400001928E-02 0.  1.
    10030    2    1    2    0    0  0.00000000000E+00  0.00000000000E+00 -0.22724792633E+04  0.23205021093E+04  0.46964671538E+03 0.  0.
        2    1    3    3  502    0  0.17687218676E+03  0.25314045923E+02 -0.18891058750E+04  0.18975367133E+04  0.25500000920E-02 0.  1.
       -2    1    3    3    0  502 -0.17687218676E+03 -0.25314045923E+02 -0.38337338826E+03  0.42296539599E+03  0.25500000920E-02 0. -1.
</event>
<event>
 5   0  0.7602288E-02  0.5012576E+03  0.7818609E-02  0.1013451E+00
       -1   -1    0    0    0  501  0.00000000000E+00  0.00000000000E+00  0.21737506133E+03  0.21737506139E+03  0.50400001928E-02 0. -1.
        1   -1    0    0  501    0  0.00000000000E+00  0.00000000000E+00 -0.28896967089E+03  0.28896967094E+03  0.50400001928E-02 0.  1.
    10030    2    1    2    0    0  0.00000000000E+00  0.00000000000E+00 -0.71594609565E+02  0.50634473232E+03  0.50125761823E+03 0.  0.
        5    1    3    3  502    0 -0.58074114980E+02 -0.23515048507E+03  0.29075609617E+02  0.24399966092E+03  0.46999998093E+01 0.  1.
       -5    1    3    3    0  502  0.58074114980E+02  0.23515048507E+03 -0.10067021918E+03  0.26234507140E+03  0.46999998093E+01 0. -1.
</event>
<event>
 5   0  0.1279188E-01  0.5105093E+03  0.7818609E-02  0.1011072E+00
        2   -1    0    0  501    0  0.00000000000E+00  0.00000000000E+00  0.36977944103E+03  0.36977944104E+03  0.25500000920E-02 0. -1.
       -2   -1    0    0    0  501  0.00000000000E+00  0.00000000000E+00 -0.17619947053E+03  0.17619947055E+03  0.25500000920E-02 0.  1.
    10030    2    1    2    0    0  0.00000000000E+00  0.00000000000E+00  0.19357997050E+03  0.54597891159E+03  0.51050932109E+03 0.  0.
        2    1    3    3  502    0  0.21995109640E+03 -0.68824739815E+02  0.21413872770E+03  0.31459612891E+03  0.25500000920E-02 0. -1.
       -2    1    3    3    0  502 -0.21995109640E+03  0.68824739815E+02 -0.20558757200E+02  0.23138278268E+03  0.25500000920E-02 0.  1.
</event>
<event>
 5   0  0.1243803E-01  0.5155180E+03  0.7818609E-02  0.1009806E+00
        2   -1    0    0  501    0  0.00000000000E+00  0.00000000000E+00  0.18815048890E+03  0.18815048892E+03  0.25500000920E-02 0.  1.
       -2   -1    0    0    0  501  0.00000000000E+00  0.00000000000E+00 -0.35312001778E+03  0.35312001779E+03  0.25500000920E-02 0. -1.
    10030    2    1    2    0    0  0.00000000000E+00  0.00000000000E+00 -0.16496952888E+03  0.54127050671E+03  0.51551800742E+03 0.  0.
        4    1    3    3  502    0 -0.16801148247E+03  0.15997861292E+03  0.35452184263E+02  0.23469018961E+03  0.12699999809E+01 0.  1.
       -4    1    3    3    0  502  0.16801148247E+03 -0.15997861292E+03 -0.20042171314E+03  0.30658031710E+03  0.12699999809E+01 0. -1.
</event>
<event>
 5   0  0.1191894E-01  0.4986718E+03  0.7818609E-02  0.1014126E+00
        2   -1    0    0  501    0  0.00000000000E+00  0.00000000000E+00  0.11100766658E+04  0.11100766658E+04  0.25500000920E-02 0.  1.
       -2   -1    0    0    0  501  0.00000000000E+00  0.00000000000E+00 -0.56003696676E+02  0.56003696734E+02  0.25500000920E-02 0. -1.
    10030    2    1    2    0    0  0.00000000000E+00  0.00000000000E+00  0.10540729691E+04  0.11660803625E+04  0.49867182361E+03 0.  0.
        3    1    3    3  502    0 -0.32289636254E+01  0.76414057038E+02  0.10819694824E+04  0.10846693069E+04  0.10100000352E+00 0.  1.
       -3    1    3    3    0  502  0.32289636254E+01 -0.76414057038E+02 -0.27896513296E+02  0.81411055602E+02  0.10100000352E+00 0. -1.
</event>
<event>
 5   0  0.7812547E-02  0.5123372E+03  0.7818609E-02  0.1010608E+00
        1   -1    0    0  501    0  0.00000000000E+00  0.00000000000E+00  0.19617619432E+03  0.19617619439E+03  0.50400001928E-02 0.  1.
       -1   -1    0    0    0  501  0.00000000000E+00  0.00000000000E+00 -0.33450719768E+03  0.33450719772E+03  0.50400001928E-02 0. -1.
    10030    2    1    2    0    0  0.00000000000E+00  0.00000000000E+00 -0.13833100336E+03  0.53068339210E+03  0.51233718991E+03 0.  0.
        4    1    3    3  502    0  0.18642791371E+03 -0.12449740394E+03 -0.19756304541E+03  0.29881054267E+03  0.12699999809E+01 0. -1.
       -4    1    3    3    0  502 -0.18642791371E+03  0.12449740394E+03  0.59232042050E+02  0.23187284944E+03  0.12699999809E+01 0.  1.
</event>
<event>
 5   0  0.7531632E-02  0.5042158E+03  0.7818609E-02  0.1012684E+00
       -1   -1    0    0    0  501  0.00000000000E+00  0.00000000000E+00  0.26838090840E+03  0.26838090844E+03  0.50400001928E-02 0. -1.
        1   -1    0    0  501    0  0.00000000000E+00  0.00000000000E+00 -0.23682163308E+03  0.23682163313E+03  0.50400001928E-02 0.  1.
    10030    2    1    2    0    0  0.00000000000E+00  0.00000000000E+00  0.31559275315E+02  0.50520254158E+03  0.50421584679E+03 0.  0.
        3    1    3    3  502    0 -0.22771868516E+03 -0.54633848124E+02  0.10933117742E+03  0.25844530077E+03  0.10100000352E+00 0. -1.
       -3    1    3    3    0  502  0.22771868516E+03  0.54633848124E+02 -0.77771902107E+02  0.24675724081E+03  0.10100000352E+00 0.  1.
</event>
<event>
 5   0  0.7602288E-02  0.4989512E+03  0.7818609E-02  0.1014053E+00
       -1   -1    0    0    0  501  0.00000000000E+00  0.00000000000E+00  0.16025733265E+03  0.16025733273E+03  0.50400001928E-02 0.  1.
        1   -1    0    0  501    0  0.00000000000E+00  0.00000000000E+00 -0.38836342962E+03  0.38836342965E+03  0.50400001928E-02 0. -1.
    10030    2    1    2    0    0  0.00000000000E+00  0.00000000000E+00 -0.22810609697E+03  0.54862076238E+03  0.49895124956E+03 0.  0.
        5    1    3    3  502    0 -0.12490233628E+03  0.21258789853E+03 -0.15551327999E+03  0.29154875829E+03  0.46999998093E+01 0.  1.
       -5    1    3    3    0  502  0.12490233628E+03 -0.21258789853E+03 -0.72592816976E+02  0.25707200409E+03  0.46999998093E+01 0. -1.
</event>
<event>
 5   0  0.7602288E-02  0.5054532E+03  0.7818609E-02  0.1012365E+00
       -1   -1    0    0    0  501  0.00000000000E+00  0.00000000000E+00  0.64355083005E+03  0.64355083007E+03  0.50400001928E-02 0. -1.
        1   -1    0    0  501    0  0.00000000000E+00  0.00000000000E+00 -0.99247395458E+02  0.99247395586E+02  0.50400001928E-02 0.  1.
    10030    2    1    2    0    0  0.00000000000E+00  0.00000000000E+00  0.54430343460E+03  0.74279822566E+03  0.50545323733E+03 0.  0.
        5    1    3    3  502    0 -0.24622297493E+03  0.35993608090E+02  0.33666830082E+03  0.41867520584E+03  0.46999998093E+01 0. -1.
       -5    1    3    3    0  502  0.24622297493E+03 -0.35993608090E+02  0.20763513377E+03  0.32412301982E+03  0.46999998093E+01 0.  1.
</event>
<event>
 5   0  0.1279188E-01  0.5005419E+03  0.7818609E-02  0.1013638E+00
       -2   -1    0    0    0  501  0.00000000000E+00  0.00000000000E+00  0.12408958514E+03  0.12408958517E+03  0.25500000920E-02 0.  1.
        2   -1    0    0  501    0  0.00000000000E+00  0.00000000000E+00 -0.50476079579E+03  0.50476079580E+03  0.25500000920E-02 0. -1.
    10030    2    1    2    0    0  0.00000000000E+00  0.00000000000E+00 -0.38067121064E+03  0.62885038096E+03  0.50054193733E+03 0.  0.
        2    1    3    3  502    0  0.17084572432E+03  0.10555235256E+02  0.39048246585E+02  0.17556890407E+03  0.25500000920E-02 0.  1.
       -2    1    3    3    0  502 -0.17084572432E+03 -0.10555235256E+02 -0.41971945723E+03  0.45328147689E+03  0.25500000920E-02 0. -1.
</event>
<event>
 5   0  0.1279188E-01  0.4844058E+03  0.7818609E-02  0.1017931E+00
       -2   -1    0    0    0  501  0.00000000000E+00  0.00000000000E+00  0.20101496162E+03  0.20101496163E+03  0.25500000920E-02 0.  1.
        2   -1    0    0  501    0  0.00000000000E+00  0.00000000000E+00 -0.29183022102E+03  0.29183022103E+03  0.25500000920E-02 0. -1.
    10030    2    1    2    0    0  0.00000000000E+00  0.00000000000E+00 -0.90815259408E+02  0.49284518267E+03  0.48440578314E+03 0.  0.
        2    1    3    3  502    0 -0.26346748343E+02  0.45203970353E+01  0.19950948327E+03  0.20129237209E+03  0.25500000920E-02 0.  1.
       -2    1    3    3    0  502  0.26346748343E+02 -0.45203970353E+01 -0.29032474268E+03  0.29155281058E+03  0.25500000920E-02 0. -1.
</event>
<event>
 5   0  0.7416638E-02  0.5031123E+03  0.7818609E-02  0.1012970E+00
       -1   -1    0    0    0  501  0.00000000000E+00  0.00000000000E+00  0.86117264741E+02  0.86117264888E+02  0.50400001928E-02 0.  1.
        1   -1    0    0  501    0  0.00000000000E+00  0.00000000000E+00 -0.73481788942E+03  0.73481788944E+03  0.50400001928E-02 0. -1.
    10030    2    1    2    0    0  0.00000000000E+00  0.00000000000E+00 -0.64870062468E+03  0.82093515433E+03  0.50311234049E+03 0.  0.
        1    1    3    3  502    0 -0.12554401952E+03  0.16223494658E+03 -0.56192592515E+03  0.59819915088E+03  0.50400001928E-02 0. -1.
       -1    1    3    3    0  502  0.12554401952E+03 -0.16223494658E+03 -0.86774699531E+02  0.22273600345E+03  0.50400001928E-02 0.  1.
</event>
<event>
 5   0  0.7812547E-02  0.4985747E+03  0.7818609E-02  0.1014152E+00
       -1   -1    0    0    0  501  0.00000000000E+00  0.00000000000E+00  0.10614762546E+04  0.10614762546E+04  0.50400001928E-02 0. -1.
        1   -1    0    0  501    0  0.00000000000E+00  0.00000000000E+00 -0.58545049256E+02  0.58545049473E+02  0.50400001928E-02 0.  1.
    10030    2    1    2    0    0  0.00000000000E+00  0.00000000000E+00  0.10029312053E+04  0.11200213041E+04  0.49857468743E+03 0.  0.
        4    1    3    3  502    0 -0.19938853475E+02 -0.20874226345E+03  0.80429187813E+03  0.83117863818E+03  0.12699999809E+01 0. -1.
       -4    1    3    3    0  502  0.19938853475E+02  0.20874226345E+03  0.19863932718E+03  0.28884266588E+03  0.12699999809E+01 0.  1.
</event>
<event>
 5   0  0.1191894E-01  0.4997145E+03  0.7818609E-02  0.1013853E+00
       -2   -1    0    0    0  501  0.00000000000E+00  0.00000000000E+00  0.78843754967E+02  0.78843755008E+02  0.25500000920E-02 0. -1.
        2   -1    0    0  501    0  0.00000000000E+00  0.00000000000E+00 -0.79180191141E+03  0.79180191142E+03  0.25500000920E-02 0.  1.
    10030    2    1    2    0    0  0.00000000000E+00  0.00000000000E+00 -0.71295815645E+03  0.87064566642E+03  0.49971446209E+03 0.  0.
        3    1    3    3  502    0 -0.68954195312E+02 -0.14183602165E+03 -0.18832767461E+02  0.15882953573E+03  0.10100000352E+00 0.  1.
       -3    1    3    3    0  502  0.68954195312E+02  0.14183602165E+03 -0.69412538898E+03  0.71181613070E+03  0.10100000352E+00 0. -1.
</event>
<event>
 5   0  0.1211345E-01  0.5063300E+03  0.7818609E-02  0.1012140E+00
       -2   -1    0    0    0  501  0.00000000000E+00  0.00000000000E+00  0.10528099936E+03  0.10528099939E+03  0.25500000920E-02 0.  1.
        2   -1    0    0  501    0  0.00000000000E+00  0.00000000000E+00 -0.60877561832E+03  0.60877561832E+03  0.25500000920E-02 0. -1.
    10030    2    1    2    0    0  0.00000000000E+00  0.00000000000E+00 -0.50349461896E+03  0.71405661771E+03  0.50632995367E+03 0.  0.
        5    1    3    3  502    0  0.12146882456E+03 -0.93628963717E+02 -0.53572944175E+03  0.55726939889E+03  0.46999998093E+01 0. -1.
       -5    1    3    3    0  502 -0.12146882456E+03  0.93628963717E+02  0.32234822791E+02  0.15678721882E+03  0.46999998093E+01 0.  1.
</event>
<event>
 5   0  0.7781754E-02  0.5010601E+03  0.7818609E-02  0.1013503E+00
        1   -1    0    0  501    0  0.00000000000E+00  0.00000000000E+00  0.47740743014E+03  0.47740743017E+03  0.50400001928E-02 0.  1.
       -1   -1    0    0    0  501  0.00000000000E+00  0.00000000000E+00 -0.13147114253E+03  0.13147114263E+03  0.50400001928E-02 0. -1.
    10030    2    1    2    0    0  0.00000000000E+00  0.00000000000E+00  0.34593628762E+03  0.60887857280E+03  0.50106007756E+03 0.  0.
        2    1    3    3  502    0  0.54946971497E+02 -0.18061318021E+03 -0.27168144604E+02  0.19073122091E+03  0.25500000920E-02 0. -1.
       -2    1    3    3    0  502 -0.54946971497E+02  0.18061318021E+03  0.37310443222E+03  0.41814735189E+03  0.25500000920E-02 0.  1.
</event>
<event>
 5   0  0.7781754E-02  0.5012846E+03  0.7818609E-02  0.1013444E+00
       -1   -1    0    0    0  501  0.00000000000E+00  0.00000000000E+00  0.30716664432E+03  0.30716664437E+03  0.50400001928E-02 0.  1.
        1   -1    0    0  501    0  0.00000000000E+00  0.00000000000E+00 -0.20451950782E+03  0.20451950788E+03  0.50400001928E-02 0. -1.
    10030    2    1    2    0    0  0.00000000000E+00  0.00000000000E+00  0.10264713650E+03  0.51168615225E+03  0.50128463349E+03 0.  0.
        2    1    3    3  502    0 -0.22160742102E+03  0.82161665389E+01  0.17055577251E+03  0.27976173074E+03  0.25500000920E-02 0.  1.
       -2    1    3    3    0  502  0.22160742102E+03 -0.82161665389E+01 -0.67908636005E+02  0.23192442151E+03  0.25500000920E-02 0. -1.
</event>
<event>
 5   0  0.7531632E-02  0.4913697E+03  0.7818609E-02  0.1016056E+00
       -1   -1    0    0    0  501  0.00000000000E+00  0.00000000000E+00  0.24262004142E+03  0.24262004148E+03  0.50400001928E-02 0. -1.
        1   -1    0    0  501    0  0.00000000000E+00  0.00000000000E+00 -0.24878839570E+03  0.24878839575E+03  0.50400001928E-02 0.  1.
    10030    2    1    2    0    0  0.00000000000E+00  0.00000000000E+00 -0.61683542788E+01  0.49140843723E+03  0.49136972188E+03 0.  0.
        3    1    3    3  502    0  0.48323023282E+02 -0.57471620602E+02 -0.23703195463E+03  0.24864082423E+03  0.10100000352E+00 0.  1.
       -3    1    3    3    0  502 -0.48323023282E+02  0.57471620602E+02  0.23086360035E+03  0.24276761300E+03  0.10100000352E+00 0. -1.
</event>
<event>
 5   0  0.1191894E-01  0.4989468E+03  0.7818609E-02  0.1014054E+00
       -2   -1    0    0    0  501  0.00000000000E+00  0.00000000000E+00  0.47897326393E+03  0.47897326394E+03  0.25500000920E-02 0.  1.
        2   -1    0    0  501    0  0.00000000000E+00  0.00000000000E+00 -0.12993831973E+03  0.12993831976E+03  0.25500000920E-02 0. -1.
    10030    2    1    2    0    0  0.00000000000E+00  0.00000000000E+00  0.34903494420E+03  0.60891158369E+03  0.49894681529E+03 0.  0.
        3    1    3    3  502    0  0.10362303426E+03  0.63571320618E+02 -0.91343356135E+02  0.15206138545E+03  0.10100000352E+00 0. -1.
       -3    1    3    3    0  502 -0.10362303426E+03 -0.63571320618E+02  0.44037830033E+03  0.45685019825E+03  0.10100000352E+00 0.  1.
</event>
<event>
 5   0  0.7531632E-02  0.5008175E+03  0.7818609E-02  0.1013566E+00
       -1   -1    0    0    0  501  0.00000000000E+00  0.00000000000E+00  0.33821790312E+03  0.33821790316E+03  0.50400001928E-02 0. -1.
        1   -1    0    0  501    0  0.00000000000E+00  0.00000000000E+00 -0.18539686096E+03  0.18539686103E+03  0.50400001928E-02 0.  1.
    10030    2    1    2    0    0  0.00000000000E+00  0.00000000000E+00  0.15282104216E+03  0.52361476419E+03  0.50081748207E+03 0.  0.
        3    1    3    3  502    0  0.50256013269E+02  0.19970071752E+03 -0.72547606483E+02  0.21833279381E+03  0.10100000352E+00 0.  1.
       -3    1    3    3    0  502 -0.50256013269E+02 -0.19970071752E+03  0.22536864864E+03  0.30528197038E+03  0.10100000352E+00 0. -1.
</event>
<event>
 5   0  0.7781754E-02  0.4939039E+03  0.7818609E-02  0.1015382E+00
        1   -1    0    0  501    0  0.00000000000E+00  0.00000000000E+00  0.45908039972E+03  0.45908039975E+03  0.50400001928E-02 0.  1.
       -1   -1    0    0    0  501  0.00000000000E+00  0.00000000000E+00 -0.13284224105E+03  0.13284224115E+03  0.50400001928E-02 0. -1.
    10030    2    1    2    0    0  0.00000000000E+00  0.00000000000E+00  0.32623815867E+03  0.59192264090E+03  0.49390391438E+03 0.  0.
        2    1    3    3  502    0  0.11611394776E+03  0.13735763280E+03 -0.39684863143E+02  0.18418592922E+03  0.25500000920E-02 0. -1.
       -2    1    3    3    0  502 -0.11611394776E+03 -0.13735763280E+03  0.36592302181E+03  0.40773671168E+03  0.25500000920E-02 0.  1.
</event>
<event>
 5   0  0.1191894E-01  0.4928640E+03  0.7818609E-02  0.1015658E+00
       -2   -1    0    0    0  501  0.00000000000E+00  0.00000000000E+00  0.54228311150E+02  0.54228311210E+02  0.25500000920E-02 0.  1.
        2   -1    0    0  501    0  0.00000000000E+00  0.00000000000E+00 -0.11198711219E+04  0.11198711219E+04  0.25500000920E-02 0. -1.
    10030    2    1    2    0    0  0.00000000000E+00  0.00000000000E+00 -0.10656428108E+04  0.11740994332E+04  0.49286395561E+03 0.  0.
        3    1    3    3  502    0  0.18699088818E+03 -0.59586561949E+02 -0.17778154354E+03  0.26480641619E+03  0.10100000352E+00 0.  1.
       -3    1    3    3    0  502 -0.18699088818E+03  0.59586561949E+02 -0.88786126725E+03  0.90929301697E+03  0.10100000352E+00 0. -1.
</event>
<event>
 5   0  0.1211345E-01  0.5081963E+03  0.7818609E-02  0.1011661E+00
        2   -1    0    0  501    0  0.00000000000E+00  0.00000000000E+00  0.63433031195E+03  0.63433031195E+03  0.25500000920E-02 0. -1.
       -2   -1    0    0    0  501  0.00000000000E+00  0.00000000000E+00 -0.10178588269E+03  0.10178588272E+03  0.25500000920E-02 0.  1.
    10030    2    1    2    0    0  0.00000000000E+00  0.00000000000E+00  0.53254442926E+03  0.73611619467E+03  0.50819630353E+03 0.  0.
        5    1    3    3  502    0  0.15817343819E+03  0.15378400138E+03  0.83766044191E+02  0.23602371869E+03  0.46999998093E+01 0.  1.
       -5    1    3    3    0  502 -0.15817343819E+03 -0.15378400138E+03  0.44877838507E+03  0.50009247598E+03  0.46999998093E+01 0. -1.
</event>
<event>
 5   0  0.1211345E-01  0.4984478E+03  0.7818609E-02  0.1014185E+00
       -2   -1    0    0    0  501  0.00000000000E+00  0.00000000000E+00  0.88536004697E+02  0.88536004734E+02  0.25500000920E-02 0.  1.
        2   -1    0    0  501    0  0.00000000000E+00  0.00000000000E+00 -0.70155136468E+03  0.70155136469E+03  0.25500000920E-02 0. -1.
    10030    2    1    2    0    0  0.00000000000E+00  0.00000000000E+00 -0.61301535998E+03  0.79008736942E+03  0.49844781045E+03 0.  0.
        5    1    3    3  502    0  0.16741386815E+03 -0.14340565653E+03 -0.12235069436E+03  0.25215940987E+03  0.46999998093E+01 0.  1.
       -5    1    3    3    0  502 -0.16741386815E+03  0.14340565653E+03 -0.49066466563E+03  0.53792795955E+03  0.46999998093E+01 0. -1.
</event>
<event>
 5   0  0.1211345E-01  0.4836423E+03  0.7818609E-02  0.1018139E+00
        2   -1    0    0  501    0  0.00000000000E+00  0.00000000000E+00  0.12322437282E+04  0.12322437282E+04  0.25500000920E-02 0.  1.
       -2   -1    0    0    0  501  0.00000000000E+00  0.00000000000E+00 -0.47456095153E+02  0.47456095222E+02  0.25500000920E-02 0. -1.
    10030    2    1    2    0    0  0.00000000000E+00  0.00000000000E+00  0.11847876330E+04  0.12796998234E+04  0.48364232925E+03 0.  0.
        5    1    3    3  502    0 -0.14774485309E+03 -0.13728369247E+03  0.23957635336E+03  0.31320005256E+03  0.46999998093E+01 0. -1.
       -5    1    3    3    0  502  0.14774485309E+03  0.13728369247E+03  0.94521127965E+03  0.96649977083E+03  0.46999998093E+01 0.  1.
</event>
<event>
 5   0  0.1279188E-01  0.5006915E+03  0.7818609E-02  0.1013599E+00
        2   -1    0    0  501    0  0.00000000000E+00  0.00000000000E+00  0.56863937925E+03  0.56863937925E+03  0.25500000920E-02 0. -1.
       -2   -1    0    0    0  501  0.00000000000E+00  0.00000000000E+00 -0.11021570766E+03  0.11021570769E+03  0.25500000920E-02 0.  1.
    10030    2    1    2    0    0  0.00000000000E+00  0.00000000000E+00  0.45842367158E+03  0.67885508694E+03  0.50069148824E+03 0.  0.
        2    1    3    3  502    0 -0.16201906369E+03  0.12637991248E+03  0.42310541335E+03  0.47036182891E+03  0.25500000920E-02 0. -1.
       -2    1    3    3    0  502  0.16201906369E+03 -0.12637991248E+03  0.35318258231E+02  0.20849325804E+03  0.25500000920E-02 0.  1.
</event>
<event>
 5   0  0.1243803E-01  0.5226349E+03  0.7818609E-02  0.1008034E+00
       -2   -1    0    0    0  501  0.00000000000E+00  0.00000000000E+00  0.13314804787E+03  0.13314804790E+03  0.25500000920E-02 0.  1.
        2   -1    0    0  501    0  0.00000000000E+00  0.00000000000E+00 -0.51286369544E+03  0.51286369545E+03  0.25500000920E-02 0. -1.
    10030    2    1    2    0    0  0.00000000000E+00  0.00000000000E+00 -0.37971564757E+03  0.64601174335E+03  0.52263486253E+03 0.  0.
        4    1    3    3  502    0  0.23843778192E+03  0.10220708796E+03 -0.22867746028E+03  0.34582344978E+03  0.12699999809E+01 0.  1.
       -4    1    3    3    0  502 -0.23843778192E+03 -0.10220708796E+03 -0.15103818729E+03  0.30018829357E+03  0.12699999809E+01 0. -1.
</event>
<event>
 5   0  0.1191894E-01  0.4966452E+03  0.7818609E-02  0.1014658E+00
       -2   -1    0    0    0  501  0.00000000000E+00  0.00000000000E+00  0.12421635651E+04  0.12421635651E+04  0.25500000920E-02 0. -1.
        2   -1    0    0  501    0  0.00000000000E+00  0.00000000000E+00 -0.49642515318E+02  0.49642515384E+02  0.25500000920E-02 0.  1.
    10030    2    1    2    0    0  0.00000000000E+00  0.00000000000E+00  0.11925210498E+04  0.12918060805E+04  0.49664524100E+03 0.  0.
        3    1    3    3  502    0  0.15059174054E+03 -0.38784246414E+02  0.92687380823E+02  0.18103328659E+03  0.10100000352E+00 0.  1.
       -3    1    3    3    0  502 -0.15059174054E+03  0.38784246414E+02  0.10998336690E+04  0.11107727939E+04  0.10100000352E+00 0. -1.
</event>
<event>
 5   0  0.1211345E-01  0.5021751E+03  0.7818609E-02  0.1013213E+00
       -2   -1    0    0    0  501  0.00000000000E+00  0.00000000000E+00  0.10552892279E+03  0.10552892282E+03  0.25500000920E-02 0.  1.
        2   -1    0    0  501    0  0.00000000000E+00  0.00000000000E+00 -0.59741882381E+03  0.59741882381E+03  0.25500000920E-02 0. -1.
    10030    2    1    2    0    0  0.00000000000E+00  0.00000000000E+00 -0.49188990101E+03  0.70294774664E+03  0.50217512860E+03 0.  0.
        5    1    3    3  502    0  0.52933553670E+01  0.31743318298E+02 -0.59445789489E+03  0.59534690447E+03  0.46999998093E+01 0. -1.
       -5    1    3    3    0  502 -0.52933553670E+01 -0.31743318298E+02  0.10256799388E+03  0.10760084216E+03  0.46999998093E+01 0.  1.
</event>
<event>
 5   0  0.1231822E-01  0.4957536E+03  0.7818609E-02  0.1014893E+00
        2   -1    0    0  501    0  0.00000000000E+00  0.00000000000E+00  0.67392023834E+03  0.67392023834E+03  0.25500000920E-02 0. -1.
       -2   -1    0    0    0  501  0.00000000000E+00  0.00000000000E+00 -0.91172374062E+02  0.91172374097E+02  0.25500000920E-02 0.  1.
    10030    2    1    2    0    0  0.00000000000E+00  0.00000000000E+00  0.58274786427E+03  0.76509261244E+03  0.49575360038E+03 0.  0.
        1    1    3    3  502    0 -0.14361094709E+03 -0.23620417435E+01 -0.20406307579E+02  0.14507274307E+03  0.50400001928E-02 0.  1.
       -1    1    3    3    0  502  0.14361094709E+03  0.23620417435E+01  0.60315417185E+03  0.62001986937E+03  0.50400001928E-02 0. -1.
</event>
<event>
 5   0  0.7602288E-02  0.5351429E+03  0.7818609E-02  0.1004992E+00
       -1   -1    0    0    0  501  0.00000000000E+00  0.00000000000E+00  0.70801669617E+03  0.70801669619E+03  0.50400001928E-02 0.  1.
        1   -1    0    0  501    0  0.00000000000E+00  0.00000000000E+00 -0.10111975649E+03  0.10111975661E+03  0.50400001928E-02 0. -1.
    10030    2    1    2    0    0  0.00000000000E+00  0.00000000000E+00  0.60689693969E+03  0.80913645280E+03  0.53514288172E+03 0.  0.
        5    1    3    3  502    0 -0.11681494711E+03  0.21948973752E+03  0.45275354516E+03  0.51655526267E+03  0.46999998093E+01 0.  1.
       -5    1    3    3    0  502  0.11681494711E+03 -0.21948973752E+03  0.15414339452E+03  0.29258119013E+03  0.46999998093E+01 0. -1.
</event>
<event>
 5   0  0.1231822E-01  0.4924676E+03  0.7818609E-02  0.1015764E+00
        2   -1    0    0  501    0  0.00000000000E+00  0.00000000000E+00  0.18928085269E+04  0.18928085269E+04  0.25500000920E-02 0.  1.
       -2   -1    0    0    0  501  0.00000000000E+00  0.00000000000E+00 -0.32032338841E+02  0.32032338943E+02  0.25500000920E-02 0. -1.
    10030    2    1    2    0    0  0.00000000000E+00  0.00000000000E+00  0.18607761880E+04  0.19248408658E+04  0.49246759972E+03 0.  0.
        1    1    3    3  502    0  0.12844625250E+03  0.66273658617E+02  0.17095604557E+04  0.17156595203E+04  0.50400001928E-02 0.  1.
       -1    1    3    3    0  502 -0.12844625250E+03 -0.66273658617E+02  0.15121573226E+03  0.20918134553E+03  0.50400001928E-02 0. -1.
</event>
<event>
 5   0  0.7781754E-02  0.5047216E+03  0.7818609E-02  0.1012554E+00
        1   -1    0    0  501    0  0.00000000000E+00  0.00000000000E+00  0.77892577834E+02  0.77892577997E+02  0.50400001928E-02 0.  1.
       -1   -1    0    0    0  501  0.00000000000E+00  0.00000000000E+00 -0.81761270654E+03  0.81761270655E+03  0.50400001928E-02 0. -1.
    10030    2    1    2    0    0  0.00000000000E+00  0.00000000000E+00 -0.73972012870E+03  0.89550528455E+03  0.50472155279E+03 0.  0.
        2    1    3    3  502    0 -0.14046941307E+03 -0.16952104706E+03 -0.58872676040E+03  0.62854454084E+03  0.25500000920E-02 0. -1.
       -2    1    3    3    0  502  0.14046941307E+03  0.16952104706E+03 -0.15099336830E+03  0.26696074370E+03  0.25500000920E-02 0.  1.
</event>
<event>
 5   0  0.1191894E-01  0.4962431E+03  0.7818609E-02  0.1014764E+00
       -2   -1    0    0    0  501  0.00000000000E+00  0.00000000000E+00  0.45370570099E+02  0.45370570170E+02  0.25500000920E-02 0.  1.
        2   -1    0    0  501    0  0.00000000000E+00  0.00000000000E+00 -0.13569216221E+04  0.13569216221E+04  0.25500000920E-02 0. -1.
    10030    2    1    2    0    0  0.00000000000E+00  0.00000000000E+00 -0.13115510520E+04  0.14022921923E+04  0.49624311633E+03 0.  0.
        3    1    3    3  502    0  0.20385759757E+03  0.13455892221E+03 -0.53259214782E+03  0.58593381005E+03  0.10100000352E+00 0.  1.
       -3    1    3    3    0  502 -0.20385759757E+03 -0.13455892221E+03 -0.77895890421E+03  0.81635838226E+03  0.10100000352E+00 0. -1.
</event>
<event>
 5   0  0.7812547E-02  0.4989073E+03  0.7818609E-02  0.1014065E+00
        1   -1    0    0  501    0  0.00000000000E+00  0.00000000000E+00  0.14210141152E+03  0.14210141161E+03  0.50400001928E-02 0.  1.
       -1   -1    0    0    0  501  0.00000000000E+00  0.00000000000E+00 -0.43790652079E+03  0.43790652082E+03  0.50400001928E-02 0. -1.
    10030    2    1    2    0    0  0.00000000000E+00  0.00000000000E+00 -0.29580510928E+03  0.58000793243E+03  0.49890734511E+03 0.  0.
        4    1    3    3  502    0 -0.16590488513E+03 -0.17894430253E+03 -0.87718192328E+02  0.25930983106E+03  0.12699999809E+01 0.  1.
       -4    1    3    3    0  502  0.16590488513E+03  0.17894430253E+03 -0.20808691695E+03  0.32069810137E+03  0.12699999809E+01 0. -1.
</event>
<event>
 5   0  0.7416638E-02  0.4971081E+03  0.7818609E-02  0.1014536E+00
       -1   -1    0    0    0  501  0.00000000000E+00  0.00000000000E+00  0.25948789346E+03  0.25948789351E+03  0.50400001928E-02 0. -1.
        1   -1    0    0  501    0  0.00000000000E+00  0.00000000000E+00 -0.23808096502E+03  0.23808096507E+03  0.50400001928E-02 0.  1.
    10030    2    1    2    0    0  0.00000000000E+00  0.00000000000E+00  0.21406928447E+02  0.49756885858E+03  0.49710814965E+03 0.  0.
        1    1    3    3  502    0  0.10706044713E+02 -0.13523438509E+03 -0.19775901970E+03  0.23981573802E+03  0.50400001928E-02 0.  1.
       -1    1    3    3    0  502 -0.10706044713E+02  0.13523438509E+03  0.21916594815E+03  0.25775312056E+03  0.50400001928E-02 0. -1.
</event>
<event>
 5   0  0.7602288E-02  0.5050909E+03  0.7818609E-02  0.1012459E+00
       -1   -1    0    0    0  501  0.00000000000E+00  0.00000000000E+00  0.11922225720E+04  0.11922225720E+04  0.50400001928E-02 0.  1.
        1   -1    0    0  501    0  0.00000000000E+00  0.00000000000E+00 -0.53496061424E+02  0.53496061661E+02  0.50400001928E-02 0. -1.
    10030    2    1    2    0    0  0.00000000000E+00  0.00000000000E+00  0.11387265105E+04  0.12457186336E+04  0.50509093080E+03 0.  0.
        5    1    3    3  502    0  0.21803905553E+03 -0.23331574272E+01  0.25534811522E+03  0.33581426906E+03  0.46999998093E+01 0. -1.
       -5    1    3    3    0  502 -0.21803905553E+03  0.23331574272E+01  0.88337839533E+03  0.90990436459E+03  0.46999998093E+01 0.  1.
</event>
<event>
 5   0  0.1243803E-01  0.4977375E+03  0.7818609E-02  0.1014371E+00
       -2   -1    0    0    0  501  0.00000000000E+00  0.00000000000E+00  0.13538642183E+03  0.13538642186E+03  0.25500000920E-02 0. -1.
        2   -1    0    0  501    0  0.00000000000E+00  0.00000000000E+00 -0.45747322240E+03  0.45747322240E+03  0.25500000920E-02 0.  1.
    10030    2    1    2    0    0  0.00000000000E+00  0.00000000000E+00 -0.32208680056E+03  0.59285964426E+03  0.49773753193E+03 0.  0.
        4    1    3    3  502    0  0.22275701516E+02 -0.24755919176E+03 -0.17574235461E+03  0.30441542078E+03  0.12699999809E+01 0. -1.
       -4    1    3    3    0  502 -0.22275701516E+02  0.24755919176E+03 -0.14634444595E+03  0.28844422348E+03  0.12699999809E+01 0.  1.
</event>
<event>
 5   0  0.7781754E-02  0.4987161E+03  0.7818609E-02  0.1014115E+00
        1   -1    0    0  501    0  0.00000000000E+00  0.00000000000E+00  0.88682089183E+03  0.88682089184E+03  0.50400001928E-02 0.  1.
       -1   -1    0    0    0  501  0.00000000000E+00  0.00000000000E+00 -0.70114976617E+02  0.70114976798E+02  0.50400001928E-02 0. -1.
    10030    2    1    2    0    0  0.00000000000E+00  0.00000000000E+00  0.81670591521E+03  0.95693586864E+03  0.49871605624E+03 0.  0.
        2    1    3    3  502    0 -0.13783282988E+03 -0.12475103738E+03  0.89470062799E+02  0.20631432927E+03  0.25500000920E-02 0. -1.
       -2    1    3    3    0  502  0.13783282988E+03  0.12475103738E+03  0.72723585241E+03  0.75062153937E+03  0.25500000920E-02 0.  1.
</event>
<event>
 5   0  0.1279188E-01  0.4650110E+03  0.7818609E-02  0.1023338E+00
        2   -1    0    0  501    0  0.00000000000E+00  0.00000000000E+00  0.91110640866E+03  0.91110640866E+03  0.25500000920E-02 0. -1.
       -2   -1    0    0    0  501  0.00000000000E+00  0.00000000000E+00 -0.59333134414E+02  0.59333134468E+02  0.25500000920E-02 0.  1.
    10030    2    1    2    0    0  0.00000000000E+00  0.00000000000E+00  0.85177327425E+03  0.97043954313E+03  0.46501096348E+03 0.  0.
        2    1    3    3  502    0 -0.10391519331E+03 -0.20003509002E+03  0.30698004506E+03  0.38085319049E+03  0.25500000920E-02 0.  1.
       -2    1    3    3    0  502  0.10391519331E+03  0.20003509002E+03  0.54479322919E+03  0.58958635264E+03  0.25500000920E-02 0. -1.
</event>
<event>
 5   0  0.5006750E-02  0.4958587E+03  0.7818609E-02  0.1014866E+00
        3   -1    0    0  501    0  0.00000000000E+00  0.00000000000E+00  0.79453640848E+02  0.79453705043E+02  0.10100000352E+00 0. -1.
       -3   -1    0    0    0  501  0.00000000000E+00  0.00000000000E+00 -0.77364511184E+03  0.77364511843E+03  0.10100000352E+00 0.  1.
    10030    2    1    2    0    0  0.00000000000E+00  0.00000000000E+00 -0.69419147099E+03  0.85309882348E+03  0.49585865347E+03 0.  0.
        1    1    3    3  502    0  0.13186863240E+03  0.10861370921E+03 -0.65621510338E+03  0.67808888501E+03  0.50400001928E-02 0.  1.
       -1    1    3    3    0  502 -0.13186863240E+03 -0.10861370921E+03 -0.37976367608E+02  0.17500993847E+03  0.50400001928E-02 0. -1.
</event>
<event>
 5   0  0.5006750E-02  0.4958454E+03  0.7818609E-02  0.1014869E+00
       -3   -1    0    0    0  501  0.00000000000E+00  0.00000000000E+00  0.86090736951E+03  0.86090737544E+03  0.10100000352E+00 0. -1.
        3   -1    0    0  501    0  0.00000000000E+00  0.00000000000E+00 -0.71396325743E+02  0.71396397182E+02  0.10100000352E+00 0.  1.
    10030    2    1    2    0    0  0.00000000000E+00  0.00000000000E+00  0.78951104377E+03  0.93230377262E+03  0.49584537530E+03 0.  0.
        5    1    3    3  502    0 -0.17758144877E+02  0.48128132769E+02  0.85073340746E+03  0.85229166924E+03  0.46999998093E+01 0. -1.
       -5    1    3    3    0  502  0.17758144877E+02 -0.48128132769E+02 -0.61222363695E+02  0.80012103384E+02  0.46999998093E+01 0.  1.
</event>
<event>
 5   0  0.1231822E-01  0.4892311E+03  0.7818609E-02  0.1016629E+00
       -2   -1    0    0    0  501  0.00000000000E+00  0.00000000000E+00  0.16452309458E+03  0.16452309460E+03  0.25500000920E-02 0. -1.
        2   -1    0    0  501    0  0.00000000000E+00  0.00000000000E+00 -0.36369825662E+03  0.36369825663E+03  0.25500000920E-02 0.  1.
    10030    2    1    2    0    0  0.00000000000E+00  0.00000000000E+00 -0.19917516204E+03  0.52822135122E+03  0.48923108110E+03 0.  0.
        1    1    3    3  502    0  0.15386600587E+03 -0.19013254506E+03 -0.95905481786E+02  0.26272227526E+03  0.50400001928E-02 0. -1.
       -1    1    3    3    0  502 -0.15386600587E+03  0.19013254506E+03 -0.10326968026E+03  0.26549907597E+03  0.50400001928E-02 0.  1.
</event>
<event>
 5   0  0.1211345E-01  0.4986884E+03  0.7818609E-02  0.1014122E+00
       -2   -1    0    0    0  501  0.00000000000E+00  0.00000000000E+00  0.22930407774E+03  0.22930407776E+03  0.25500000920E-02 0.  1.
        2   -1    0    0  501    0  0.00000000000E+00  0.00000000000E+00 -0.27113576194E+03  0.27113576195E+03  0.25500000920E-02 0. -1.
    10030    2    1    2    0    0  0.00000000000E+00  0.00000000000E+00 -0.41831684198E+02  0.50043983971E+03  0.49868842313E+03 0.  0.
        5    1    3    3  502    0 -0.10652402151E+03  0.36334897209E+02 -0.24414450597E+03  0.26887956729E+03  0.46999998093E+01 0. -1.
       -5    1    3    3    0  502  0.10652402151E+03 -0.36334897209E+02  0.20231282177E+03  0.23156027242E+03  0.46999998093E+01 0.  1.
</event>
<event>
 5   0  0.5006750E-02  0.4968422E+03  0.7818609E-02  0.1014606E+00
       -4   -1    0    0    0  501  0.00000000000E+00  0.00000000000E+00  0.37253814638E+02  0.37275455799E+02  0.12699999809E+01 0.  1.
        4   -1    0    0  501    0  0.00000000000E+00  0.00000000000E+00 -0.16560535103E+04  0.16560539973E+04  0.12699999809E+01 0. -1.
    10030    2    1    2    0    0  0.00000000000E+00  0.00000000000E+00 -0.16187996957E+04  0.16933294531E+04  0.49684221033E+03 0.  0.
        5    1    3    3  502    0  0.57388497341E+02  0.58916642579E+02 -0.16081543661E+04  0.16102630734E+04  0.46999998093E+01 0. -1.
       -5    1    3    3    0  502 -0.57388497341E+02 -0.58916642579E+02 -0.10645329635E+02  0.83066379728E+02  0.46999998093E+01 0.  1.
</event>
<event>
 5   0  0.7812547E-02  0.4985337E+03  0.7818609E-02  0.1014162E+00
        1   -1    0    0  501    0  0.00000000000E+00  0.00000000000E+00  0.12885286040E+04  0.12885286040E+04  0.50400001928E-02 0.  1.
       -1   -1    0    0    0  501  0.00000000000E+00  0.00000000000E+00 -0.48220867522E+02  0.48220867785E+02  0.50400001928E-02 0. -1.
    10030    2    1    2    0    0  0.00000000000E+00  0.00000000000E+00  0.12403077364E+04  0.13367494718E+04  0.49853371919E+03 0.  0.
        4    1    3    3  502    0  0.20839842208E+03 -0.12314130959E+03  0.46064842374E+03  0.52037704374E+03  0.12699999809E+01 0. -1.
       -4    1    3    3    0  502 -0.20839842208E+03  0.12314130959E+03  0.77965931270E+03  0.81637242802E+03  0.12699999809E+01 0.  1.
</event>
<event>
 5   0  0.1243803E-01  0.5012824E+03  0.7818609E-02  0.1013445E+00
        2   -1    0    0  501    0  0.00000000000E+00  0.00000000000E+00  0.27023674738E+03  0.27023674739E+03  0.25500000920E-02 0.  1.
       -2   -1    0    0    0  501  0.00000000000E+00  0.00000000000E+00 -0.23246654106E+03  0.23246654107E+03  0.25500000920E-02 0. -1.
    10030    2    1    2    0    0  0.00000000000E+00  0.00000000000E+00  0.37770206324E+02  0.50270328846E+03  0.50128236329E+03 0.  0.
        4    1    3    3  502    0  0.24634181286E+03 -0.30340653521E+02 -0.16064005974E+02  0.24872577109E+03  0.12699999809E+01 0. -1.
       -4    1    3    3    0  502 -0.24634181286E+03  0.30340653521E+02  0.53834212298E+02  0.25397751737E+03  0.12699999809E+01 0.  1.
</event>
<event>
 5   0  0.1191894E-01  0.4965957E+03  0.7818609E-02  0.1014671E+00
       -2   -1    0    0    0  501  0.00000000000E+00  0.00000000000E+00  0.37000309535E+02  0.37000309623E+02  0.25500000920E-02 0. -1.
        2   -1    0    0  501    0  0.00000000000E+00  0.00000000000E+00 -0.16662514832E+04  0.16662514832E+04  0.25500000920E-02 0.  1.
    10030    2    1    2    0    0  0.00000000000E+00  0.00000000000E+00 -0.16292511736E+04  0.17032517928E+04  0.49659569356E+03 0.  0.
        3    1    3    3  502    0  0.18463858984E+03 -0.87098079883E+02 -0.32988210943E+03  0.38794290908E+03  0.10100000352E+00 0. -1.
       -3    1    3    3    0  502 -0.18463858984E+03  0.87098079883E+02 -0.12993690642E+04  0.13153088837E+04  0.10100000352E+00 0.  1.
</event>
<event>
 5   0  0.7416638E-02  0.4994784E+03  0.7818609E-02  0.1013915E+00
       -1   -1    0    0    0  501  0.00000000000E+00  0.00000000000E+00  0.90795726532E+02  0.90795726672E+02  0.50400001928E-02 0.  1.
        1   -1    0    0  501    0  0.00000000000E+00  0.00000000000E+00 -0.68692289730E+03  0.68692289732E+03  0.50400001928E-02 0. -1.
    10030    2    1    2    0    0  0.00000000000E+00  0.00000000000E+00 -0.59612717077E+03  0.77771862399E+03  0.49947838229E+03 0.  0.
        1    1    3    3  502    0  0.10090732995E+03 -0.74318816343E+02  0.38290876570E+02  0.13104108880E+03  0.50400001928E-02 0.  1.
       -1    1    3    3    0  502 -0.10090732995E+03  0.74318816343E+02 -0.63441804734E+03  0.64667753519E+03  0.50400001928E-02 0. -1.
</event>
<event>
 5   0  0.7416638E-02  0.5044095E+03  0.7818609E-02  0.1012634E+00
       -1   -1    0    0    0  501  0.00000000000E+00  0.00000000000E+00  0.15096633846E+03  0.15096633855E+03  0.50400001928E-02 0. -1.
        1   -1    0    0  501    0  0.00000000000E+00  0.00000000000E+00 -0.42133385428E+03  0.42133385431E+03  0.50400001928E-02 0.  1.
    10030    2    1    2    0    0  0.00000000000E+00  0.00000000000E+00 -0.27036751582E+03  0.57230019285E+03  0.50440947367E+03 0.  0.
        1    1    3    3  502    0  0.70365801945E+02  0.15936963316E+03 -0.34209472923E+03  0.38389950489E+03  0.50400001928E-02 0.  1.
       -1    1    3    3    0  502 -0.70365801945E+02 -0.15936963316E+03  0.71727213418E+02  0.18840068797E+03  0.50400001928E-02 0. -1.
</event>
<event>
 5   0  0.7781754E-02  0.5000819E+03  0.7818609E-02  0.1013758E+00
        1   -1    0    0  501    0  0.00000000000E+00  0.00000000000E+00  0.10048443836E+03  0.10048443849E+03  0.50400001928E-02 0.  1.
       -1   -1    0    0    0  501  0.00000000000E+00  0.00000000000E+00 -0.62219064431E+03  0.62219064433E+03  0.50400001928E-02 0. -1.
    10030    2    1    2    0    0  0.00000000000E+00  0.00000000000E+00 -0.52170620595E+03  0.72267508282E+03  0.50008190329E+03 0.  0.
        2    1    3    3  502    0  0.44668535093E+02  0.10300838160E+03  0.62007598671E+02  0.12826124515E+03  0.25500000920E-02 0.  1.
       -2    1    3    3    0  502 -0.44668535093E+02 -0.10300838160E+03 -0.58371380462E+03  0.59441383767E+03  0.25500000920E-02 0. -1.
</event>
<event>
 5   0  0.7781754E-02  0.5061791E+03  0.7818609E-02  0.1012179E+00
        1   -1    0    0  501    0  0.00000000000E+00  0.00000000000E+00  0.55427764053E+03  0.55427764056E+03  0.50400001928E-02 0. -1.
       -1   -1    0    0    0  501  0.00000000000E+00  0.00000000000E+00 -0.11556361875E+03  0.11556361886E+03  0.50400001928E-02 0.  1.
    10030    2    1    2    0    0  0.00000000000E+00  0.00000000000E+00  0.43871402179E+03  0.66984125941E+03  0.50617913815E+03 0.  0.
        2    1    3    3  502    0  0.21773503774E+02  0.75251916681E+02 -0.99115650537E+02  0.12633625220E+03  0.25500000920E-02 0.  1.
       -2    1    3    3    0  502 -0.21773503774E+02 -0.75251916681E+02  0.53782967233E+03  0.54350500722E+03  0.25500000920E-02 0. -1.
</event>
<event>
 5   0  0.1211345E-01  0.4817104E+03  0.7818609E-02  0.1018666E+00
       -2   -1    0    0    0  501  0.00000000000E+00  0.00000000000E+00  0.94623727613E+02  0.94623727647E+02  0.25500000920E-02 0. -1.
        2   -1    0    0  501    0  0.00000000000E+00  0.00000000000E+00 -0.61307279778E+03  0.61307279779E+03  0.25500000920E-02 0.  1.
    10030    2    1    2    0    0  0.00000000000E+00  0.00000000000E+00 -0.51844907017E+03  0.70769652543E+03  0.48171042521E+03 0.  0.
        5    1    3    3  502    0 -0.76458141724E+02 -0.63594168414E+02 -0.58142739619E+03  0.58988979711E+03  0.46999998093E+01 0.  1.
       -5    1    3    3    0  502  0.76458141724E+02  0.63594168414E+02  0.62978326023E+02  0.11780672833E+03  0.46999998093E+01 0. -1.
</event>
<event>
 5   0  0.7602288E-02  0.4939138E+03  0.7818609E-02  0.1015380E+00
        1   -1    0    0  501    0  0.00000000000E+00  0.00000000000E+00  0.32393912669E+03  0.32393912673E+03  0.50400001928E-02 0.  1.
       -1   -1    0    0    0  501  0.00000000000E+00  0.00000000000E+00 -0.18826902413E+03  0.18826902420E+03  0.50400001928E-02 0. -1.
    10030    2    1    2    0    0  0.00000000000E+00  0.00000000000E+00  0.13567010256E+03  0.51220815093E+03  0.49391377097E+03 0.  0.
        5    1    3    3  502    0  0.18625516754E+03  0.10676249773E+03  0.19432155842E+03  0.28960693434E+03  0.46999998093E+01 0.  1.
       -5    1    3    3    0  502 -0.18625516754E+03 -0.10676249773E+03 -0.58651455858E+02  0.22260121659E+03  0.46999998093E+01 0. -1.
</event>
<event>
 5   0  0.7531632E-02  0.5132390E+03  0.7818609E-02  0.1010380E+00
       -1   -1    0    0    0  501  0.00000000000E+00  0.00000000000E+00  0.28968978457E+03  0.28968978461E+03  0.50400001928E-02 0. -1.
        1   -1    0    0  501    0  0.00000000000E+00  0.00000000000E+00 -0.22732447009E+03  0.22732447014E+03  0.50400001928E-02 0.  1.
    10030    2    1    2    0    0  0.00000000000E+00  0.00000000000E+00  0.62365314483E+02  0.51701425475E+03  0.51323903512E+03 0.  0.
        3    1    3    3  502    0 -0.23125969222E+03  0.10423511739E+03  0.70295589646E+02  0.26322516040E+03  0.10100000352E+00 0. -1.
       -3    1    3    3    0  502  0.23125969222E+03 -0.10423511739E+03 -0.79302751630E+01  0.25378909435E+03  0.10100000352E+00 0.  1.
</event>
<event>
 5   0  0.7531632E-02  0.5023210E+03  0.7818609E-02  0.1013175E+00
        1   -1    0    0  501    0  0.00000000000E+00  0.00000000000E+00  0.90614761696E+02  0.90614761837E+02  0.50400001928E-02 0.  1.
       -1   -1    0    0    0  501  0.00000000000E+00  0.00000000000E+00 -0.69615154251E+03  0.69615154253E+03  0.50400001928E-02 0. -1.
    10030    2    1    2    0    0  0.00000000000E+00  0.00000000000E+00 -0.60553678081E+03  0.78676630436E+03  0.50232103755E+03 0.  0.
        3    1    3    3  502    0  0.62282782123E+02  0.19769497156E+03 -0.80606689963E+02  0.22239580796E+03  0.10100000352E+00 0.  1.
       -3    1    3    3    0  502 -0.62282782123E+02 -0.19769497156E+03 -0.52493009085E+03  0.56437049640E+03  0.10100000352E+00 0. -1.
</event>
<event>
 5   0  0.7812547E-02  0.5029831E+03  0.7818609E-02  0.1013003E+00
        1   -1    0    0  501    0  0.00000000000E+00  0.00000000000E+00  0.17564627438E+03  0.17564627446E+03  0.50400001928E-02 0.  1.
       -1   -1    0    0    0  501  0.00000000000E+00  0.00000000000E+00 -0.36008732112E+03  0.36008732115E+03  0.50400001928E-02 0. -1.
    10030    2    1    2    0    0  0.00000000000E+00  0.00000000000E+00 -0.18444104673E+03  0.53573359561E+03  0.50298308694E+03 0.  0.
        4    1    3    3  502    0 -0.13581088974E+03 -0.63355746761E+02 -0.30733063577E+03  0.34192437907E+03  0.12699999809E+01 0. -1.
       -4    1    3    3    0  502  0.13581088974E+03  0.63355746761E+02  0.12288958904E+03  0.19380921654E+03  0.12699999809E+01 0.  1.
</event>
<event>
 5   0  0.1279188E-01  0.4964184E+03  0.7818609E-02  0.1014718E+00
        2   -1    0    0  501    0  0.00000000000E+00  0.00000000000E+00  0.10814859839E+04  0.10814859839E+04  0.25500000920E-02 0.  1.
       -2   -1    0    0    0  501  0.00000000000E+00  0.00000000000E+00 -0.56965892317E+02  0.56965892374E+02  0.25500000920E-02 0. -1.
    10030    2    1    2    0    0  0.00000000000E+00  0.00000000000E+00  0.10245200916E+04  0.11384518763E+04  0.49641842890E+03 0.  0.
        2    1    3    3  502    0 -0.30916301399E+02 -0.10693245504E+03  0.34843927849E+01  0.11136655078E+03  0.25500000920E-02 0. -1.
       -2    1    3    3    0  502  0.30916301399E+02  0.10693245504E+03  0.10210356988E+04  0.10270853255E+04  0.25500000920E-02 0.  1.
</event>
<event>
 5   0  0.1231822E-01  0.4934481E+03  0.7818609E-02  0.1015503E+00
       -2   -1    0    0    0  501  0.00000000000E+00  0.00000000000E+00  0.14696344441E+03  0.14696344444E+03  0.25500000920E-02 0. -1.
        2   -1    0    0  501    0  0.00000000000E+00  0.00000000000E+00 -0.41420341672E+03  0.41420341673E+03  0.25500000920E-02 0.  1.
    10030    2    1    2    0    0  0.00000000000E+00  0.00000000000E+00 -0.26723997231E+03  0.56116686117E+03  0.49344811609E+03 0.  0.
        1    1    3    3  502    0  0.46476492940E+02 -0.45963281585E+01  0.14189066007E+03  0.14937921565E+03  0.50400001928E-02 0. -1.
       -1    1    3    3    0  502 -0.46476492940E+02  0.45963281585E+01 -0.40913063237E+03  0.41178764552E+03  0.50400001928E-02 0.  1.
</event>
<event>
 5   0  0.7602288E-02  0.4976218E+03  0.7818609E-02  0.1014402E+00
        1   -1    0    0  501    0  0.00000000000E+00  0.00000000000E+00  0.51219223231E+03  0.51219223234E+03  0.50400001928E-02 0. -1.
       -1   -1    0    0    0  501  0.00000000000E+00  0.00000000000E+00 -0.12086645766E+03  0.12086645776E+03  0.50400001928E-02 0.  1.
    10030    2    1    2    0    0  0.00000000000E+00  0.00000000000E+00  0.39132577465E+03  0.63305869010E+03  0.49762178731E+03 0.  0.
        5    1    3    3  502    0 -0.19315555667E+03  0.18584669644E+02 -0.23639672489E+01  0.19411887430E+03  0.46999998093E+01 0.  1.
       -5    1    3    3    0  502  0.19315555667E+03 -0.18584669644E+02  0.39368974190E+03  0.43893981580E+03  0.46999998093E+01 0. -1.
</event>
<event>
 5   0  0.7781754E-02  0.4906413E+03  0.7818609E-02  0.1016251E+00
       -1   -1    0    0    0  501  0.00000000000E+00  0.00000000000E+00  0.10421741953E+03  0.10421741965E+03  0.50400001928E-02 0.  1.
        1   -1    0    0  501    0  0.00000000000E+00  0.00000000000E+00 -0.57746794154E+03  0.57746794156E+03  0.50400001928E-02 0. -1.
    10030    2    1    2    0    0  0.00000000000E+00  0.00000000000E+00 -0.47325052201E+03  0.68168536121E+03  0.49064128964E+03 0.  0.
        2    1    3    3  502    0 -0.18914919204E+03 -0.15383704392E+03 -0.19885655934E+03  0.31462228804E+03  0.25500000920E-02 0. -1.
       -2    1    3    3    0  502  0.18914919204E+03  0.15383704392E+03 -0.27439396267E+03  0.36706307317E+03  0.25500000920E-02 0.  1.
</event>
<event>
 5   0  0.7531632E-02  0.5027894E+03  0.7818609E-02  0.1013053E+00
       -1   -1    0    0    0  501  0.00000000000E+00  0.00000000000E+00  0.11209718965E+03  0.11209718976E+03  0.50400001928E-02 0. -1.
        1   -1    0    0  501    0  0.00000000000E+00  0.00000000000E+00 -0.56379010380E+03  0.56379010382E+03  0.50400001928E-02 0.  1.
    10030    2    1    2    0    0  0.00000000000E+00  0.00000000000E+00 -0.45169291415E+03  0.67588729358E+03  0.50278936437E+03 0.  0.
        3    1    3    3  502    0 -0.82887670206E+02  0.93081959367E+02  0.67638904712E+02  0.14180849292E+03  0.10100000352E+00 0. -1.
       -3    1    3    3    0  502  0.82887670206E+02 -0.93081959367E+02 -0.51933181886E+03  0.53407880066E+03  0.10100000352E+00 0.  1.
</event>
<event>
 5   0  0.1279188E-01  0.4978329E+03  0.7818609E-02  0.1014346E+00
       -2   -1    0    0    0  501  0.00000000000E+00  0.00000000000E+00  0.28520375459E+02  0.28520375573E+02  0.25500000920E-02 0.  1.
        2   -1    0    0  501    0  0.00000000000E+00  0.00000000000E+00 -0.21724605391E+04  0.21724605391E+04  0.25500000920E-02 0. -1.
    10030    2    1    2    0    0  0.00000000000E+00  0.00000000000E+00 -0.21439401636E+04  0.22009809147E+04  0.49783286502E+03 0.  0.
        2    1    3    3  502    0 -0.21319710539E+03 -0.11951894144E+03 -0.86358512925E+03  0.89750602147E+03  0.25500000920E-02 0. -1.
       -2    1    3    3    0  502  0.21319710539E+03  0.11951894144E+03 -0.12803550344E+04  0.13034748932E+04  0.25500000920E-02 0.  1.
</event>
<event>
 5   0  0.1191894E-01  0.4823316E+03  0.7818609E-02  0.1018496E+00
       -2   -1    0    0    0  501  0.00000000000E+00  0.00000000000E+00  0.39231863253E+02  0.39231863336E+02  0.25500000920E-02 0. -1.
        2   -1    0    0  501    0  0.00000000000E+00  0.00000000000E+00 -0.14824925565E+04  0.14824925565E+04  0.25500000920E-02 0.  1.
    10030    2    1    2    0    0  0.00000000000E+00  0.00000000000E+00 -0.14432606932E+04  0.15217244198E+04  0.48233160922E+03 0.  0.
        3    1    3    3  502    0 -0.19384606420E+03 -0.13539767726E+03 -0.57190861393E+03  0.61886048549E+03  0.10100000352E+00 0.  1.
       -3    1    3    3    0  502  0.19384606420E+03  0.13539767726E+03 -0.87135207929E+03  0.90286393432E+03  0.10100000352E+00 0. -1.
</event>
<event>
 5   0  0.7416638E-02  0.5016544E+03  0.7818609E-02  0.1013348E+00
       -1   -1    0    0    0  501  0.00000000000E+00  0.00000000000E+00  0.18572176003E+03  0.18572176010E+03  0.50400001928E-02 0. -1.
        1   -1    0    0  501    0  0.00000000000E+00  0.00000000000E+00 -0.33875552815E+03  0.33875552819E+03  0.50400001928E-02 0.  1.
    10030    2    1    2    0    0  0.00000000000E+00  0.00000000000E+00 -0.15303376812E+03  0.52447728830E+03  0.50165435486E+03 0.  0.
        1    1    3    3  502    0  0.20340945933E+02 -0.23963717633E+03 -0.15099360531E+03  0.28396971534E+03  0.50400001928E-02 0.  1.
       -1    1    3    3    0  502 -0.20340945933E+02  0.23963717633E+03 -0.20401628097E+01  0.24050757296E+03  0.50400001928E-02 0. -1.
</event>
<event>
 5   0  0.1279188E-01  0.5070052E+03  0.7818609E-02  0.1011966E+00
        2   -1    0    0  501    0  0.00000000000E+00  0.00000000000E+00  0.24170438273E+03  0.24170438275E+03  0.25500000920E-02 0. -1.
       -2   -1    0    0    0  501  0.00000000000E+00  0.00000000000E+00 -0.26587667464E+03  0.26587667465E+03  0.25500000920E-02 0.  1.
    10030    2    1    2    0    0  0.00000000000E+00  0.00000000000E+00 -0.24172291902E+02  0.50758105740E+03  0.50700515790E+03 0.  0.
        2    1    3    3  502    0 -0.15906450054E+03  0.33182238601E+01 -0.20967048141E+03  0.26319999377E+03  0.25500000920E-02 0.  1.
       -2    1    3    3    0  502  0.15906450054E+03 -0.33182238601E+01  0.18549818950E+03  0.24438106362E+03  0.25500000920E-02 0. -1.
</event>
<event>
 5   0  0.7781754E-02  0.4964290E+03  0.7818609E-02  0.1014715E+00
       -1   -1    0    0    0  501  0.00000000000E+00  0.00000000000E+00  0.14390526928E+03  0.14390526937E+03  0.50400001928E-02 0. -1.
        1   -1    0    0  501    0  0.00000000000E+00  0.00000000000E+00 -0.42813185165E+03  0.42813185168E+03  0.50400001928E-02 0.  1.
    10030    2    1    2    0    0  0.00000000000E+00  0.00000000000E+00 -0.28422658237E+03  0.57203712105E+03  0.49642896545E+03 0.  0.
        2    1    3    3  502    0  0.20727184237E+03 -0.89764937955E+02 -0.26070026628E+03  0.34494055948E+03  0.25500000920E-02 0.  1.
       -2    1    3    3    0  502 -0.20727184237E+03  0.89764937955E+02 -0.23526316089E+02  0.22709656158E+03  0.25500000920E-02 0. -1.
</event>
<event>
 5   0  0.5006750E-02  0.4972698E+03  0.7818609E-02  0.1014494E+00
        3   -1    0    0  501    0  0.00000000000E+00  0.00000000000E+00  0.91291661347E+02  0.91291717217E+02  0.10100000352E+00 0.  1.
       -3   -1    0    0    0  501  0.00000000000E+00  0.00000000000E+00 -0.67716237159E+03  0.67716237912E+03  0.10100000352E+00 0. -1.
    10030    2    1    2    0    0  0.00000000000E+00  0.00000000000E+00 -0.58587071024E+03  0.76845409634E+03  0.49726975482E+03 0.  0.
        2    1    3    3  502    0 -0.16100135982E+02 -0.24811153154E+03 -0.29427882850E+03  0.38525131456E+03  0.25500000920E-02 0. -1.
       -2    1    3    3    0  502  0.16100135982E+02  0.24811153154E+03 -0.29159188174E+03  0.38320278178E+03  0.25500000920E-02 0.  1.
</event>
<event>
 5   0  0.7531632E-02  0.4929462E+03  0.7818609E-02  0.1015637E+00
       -1   -1    0    0    0  501  0.00000000000E+00  0.00000000000E+00  0.52163437183E+03  0.52163437186E+03  0.50400001928E-02 0. -1.
        1   -1    0    0  501    0  0.00000000000E+00  0.00000000000E+00 -0.11645896420E+03  0.11645896431E+03  0.50400001928E-02 0.  1.
    10030    2    1    2    0    0  0.00000000000E+00  0.00000000000E+00  0.40517540763E+03  0.63809333617E+03  0.49294623918E+03 0.  0.
        3    1    3    3  502    0 -0.67404325738E+02  0.19552763850E+03  0.29041897690E+02  0.20884885101E+03  0.10100000352E+00 0.  1.
       -3    1    3    3    0  502  0.67404325738E+02 -0.19552763850E+03  0.37613350994E+03  0.42924448516E+03  0.10100000352E+00 0. -1.
</event>
<event>
 5   0  0.1211345E-01  0.4977849E+03  0.7818609E-02  0.1014359E+00
        2   -1    0    0  501    0  0.00000000000E+00  0.00000000000E+00  0.36418905630E+03  0.36418905631E+03  0.25500000920E-02 0.  1.
       -2   -1    0    0    0  501  0.00000000000E+00  0.00000000000E+00 -0.17009698428E+03  0.17009698430E+03  0.25500000920E-02 0. -1.
    10030    2    1    2    0    0  0.00000000000E+00  0.00000000000E+00  0.19409207201E+03  0.53428604061E+03  0.49778493425E+03 0.  0.
        5    1    3    3  502    0 -0.17641072709E+03  0.79765353536E+02  0.26484970844E+03  0.32810168289E+03  0.46999998093E+01 0.  1.
       -5    1    3    3    0  502  0.17641072709E+03 -0.79765353536E+02 -0.70757636421E+02  0.20618435772E+03  0.46999998093E+01 0. -1.
</event>
<event>
 5   0  0.1279188E-01  0.4959978E+03  0.7818609E-02  0.1014829E+00
       -2   -1    0    0    0  501  0.00000000000E+00  0.00000000000E+00  0.26367124874E+02  0.26367124998E+02  0.25500000920E-02 0.  1.
        2   -1    0    0  501    0  0.00000000000E+00  0.00000000000E+00 -0.23325810699E+04  0.23325810699E+04  0.25500000920E-02 0. -1.
    10030    2    1    2    0    0  0.00000000000E+00  0.00000000000E+00 -0.23062139451E+04  0.23589481949E+04  0.49599780845E+03 0.  0.
        2    1    3    3  502    0 -0.15066528064E+03 -0.14003806020E+03 -0.49422520335E+03  0.53532161990E+03  0.25500000920E-02 0.  1.
       -2    1    3    3    0  502  0.15066528064E+03  0.14003806020E+03 -0.18119887417E+04  0.18236265750E+04  0.25500000920E-02 0. -1.
</event>
<event>
 5   0  0.7602288E-02  0.4947302E+03  0.7818609E-02  0.1015164E+00
       -1   -1    0    0    0  501  0.00000000000E+00  0.00000000000E+00  0.10730317962E+03  0.10730317974E+03  0.50400001928E-02 0.  1.
        1   -1    0    0  501    0  0.00000000000E+00  0.00000000000E+00 -0.57024857614E+03  0.57024857617E+03  0.50400001928E-02 0. -1.
    10030    2    1    2    0    0  0.00000000000E+00  0.00000000000E+00 -0.46294539652E+03  0.67755175590E+03  0.49473017066E+03 0.  0.
        5    1    3    3  502    0 -0.17858113474E+03 -0.11785981524E+03 -0.40134641314E+03  0.45484413932E+03  0.46999998093E+01 0.  1.
       -5    1    3    3    0  502  0.17858113474E+03  0.11785981524E+03 -0.61598983387E+02  0.22270761659E+03  0.46999998093E+01 0. -1.
</event>
<event>
 5   0  0.5006750E-02  0.5014456E+03  0.7818609E-02  0.1013402E+00
       -3   -1    0    0    0  501  0.00000000000E+00  0.00000000000E+00  0.55563369026E+03  0.55563369944E+03  0.10100000352E+00 0. -1.
        3   -1    0    0  501    0  0.00000000000E+00  0.00000000000E+00 -0.11313551035E+03  0.11313555543E+03  0.10100000352E+00 0.  1.
    10030    2    1    2    0    0  0.00000000000E+00  0.00000000000E+00  0.44249817991E+03  0.66876925488E+03  0.50144558732E+03 0.  0.
        3    1    3    3  502    0  0.84790267345E+02 -0.23396176996E+03  0.18048092328E+03  0.30740994309E+03  0.10100000352E+00 0.  1.
       -3    1    3    3    0  502 -0.84790267345E+02  0.23396176996E+03  0.26201725663E+03  0.36135931179E+03  0.10100000352E+00 0. -1.
</event>
<event>
 5   0  0.7602288E-02  0.5022357E+03  0.7818609E-02  0.1013197E+00
       -1   -1    0    0    0  501  0.00000000000E+00  0.00000000000E+00  0.87847104874E+02  0.87847105019E+02  0.50400001928E-02 0.  1.
        1   -1    0    0  501    0  0.00000000000E+00  0.00000000000E+00 -0.71783997176E+03  0.71783997178E+03  0.50400001928E-02 0. -1.
    10030    2    1    2    0    0  0.00000000000E+00  0.00000000000E+00 -0.62999286689E+03  0.80568707680E+03  0.50223565524E+03 0.  0.
        5    1    3    3  502    0  0.16765112963E+03 -0.83486674321E+02 -0.58324434528E+03  0.61259528431E+03  0.46999998093E+01 0. -1.
       -5    1    3    3    0  502 -0.16765112963E+03  0.83486674321E+02 -0.46748521607E+02  0.19309179249E+03  0.46999998093E+01 0.  1.
</event>
<event>
 5   0  0.7781754E-02  0.5007059E+03  0.7818609E-02  0.1013595E+00
       -1   -1    0    0    0  501  0.00000000000E+00  0.00000000000E+00  0.17665678527E+03  0.17665678534E+03  0.50400001928E-02 0.  1.
        1   -1    0    0  501    0  0.00000000000E+00  0.00000000000E+00 -0.35479308027E+03  0.35479308030E+03  0.50400001928E-02 0. -1.
    10030    2    1    2    0    0  0.00000000000E+00  0.00000000000E+00 -0.17813629500E+03  0.53144986565E+03  0.50070592178E+03 0.  0.
        2    1    3    3  502    0 -0.13485450665E+03 -0.12132427840E+03 -0.27220610871E+03  0.32711081321E+03  0.25500000920E-02 0. -1.
       -2    1    3    3    0  502  0.13485450665E+03  0.12132427840E+03  0.94069813712E+02  0.20433905244E+03  0.25500000920E-02 0.  1.
</event>
<event>
 5   0  0.7416638E-02  0.4987064E+03  0.7818609E-02  0.1014117E+00
       -1   -1    0    0    0  501  0.00000000000E+00  0.00000000000E+00  0.25058905994E+02  0.25058906501E+02  0.50400001928E-02 0. -1.
        1   -1    0    0  501    0  0.00000000000E+00  0.00000000000E+00 -0.24812343127E+04  0.24812343127E+04  0.50400001928E-02 0.  1.
    10030    2    1    2    0    0  0.00000000000E+00  0.00000000000E+00 -0.24561754067E+04  0.25062932192E+04  0.49870639873E+03 0.  0.
        1    1    3    3  502    0  0.76624656504E+02 -0.46287190059E+00 -0.24205982160E+04  0.24218107432E+04  0.50400001928E-02 0.  1.
       -1    1    3    3    0  502 -0.76624656504E+02  0.46287190059E+00 -0.35577190660E+02  0.84482476026E+02  0.50400001928E-02 0. -1.
</event>
<event>
 5   0  0.1279188E-01  0.5242789E+03  0.7818609E-02  0.1007629E+00
       -2   -1    0    0    0  501  0.00000000000E+00  0.00000000000E+00  0.47138575196E+02  0.47138575265E+02  0.25500000920E-02 0. -1.
        2   -1    0    0  501    0  0.00000000000E+00  0.00000000000E+00 -0.14577676991E+04  0.14577676991E+04  0.25500000920E-02 0.  1.
    10030    2    1    2    0    0  0.00000000000E+00  0.00000000000E+00 -0.14106291239E+04  0.15049062744E+04  0.52427890424E+03 0.  0.
        2    1    3    3  502    0 -0.49458097044E+02 -0.65601549450E+02  0.92291424771E+01  0.82673113711E+02  0.25500000920E-02 0. -1.
       -2    1    3    3    0  502  0.49458097044E+02  0.65601549450E+02 -0.14198582664E+04  0.14222331607E+04  0.25500000920E-02 0.  1.
</event>
<event>
 5   0  0.7416638E-02  0.5081704E+03  0.7818609E-02  0.1011668E+00
        1   -1    0    0  501    0  0.00000000000E+00  0.00000000000E+00  0.24444209732E+03  0.24444209737E+03  0.50400001928E-02 0. -1.
       -1   -1    0    0    0  501  0.00000000000E+00  0.00000000000E+00 -0.26410870880E+03  0.26410870884E+03  0.50400001928E-02 0.  1.
    10030    2    1    2    0    0  0.00000000000E+00  0.00000000000E+00 -0.19666611475E+02  0.50855080622E+03  0.50817039160E+03 0.  0.
        1    1    3    3  502    0  0.15238059354E+03  0.11817842789E+03  0.15573933406E+03  0.24787239924E+03  0.50400001928E-02 0. -1.
       -1    1    3    3    0  502 -0.15238059354E+03 -0.11817842789E+03 -0.17540594554E+03  0.26067840697E+03  0.50400001928E-02 0.  1.
</event>
<event>
 5   0  0.5006750E-02  0.4967759E+03  0.7818609E-02  0.1014624E+00
       -3   -1    0    0    0  501  0.00000000000E+00  0.00000000000E+00  0.36273927392E+03  0.36273928798E+03  0.10100000352E+00 0. -1.
        3   -1    0    0  501    0  0.00000000000E+00  0.00000000000E+00 -0.17008512655E+03  0.17008515654E+03  0.10100000352E+00 0.  1.
    10030    2    1    2    0    0  0.00000000000E+00  0.00000000000E+00  0.19265414737E+03  0.53282444452E+03  0.49677587318E+03 0.  0.
        4    1    3    3  502    0  0.17062579267E+03 -0.86832581100E+02  0.26605654099E+03  0.32778156472E+03  0.12699999809E+01 0. -1.
       -4    1    3    3    0  502 -0.17062579267E+03  0.86832581100E+02 -0.73402393621E+02  0.20504287980E+03  0.12699999809E+01 0.  1.
</event>
<event>
 5   0  0.5006750E-02  0.5016997E+03  0.7818609E-02  0.1013336E+00
        3   -1    0    0  501    0  0.00000000000E+00  0.00000000000E+00  0.43874941974E+03  0.43874943136E+03  0.10100000352E+00 0. -1.
       -3   -1    0    0    0  501  0.00000000000E+00  0.00000000000E+00 -0.14342045740E+03  0.14342049297E+03  0.10100000352E+00 0.  1.
    10030    2    1    2    0    0  0.00000000000E+00  0.00000000000E+00  0.29532896233E+03  0.58216992433E+03  0.50169973570E+03 0.  0.
        3    1    3    3  502    0 -0.48827876123E+02 -0.12755865034E+03 -0.96488484686E+02  0.16722861191E+03  0.10100000352E+00 0.  1.
       -3    1    3    3    0  502  0.48827876123E+02  0.12755865034E+03  0.39181744702E+03  0.41494131242E+03  0.10100000352E+00 0. -1.
</event>
<event>
 5   0  0.1211345E-01  0.4964694E+03  0.7818609E-02  0.1014705E+00
        2   -1    0    0  501    0  0.00000000000E+00  0.00000000000E+00  0.10960002705E+04  0.10960002705E+04  0.25500000920E-02 0.  1.
       -2   -1    0    0    0  501  0.00000000000E+00  0.00000000000E+00 -0.56223030568E+02  0.56223030626E+02  0.25500000920E-02 0. -1.
    10030    2    1    2    0    0  0.00000000000E+00  0.00000000000E+00  0.10397772399E+04  0.11522233011E+04  0.49646936158E+03 0.  0.
        5    1    3    3  502    0 -0.18013969943E+03  0.58274328560E+02  0.14745316669E+03  0.24002236364E+03  0.46999998093E+01 0. -1.
       -5    1    3    3    0  502  0.18013969943E+03 -0.58274328560E+02  0.89232407324E+03  0.91220093749E+03  0.46999998093E+01 0.  1.
</event>
<event>
 5   0  0.7531632E-02  0.4987043E+03  0.7818609E-02  0.1014118E+00
        1   -1    0    0  501    0  0.00000000000E+00  0.00000000000E+00  0.54664663808E+03  0.54664663810E+03  0.50400001928E-02 0. -1.
       -1   -1    0    0    0  501  0.00000000000E+00  0.00000000000E+00 -0.11374167446E+03  0.11374167457E+03  0.50400001928E-02 0.  1.
    10030    2    1    2    0    0  0.00000000000E+00  0.00000000000E+00  0.43290496362E+03  0.66038831267E+03  0.49870433724E+03 0.  0.
        3    1    3    3  502    0  0.38852061131E+02 -0.10219952062E+03 -0.80306859766E+02  0.13565922968E+03  0.10100000352E+00 0.  1.
       -3    1    3    3    0  502 -0.38852061131E+02  0.10219952062E+03  0.51321182339E+03  0.52472908299E+03  0.10100000352E+00 0. -1.
</event>
<event>
 5   0  0.7602288E-02  0.5002168E+03  0.7818609E-02  0.1013722E+00
       -1   -1    0    0    0  501  0.00000000000E+00  0.00000000000E+00  0.17389425516E+03  0.17389425523E+03  0.50400001928E-02 0.  1.
        1   -1    0    0  501    0  0.00000000000E+00  0.00000000000E+00 -0.35972554528E+03  0.35972554531E+03  0.50400001928E-02 0. -1.
    10030    2    1    2    0    0  0.00000000000E+00  0.00000000000E+00 -0.18583129012E+03  0.53361980055E+03  0.50021677616E+03 0.  0.
        5    1    3    3  502    0  0.13263771146E+03  0.19922600442E+03 -0.15632430263E+02  0.23989628220E+03  0.46999998093E+01 0.  1.
       -5    1    3    3    0  502 -0.13263771146E+03 -0.19922600442E+03 -0.17019885985E+03  0.29372351835E+03  0.46999998093E+01 0. -1.
</event>
<event>
 5   0  0.7602288E-02  0.5027300E+03  0.7818609E-02  0.1013069E+00
        1   -1    0    0  501    0  0.00000000000E+00  0.00000000000E+00  0.84848964046E+03  0.84848964048E+03  0.50400001928E-02 0. -1.
       -1   -1    0    0    0  501  0.00000000000E+00  0.00000000000E+00 -0.74466865521E+02  0.74466865691E+02  0.50400001928E-02 0.  1.
    10030    2    1    2    0    0  0.00000000000E+00  0.00000000000E+00  0.77402277494E+03  0.92295650617E+03  0.50273000323E+03 0.  0.
        5    1    3    3  502    0 -0.79585112432E+02 -0.15678891480E+03  0.71668369708E+03  0.73795268520E+03  0.46999998093E+01 0. -1.
       -5    1    3    3    0  502  0.79585112432E+02  0.15678891480E+03  0.57339077856E+02  0.18500382097E+03  0.46999998093E+01 0.  1.
</event>
<event>
 5   0  0.1279188E-01  0.5006352E+03  0.7818609E-02  0.1013613E+00
       -2   -1    0    0    0  501  0.00000000000E+00  0.00000000000E+00  0.43743416997E+03  0.43743416997E+03  0.25500000920E-02 0.  1.
        2   -1    0    0  501    0  0.00000000000E+00  0.00000000000E+00 -0.14324192442E+03  0.14324192444E+03  0.25500000920E-02 0. -1.
    10030    2    1    2    0    0  0.00000000000E+00  0.00000000000E+00  0.29419224555E+03  0.58067609442E+03  0.50063524575E+03 0.  0.
        2    1    3    3  502    0  0.60264785183E+02  0.87194205525E+02  0.41012077814E+03  0.42359618327E+03  0.25500000920E-02 0.  1.
       -2    1    3    3    0  502 -0.60264785183E+02 -0.87194205525E+02 -0.11592853260E+03  0.15707991115E+03  0.25500000920E-02 0. -1.
</event>
<event>
 5   0  0.7602288E-02  0.5076795E+03  0.7818609E-02  0.1011794E+00
        1   -1    0    0  501    0  0.00000000000E+00  0.00000000000E+00  0.86355179232E+03  0.86355179234E+03  0.50400001928E-02 0. -1.
       -1   -1    0    0    0  501  0.00000000000E+00  0.00000000000E+00 -0.74615806345E+02  0.74615806515E+02  0.50400001928E-02 0.  1.
    10030    2    1    2    0    0  0.00000000000E+00  0.00000000000E+00  0.78893598598E+03  0.93816759885E+03  0.50767947916E+03 0.  0.
        5    1    3    3  502    0 -0.31181634739E+02 -0.17303229410E+03  0.56236863620E+02  0.18465411984E+03  0.46999998093E+01 0.  1.
       -5    1    3    3    0  502  0.31181634739E+02  0.17303229410E+03  0.73269912236E+03  0.75351347901E+03  0.46999998093E+01 0. -1.
</event>
<event>
 5   0  0.7416638E-02  0.5034106E+03  0.7818609E-02  0.1012893E+00
        1   -1    0    0  501    0  0.00000000000E+00  0.00000000000E+00  0.11658635481E+04  0.11658635481E+04  0.50400001928E-02 0. -1.
       -1   -1    0    0    0  501  0.00000000000E+00  0.00000000000E+00 -0.54342163527E+02  0.54342163761E+02  0.50400001928E-02 0.  1.
    10030    2    1    2    0    0  0.00000000000E+00  0.00000000000E+00  0.11115213846E+04  0.12202057119E+04  0.50341055901E+03 0.  0.
        1    1    3    3  502    0 -0.20578804597E+03 -0.11113548332E+03  0.78126904805E+03  0.81552507073E+03  0.50400001928E-02 0. -1.
       -1    1    3    3    0  502  0.20578804597E+03  0.11113548332E+03  0.33025233651E+03  0.40468064114E+03  0.50400001928E-02 0.  1.
</event>
<event>
 5   0  0.1279188E-01  0.4999671E+03  0.7818609E-02  0.1013788E+00
       -2   -1    0    0    0  501  0.00000000000E+00  0.00000000000E+00  0.52879107564E+02  0.52879107626E+02  0.25500000920E-02 0. -1.
        2   -1    0    0  501    0  0.00000000000E+00  0.00000000000E+00 -0.11817855843E+04  0.11817855843E+04  0.25500000920E-02 0.  1.
    10030    2    1    2    0    0  0.00000000000E+00  0.00000000000E+00 -0.11289064768E+04  0.12346646920E+04  0.49996706720E+03 0.  0.
        2    1    3    3  502    0  0.20628013483E+03 -0.79601187382E+02 -0.27642190893E+03  0.35397304248E+03  0.25500000920E-02 0. -1.
       -2    1    3    3    0  502 -0.20628013483E+03  0.79601187382E+02 -0.85248456784E+03  0.88069164948E+03  0.25500000920E-02 0.  1.
</event>
<event>
 5   0  0.5006750E-02  0.5029953E+03  0.7818609E-02  0.1013000E+00
       -4   -1    0    0    0  501  0.00000000000E+00  0.00000000000E+00  0.36539128641E+03  0.36539349349E+03  0.12699999809E+01 0.  1.
        4   -1    0    0  501    0  0.00000000000E+00  0.00000000000E+00 -0.17309995200E+03  0.17310461081E+03  0.12699999809E+01 0. -1.
    10030    2    1    2    0    0  0.00000000000E+00  0.00000000000E+00  0.19229133440E+03  0.53849810430E+03  0.50299527935E+03 0.  0.
        1    1    3    3  502    0 -0.15827986944E+03 -0.58815996949E+02  0.29568583227E+03  0.34050249631E+03  0.50400001928E-02 0.  1.
       -1    1    3    3    0  502  0.15827986944E+03  0.58815996949E+02 -0.10339449786E+03  0.19799560798E+03  0.50400001928E-02 0. -1.
</event>
<event>
 5   0  0.7781754E-02  0.5368533E+03  0.7818609E-02  0.1004583E+00
       -1   -1    0    0    0  501  0.00000000000E+00  0.00000000000E+00  0.17457596038E+03  0.17457596045E+03  0.50400001928E-02 0. -1.
        1   -1    0    0  501    0  0.00000000000E+00  0.00000000000E+00 -0.41273079139E+03  0.41273079142E+03  0.50400001928E-02 0.  1.
    10030    2    1    2    0    0  0.00000000000E+00  0.00000000000E+00 -0.23815483101E+03  0.58730675188E+03  0.53685332938E+03 0.  0.
        2    1    3    3  502    0  0.12297988085E+02  0.11479952080E+03  0.14602419424E+03  0.18615379609E+03  0.25500000920E-02 0. -1.
       -2    1    3    3    0  502 -0.12297988085E+02 -0.11479952080E+03 -0.38417902525E+03  0.40115295579E+03  0.25500000920E-02 0.  1.
</event>
<event>
 5   0  0.7781754E-02  0.4985947E+03  0.7818609E-02  0.1014146E+00
       -1   -1    0    0    0  501  0.00000000000E+00  0.00000000000E+00  0.13386190842E+04  0.13386190842E+04  0.50400001928E-02 0.  1.
        1   -1    0    0  501    0  0.00000000000E+00  0.00000000000E+00 -0.46427827297E+02  0.46427827570E+02  0.50400001928E-02 0. -1.
    10030    2    1    2    0    0  0.00000000000E+00  0.00000000000E+00  0.12921912569E+04  0.13850469118E+04  0.49859472862E+03 0.  0.
        2    1    3    3  502    0 -0.24822663149E+03  0.97126782595E+01  0.58793330543E+03  0.63826042361E+03  0.25500000920E-02 0. -1.
       -2    1    3    3    0  502  0.24822663149E+03 -0.97126782595E+01  0.70425795147E+03  0.74678648817E+03  0.25500000920E-02 0.  1.
</event>
<event>
 5   0  0.7812547E-02  0.4971397E+03  0.7818609E-02  0.1014528E+00
       -1   -1    0    0    0  501  0.00000000000E+00  0.00000000000E+00  0.18184388784E+03  0.18184388791E+03  0.50400001928E-02 0. -1.
        1   -1    0    0  501    0  0.00000000000E+00  0.00000000000E+00 -0.33978024899E+03  0.33978024903E+03  0.50400001928E-02 0.  1.
    10030    2    1    2    0    0  0.00000000000E+00  0.00000000000E+00 -0.15793636115E+03  0.52162413694E+03  0.49713966454E+03 0.  0.
        4    1    3    3  502    0  0.10758350453E+03 -0.21683397892E+03 -0.19667749193E+02  0.24285719697E+03  0.12699999809E+01 0. -1.
       -4    1    3    3    0  502 -0.10758350453E+03  0.21683397892E+03 -0.13826861196E+03  0.27876693996E+03  0.12699999809E+01 0.  1.
</event>
<event>
 5   0  0.7602288E-02  0.4965497E+03  0.7818609E-02  0.1014683E+00
       -1   -1    0    0    0  501  0.00000000000E+00  0.00000000000E+00  0.85615986130E+03  0.85615986132E+03  0.50400001928E-02 0. -1.
        1   -1    0    0  501    0  0.00000000000E+00  0.00000000000E+00 -0.71996370949E+02  0.71996371125E+02  0.50400001928E-02 0.  1.
    10030    2    1    2    0    0  0.00000000000E+00  0.00000000000E+00  0.78416349035E+03  0.92815623244E+03  0.49654970770E+03 0.  0.
        5    1    3    3  502    0  0.22292523789E+03  0.76661273993E+02  0.24674291280E+03  0.34128692860E+03  0.46999998093E+01 0.  1.
       -5    1    3    3    0  502 -0.22292523789E+03 -0.76661273993E+02  0.53742057756E+03  0.58686930384E+03  0.46999998093E+01 0. -1.
</event>
<event>
 5   0  0.7531632E-02  0.4972540E+03  0.7818609E-02  0.1014498E+00
        1   -1    0    0  501    0  0.00000000000E+00  0.00000000000E+00  0.55964284862E+03  0.55964284864E+03  0.50400001928E-02 0. -1.
       -1   -1    0    0    0  501  0.00000000000E+00  0.00000000000E+00 -0.11045504011E+03  0.11045504022E+03  0.50400001928E-02 0.  1.
    10030    2    1    2    0    0  0.00000000000E+00  0.00000000000E+00  0.44918780851E+03  0.67009788887E+03  0.49725395257E+03 0.  0.
        3    1    3    3  502    0 -0.19041640457E+03 -0.15686333674E+03  0.18303960931E+03  0.30719378627E+03  0.10100000352E+00 0.  1.
       -3    1    3    3    0  502  0.19041640457E+03  0.15686333674E+03  0.26614819920E+03  0.36290410260E+03  0.10100000352E+00 0. -1.
</event>
<event>
 5   0  0.1211345E-01  0.4996694E+03  0.7818609E-02  0.1013865E+00
       -2   -1    0    0    0  501  0.00000000000E+00  0.00000000000E+00  0.69838290421E+02  0.69838290468E+02  0.25500000920E-02 0. -1.
        2   -1    0    0  501    0  0.00000000000E+00  0.00000000000E+00 -0.89374155185E+03  0.89374155185E+03  0.25500000920E-02 0.  1.
    10030    2    1    2    0    0  0.00000000000E+00  0.00000000000E+00 -0.82390326143E+03  0.96357984232E+03  0.49966941905E+03 0.  0.
        5    1    3    3  502    0 -0.20609797066E+03  0.42979719223E+02 -0.15271045219E+03  0.26012728034E+03  0.46999998093E+01 0. -1.
       -5    1    3    3    0  502  0.20609797066E+03 -0.42979719223E+02 -0.67119280924E+03  0.70345256197E+03  0.46999998093E+01 0.  1.
</event>
<event>
 5   0  0.7602288E-02  0.4985864E+03  0.7818609E-02  0.1014149E+00
        1   -1    0    0  501    0  0.00000000000E+00  0.00000000000E+00  0.37637746627E+03  0.37637746630E+03  0.50400001928E-02 0. -1.
       -1   -1    0    0    0  501  0.00000000000E+00  0.00000000000E+00 -0.16511904342E+03  0.16511904349E+03  0.50400001928E-02 0.  1.
    10030    2    1    2    0    0  0.00000000000E+00  0.00000000000E+00  0.21125842286E+03  0.54149650980E+03  0.49858635049E+03 0.  0.
        5    1    3    3  502    0  0.11898578422E+03  0.10210688409E+03  0.31606105553E+03  0.35284573604E+03  0.46999998093E+01 0. -1.
       -5    1    3    3    0  502 -0.11898578422E+03 -0.10210688409E+03 -0.10480263267E+03  0.18865077375E+03  0.46999998093E+01 0.  1.
</event>
<event>
 5   0  0.1231822E-01  0.5077708E+03  0.7818609E-02  0.1011770E+00
        2   -1    0    0  501    0  0.00000000000E+00  0.00000000000E+00  0.13481299831E+04  0.13481299831E+04  0.25500000920E-02 0.  1.
       -2   -1    0    0    0  501  0.00000000000E+00  0.00000000000E+00 -0.47812736802E+02  0.47812736870E+02  0.25500000920E-02 0. -1.
    10030    2    1    2    0    0  0.00000000000E+00  0.00000000000E+00  0.13003172463E+04  0.13959427200E+04  0.50777075184E+03 0.  0.
        1    1    3    3  502    0 -0.68901061940E+02 -0.20453320639E+03  0.10177305375E+04  0.10403637036E+04  0.50400001928E-02 0.  1.
       -1    1    3    3    0  502  0.68901061940E+02  0.20453320639E+03  0.28258670884E+03  0.35557901638E+03  0.50400001928E-02 0. -1.
</event>
<event>
 5   0  0.7531632E-02  0.4965836E+03  0.7818609E-02  0.1014675E+00
        1   -1    0    0  501    0  0.00000000000E+00  0.00000000000E+00  0.71476424303E+03  0.71476424305E+03  0.50400001928E-02 0. -1.
       -1   -1    0    0    0  501  0.00000000000E+00  0.00000000000E+00 -0.86250563357E+02  0.86250563505E+02  0.50400001928E-02 0.  1.
    10030    2    1    2    0    0  0.00000000000E+00  0.00000000000E+00  0.62851367967E+03  0.80101480655E+03  0.49658360301E+03 0.  0.
        3    1    3    3  502    0  0.14093967569E+03 -0.37681114000E+02 -0.98217780041E+01  0.14622016297E+03  0.10100000352E+00 0.  1.
       -3    1    3    3    0  502 -0.14093967569E+03  0.37681114000E+02  0.63833545768E+03  0.65479464358E+03  0.10100000352E+00 0. -1.
</event>
<event>
 5   0  0.7781754E-02  0.5008306E+03  0.7818609E-02  0.1013562E+00
       -1   -1    0    0    0  501  0.00000000000E+00  0.00000000000E+00  0.79461705544E+02  0.79461705704E+02  0.50400001928E-02 0.  1.
        1   -1    0    0  501    0  0.00000000000E+00  0.00000000000E+00 -0.78915772295E+03  0.78915772297E+03  0.50400001928E-02 0. -1.
    10030    2    1    2    0    0  0.00000000000E+00  0.00000000000E+00 -0.70969601741E+03  0.86861942868E+03  0.50083058487E+03 0.  0.
        2    1    3    3  502    0 -0.80815073380E+02  0.13720293665E+03 -0.69004197274E+03  0.70817628177E+03  0.25500000920E-02 0. -1.
       -2    1    3    3    0  502  0.80815073380E+02 -0.13720293665E+03 -0.19654044672E+02  0.16044314691E+03  0.25500000920E-02 0.  1.
</event>
<event>
 5   0  0.5006750E-02  0.5069542E+03  0.7818609E-02  0.1011980E+00
       -3   -1    0    0    0  501  0.00000000000E+00  0.00000000000E+00  0.23513302523E+03  0.23513304692E+03  0.10100000352E+00 0. -1.
        3   -1    0    0  501    0  0.00000000000E+00  0.00000000000E+00 -0.27325228592E+03  0.27325230459E+03  0.10100000352E+00 0.  1.
    10030    2    1    2    0    0  0.00000000000E+00  0.00000000000E+00 -0.38119260691E+02  0.50838535151E+03  0.50695422633E+03 0.  0.
        2    1    3    3  502    0  0.77687978372E+02 -0.56874924008E+02 -0.25420070369E+03  0.27182379720E+03  0.25500000920E-02 0.  1.
       -2    1    3    3    0  502 -0.77687978372E+02  0.56874924008E+02  0.21608144300E+03  0.23656155431E+03  0.25500000920E-02 0. -1.
</event>
<event>
 5   0  0.1231822E-01  0.4964849E+03  0.7818609E-02  0.1014701E+00
        2   -1    0    0  501    0  0.00000000000E+00  0.00000000000E+00  0.10799669823E+03  0.10799669826E+03  0.25500000920E-02 0.  1.
       -2   -1    0    0    0  501  0.00000000000E+00  0.00000000000E+00 -0.57061284880E+03  0.57061284880E+03  0.25500000920E-02 0. -1.
    10030    2    1    2    0    0  0.00000000000E+00  0.00000000000E+00 -0.46261615057E+03  0.67860954706E+03  0.49648485837E+03 0.  0.
        1    1    3    3  502    0  0.13406887199E+03 -0.12258454754E+03 -0.64036776520E-01  0.18166297877E+03  0.50400001928E-02 0.  1.
       -1    1    3    3    0  502 -0.13406887199E+03  0.12258454754E+03 -0.46255211380E+03  0.49694656829E+03  0.50400001928E-02 0. -1.
</event>
<event>
 5   0  0.1191894E-01  0.4989185E+03  0.7818609E-02  0.1014062E+00
        2   -1    0    0  501    0  0.00000000000E+00  0.00000000000E+00  0.41796578912E+03  0.41796578913E+03  0.25500000920E-02 0. -1.
       -2   -1    0    0    0  501  0.00000000000E+00  0.00000000000E+00 -0.14888760970E+03  0.14888760972E+03  0.25500000920E-02 0.  1.
    10030    2    1    2    0    0  0.00000000000E+00  0.00000000000E+00  0.26907817942E+03  0.56685339885E+03  0.49891853959E+03 0.  0.
        3    1    3    3  502    0 -0.73721045892E+01  0.72032045856E+02  0.40576353702E+03  0.41217353352E+03  0.10100000352E+00 0. -1.
       -3    1    3    3    0  502  0.73721045892E+01 -0.72032045856E+02 -0.13668535760E+03  0.15467986533E+03  0.10100000352E+00 0.  1.
</event>
<event>
 5   0  0.5006750E-02  0.5076135E+03  0.7818609E-02  0.1011811E+00
        3   -1    0    0  501    0  0.00000000000E+00  0.00000000000E+00  0.27567933460E+03  0.27567935310E+03  0.10100000352E+00 0. -1.
       -3   -1    0    0    0  501  0.00000000000E+00  0.00000000000E+00 -0.23366953013E+03  0.23366955196E+03  0.10100000352E+00 0.  1.
    10030    2    1    2    0    0  0.00000000000E+00  0.00000000000E+00  0.42009804462E+02  0.50934890506E+03  0.50761351776E+03 0.  0.
        5    1    3    3  502    0  0.23985929573E+03  0.18568952921E+02  0.10201810522E+03  0.26135621582E+03  0.46999998093E+01 0.  1.
       -5    1    3    3    0  502 -0.23985929573E+03 -0.18568952921E+02 -0.60008300754E+02  0.24799268924E+03  0.46999998093E+01 0. -1.
</event>
<event>
 5   0  0.1231822E-01  0.4989855E+03  0.7818609E-02  0.1014044E+00
        2   -1    0    0  501    0  0.00000000000E+00  0.00000000000E+00  0.39834646826E+03  0.39834646827E+03  0.25500000920E-02 0. -1.
       -2   -1    0    0    0  501  0.00000000000E+00  0.00000000000E+00 -0.15626252525E+03  0.15626252527E+03  0.25500000920E-02 0.  1.
    10030    2    1    2    0    0  0.00000000000E+00  0.00000000000E+00  0.24208394301E+03  0.55460899354E+03  0.49898547098E+03 0.  0.
        1    1    3    3  502    0  0.21887931020E+02  0.20343821012E+03 -0.37632027023E+02  0.20804412115E+03  0.50400001928E-02 0.  1.
       -1    1    3    3    0  502 -0.21887931020E+02 -0.20343821012E+03  0.27971597003E+03  0.34656487239E+03  0.50400001928E-02 0. -1.
</event>
<event>
 5   0  0.1191894E-01  0.4993637E+03  0.7818609E-02  0.1013945E+00
        2   -1    0    0  501    0  0.00000000000E+00  0.00000000000E+00  0.13190377560E+04  0.13190377560E+04  0.25500000920E-02 0.  1.
       -2   -1    0    0    0  501  0.00000000000E+00  0.00000000000E+00 -0.47262497057E+02  0.47262497126E+02  0.25500000920E-02 0. -1.
    10030    2    1    2    0    0  0.00000000000E+00  0.00000000000E+00  0.12717752589E+04  0.13663002531E+04  0.49936366751E+03 0.  0.
        3    1    3    3  502    0 -0.21487767499E+03 -0.80273936362E+02  0.36607203765E+03  0.43200123497E+03  0.10100000352E+00 0. -1.
       -3    1    3    3    0  502  0.21487767499E+03  0.80273936362E+02  0.90570322126E+03  0.93429901813E+03  0.10100000352E+00 0.  1.
</event>
<event>
 5   0  0.1279188E-01  0.4991171E+03  0.7818609E-02  0.1014010E+00
       -2   -1    0    0    0  501  0.00000000000E+00  0.00000000000E+00  0.92344806515E+02  0.92344806551E+02  0.25500000920E-02 0.  1.
        2   -1    0    0  501    0  0.00000000000E+00  0.00000000000E+00 -0.67442315194E+03  0.67442315194E+03  0.25500000920E-02 0. -1.
    10030    2    1    2    0    0  0.00000000000E+00  0.00000000000E+00 -0.58207834542E+03  0.76676795849E+03  0.49911712249E+03 0.  0.
        2    1    3    3  502    0  0.11609605196E+03 -0.38165363358E+02  0.43230252743E+02  0.12962925210E+03  0.25500000920E-02 0.  1.
       -2    1    3    3    0  502 -0.11609605196E+03  0.38165363358E+02 -0.62530859817E+03  0.63713870640E+03  0.25500000920E-02 0. -1.
</event>
<event>
 5   0  0.1231822E-01  0.5044085E+03  0.7818609E-02  0.1012635E+00
        2   -1    0    0  501    0  0.00000000000E+00  0.00000000000E+00  0.10531789993E+04  0.10531789993E+04  0.25500000920E-02 0.  1.
       -2   -1    0    0    0  501  0.00000000000E+00  0.00000000000E+00 -0.60395216444E+02  0.60395216498E+02  0.25500000920E-02 0. -1.
    10030    2    1    2    0    0  0.00000000000E+00  0.00000000000E+00  0.99278378287E+03  0.11135742158E+04  0.50440846008E+03 0.  0.
        1    1    3    3  502    0  0.20267066529E+03  0.95695092507E+02  0.75170191098E+03  0.78440341171E+03  0.50400001928E-02 0.  1.
       -1    1    3    3    0  502 -0.20267066529E+03 -0.95695092507E+02  0.24108187188E+03  0.32917080410E+03  0.50400001928E-02 0. -1.
</event>
<event>
 5   0  0.7602288E-02  0.4956742E+03  0.7818609E-02  0.1014914E+00
        1   -1    0    0  501    0  0.00000000000E+00  0.00000000000E+00  0.37480388440E+03  0.37480388444E+03  0.50400001928E-02 0.  1.
       -1   -1    0    0    0  501  0.00000000000E+00  0.00000000000E+00 -0.16388100596E+03  0.16388100604E+03  0.50400001928E-02 0. -1.
    10030    2    1    2    0    0  0.00000000000E+00  0.00000000000E+00  0.21092287845E+03  0.53868489047E+03  0.49567423836E+03 0.  0.
        5    1    3    3  502    0 -0.14489023705E+03 -0.67490217198E+01 -0.11287540647E+03  0.18385232517E+03  0.46999998093E+01 0. -1.
       -5    1    3    3    0  502  0.14489023705E+03  0.67490217198E+01  0.32379828491E+03  0.35483256530E+03  0.46999998093E+01 0.  1.
</event>
<event>
 5   0  0.7531632E-02  0.4974438E+03  0.7818609E-02  0.1014448E+00
        1   -1    0    0  501    0  0.00000000000E+00  0.00000000000E+00  0.19099600497E+03  0.19099600504E+03  0.50400001928E-02 0. -1.
       -1   -1    0    0    0  501  0.00000000000E+00  0.00000000000E+00 -0.32389468867E+03  0.32389468871E+03  0.50400001928E-02 0.  1.
    10030    2    1    2    0    0  0.00000000000E+00  0.00000000000E+00 -0.13289868369E+03  0.51489069375E+03  0.49744383239E+03 0.  0.
        3    1    3    3  502    0 -0.20324551595E+03 -0.49639624846E+02  0.72766053694E+02  0.22151239442E+03  0.10100000352E+00 0. -1.
       -3    1    3    3    0  502  0.20324551595E+03  0.49639624846E+02 -0.20566473739E+03  0.29337829933E+03  0.10100000352E+00 0.  1.
</event>
<event>
 5   0  0.1279188E-01  0.4967748E+03  0.7818609E-02  0.1014624E+00
       -2   -1    0    0    0  501  0.00000000000E+00  0.00000000000E+00  0.85672247173E+02  0.85672247211E+02  0.25500000920E-02 0. -1.
        2   -1    0    0  501    0  0.00000000000E+00  0.00000000000E+00 -0.72014336834E+03  0.72014336835E+03  0.25500000920E-02 0.  1.
    10030    2    1    2    0    0  0.00000000000E+00  0.00000000000E+00 -0.63447112117E+03  0.80581561556E+03  0.49677480077E+03 0.  0.
        2    1    3    3  502    0  0.12830869579E+03 -0.14158148806E+03 -0.57467303698E+03  0.60560510121E+03  0.25500000920E-02 0.  1.
       -2    1    3    3    0  502 -0.12830869579E+03  0.14158148806E+03 -0.59798084194E+02  0.20021051435E+03  0.25500000920E-02 0. -1.
</event>
<event>
 5   0  0.7531632E-02  0.5126176E+03  0.7818609E-02  0.1010537E+00
       -1   -1    0    0    0  501  0.00000000000E+00  0.00000000000E+00  0.23551311587E+03  0.23551311592E+03  0.50400001928E-02 0. -1.
        1   -1    0    0  501    0  0.00000000000E+00  0.00000000000E+00 -0.27894075908E+03  0.27894075912E+03  0.50400001928E-02 0.  1.
    10030    2    1    2    0    0  0.00000000000E+00  0.00000000000E+00 -0.43427643212E+02  0.51445387504E+03  0.51261762490E+03 0.  0.
        3    1    3    3  502    0 -0.39183303970E+02 -0.23465272980E+03  0.74005828932E+02  0.24914675962E+03  0.10100000352E+00 0.  1.
       -3    1    3    3    0  502  0.39183303970E+02  0.23465272980E+03 -0.11743347214E+03  0.26530711542E+03  0.10100000352E+00 0. -1.
</event>
<event>
 5   0  0.7531632E-02  0.4968769E+03  0.7818609E-02  0.1014597E+00
        1   -1    0    0  501    0  0.00000000000E+00  0.00000000000E+00  0.75186502391E+02  0.75186502560E+02  0.50400001928E-02 0.  1.
       -1   -1    0    0    0  501  0.00000000000E+00  0.00000000000E+00 -0.82091414821E+03  0.82091414822E+03  0.50400001928E-02 0. -1.
    10030    2    1    2    0    0  0.00000000000E+00  0.00000000000E+00 -0.74572764581E+03  0.89610065078E+03  0.49687690085E+03 0.  0.
        3    1    3    3  502    0  0.15459332324E+03  0.54466398135E+02 -0.70956649865E+03  0.72825154330E+03  0.10100000352E+00 0.  1.
       -3    1    3    3    0  502 -0.15459332324E+03 -0.54466398135E+02 -0.36161147167E+02  0.16784910748E+03  0.10100000352E+00 0. -1.
</event>
<event>
 5   0  0.1211345E-01  0.5131162E+03  0.7818609E-02  0.1010411E+00
       -2   -1    0    0    0  501  0.00000000000E+00  0.00000000000E+00  0.34472753534E+03  0.34472753535E+03  0.25500000920E-02 0.  1.
        2   -1    0    0  501    0  0.00000000000E+00  0.00000000000E+00 -0.19093934815E+03  0.19093934816E+03  0.25500000920E-02 0. -1.
    10030    2    1    2    0    0  0.00000000000E+00  0.00000000000E+00  0.15378818720E+03  0.53566688351E+03  0.51311616966E+03 0.  0.
        5    1    3    3  502    0 -0.21750927121E+03  0.85495738312E+02  0.18727730880E+03  0.29952409706E+03  0.46999998093E+01 0.  1.
       -5    1    3    3    0  502  0.21750927121E+03 -0.85495738312E+02 -0.33489121600E+02  0.23614278645E+03  0.46999998093E+01 0. -1.
</event>
<event>
 5   0  0.1191894E-01  0.5028708E+03  0.7818609E-02  0.1013032E+00
       -2   -1    0    0    0  501  0.00000000000E+00  0.00000000000E+00  0.68222719902E+02  0.68222719950E+02  0.25500000920E-02 0. -1.
        2   -1    0    0  501    0  0.00000000000E+00  0.00000000000E+00 -0.92666732244E+03  0.92666732245E+03  0.25500000920E-02 0.  1.
    10030    2    1    2    0    0  0.00000000000E+00  0.00000000000E+00 -0.85844460254E+03  0.99489004240E+03  0.50287081923E+03 0.  0.
        3    1    3    3  502    0 -0.10853675461E+03  0.18179415887E+03 -0.69751841079E+03  0.72894532504E+03  0.10100000352E+00 0.  1.
       -3    1    3    3    0  502  0.10853675461E+03 -0.18179415887E+03 -0.16092619175E+03  0.26594471736E+03  0.10100000352E+00 0. -1.
</event>
<event>
 5   0  0.7602288E-02  0.4987026E+03  0.7818609E-02  0.1014118E+00
        1   -1    0    0  501    0  0.00000000000E+00  0.00000000000E+00  0.14265472577E+03  0.14265472586E+03  0.50400001928E-02 0. -1.
       -1   -1    0    0    0  501  0.00000000000E+00  0.00000000000E+00 -0.43585000467E+03  0.43585000470E+03  0.50400001928E-02 0.  1.
    10030    2    1    2    0    0  0.00000000000E+00  0.00000000000E+00 -0.29319527891E+03  0.57850473056E+03  0.49870256837E+03 0.  0.
        5    1    3    3  502    0 -0.13182640489E+02  0.13047184140E+03  0.99362861875E+02  0.16459572208E+03  0.46999998093E+01 0. -1.
       -5    1    3    3    0  502  0.13182640489E+02 -0.13047184140E+03 -0.39255814078E+03  0.41390900848E+03  0.46999998093E+01 0.  1.
</event>
<event>
 5   0  0.1279188E-01  0.4992558E+03  0.7818609E-02  0.1013973E+00
        2   -1    0    0  501    0  0.00000000000E+00  0.00000000000E+00  0.49349482196E+03  0.49349482197E+03  0.25500000920E-02 0. -1.
       -2   -1    0    0    0  501  0.00000000000E+00  0.00000000000E+00 -0.12627099077E+03  0.12627099080E+03  0.25500000920E-02 0.  1.
    10030    2    1    2    0    0  0.00000000000E+00  0.00000000000E+00  0.36722383119E+03  0.61976581276E+03  0.49925576659E+03 0.  0.
        2    1    3    3  502    0 -0.64218687954E+01  0.62316886393E+02 -0.11635385615E+03  0.13214709447E+03  0.25500000920E-02 0.  1.
       -2    1    3    3    0  502  0.64218687954E+01 -0.62316886393E+02  0.48357768734E+03  0.48761871829E+03  0.25500000920E-02 0. -1.
</event>
<event>
 5   0  0.7416638E-02  0.4726545E+03  0.7818609E-02  0.1021174E+00
        1   -1    0    0  501    0  0.00000000000E+00  0.00000000000E+00  0.43682003952E+03  0.43682003955E+03  0.50400001928E-02 0. -1.
       -1   -1    0    0    0  501  0.00000000000E+00  0.00000000000E+00 -0.12785715617E+03  0.12785715627E+03  0.50400001928E-02 0.  1.
    10030    2    1    2    0    0  0.00000000000E+00  0.00000000000E+00  0.30896288335E+03  0.56467719583E+03  0.47265449559E+03 0.  0.
        1    1    3    3  502    0  0.10253367934E+03  0.21182255865E+03  0.18034362217E+03  0.29648907878E+03  0.50400001928E-02 0.  1.
       -1    1    3    3    0  502 -0.10253367934E+03 -0.21182255865E+03  0.12861926118E+03  0.26818811705E+03  0.50400001928E-02 0. -1.
</event>
<event>
 5   0  0.7602288E-02  0.5004876E+03  0.7818609E-02  0.1013652E+00
       -1   -1    0    0    0  501  0.00000000000E+00  0.00000000000E+00  0.78087603718E+03  0.78087603720E+03  0.50400001928E-02 0. -1.
        1   -1    0    0  501    0  0.00000000000E+00  0.00000000000E+00 -0.80194485215E+02  0.80194485373E+02  0.50400001928E-02 0.  1.
    10030    2    1    2    0    0  0.00000000000E+00  0.00000000000E+00  0.70068155196E+03  0.86107052257E+03  0.50048756985E+03 0.  0.
        5    1    3    3  502    0  0.20866178631E+03  0.10956717635E+03  0.49485104075E+03  0.54812804136E+03  0.46999998093E+01 0. -1.
       -5    1    3    3    0  502 -0.20866178631E+03 -0.10956717635E+03  0.20583051122E+03  0.31294248121E+03  0.46999998093E+01 0.  1.
</event>
<event>
 5   0  0.1191894E-01  0.5006940E+03  0.7818609E-02  0.1013598E+00
        2   -1    0    0  501    0  0.00000000000E+00  0.00000000000E+00  0.27540914254E+03  0.27540914255E+03  0.25500000920E-02 0. -1.
       -2   -1    0    0    0  501  0.00000000000E+00  0.00000000000E+00 -0.22756553281E+03  0.22756553283E+03  0.25500000920E-02 0.  1.
    10030    2    1    2    0    0  0.00000000000E+00  0.00000000000E+00  0.47843609725E+02  0.50297467538E+03  0.50069403140E+03 0.  0.
        3    1    3    3  502    0 -0.15218967057E+03  0.19871332997E+03  0.28938018745E+02  0.25196448652E+03  0.10100000352E+00 0.  1.
       -3    1    3    3    0  502  0.15218967057E+03 -0.19871332997E+03  0.18905590980E+02  0.25101018886E+03  0.10100000352E+00 0. -1.
</event>
<event>
 5   0  0.5006750E-02  0.4990292E+03  0.7818609E-02  0.1014033E+00
       -4   -1    0    0    0  501  0.00000000000E+00  0.00000000000E+00  0.70126400842E+02  0.70137899847E+02  0.12699999809E+01 0.  1.
        4   -1    0    0  501    0  0.00000000000E+00  0.00000000000E+00 -0.88770535123E+03  0.88770625970E+03  0.12699999809E+01 0. -1.
    10030    2    1    2    0    0  0.00000000000E+00  0.00000000000E+00 -0.81757895039E+03  0.95784415955E+03  0.49902915131E+03 0.  0.
        5    1    3    3  502    0  0.21237756772E+03  0.11577996627E+02 -0.65902964200E+03  0.69251746571E+03  0.46999998093E+01 0. -1.
       -5    1    3    3    0  502 -0.21237756772E+03 -0.11577996627E+02 -0.15854930839E+03  0.26532669384E+03  0.46999998093E+01 0.  1.
</event>
<event>
 5   0  0.7531632E-02  0.4976644E+03  0.7818609E-02  0.1014390E+00
        1   -1    0    0  501    0  0.00000000000E+00  0.00000000000E+00  0.30800655870E+03  0.30800655874E+03  0.50400001928E-02 0. -1.
       -1   -1    0    0    0  501  0.00000000000E+00  0.00000000000E+00 -0.20102647381E+03  0.20102647387E+03  0.50400001928E-02 0.  1.
    10030    2    1    2    0    0  0.00000000000E+00  0.00000000000E+00  0.10698008489E+03  0.50903303261E+03  0.49766443486E+03 0.  0.
        3    1    3    3  502    0  0.15984063397E+03 -0.51832469695E+02 -0.13422850893E+03  0.21506495761E+03  0.10100000352E+00 0.  1.
       -3    1    3    3    0  502 -0.15984063397E+03  0.51832469695E+02  0.24120859382E+03  0.29396807500E+03  0.10100000352E+00 0. -1.
</event>
<event>
 5   0  0.7602288E-02  0.5054683E+03  0.7818609E-02  0.1012361E+00
       -1   -1    0    0    0  501  0.00000000000E+00  0.00000000000E+00  0.79552731209E+02  0.79552731369E+02  0.50400001928E-02 0. -1.
        1   -1    0    0  501    0  0.00000000000E+00  0.00000000000E+00 -0.80292100598E+03  0.80292100599E+03  0.50400001928E-02 0.  1.
    10030    2    1    2    0    0  0.00000000000E+00  0.00000000000E+00 -0.72336827477E+03  0.88247373736E+03  0.50546833352E+03 0.  0.
        5    1    3    3  502    0  0.60675723759E+01 -0.92652162519E+02 -0.77198288888E+03  0.77756087181E+03  0.46999998093E+01 0.  1.
       -5    1    3    3    0  502 -0.60675723759E+01  0.92652162519E+02  0.48614614112E+02  0.10491286555E+03  0.46999998093E+01 0. -1.
</event>
<event>
 5   0  0.7781754E-02  0.4547631E+03  0.7818609E-02  0.1026311E+00
        1   -1    0    0  501    0  0.00000000000E+00  0.00000000000E+00  0.74799424912E+03  0.74799424914E+03  0.50400001928E-02 0.  1.
       -1   -1    0    0    0  501  0.00000000000E+00  0.00000000000E+00 -0.69121349402E+02  0.69121349586E+02  0.50400001928E-02 0. -1.
    10030    2    1    2    0    0  0.00000000000E+00  0.00000000000E+00  0.67887289972E+03  0.81711559873E+03  0.45476311164E+03 0.  0.
        2    1    3    3  502    0 -0.21444218597E+02  0.94051901713E+02 -0.30531916422E+02  0.10118207674E+03  0.25500000920E-02 0. -1.
       -2    1    3    3    0  502  0.21444218597E+02 -0.94051901713E+02  0.70940481614E+03  0.71593352198E+03  0.25500000920E-02 0.  1.
</event>
<event>
 5   0  0.5006750E-02  0.5005856E+03  0.7818609E-02  0.1013626E+00
        3   -1    0    0  501    0  0.00000000000E+00  0.00000000000E+00  0.50496879972E+03  0.50496880982E+03  0.10100000352E+00 0. -1.
       -3   -1    0    0    0  501  0.00000000000E+00  0.00000000000E+00 -0.12406008458E+03  0.12406012569E+03  0.10100000352E+00 0.  1.
    10030    2    1    2    0    0  0.00000000000E+00  0.00000000000E+00  0.38090871514E+03  0.62902893551E+03  0.50058560950E+03 0.  0.
        1    1    3    3  502    0  0.21774451656E+03 -0.99886806251E+02  0.99350220437E+02  0.25934632229E+03  0.50400001928E-02 0.  1.
       -1    1    3    3    0  502 -0.21774451656E+03  0.99886806251E+02  0.28155849470E+03  0.36968261322E+03  0.50400001928E-02 0. -1.
</event>
<event>
 5   0  0.1243803E-01  0.5010057E+03  0.7818609E-02  0.1013517E+00
        2   -1    0    0  501    0  0.00000000000E+00  0.00000000000E+00  0.18905247278E+04  0.18905247278E+04  0.25500000920E-02 0.  1.
       -2   -1    0    0    0  501  0.00000000000E+00  0.00000000000E+00 -0.33192736962E+02  0.33192737060E+02  0.25500000920E-02 0. -1.
    10030    2    1    2    0    0  0.00000000000E+00  0.00000000000E+00  0.18573319908E+04  0.19237174649E+04  0.50100574889E+03 0.  0.
        4    1    3    3  502    0  0.22527301201E+03  0.29443715521E+02  0.52348610781E+03  0.57066117819E+03  0.12699999809E+01 0. -1.
       -4    1    3    3    0  502 -0.22527301201E+03 -0.29443715521E+02  0.13338458830E+04  0.13530562867E+04  0.12699999809E+01 0.  1.
</event>
<event>
 5   0  0.7812547E-02  0.4996689E+03  0.7818609E-02  0.1013865E+00
       -1   -1    0    0    0  501  0.00000000000E+00  0.00000000000E+00  0.19321265605E+03  0.19321265612E+03  0.50400001928E-02 0. -1.
        1   -1    0    0  501    0  0.00000000000E+00  0.00000000000E+00 -0.32304951632E+03  0.32304951636E+03  0.50400001928E-02 0.  1.
    10030    2    1    2    0    0  0.00000000000E+00  0.00000000000E+00 -0.12983686027E+03  0.51626217248E+03  0.49966891082E+03 0.  0.
        4    1    3    3  502    0  0.22658517020E+03 -0.99596244799E+02 -0.29798597025E+02  0.24929865747E+03  0.12699999809E+01 0.  1.
       -4    1    3    3    0  502 -0.22658517020E+03  0.99596244799E+02 -0.10003826324E+03  0.26696351501E+03  0.12699999809E+01 0. -1.
</event>
<event>
 5   0  0.7531632E-02  0.4987245E+03  0.7818609E-02  0.1014112E+00
       -1   -1    0    0    0  501  0.00000000000E+00  0.00000000000E+00  0.10472542616E+03  0.10472542628E+03  0.50400001928E-02 0.  1.
        1   -1    0    0  501    0  0.00000000000E+00  0.00000000000E+00 -0.59375772533E+03  0.59375772535E+03  0.50400001928E-02 0. -1.
    10030    2    1    2    0    0  0.00000000000E+00  0.00000000000E+00 -0.48903229917E+03  0.69848315164E+03  0.49872449658E+03 0.  0.
        3    1    3    3  502    0 -0.23957911800E+03 -0.40834824801E+02 -0.32269438666E+03  0.40397687320E+03  0.10100000352E+00 0. -1.
       -3    1    3    3    0  502  0.23957911800E+03  0.40834824801E+02 -0.16633791251E+03  0.29450627844E+03  0.10100000352E+00 0.  1.
</event>
<event>
 5   0  0.5006750E-02  0.4811601E+03  0.7818609E-02  0.1018817E+00
        4   -1    0    0  501    0  0.00000000000E+00  0.00000000000E+00  0.31755616092E+03  0.31755870046E+03  0.12699999809E+01 0.  1.
       -4   -1    0    0    0  501  0.00000000000E+00  0.00000000000E+00 -0.18225762436E+03  0.18226204909E+03  0.12699999809E+01 0. -1.
    10030    2    1    2    0    0  0.00000000000E+00  0.00000000000E+00  0.13529853656E+03  0.49982074955E+03  0.48116014765E+03 0.  0.
        2    1    3    3  502    0 -0.19306276400E+03  0.14309561522E+03  0.55842465206E+02  0.24671434264E+03  0.25500000920E-02 0.  1.
       -2    1    3    3    0  502  0.19306276400E+03 -0.14309561522E+03  0.79456071353E+02  0.25310640691E+03  0.25500000920E-02 0. -1.
</event>
<event>
 5   0  0.1231822E-01  0.5907510E+03  0.7818609E-02  0.9924783E-01
       -2   -1    0    0    0  501  0.00000000000E+00  0.00000000000E+00  0.11099784496E+03  0.11099784499E+03  0.25500000920E-02 0.  1.
        2   -1    0    0  501    0  0.00000000000E+00  0.00000000000E+00 -0.78602150937E+03  0.78602150937E+03  0.25500000920E-02 0. -1.
    10030    2    1    2    0    0  0.00000000000E+00  0.00000000000E+00 -0.67502366441E+03  0.89701935435E+03  0.59075102588E+03 0.  0.
        1    1    3    3  502    0  0.13878472140E+03  0.85327805527E+02  0.36605945395E+02  0.16697912610E+03  0.50400001928E-02 0.  1.
       -1    1    3    3    0  502 -0.13878472140E+03 -0.85327805527E+02 -0.71162960980E+03  0.73004022825E+03  0.50400001928E-02 0. -1.
</event>
<event>
 5   0  0.1191894E-01  0.5001216E+03  0.7818609E-02  0.1013747E+00
        2   -1    0    0  501    0  0.00000000000E+00  0.00000000000E+00  0.23859176999E+04  0.23859176999E+04  0.25500000920E-02 0. -1.
       -2   -1    0    0    0  501  0.00000000000E+00  0.00000000000E+00 -0.26208116364E+02  0.26208116488E+02  0.25500000920E-02 0.  1.
    10030    2    1    2    0    0  0.00000000000E+00  0.00000000000E+00  0.23597095835E+04  0.24121258164E+04  0.50012162067E+03 0.  0.
        3    1    3    3  502    0 -0.96039911342E+02 -0.47123593100E+02  0.22699783023E+04  0.22724977009E+04  0.10100000352E+00 0. -1.
       -3    1    3    3    0  502  0.96039911342E+02  0.47123593100E+02  0.89731281259E+02  0.13962811549E+03  0.10100000352E+00 0.  1.
</event>
<event>
 5   0  0.1191894E-01  0.5084650E+03  0.7818609E-02  0.1011593E+00
       -2   -1    0    0    0  501  0.00000000000E+00  0.00000000000E+00  0.52781568246E+03  0.52781568247E+03  0.25500000920E-02 0. -1.
        2   -1    0    0  501    0  0.00000000000E+00  0.00000000000E+00 -0.12245592544E+03  0.12245592547E+03  0.25500000920E-02 0.  1.
    10030    2    1    2    0    0  0.00000000000E+00  0.00000000000E+00  0.40535975702E+03  0.65027160794E+03  0.50846497567E+03 0.  0.
        3    1    3    3  502    0  0.97295565779E+02 -0.21064358839E+02  0.50185310097E+03  0.51163139025E+03  0.10100000352E+00 0. -1.
       -3    1    3    3    0  502 -0.97295565779E+02  0.21064358839E+02 -0.96493343950E+02  0.13864021769E+03  0.10100000352E+00 0.  1.
</event>
<event>
 5   0  0.7812547E-02  0.4861429E+03  0.7818609E-02  0.1017460E+00
        1   -1    0    0  501    0  0.00000000000E+00  0.00000000000E+00  0.72998402696E+03  0.72998402697E+03  0.50400001928E-02 0.  1.
       -1   -1    0    0    0  501  0.00000000000E+00  0.00000000000E+00 -0.80938395595E+02  0.80938395752E+02  0.50400001928E-02 0. -1.
    10030    2    1    2    0    0  0.00000000000E+00  0.00000000000E+00  0.64904563136E+03  0.81092242272E+03  0.48614292558E+03 0.  0.
        4    1    3    3  502    0  0.10978187115E+03 -0.64617295950E+02  0.66983699463E+03  0.68184357916E+03  0.12699999809E+01 0.  1.
       -4    1    3    3    0  502 -0.10978187115E+03  0.64617295950E+02 -0.20791363271E+02  0.12907884356E+03  0.12699999809E+01 0. -1.
</event>
<event>
 5   0  0.1231822E-01  0.4982861E+03  0.7818609E-02  0.1014227E+00
       -2   -1    0    0    0  501  0.00000000000E+00  0.00000000000E+00  0.27643505859E+03  0.27643505860E+03  0.25500000920E-02 0.  1.
        2   -1    0    0  501    0  0.00000000000E+00  0.00000000000E+00 -0.22454558082E+03  0.22454558084E+03  0.25500000920E-02 0. -1.
    10030    2    1    2    0    0  0.00000000000E+00  0.00000000000E+00  0.51889477769E+02  0.50098063944E+03  0.49828614589E+03 0.  0.
        1    1    3    3  502    0 -0.52380695408E+02 -0.17030978259E+03 -0.14913222698E+03  0.23235658038E+03  0.50400001928E-02 0. -1.
       -1    1    3    3    0  502  0.52380695408E+02  0.17030978259E+03  0.20102170475E+03  0.26862405906E+03  0.50400001928E-02 0.  1.
</event>
<event>
 5   0  0.7781754E-02  0.5069043E+03  0.7818609E-02  0.1011992E+00
        1   -1    0    0  501    0  0.00000000000E+00  0.00000000000E+00  0.26003938562E+03  0.26003938567E+03  0.50400001928E-02 0.  1.
       -1   -1    0    0    0  501  0.00000000000E+00  0.00000000000E+00 -0.24703179128E+03  0.24703179134E+03  0.50400001928E-02 0. -1.
    10030    2    1    2    0    0  0.00000000000E+00  0.00000000000E+00  0.13007594332E+02  0.50707117700E+03  0.50690431152E+03 0.  0.
        2    1    3    3  502    0 -0.50622427312E+01 -0.19324360981E+03  0.17047626155E+03  0.25774187629E+03  0.25500000920E-02 0.  1.
       -2    1    3    3    0  502  0.50622427312E+01  0.19324360981E+03 -0.15746866722E+03  0.24932930071E+03  0.25500000920E-02 0. -1.
</event>
<event>
 5   0  0.7416638E-02  0.4959372E+03  0.7818609E-02  0.1014845E+00
        1   -1    0    0  501    0  0.00000000000E+00  0.00000000000E+00  0.40689338784E+03  0.40689338787E+03  0.50400001928E-02 0. -1.
       -1   -1    0    0    0  501  0.00000000000E+00  0.00000000000E+00 -0.15111678842E+03  0.15111678851E+03  0.50400001928E-02 0.  1.
    10030    2    1    2    0    0  0.00000000000E+00  0.00000000000E+00  0.25577659941E+03  0.55801017638E+03  0.49593718164E+03 0.  0.
        1    1    3    3  502    0  0.10211854447E+03  0.58108440858E+02 -0.11780885231E+03  0.16638423522E+03  0.50400001928E-02 0.  1.
       -1    1    3    3    0  502 -0.10211854447E+03 -0.58108440858E+02  0.37358545172E+03  0.39162594115E+03  0.50400001928E-02 0. -1.
</event>
<event>
 5   0  0.7602288E-02  0.5008015E+03  0.7818609E-02  0.1013570E+00
        1   -1    0    0  501    0  0.00000000000E+00  0.00000000000E+00  0.94075833805E+03  0.94075833806E+03  0.50400001928E-02 0.  1.
       -1   -1    0    0    0  501  0.00000000000E+00  0.00000000000E+00 -0.66648923424E+02  0.66648923614E+02  0.50400001928E-02 0. -1.
    10030    2    1    2    0    0  0.00000000000E+00  0.00000000000E+00  0.87410941462E+03  0.10074072617E+04  0.50080147977E+03 0.  0.
        5    1    3    3  502    0  0.10790532873E+03  0.56965479488E+02  0.87680602245E+03  0.88526804801E+03  0.46999998093E+01 0.  1.
       -5    1    3    3    0  502 -0.10790532873E+03 -0.56965479488E+02 -0.26966078281E+01  0.12213921366E+03  0.46999998093E+01 0. -1.
</event>
<event>
 5   0  0.1279188E-01  0.5008652E+03  0.7818609E-02  0.1013553E+00
        2   -1    0    0  501    0  0.00000000000E+00  0.00000000000E+00  0.12837099939E+04  0.12837099939E+04  0.25500000920E-02 0. -1.
       -2   -1    0    0    0  501  0.00000000000E+00  0.00000000000E+00 -0.48855641862E+02  0.48855641928E+02  0.25500000920E-02 0.  1.
    10030    2    1    2    0    0  0.00000000000E+00  0.00000000000E+00  0.12348543521E+04  0.13325656358E+04  0.50086515456E+03 0.  0.
        2    1    3    3  502    0 -0.17700981746E+03 -0.12168479313E+03  0.95997269376E+03  0.98371095202E+03  0.25500000920E-02 0. -1.
       -2    1    3    3    0  502  0.17700981746E+03  0.12168479313E+03  0.27488165829E+03  0.34885468382E+03  0.25500000920E-02 0.  1.
</event>
<event>
 5   0  0.1231822E-01  0.4985959E+03  0.7818609E-02  0.1014146E+00
        2   -1    0    0  501    0  0.00000000000E+00  0.00000000000E+00  0.35315494867E+03  0.35315494868E+03  0.25500000920E-02 0. -1.
       -2   -1    0    0    0  501  0.00000000000E+00  0.00000000000E+00 -0.17598358805E+03  0.17598358807E+03  0.25500000920E-02 0.  1.
    10030    2    1    2    0    0  0.00000000000E+00  0.00000000000E+00  0.17717136062E+03  0.52913853674E+03  0.49859592862E+03 0.  0.
        1    1    3    3  502    0  0.14518713992E+03  0.89164731205E+02 -0.10455094945E+03  0.19990136554E+03  0.50400001928E-02 0.  1.
       -1    1    3    3    0  502 -0.14518713992E+03 -0.89164731205E+02  0.28172231007E+03  0.32923717120E+03  0.50400001928E-02 0. -1.
</event>
<event>
 5   0  0.1211345E-01  0.4784479E+03  0.7818609E-02  0.1019563E+00
       -2   -1    0    0    0  501  0.00000000000E+00  0.00000000000E+00  0.49039714808E+03  0.49039714809E+03  0.25500000920E-02 0.  1.
        2   -1    0    0  501    0  0.00000000000E+00  0.00000000000E+00 -0.11669745593E+03  0.11669745595E+03  0.25500000920E-02 0. -1.
    10030    2    1    2    0    0  0.00000000000E+00  0.00000000000E+00  0.37369969216E+03  0.60709460405E+03  0.47844790557E+03 0.  0.
        5    1    3    3  502    0  0.37379802556E+01 -0.21264594431E+03  0.32569688329E+03  0.38901519240E+03  0.46999998093E+01 0.  1.
       -5    1    3    3    0  502 -0.37379802556E+01  0.21264594431E+03  0.48002808863E+02  0.21807941165E+03  0.46999998093E+01 0. -1.
</event>
<event>
 5   0  0.7602288E-02  0.4988133E+03  0.7818609E-02  0.1014089E+00
       -1   -1    0    0    0  501  0.00000000000E+00  0.00000000000E+00  0.13574602676E+03  0.13574602685E+03  0.50400001928E-02 0.  1.
        1   -1    0    0  501    0  0.00000000000E+00  0.00000000000E+00 -0.45823569396E+03  0.45823569399E+03  0.50400001928E-02 0. -1.
    10030    2    1    2    0    0  0.00000000000E+00  0.00000000000E+00 -0.32248966720E+03  0.59398172084E+03  0.49881329096E+03 0.  0.
        5    1    3    3  502    0  0.29675800755E+02  0.19949177743E+03  0.13375297289E+02  0.20218459632E+03  0.46999998093E+01 0.  1.
       -5    1    3    3    0  502 -0.29675800755E+02 -0.19949177743E+03 -0.33586496449E+03  0.39179712452E+03  0.46999998093E+01 0. -1.
</event>
<event>
 5   0  0.5006750E-02  0.5546808E+03  0.7818609E-02  0.1000416E+00
       -4   -1    0    0    0  501  0.00000000000E+00  0.00000000000E+00  0.10468765137E+03  0.10469535447E+03  0.12699999809E+01 0.  1.
        4   -1    0    0  501    0  0.00000000000E+00  0.00000000000E+00 -0.73469991234E+03  0.73470100999E+03  0.12699999809E+01 0. -1.
    10030    2    1    2    0    0  0.00000000000E+00  0.00000000000E+00 -0.63001226097E+03  0.83939636447E+03  0.55468081606E+03 0.  0.
        2    1    3    3  502    0 -0.28198559833E+02 -0.18537670433E+03 -0.57673938359E+01  0.18759782547E+03  0.25500000920E-02 0.  1.
       -2    1    3    3    0  502  0.28198559833E+02  0.18537670433E+03 -0.62424486713E+03  0.65179853899E+03  0.25500000920E-02 0. -1.
</event>
<event>
 5   0  0.1243803E-01  0.5038725E+03  0.7818609E-02  0.1012773E+00
        2   -1    0    0  501    0  0.00000000000E+00  0.00000000000E+00  0.31403736444E+03  0.31403736445E+03  0.25500000920E-02 0.  1.
       -2   -1    0    0    0  501  0.00000000000E+00  0.00000000000E+00 -0.20211565980E+03  0.20211565982E+03  0.25500000920E-02 0. -1.
    10030    2    1    2    0    0  0.00000000000E+00  0.00000000000E+00  0.11192170464E+03  0.51615302426E+03  0.50387248038E+03 0.  0.
        4    1    3    3  502    0 -0.18065419469E+03  0.52995956850E+02 -0.11552821299E+03  0.22089112793E+03  0.12699999809E+01 0. -1.
       -4    1    3    3    0  502  0.18065419469E+03 -0.52995956850E+02  0.22744991763E+03  0.29526189634E+03  0.12699999809E+01 0.  1.
</event>
<event>
 5   0  0.1231822E-01  0.5017020E+03  0.7818609E-02  0.1013336E+00
        2   -1    0    0  501    0  0.00000000000E+00  0.00000000000E+00  0.17096690357E+04  0.17096690357E+04  0.25500000920E-02 0. -1.
       -2   -1    0    0    0  501  0.00000000000E+00  0.00000000000E+00 -0.36806091058E+02  0.36806091146E+02  0.25500000920E-02 0.  1.
    10030    2    1    2    0    0  0.00000000000E+00  0.00000000000E+00  0.16728629447E+04  0.17464751269E+04  0.50170204021E+03 0.  0.
        1    1    3    3  502    0  0.12666660953E+03 -0.21622264816E+03  0.79680640934E+03  0.83528265728E+03  0.50400001928E-02 0.  1.
       -1    1    3    3    0  502 -0.12666660953E+03  0.21622264816E+03  0.87605653534E+03  0.91119246962E+03  0.50400001928E-02 0. -1.
</event>
<event>
 5   0  0.7812547E-02  0.5849639E+03  0.7818609E-02  0.9937102E-01
        1   -1    0    0  501    0  0.00000000000E+00  0.00000000000E+00  0.38711368670E+03  0.38711368674E+03  0.50400001928E-02 0.  1.
       -1   -1    0    0    0  501  0.00000000000E+00  0.00000000000E+00 -0.22098339311E+03  0.22098339317E+03  0.50400001928E-02 0. -1.
    10030    2    1    2    0    0  0.00000000000E+00  0.00000000000E+00  0.16613029359E+03  0.60809707990E+03  0.58496391696E+03 0.  0.
        4    1    3    3  502    0  0.13637915936E+03  0.21425953303E+02  0.35111037629E+03  0.37727769060E+03  0.12699999809E+01 0.  1.
       -4    1    3    3    0  502 -0.13637915936E+03 -0.21425953303E+02 -0.18498008270E+03  0.23081938931E+03  0.12699999809E+01 0. -1.
</event>
<event>
 5   0  0.7602288E-02  0.5068959E+03  0.7818609E-02  0.1011994E+00
       -1   -1    0    0    0  501  0.00000000000E+00  0.00000000000E+00  0.90959503395E+02  0.90959503535E+02  0.50400001928E-02 0.  1.
        1   -1    0    0  501    0  0.00000000000E+00  0.00000000000E+00 -0.70620289706E+03  0.70620289708E+03  0.50400001928E-02 0. -1.
    10030    2    1    2    0    0  0.00000000000E+00  0.00000000000E+00 -0.61524339366E+03  0.79716240061E+03  0.50689590598E+03 0.  0.
        5    1    3    3  502    0  0.69546370870E+02 -0.43166120312E+02  0.69528132361E+02  0.10750005968E+03  0.46999998093E+01 0.  1.
       -5    1    3    3    0  502 -0.69546370870E+02  0.43166120312E+02 -0.68477152603E+03  0.68966234093E+03  0.46999998093E+01 0. -1.
</event>
<event>
 5   0  0.1211345E-01  0.5014578E+03  0.7818609E-02  0.1013399E+00
       -2   -1    0    0    0  501  0.00000000000E+00  0.00000000000E+00  0.18073323044E+03  0.18073323046E+03  0.25500000920E-02 0.  1.
        2   -1    0    0  501    0  0.00000000000E+00  0.00000000000E+00 -0.34783294127E+03  0.34783294128E+03  0.25500000920E-02 0. -1.
    10030    2    1    2    0    0  0.00000000000E+00  0.00000000000E+00 -0.16709971083E+03  0.52856617174E+03  0.50145775949E+03 0.  0.
        5    1    3    3  502    0  0.10947334354E+03  0.20212968082E+03  0.21866923940E+02  0.23095686432E+03  0.46999998093E+01 0.  1.
       -5    1    3    3    0  502 -0.10947334354E+03 -0.20212968082E+03 -0.18896663477E+03  0.29760930743E+03  0.46999998093E+01 0. -1.
</event>
<event>
 5   0  0.1211345E-01  0.4993072E+03  0.7818609E-02  0.1013960E+00
       -2   -1    0    0    0  501  0.00000000000E+00  0.00000000000E+00  0.10400019817E+03  0.10400019820E+03  0.25500000920E-02 0. -1.
        2   -1    0    0  501    0  0.00000000000E+00  0.00000000000E+00 -0.59929627932E+03  0.59929627933E+03  0.25500000920E-02 0.  1.
    10030    2    1    2    0    0  0.00000000000E+00  0.00000000000E+00 -0.49529608115E+03  0.70329647753E+03  0.49930724740E+03 0.  0.
        5    1    3    3  502    0  0.20284008664E+02 -0.10779783482E+01 -0.59806786574E+03  0.59843116987E+03  0.46999998093E+01 0.  1.
       -5    1    3    3    0  502 -0.20284008664E+02  0.10779783482E+01  0.10277178459E+03  0.10486530766E+03  0.46999998093E+01 0. -1.
</event>
<event>
 5   0  0.1211345E-01  0.5066282E+03  0.7818609E-02  0.1012063E+00
       -2   -1    0    0    0  501  0.00000000000E+00  0.00000000000E+00  0.40872147440E+03  0.40872147441E+03  0.25500000920E-02 0.  1.
        2   -1    0    0  501    0  0.00000000000E+00  0.00000000000E+00 -0.15699697238E+03  0.15699697240E+03  0.25500000920E-02 0. -1.
    10030    2    1    2    0    0  0.00000000000E+00  0.00000000000E+00  0.25172450202E+03  0.56571844681E+03  0.50662820307E+03 0.  0.
        5    1    3    3  502    0  0.13438153041E+03 -0.18910063950E+03  0.23934491713E+03  0.33335495636E+03  0.46999998093E+01 0.  1.
       -5    1    3    3    0  502 -0.13438153041E+03  0.18910063950E+03  0.12379584889E+02  0.23236349045E+03  0.46999998093E+01 0. -1.
</event>
<event>
 5   0  0.1243803E-01  0.5001080E+03  0.7818609E-02  0.1013751E+00
        2   -1    0    0  501    0  0.00000000000E+00  0.00000000000E+00  0.64107908540E+03  0.64107908540E+03  0.25500000920E-02 0. -1.
       -2   -1    0    0    0  501  0.00000000000E+00  0.00000000000E+00 -0.97534012249E+02  0.97534012282E+02  0.25500000920E-02 0.  1.
    10030    2    1    2    0    0  0.00000000000E+00  0.00000000000E+00  0.54354507315E+03  0.73861309769E+03  0.50010804985E+03 0.  0.
        4    1    3    3  502    0 -0.14989669259E+03  0.13193531964E+03  0.49404314696E+03  0.53287539911E+03  0.12699999809E+01 0. -1.
       -4    1    3    3    0  502  0.14989669259E+03 -0.13193531964E+03  0.49501926191E+02  0.20573769858E+03  0.12699999809E+01 0.  1.
</event>
<event>
 5   0  0.1243803E-01  0.5042648E+03  0.7818609E-02  0.1012672E+00
        2   -1    0    0  501    0  0.00000000000E+00  0.00000000000E+00  0.17632591502E+03  0.17632591504E+03  0.25500000920E-02 0. -1.
       -2   -1    0    0    0  501  0.00000000000E+00  0.00000000000E+00 -0.36052974161E+03  0.36052974162E+03  0.25500000920E-02 0.  1.
    10030    2    1    2    0    0  0.00000000000E+00  0.00000000000E+00 -0.18420382660E+03  0.53685565666E+03  0.50426475819E+03 0.  0.
        4    1    3    3  502    0  0.95791290886E+02  0.19902637660E+03  0.37335679545E+02  0.22401570449E+03  0.12699999809E+01 0. -1.
       -4    1    3    3    0  502 -0.95791290886E+02 -0.19902637660E+03 -0.22153950614E+03  0.31283995217E+03  0.12699999809E+01 0.  1.
</event>
<event>
 5   0  0.7602288E-02  0.4986311E+03  0.7818609E-02  0.1014137E+00
       -1   -1    0    0    0  501  0.00000000000E+00  0.00000000000E+00  0.23585681222E+03  0.23585681227E+03  0.50400001928E-02 0.  1.
        1   -1    0    0  501    0  0.00000000000E+00  0.00000000000E+00 -0.26354223660E+03  0.26354223665E+03  0.50400001928E-02 0. -1.
    10030    2    1    2    0    0  0.00000000000E+00  0.00000000000E+00 -0.27685424378E+02  0.49939904892E+03  0.49863105333E+03 0.  0.
        5    1    3    3  502    0  0.12501613528E+03 -0.20299700895E+03 -0.86751276858E+02  0.25374139150E+03  0.46999998093E+01 0.  1.
       -5    1    3    3    0  502 -0.12501613528E+03  0.20299700895E+03  0.59065852480E+02  0.24565765742E+03  0.46999998093E+01 0. -1.
</event>
<event>
 5   0  0.1191894E-01  0.4822986E+03  0.7818609E-02  0.1018505E+00
        2   -1    0    0  501    0  0.00000000000E+00  0.00000000000E+00  0.17894208892E+03  0.17894208894E+03  0.25500000920E-02 0.  1.
       -2   -1    0    0    0  501  0.00000000000E+00  0.00000000000E+00 -0.32498212179E+03  0.32498212180E+03  0.25500000920E-02 0. -1.
    10030    2    1    2    0    0  0.00000000000E+00  0.00000000000E+00 -0.14604003287E+03  0.50392421074E+03  0.48229857866E+03 0.  0.
        3    1    3    3  502    0 -0.12205297036E+03 -0.46475309125E+02 -0.28483148996E+03  0.31334624587E+03  0.10100000352E+00 0. -1.
       -3    1    3    3    0  502  0.12205297036E+03  0.46475309125E+02  0.13879145709E+03  0.19057796487E+03  0.10100000352E+00 0.  1.
</event>
<event>
 5   0  0.1243803E-01  0.4963061E+03  0.7818609E-02  0.1014748E+00
       -2   -1    0    0    0  501  0.00000000000E+00  0.00000000000E+00  0.26654409192E+03  0.26654409193E+03  0.25500000920E-02 0. -1.
        2   -1    0    0  501    0  0.00000000000E+00  0.00000000000E+00 -0.23103094557E+03  0.23103094558E+03  0.25500000920E-02 0.  1.
    10030    2    1    2    0    0  0.00000000000E+00  0.00000000000E+00  0.35513146354E+02  0.49757503752E+03  0.49630608942E+03 0.  0.
        4    1    3    3  502    0  0.80275225260E+02 -0.14077933645E+03  0.20616094129E+03  0.26223439892E+03  0.12699999809E+01 0. -1.
       -4    1    3    3    0  502 -0.80275225260E+02  0.14077933645E+03 -0.17064779494E+03  0.23534063860E+03  0.12699999809E+01 0.  1.
</event>
<event>
 5   0  0.7416638E-02  0.4985358E+03  0.7818609E-02  0.1014162E+00
        1   -1    0    0  501    0  0.00000000000E+00  0.00000000000E+00  0.36598607872E+03  0.36598607876E+03  0.50400001928E-02 0.  1.
       -1   -1    0    0    0  501  0.00000000000E+00  0.00000000000E+00 -0.16977281979E+03  0.16977281987E+03  0.50400001928E-02 0. -1.
    10030    2    1    2    0    0  0.00000000000E+00  0.00000000000E+00  0.19621325893E+03  0.53575889862E+03  0.49853581062E+03 0.  0.
        1    1    3    3  502    0  0.17193563845E+03 -0.14034668009E+03  0.22004881524E+03  0.31253885438E+03  0.50400001928E-02 0.  1.
       -1    1    3    3    0  502 -0.17193563845E+03  0.14034668009E+03 -0.23835556311E+02  0.22322004424E+03  0.50400001928E-02 0. -1.
</event>
<event>
 5   0  0.1211345E-01  0.4997945E+03  0.7818609E-02  0.1013833E+00
        2   -1    0    0  501    0  0.00000000000E+00  0.00000000000E+00  0.44347897957E+03  0.44347897958E+03  0.25500000920E-02 0.  1.
       -2   -1    0    0    0  501  0.00000000000E+00  0.00000000000E+00 -0.14081534738E+03  0.14081534740E+03  0.25500000920E-02 0. -1.
    10030    2    1    2    0    0  0.00000000000E+00  0.00000000000E+00  0.30266363219E+03  0.58429432698E+03  0.49979454408E+03 0.  0.
        5    1    3    3  502    0 -0.30936155372E+01 -0.17571872435E+03  0.35895240815E+03  0.39969433553E+03  0.46999998093E+01 0.  1.
       -5    1    3    3    0  502  0.30936155372E+01  0.17571872435E+03 -0.56288775953E+02  0.18459999145E+03  0.46999998093E+01 0. -1.
</event>
<event>
 5   0  0.1279188E-01  0.4912828E+03  0.7818609E-02  0.1016080E+00
       -2   -1    0    0    0  501  0.00000000000E+00  0.00000000000E+00  0.17158811659E+03  0.17158811660E+03  0.25500000920E-02 0.  1.
        2   -1    0    0  501    0  0.00000000000E+00  0.00000000000E+00 -0.35165427507E+03  0.35165427508E+03  0.25500000920E-02 0. -1.
    10030    2    1    2    0    0  0.00000000000E+00  0.00000000000E+00 -0.18006615849E+03  0.52324239169E+03  0.49128278926E+03 0.  0.
        2    1    3    3  502    0 -0.14729154943E+03  0.17918194540E+03 -0.17615583084E+03  0.29125907168E+03  0.25500000920E-02 0. -1.
       -2    1    3    3    0  502  0.14729154943E+03 -0.17918194540E+03 -0.39103276475E+01  0.23198332000E+03  0.25500000920E-02 0.  1.
</event>
<event>
 5   0  0.7416638E-02  0.5009685E+03  0.7818609E-02  0.1013526E+00
       -1   -1    0    0    0  501  0.00000000000E+00  0.00000000000E+00  0.88189596484E+02  0.88189596628E+02  0.50400001928E-02 0. -1.
        1   -1    0    0  501    0  0.00000000000E+00  0.00000000000E+00 -0.71144854729E+03  0.71144854731E+03  0.50400001928E-02 0.  1.
    10030    2    1    2    0    0  0.00000000000E+00  0.00000000000E+00 -0.62325895081E+03  0.79963814394E+03  0.50096850348E+03 0.  0.
        1    1    3    3  502    0 -0.69110207627E+02 -0.22207823992E+03 -0.16319809494E+03  0.28412775940E+03  0.50400001928E-02 0. -1.
       -1    1    3    3    0  502  0.69110207627E+02  0.22207823992E+03 -0.46006085586E+03  0.51551038454E+03  0.50400001928E-02 0.  1.
</event>
<event>
 5   0  0.1211345E-01  0.4964905E+03  0.7818609E-02  0.1014699E+00
       -2   -1    0    0    0  501  0.00000000000E+00  0.00000000000E+00  0.74629505216E+02  0.74629505260E+02  0.25500000920E-02 0. -1.
        2   -1    0    0  501    0  0.00000000000E+00  0.00000000000E+00 -0.82575518509E+03  0.82575518510E+03  0.25500000920E-02 0.  1.
    10030    2    1    2    0    0  0.00000000000E+00  0.00000000000E+00 -0.75112567988E+03  0.90038469036E+03  0.49649048698E+03 0.  0.
        5    1    3    3  502    0 -0.16416037423E+03 -0.38980964819E+02 -0.70567666822E+03  0.72558238275E+03  0.46999998093E+01 0.  1.
       -5    1    3    3    0  502  0.16416037423E+03  0.38980964819E+02 -0.45449011659E+02  0.17480230761E+03  0.46999998093E+01 0. -1.
</event>
<event>
 5   0  0.1211345E-01  0.5029434E+03  0.7818609E-02  0.1013013E+00
        2   -1    0    0  501    0  0.00000000000E+00  0.00000000000E+00  0.48662626056E+03  0.48662626057E+03  0.25500000920E-02 0. -1.
       -2   -1    0    0    0  501  0.00000000000E+00  0.00000000000E+00 -0.12995190571E+03  0.12995190573E+03  0.25500000920E-02 0.  1.
    10030    2    1    2    0    0  0.00000000000E+00  0.00000000000E+00  0.35667435486E+03  0.61657816630E+03  0.50294337628E+03 0.  0.
        5    1    3    3  502    0 -0.17351918515E+03 -0.18068615152E+03  0.15205722632E+03  0.29308681826E+03  0.46999998093E+01 0. -1.
       -5    1    3    3    0  502  0.17351918515E+03  0.18068615152E+03  0.20461712854E+03  0.32349134804E+03  0.46999998093E+01 0.  1.
</event>
<event>
 5   0  0.1191894E-01  0.5017138E+03  0.7818609E-02  0.1013333E+00
        2   -1    0    0  501    0  0.00000000000E+00  0.00000000000E+00  0.99334532102E+03  0.99334532103E+03  0.25500000920E-02 0. -1.
       -2   -1    0    0    0  501  0.00000000000E+00  0.00000000000E+00 -0.63350771743E+02  0.63350771794E+02  0.25500000920E-02 0.  1.
    10030    2    1    2    0    0  0.00000000000E+00  0.00000000000E+00  0.92999454928E+03  0.10566960928E+04  0.50171383367E+03 0.  0.
        3    1    3    3  502    0 -0.19635821416E+03  0.15439207943E+03  0.41624858101E+03  0.48544449101E+03  0.10100000352E+00 0.  1.
       -3    1    3    3    0  502  0.19635821416E+03 -0.15439207943E+03  0.51374596827E+03  0.57125160181E+03  0.10100000352E+00 0. -1.
</event>
<event>
 5   0  0.5006750E-02  0.4998784E+03  0.7818609E-02  0.1013811E+00
        4   -1    0    0  501    0  0.00000000000E+00  0.00000000000E+00  0.11991130854E+03  0.11991803374E+03  0.12699999809E+01 0. -1.
       -4   -1    0    0    0  501  0.00000000000E+00  0.00000000000E+00 -0.52094305207E+03  0.52094460012E+03  0.12699999809E+01 0.  1.
    10030    2    1    2    0    0  0.00000000000E+00  0.00000000000E+00 -0.40103174352E+03  0.64086263386E+03  0.49987844139E+03 0.  0.
        1    1    3    3  502    0 -0.10110091174E+03  0.19002365857E+03 -0.37645557952E+02  0.21851218096E+03  0.50400001928E-02 0. -1.
       -1    1    3    3    0  502  0.10110091174E+03 -0.19002365857E+03 -0.36338618557E+03  0.42235045290E+03  0.50400001928E-02 0.  1.
</event>
<event>
 5   0  0.7602288E-02  0.4930865E+03  0.7818609E-02  0.1015599E+00
       -1   -1    0    0    0  501  0.00000000000E+00  0.00000000000E+00  0.86252578467E+02  0.86252578614E+02  0.50400001928E-02 0. -1.
        1   -1    0    0  501    0  0.00000000000E+00  0.00000000000E+00 -0.70471599650E+03  0.70471599652E+03  0.50400001928E-02 0.  1.
    10030    2    1    2    0    0  0.00000000000E+00  0.00000000000E+00 -0.61846341803E+03  0.79096857513E+03  0.49308649079E+03 0.  0.
        5    1    3    3  502    0  0.85555675081E+02  0.18823931031E+03 -0.52449247998E+03  0.56379806938E+03  0.46999998093E+01 0.  1.
       -5    1    3    3    0  502 -0.85555675081E+02 -0.18823931031E+03 -0.93970938049E+02  0.22717050575E+03  0.46999998093E+01 0. -1.
</event>
<event>
 5   0  0.1279188E-01  0.4972536E+03  0.7818609E-02  0.1014498E+00
       -2   -1    0    0    0  501  0.00000000000E+00  0.00000000000E+00  0.12260569727E+03  0.12260569729E+03  0.25500000920E-02 0.  1.
        2   -1    0    0  501    0  0.00000000000E+00  0.00000000000E+00 -0.50417955838E+03  0.50417955839E+03  0.25500000920E-02 0. -1.
    10030    2    1    2    0    0  0.00000000000E+00  0.00000000000E+00 -0.38157386112E+03  0.62678525568E+03  0.49725360256E+03 0.  0.
        2    1    3    3  502    0 -0.19170595157E+03  0.89197805153E+02 -0.35565583551E+03  0.41376139700E+03  0.25500000920E-02 0. -1.
       -2    1    3    3    0  502  0.19170595157E+03 -0.89197805153E+02 -0.25918025609E+02  0.21302385868E+03  0.25500000920E-02 0.  1.
</event>
<event>
 5   0  0.1231822E-01  0.5097318E+03  0.7818609E-02  0.1011270E+00
        2   -1    0    0  501    0  0.00000000000E+00  0.00000000000E+00  0.29633241316E+03  0.29633241317E+03  0.25500000920E-02 0. -1.
       -2   -1    0    0    0  501  0.00000000000E+00  0.00000000000E+00 -0.21920185783E+03  0.21920185785E+03  0.25500000920E-02 0.  1.
    10030    2    1    2    0    0  0.00000000000E+00  0.00000000000E+00  0.77130555326E+02  0.51553427102E+03  0.50973175497E+03 0.  0.
        1    1    3    3  502    0  0.12090754167E+03  0.22393266760E+03  0.24545947366E+02  0.25566966345E+03  0.50400001928E-02 0.  1.
       -1    1    3    3    0  502 -0.12090754167E+03 -0.22393266760E+03  0.52584607960E+02  0.25986460757E+03  0.50400001928E-02 0. -1.
</event>
<event>
 5   0  0.7781754E-02  0.5035398E+03  0.7818609E-02  0.1012859E+00
       -1   -1    0    0    0  501  0.00000000000E+00  0.00000000000E+00  0.10717428655E+03  0.10717428667E+03  0.50400001928E-02 0. -1.
        1   -1    0    0  501    0  0.00000000000E+00  0.00000000000E+00 -0.59144867650E+03  0.59144867652E+03  0.50400001928E-02 0.  1.
    10030    2    1    2    0    0  0.00000000000E+00  0.00000000000E+00 -0.48427438995E+03  0.69862296319E+03  0.50353982955E+03 0.  0.
        2    1    3    3  502    0  0.19162497621E+03 -0.14627298418E+03 -0.14139675656E+03  0.27947980281E+03  0.25500000920E-02 0.  1.
       -2    1    3    3    0  502 -0.19162497621E+03  0.14627298418E+03 -0.34287763339E+03  0.41914316038E+03  0.25500000920E-02 0. -1.
</event>
<event>
 5   0  0.7416638E-02  0.4898938E+03  0.7818609E-02  0.1016451E+00
        1   -1    0    0  501    0  0.00000000000E+00  0.00000000000E+00  0.66436573349E+02  0.66436573540E+02  0.50400001928E-02 0. -1.
       -1   -1    0    0    0  501  0.00000000000E+00  0.00000000000E+00 -0.90310166956E+03  0.90310166957E+03  0.50400001928E-02 0.  1.
    10030    2    1    2    0    0  0.00000000000E+00  0.00000000000E+00 -0.83666509621E+03  0.96953824311E+03  0.48989378608E+03 0.  0.
        1    1    3    3  502    0  0.14260119662E+03  0.19309113540E+03 -0.51487613677E+03  0.56808161745E+03  0.50400001928E-02 0.  1.
       -1    1    3    3    0  502 -0.14260119662E+03 -0.19309113540E+03 -0.32178895944E+03  0.40145662566E+03  0.50400001928E-02 0. -1.
</event>
<event>
 5   0  0.1279188E-01  0.5027584E+03  0.7818609E-02  0.1013061E+00
        2   -1    0    0  501    0  0.00000000000E+00  0.00000000000E+00  0.69170632603E+03  0.69170632603E+03  0.25500000920E-02 0.  1.
       -2   -1    0    0    0  501  0.00000000000E+00  0.00000000000E+00 -0.91355971609E+02  0.91355971644E+02  0.25500000920E-02 0. -1.
    10030    2    1    2    0    0  0.00000000000E+00  0.00000000000E+00  0.60035035442E+03  0.78306229768E+03  0.50275840519E+03 0.  0.
        2    1    3    3  502    0  0.13779080997E+03  0.13477889650E+03  0.48838323717E+02  0.19883872894E+03  0.25500000920E-02 0. -1.
       -2    1    3    3    0  502 -0.13779080997E+03 -0.13477889650E+03  0.55151203070E+03  0.58422356874E+03  0.25500000920E-02 0.  1.
</event>
<event>
 5   0  0.7416638E-02  0.4852737E+03  0.7818609E-02  0.1017696E+00
       -1   -1    0    0    0  501  0.00000000000E+00  0.00000000000E+00  0.65188966405E+03  0.65188966407E+03  0.50400001928E-02 0. -1.
        1   -1    0    0  501    0  0.00000000000E+00  0.00000000000E+00 -0.90310732821E+02  0.90310732961E+02  0.50400001928E-02 0.  1.
    10030    2    1    2    0    0  0.00000000000E+00  0.00000000000E+00  0.56157893123E+03  0.74220039703E+03  0.48527366851E+03 0.  0.
        1    1    3    3  502    0 -0.12573427177E+03  0.67741842809E+02 -0.19210591308E+02  0.14410798454E+03  0.50400001928E-02 0.  1.
       -1    1    3    3    0  502  0.12573427177E+03 -0.67741842809E+02  0.58078952254E+03  0.59809241249E+03  0.50400001928E-02 0. -1.
</event>
<event>
 5   0  0.7416638E-02  0.4832222E+03  0.7818609E-02  0.1018253E+00
        1   -1    0    0  501    0  0.00000000000E+00  0.00000000000E+00  0.17598876606E+04  0.17598876606E+04  0.50400001928E-02 0. -1.
       -1   -1    0    0    0  501  0.00000000000E+00  0.00000000000E+00 -0.33170254127E+02  0.33170254510E+02  0.50400001928E-02 0.  1.
    10030    2    1    2    0    0  0.00000000000E+00  0.00000000000E+00  0.17267174065E+04  0.17930579151E+04  0.48322219025E+03 0.  0.
        1    1    3    3  502    0 -0.17053301948E+03 -0.13347627584E+03  0.12609070114E+04  0.12793685624E+04  0.50400001928E-02 0. -1.
       -1    1    3    3    0  502  0.17053301948E+03  0.13347627584E+03  0.46581039507E+03  0.51368935275E+03  0.50400001928E-02 0.  1.
</event>
<event>
 5   0  0.7781754E-02  0.4985576E+03  0.7818609E-02  0.1014156E+00
       -1   -1    0    0    0  501  0.00000000000E+00  0.00000000000E+00  0.14126494763E+03  0.14126494772E+03  0.50400001928E-02 0.  1.
        1   -1    0    0  501    0  0.00000000000E+00  0.00000000000E+00 -0.43988212766E+03  0.43988212769E+03  0.50400001928E-02 0. -1.
    10030    2    1    2    0    0  0.00000000000E+00  0.00000000000E+00 -0.29861718003E+03  0.58114707541E+03  0.49855762259E+03 0.  0.
        2    1    3    3  502    0  0.47849148797E+02  0.18244656630E+03 -0.33929146227E+03  0.38819452208E+03  0.25500000920E-02 0. -1.
       -2    1    3    3    0  502 -0.47849148797E+02 -0.18244656630E+03  0.40674282242E+02  0.19295255333E+03  0.25500000920E-02 0.  1.
</event>
<event>
 5   0  0.1243803E-01  0.5007917E+03  0.7818609E-02  0.1013572E+00
        2   -1    0    0  501    0  0.00000000000E+00  0.00000000000E+00  0.17205399754E+04  0.17205399754E+04  0.25500000920E-02 0.  1.
       -2   -1    0    0    0  501  0.00000000000E+00  0.00000000000E+00 -0.36440926574E+02  0.36440926664E+02  0.25500000920E-02 0. -1.
    10030    2    1    2    0    0  0.00000000000E+00  0.00000000000E+00  0.16840990488E+04  0.17569809021E+04  0.50079165725E+03 0.  0.
        4    1    3    3  502    0  0.16824379339E+03 -0.13973152249E+03  0.12698103094E+04  0.12885071622E+04  0.12699999809E+01 0.  1.
       -4    1    3    3    0  502 -0.16824379339E+03  0.13973152249E+03  0.41428873943E+03  0.46847373983E+03  0.12699999809E+01 0. -1.
</event>
<event>
 5   0  0.5006750E-02  0.5010913E+03  0.7818609E-02  0.1013494E+00
        4   -1    0    0  501    0  0.00000000000E+00  0.00000000000E+00  0.65885162469E+02  0.65897401569E+02  0.12699999809E+01 0. -1.
       -4   -1    0    0    0  501  0.00000000000E+00  0.00000000000E+00 -0.95266468120E+03  0.95266552772E+03  0.12699999809E+01 0.  1.
    10030    2    1    2    0    0  0.00000000000E+00  0.00000000000E+00 -0.88677951873E+03  0.10185629293E+04  0.50109133507E+03 0.  0.
        2    1    3    3  502    0 -0.10044158772E+03 -0.30683086560E+02 -0.90576809466E+03  0.91183650160E+03  0.25500000920E-02 0.  1.
       -2    1    3    3    0  502  0.10044158772E+03  0.30683086560E+02  0.18988575926E+02  0.10672642769E+03  0.25500000920E-02 0. -1.
</event>
<event>
 5   0  0.1243803E-01  0.4974047E+03  0.7818609E-02  0.1014459E+00
        2   -1    0    0  501    0  0.00000000000E+00  0.00000000000E+00  0.33030964782E+03  0.33030964783E+03  0.25500000920E-02 0. -1.
       -2   -1    0    0    0  501  0.00000000000E+00  0.00000000000E+00 -0.18725716067E+03  0.18725716069E+03  0.25500000920E-02 0.  1.
    10030    2    1    2    0    0  0.00000000000E+00  0.00000000000E+00  0.14305248715E+03  0.51756680852E+03  0.49740465137E+03 0.  0.
        4    1    3    3  502    0 -0.14382750238E+03  0.17965184274E+03  0.16963547428E+03  0.28590023098E+03  0.12699999809E+01 0. -1.
       -4    1    3    3    0  502  0.14382750238E+03 -0.17965184274E+03 -0.26582987123E+02  0.23166657754E+03  0.12699999809E+01 0.  1.
</event>
<event>
 5   0  0.1231822E-01  0.4998526E+03  0.7818609E-02  0.1013817E+00
       -2   -1    0    0    0  501  0.00000000000E+00  0.00000000000E+00  0.31528233384E+03  0.31528233385E+03  0.25500000920E-02 0.  1.
        2   -1    0    0  501    0  0.00000000000E+00  0.00000000000E+00 -0.19811814231E+03  0.19811814232E+03  0.25500000920E-02 0. -1.
    10030    2    1    2    0    0  0.00000000000E+00  0.00000000000E+00  0.11716419153E+03  0.51340047617E+03  0.49985257942E+03 0.  0.
        1    1    3    3  502    0 -0.59788539195E+02  0.24108410862E+03  0.30137932729E+02  0.25020893642E+03  0.50400001928E-02 0. -1.
       -1    1    3    3    0  502  0.59788539195E+02 -0.24108410862E+03  0.87026258800E+02  0.26319153975E+03  0.50400001928E-02 0.  1.
</event>
<event>
 5   0  0.1211345E-01  0.5048796E+03  0.7818609E-02  0.1012513E+00
       -2   -1    0    0    0  501  0.00000000000E+00  0.00000000000E+00  0.97312220449E+02  0.97312220482E+02  0.25500000920E-02 0. -1.
        2   -1    0    0  501    0  0.00000000000E+00  0.00000000000E+00 -0.65485961473E+03  0.65485961474E+03  0.25500000920E-02 0.  1.
    10030    2    1    2    0    0  0.00000000000E+00  0.00000000000E+00 -0.55754739428E+03  0.75217183522E+03  0.50487956269E+03 0.  0.
        5    1    3    3  502    0 -0.70808030663E+02  0.17581480909E+03 -0.30466911517E+02  0.19202850569E+03  0.46999998093E+01 0. -1.
       -5    1    3    3    0  502  0.70808030663E+02 -0.17581480909E+03 -0.52708048277E+03  0.56014332953E+03  0.46999998093E+01 0.  1.
</event>
<event>
 5   0  0.1191894E-01  0.4900057E+03  0.7818609E-02  0.1016421E+00
       -2   -1    0    0    0  501  0.00000000000E+00  0.00000000000E+00  0.45451131997E+02  0.45451132068E+02  0.25500000920E-02 0.  1.
        2   -1    0    0  501    0  0.00000000000E+00  0.00000000000E+00 -0.13206800797E+04  0.13206800797E+04  0.25500000920E-02 0. -1.
    10030    2    1    2    0    0  0.00000000000E+00  0.00000000000E+00 -0.12752289477E+04  0.13661312118E+04  0.49000573335E+03 0.  0.
        3    1    3    3  502    0 -0.19921202654E+02  0.12733073364E+03 -0.12185370830E+04  0.12253336700E+04  0.10100000352E+00 0. -1.
       -3    1    3    3    0  502  0.19921202654E+02 -0.12733073364E+03 -0.56691864750E+02  0.14079754179E+03  0.10100000352E+00 0.  1.
</event>
<event>
 5   0  0.1243803E-01  0.5118606E+03  0.7818609E-02  0.1010729E+00
        2   -1    0    0  501    0  0.00000000000E+00  0.00000000000E+00  0.20325359389E+04  0.20325359389E+04  0.25500000920E-02 0. -1.
       -2   -1    0    0    0  501  0.00000000000E+00  0.00000000000E+00 -0.32225904760E+02  0.32225904861E+02  0.25500000920E-02 0.  1.
    10030    2    1    2    0    0  0.00000000000E+00  0.00000000000E+00  0.20003100341E+04  0.20647618437E+04  0.51186056575E+03 0.  0.
        4    1    3    3  502    0  0.42040577486E+02 -0.20312987271E+03  0.39548922700E+03  0.44658985313E+03  0.12699999809E+01 0.  1.
       -4    1    3    3    0  502 -0.42040577486E+02  0.20312987271E+03  0.16048208071E+04  0.16181719906E+04  0.12699999809E+01 0. -1.
</event>
<event>
 5   0  0.7531632E-02  0.5059664E+03  0.7818609E-02  0.1012233E+00
        1   -1    0    0  501    0  0.00000000000E+00  0.00000000000E+00  0.12992355665E+03  0.12992355675E+03  0.50400001928E-02 0.  1.
       -1   -1    0    0    0  501  0.00000000000E+00  0.00000000000E+00 -0.49260116315E+03  0.49260116318E+03  0.50400001928E-02 0. -1.
    10030    2    1    2    0    0  0.00000000000E+00  0.00000000000E+00 -0.36267760650E+03  0.62252471993E+03  0.50596638294E+03 0.  0.
        3    1    3    3  502    0 -0.15252426591E+03 -0.57231024102E+02  0.56798368209E+02  0.17252566952E+03  0.10100000352E+00 0.  1.
       -3    1    3    3    0  502  0.15252426591E+03  0.57231024102E+02 -0.41947597471E+03  0.44999905041E+03  0.10100000352E+00 0. -1.
</event>
<event>
 5   0  0.7781754E-02  0.5010491E+03  0.7818609E-02  0.1013505E+00
       -1   -1    0    0    0  501  0.00000000000E+00  0.00000000000E+00  0.46142679976E+03  0.46142679979E+03  0.50400001928E-02 0. -1.
        1   -1    0    0  501    0  0.00000000000E+00  0.00000000000E+00 -0.13601844212E+03  0.13601844221E+03  0.50400001928E-02 0.  1.
    10030    2    1    2    0    0  0.00000000000E+00  0.00000000000E+00  0.32540835765E+03  0.59744524200E+03  0.50104911731E+03 0.  0.
        2    1    3    3  502    0 -0.13373927872E+03 -0.15859724809E+03  0.33016271681E+03  0.38993166241E+03  0.25500000920E-02 0. -1.
       -2    1    3    3    0  502  0.13373927872E+03  0.15859724809E+03 -0.47543591614E+01  0.20751357959E+03  0.25500000920E-02 0.  1.
</event>
<event>
 5   0  0.7531632E-02  0.4972152E+03  0.7818609E-02  0.1014508E+00
       -1   -1    0    0    0  501  0.00000000000E+00  0.00000000000E+00  0.21814270704E+02  0.21814271286E+02  0.50400001928E-02 0. -1.
        1   -1    0    0  501    0  0.00000000000E+00  0.00000000000E+00 -0.28332706647E+04  0.28332706647E+04  0.50400001928E-02 0.  1.
    10030    2    1    2    0    0  0.00000000000E+00  0.00000000000E+00 -0.28114563940E+04  0.28550849360E+04  0.49721518117E+03 0.  0.
        3    1    3    3  502    0 -0.71803804757E+02  0.11053476497E+03 -0.26161105954E+04  0.26194290176E+04  0.10100000352E+00 0.  1.
       -3    1    3    3    0  502  0.71803804757E+02 -0.11053476497E+03 -0.19534579857E+03  0.23565591838E+03  0.10100000352E+00 0. -1.
</event>
<event>
 5   0  0.1243803E-01  0.5017988E+03  0.7818609E-02  0.1013310E+00
        2   -1    0    0  501    0  0.00000000000E+00  0.00000000000E+00  0.64018620183E+03  0.64018620184E+03  0.25500000920E-02 0.  1.
       -2   -1    0    0    0  501  0.00000000000E+00  0.00000000000E+00 -0.98331569346E+02  0.98331569379E+02  0.25500000920E-02 0. -1.
    10030    2    1    2    0    0  0.00000000000E+00  0.00000000000E+00  0.54185463249E+03  0.73851777122E+03  0.50179881990E+03 0.  0.
        4    1    3    3  502    0 -0.46494307485E+02 -0.16091271139E+03 -0.39940121197E+01  0.16754756443E+03  0.12699999809E+01 0. -1.
       -4    1    3    3    0  502  0.46494307485E+02  0.16091271139E+03  0.54584864461E+03  0.57097020678E+03  0.12699999809E+01 0.  1.
</event>
<event>
 5   0  0.7416638E-02  0.5004725E+03  0.7818609E-02  0.1013656E+00
        1   -1    0    0  501    0  0.00000000000E+00  0.00000000000E+00  0.18772559573E+03  0.18772559580E+03  0.50400001928E-02 0. -1.
       -1   -1    0    0    0  501  0.00000000000E+00  0.00000000000E+00 -0.33356224225E+03  0.33356224229E+03  0.50400001928E-02 0.  1.
    10030    2    1    2    0    0  0.00000000000E+00  0.00000000000E+00 -0.14583664652E+03  0.52128783808E+03  0.50047245945E+03 0.  0.
        1    1    3    3  502    0  0.12683380668E+03  0.58160329020E+02  0.14344389691E+03  0.20011394248E+03  0.50400001928E-02 0. -1.
       -1    1    3    3    0  502 -0.12683380668E+03 -0.58160329020E+02 -0.28928054343E+03  0.32117389561E+03  0.50400001928E-02 0.  1.
</event>
<event>
 5   0  0.7602288E-02  0.4996887E+03  0.7818609E-02  0.1013860E+00
        1   -1    0    0  501    0  0.00000000000E+00  0.00000000000E+00  0.40437233537E+03  0.40437233541E+03  0.50400001928E-02 0.  1.
       -1   -1    0    0    0  501  0.00000000000E+00  0.00000000000E+00 -0.15436813127E+03  0.15436813135E+03  0.50400001928E-02 0. -1.
    10030    2    1    2    0    0  0.00000000000E+00  0.00000000000E+00  0.25000420411E+03  0.55874046676E+03  0.49968871022E+03 0.  0.
        5    1    3    3  502    0 -0.84680539606E+02  0.84889363990E+02 -0.12003720034E+03  0.16972924724E+03  0.46999998093E+01 0. -1.
       -5    1    3    3    0  502  0.84680539606E+02 -0.84889363990E+02  0.37004140444E+03  0.38901121951E+03  0.46999998093E+01 0.  1.
</event>
<event>
 5   0  0.7416638E-02  0.5025416E+03  0.7818609E-02  0.1013118E+00
       -1   -1    0    0    0  501  0.00000000000E+00  0.00000000000E+00  0.90961533369E+02  0.90961533509E+02  0.50400001928E-02 0. -1.
        1   -1    0    0  501    0  0.00000000000E+00  0.00000000000E+00 -0.69410662545E+03  0.69410662547E+03  0.50400001928E-02 0.  1.
    10030    2    1    2    0    0  0.00000000000E+00  0.00000000000E+00 -0.60314509208E+03  0.78506815898E+03  0.50254155265E+03 0.  0.
        1    1    3    3  502    0 -0.14141215026E+03 -0.14936554646E+03 -0.76109573292E+02  0.21931741810E+03  0.50400001928E-02 0. -1.
       -1    1    3    3    0  502  0.14141215026E+03  0.14936554646E+03 -0.52703551879E+03  0.56575074088E+03  0.50400001928E-02 0.  1.
</event>
<event>
 5   0  0.7781754E-02  0.4959950E+03  0.7818609E-02  0.1014830E+00
        1   -1    0    0  501    0  0.00000000000E+00  0.00000000000E+00  0.27560131333E+03  0.27560131338E+03  0.50400001928E-02 0. -1.
       -1   -1    0    0    0  501  0.00000000000E+00  0.00000000000E+00 -0.22315847363E+03  0.22315847369E+03  0.50400001928E-02 0.  1.
    10030    2    1    2    0    0  0.00000000000E+00  0.00000000000E+00  0.52442839700E+02  0.49875978707E+03  0.49599503401E+03 0.  0.
        2    1    3    3  502    0  0.87201880556E+02  0.86108741831E+02  0.24302443202E+03  0.27217596873E+03  0.25500000920E-02 0. -1.
       -2    1    3    3    0  502 -0.87201880556E+02 -0.86108741831E+02 -0.19058159232E+03  0.22658381833E+03  0.25500000920E-02 0.  1.
</event>
<event>
 5   0  0.1211345E-01  0.4835024E+03  0.7818609E-02  0.1018177E+00
        2   -1    0    0  501    0  0.00000000000E+00  0.00000000000E+00  0.49615155791E+03  0.49615155792E+03  0.25500000920E-02 0.  1.
       -2   -1    0    0    0  501  0.00000000000E+00  0.00000000000E+00 -0.11779395153E+03  0.11779395156E+03  0.25500000920E-02 0. -1.
    10030    2    1    2    0    0  0.00000000000E+00  0.00000000000E+00  0.37835760638E+03  0.61394550948E+03  0.48350244084E+03 0.  0.
        5    1    3    3  502    0 -0.98671051694E+02 -0.17619536179E+03  0.20527362339E+02  0.20303754471E+03  0.46999998093E+01 0. -1.
       -5    1    3    3    0  502  0.98671051694E+02  0.17619536179E+03  0.35783024404E+03  0.41090796477E+03  0.46999998093E+01 0.  1.
</event>
<event>
 5   0  0.1243803E-01  0.5036357E+03  0.7818609E-02  0.1012834E+00
        2   -1    0    0  501    0  0.00000000000E+00  0.00000000000E+00  0.47226601580E+03  0.47226601580E+03  0.25500000920E-02 0. -1.
       -2   -1    0    0    0  501  0.00000000000E+00  0.00000000000E+00 -0.13427226930E+03  0.13427226932E+03  0.25500000920E-02 0.  1.
    10030    2    1    2    0    0  0.00000000000E+00  0.00000000000E+00  0.33799374650E+03  0.60653828512E+03  0.50363570033E+03 0.  0.
        4    1    3    3  502    0 -0.13121866722E+03 -0.17787324513E+03  0.31428286675E+03  0.38422983121E+03  0.12699999809E+01 0. -1.
       -4    1    3    3    0  502  0.13121866722E+03  0.17787324513E+03  0.23710879753E+02  0.22230845391E+03  0.12699999809E+01 0.  1.
</event>
<event>
 5   0  0.7531632E-02  0.4926893E+03  0.7818609E-02  0.1015705E+00
       -1   -1    0    0    0  501  0.00000000000E+00  0.00000000000E+00  0.23475289362E+03  0.23475289368E+03  0.50400001928E-02 0. -1.
        1   -1    0    0  501    0  0.00000000000E+00  0.00000000000E+00 -0.25850881639E+03  0.25850881644E+03  0.50400001928E-02 0.  1.
    10030    2    1    2    0    0  0.00000000000E+00  0.00000000000E+00 -0.23755922764E+02  0.49326171011E+03  0.49268932482E+03 0.  0.
        3    1    3    3  502    0  0.22456773937E+03  0.99035166364E+02 -0.33046052571E+02  0.24765032916E+03  0.10100000352E+00 0.  1.
       -3    1    3    3    0  502 -0.22456773937E+03 -0.99035166364E+02  0.92901298062E+01  0.24561138095E+03  0.10100000352E+00 0. -1.
</event>
<event>
 5   0  0.5006750E-02  0.5018940E+03  0.7818609E-02  0.1013286E+00
        4   -1    0    0  501    0  0.00000000000E+00  0.00000000000E+00  0.56820180420E+03  0.56820322350E+03  0.12699999809E+01 0. -1.
       -4   -1    0    0    0  501  0.00000000000E+00  0.00000000000E+00 -0.11082586235E+03  0.11083313884E+03  0.12699999809E+01 0.  1.
    10030    2    1    2    0    0  0.00000000000E+00  0.00000000000E+00  0.45737594185E+03  0.67903636234E+03  0.50189404180E+03 0.  0.
        3    1    3    3  502    0 -0.20546491748E+03 -0.35970245388E-01  0.33757541449E+02  0.20821963263E+03  0.10100000352E+00 0.  1.
       -3    1    3    3    0  502  0.20546491748E+03  0.35970245388E-01  0.42361840040E+03  0.47081672970E+03  0.10100000352E+00 0. -1.
</event>
<event>
 5   0  0.1243803E-01  0.5005744E+03  0.7818609E-02  0.1013629E+00
        2   -1    0    0  501    0  0.00000000000E+00  0.00000000000E+00  0.63727030564E+03  0.63727030564E+03  0.25500000920E-02 0. -1.
       -2   -1    0    0    0  501  0.00000000000E+00  0.00000000000E+00 -0.98300031983E+02  0.98300032016E+02  0.25500000920E-02 0.  1.
    10030    2    1    2    0    0  0.00000000000E+00  0.00000000000E+00  0.53897027365E+03  0.73557033766E+03  0.50057443578E+03 0.  0.
        4    1    3    3  502    0 -0.38749124691E+02 -0.46589632896E+02  0.62632311351E+03  0.62924903176E+03  0.12699999809E+01 0. -1.
       -4    1    3    3    0  502  0.38749124691E+02  0.46589632896E+02 -0.87352839853E+02  0.10632130590E+03  0.12699999809E+01 0.  1.
</event>
<event>
 5   0  0.7812547E-02  0.4977646E+03  0.7818609E-02  0.1014364E+00
        1   -1    0    0  501    0  0.00000000000E+00  0.00000000000E+00  0.75736712923E+03  0.75736712925E+03  0.50400001928E-02 0. -1.
       -1   -1    0    0    0  501  0.00000000000E+00  0.00000000000E+00 -0.81786481272E+02  0.81786481427E+02  0.50400001928E-02 0.  1.
    10030    2    1    2    0    0  0.00000000000E+00  0.00000000000E+00  0.67558064796E+03  0.83915361068E+03  0.49776457328E+03 0.  0.
        4    1    3    3  502    0 -0.31264847901E+02 -0.15899494513E+03  0.19331256808E+02  0.16319373052E+03  0.12699999809E+01 0.  1.
       -4    1    3    3    0  502  0.31264847901E+02  0.15899494513E+03  0.65624939115E+03  0.67595988016E+03  0.12699999809E+01 0. -1.
</event>
<event>
 5   0  0.1231822E-01  0.4981052E+03  0.7818609E-02  0.1014275E+00
        2   -1    0    0  501    0  0.00000000000E+00  0.00000000000E+00  0.17698718650E+04  0.17698718650E+04  0.25500000920E-02 0.  1.
       -2   -1    0    0    0  501  0.00000000000E+00  0.00000000000E+00 -0.35046155454E+02  0.35046155546E+02  0.25500000920E-02 0. -1.
    10030    2    1    2    0    0  0.00000000000E+00  0.00000000000E+00  0.17348257096E+04  0.18049180206E+04  0.49810522824E+03 0.  0.
        1    1    3    3  502    0 -0.12630283424E+03  0.13608667821E+03  0.14689165228E+04  0.14806038433E+04  0.50400001928E-02 0.  1.
       -1    1    3    3    0  502  0.12630283424E+03 -0.13608667821E+03  0.26590918679E+03  0.32431417725E+03  0.50400001928E-02 0. -1.
</event>
<event>
 5   0  0.7812547E-02  0.4967336E+03  0.7818609E-02  0.1014635E+00
       -1   -1    0    0    0  501  0.00000000000E+00  0.00000000000E+00  0.10629687147E+03  0.10629687159E+03  0.50400001928E-02 0.  1.
        1   -1    0    0  501    0  0.00000000000E+00  0.00000000000E+00 -0.58031880004E+03  0.58031880006E+03  0.50400001928E-02 0. -1.
    10030    2    1    2    0    0  0.00000000000E+00  0.00000000000E+00 -0.47402192857E+03  0.68661567165E+03  0.49673362256E+03 0.  0.
        4    1    3    3  502    0 -0.22064636384E+03 -0.72090160706E+02 -0.35910972130E+03  0.42760170016E+03  0.12699999809E+01 0. -1.
       -4    1    3    3    0  502  0.22064636384E+03  0.72090160706E+02 -0.11491220727E+03  0.25901397149E+03  0.12699999809E+01 0.  1.
</event>
<event>
 5   0  0.7416638E-02  0.5004430E+03  0.7818609E-02  0.1013663E+00
       -1   -1    0    0    0  501  0.00000000000E+00  0.00000000000E+00  0.76534023793E+02  0.76534023959E+02  0.50400001928E-02 0.  1.
        1   -1    0    0  501    0  0.00000000000E+00  0.00000000000E+00 -0.81807793905E+03  0.81807793907E+03  0.50400001928E-02 0. -1.
    10030    2    1    2    0    0  0.00000000000E+00  0.00000000000E+00 -0.74154391526E+03  0.89461196303E+03  0.50044298989E+03 0.  0.
        1    1    3    3  502    0  0.14540504704E+02  0.18748066431E+03 -0.75673935364E+02  0.20269921136E+03  0.50400001928E-02 0.  1.
       -1    1    3    3    0  502 -0.14540504704E+02 -0.18748066431E+03 -0.66586997990E+03  0.69191275167E+03  0.50400001928E-02 0. -1.
</event>
<event>
 5   0  0.1191894E-01  0.4988328E+03  0.7818609E-02  0.1014084E+00
        2   -1    0    0  501    0  0.00000000000E+00  0.00000000000E+00  0.13236840704E+04  0.13236840704E+04  0.25500000920E-02 0. -1.
       -2   -1    0    0    0  501  0.00000000000E+00  0.00000000000E+00 -0.46996521686E+02  0.46996521755E+02  0.25500000920E-02 0.  1.
    10030    2    1    2    0    0  0.00000000000E+00  0.00000000000E+00  0.12766875487E+04  0.13706805922E+04  0.49883282639E+03 0.  0.
        3    1    3    3  502    0 -0.36808687448E+02 -0.22189455759E+03  0.34218937285E+03  0.40949438488E+03  0.10100000352E+00 0. -1.
       -3    1    3    3    0  502  0.36808687448E+02  0.22189455759E+03  0.93449817589E+03  0.96118620730E+03  0.10100000352E+00 0.  1.
</event>
<event>
 5   0  0.7602288E-02  0.4997555E+03  0.7818609E-02  0.1013843E+00
       -1   -1    0    0    0  501  0.00000000000E+00  0.00000000000E+00  0.50788384934E+02  0.50788385184E+02  0.50400001928E-02 0. -1.
        1   -1    0    0  501    0  0.00000000000E+00  0.00000000000E+00 -0.12293930353E+04  0.12293930353E+04  0.50400001928E-02 0.  1.
    10030    2    1    2    0    0  0.00000000000E+00  0.00000000000E+00 -0.11786046503E+04  0.12801814205E+04  0.49975548772E+03 0.  0.
        5    1    3    3  502    0 -0.34156135841E+02 -0.20031336391E+03 -0.96161630312E+03  0.98286321012E+03  0.46999998093E+01 0.  1.
       -5    1    3    3    0  502  0.34156135841E+02  0.20031336391E+03 -0.21698834721E+03  0.29731821034E+03  0.46999998093E+01 0. -1.
</event>
<event>
 5   0  0.1191894E-01  0.4938403E+03  0.7818609E-02  0.1015399E+00
        2   -1    0    0  501    0  0.00000000000E+00  0.00000000000E+00  0.16849968774E+04  0.16849968774E+04  0.25500000920E-02 0. -1.
       -2   -1    0    0    0  501  0.00000000000E+00  0.00000000000E+00 -0.36183782821E+02  0.36183782911E+02  0.25500000920E-02 0.  1.
    10030    2    1    2    0    0  0.00000000000E+00  0.00000000000E+00  0.16488130946E+04  0.17211806603E+04  0.49384030271E+03 0.  0.
        3    1    3    3  502    0  0.39131209806E+02 -0.23885246629E+03  0.65409708254E+03  0.69744157879E+03  0.10100000352E+00 0.  1.
       -3    1    3    3    0  502 -0.39131209806E+02  0.23885246629E+03  0.99471601206E+03  0.10237390815E+04  0.10100000352E+00 0. -1.
</event>
<event>
 5   0  0.1243803E-01  0.4927392E+03  0.7818609E-02  0.1015692E+00
        2   -1    0    0  501    0  0.00000000000E+00  0.00000000000E+00  0.20258137314E+04  0.20258137314E+04  0.25500000920E-02 0. -1.
       -2   -1    0    0    0  501  0.00000000000E+00  0.00000000000E+00 -0.29962272201E+02  0.29962272309E+02  0.25500000920E-02 0.  1.
    10030    2    1    2    0    0  0.00000000000E+00  0.00000000000E+00  0.19958514592E+04  0.20557760038E+04  0.49273921120E+03 0.  0.
        4    1    3    3  502    0 -0.16444579679E+03  0.14327293042E+02  0.23488424691E+03  0.28708868621E+03  0.12699999809E+01 0.  1.
       -4    1    3    3    0  502  0.16444579679E+03 -0.14327293042E+02  0.17609672123E+04  0.17686873175E+04  0.12699999809E+01 0. -1.
</event>
<event>
 5   0  0.1191894E-01  0.5017602E+03  0.7818609E-02  0.1013321E+00
        2   -1    0    0  501    0  0.00000000000E+00  0.00000000000E+00  0.20478491307E+04  0.20478491307E+04  0.25500000920E-02 0.  1.
       -2   -1    0    0    0  501  0.00000000000E+00  0.00000000000E+00 -0.30735083691E+02  0.30735083797E+02  0.25500000920E-02 0. -1.
    10030    2    1    2    0    0  0.00000000000E+00  0.00000000000E+00  0.20171140470E+04  0.20785842145E+04  0.50176015996E+03 0.  0.
        3    1    3    3  502    0 -0.26495775640E+02  0.14336779954E+03  0.18543391423E+04  0.18600618315E+04  0.10100000352E+00 0.  1.
       -3    1    3    3    0  502  0.26495775640E+02 -0.14336779954E+03  0.16277490468E+03  0.21852238299E+03  0.10100000352E+00 0. -1.
</event>
<event>
 5   0  0.1231822E-01  0.5016139E+03  0.7818609E-02  0.1013359E+00
       -2   -1    0    0    0  501  0.00000000000E+00  0.00000000000E+00  0.12830992394E+03  0.12830992396E+03  0.25500000920E-02 0. -1.
        2   -1    0    0  501    0  0.00000000000E+00  0.00000000000E+00 -0.49025135225E+03  0.49025135226E+03  0.25500000920E-02 0.  1.
    10030    2    1    2    0    0  0.00000000000E+00  0.00000000000E+00 -0.36194142831E+03  0.61856127622E+03  0.50161385040E+03 0.  0.
        1    1    3    3  502    0  0.24451511817E+03 -0.55342642527E+02 -0.17193735876E+03  0.30399491189E+03  0.50400001928E-02 0. -1.
       -1    1    3    3    0  502 -0.24451511817E+03  0.55342642527E+02 -0.19000406956E+03  0.31456636433E+03  0.50400001928E-02 0.  1.
</event>
<event>
 5   0  0.5006750E-02  0.4925855E+03  0.7818609E-02  0.1015733E+00
       -4   -1    0    0    0  501  0.00000000000E+00  0.00000000000E+00  0.90953219496E+03  0.90953308163E+03  0.12699999809E+01 0. -1.
        4   -1    0    0  501    0  0.00000000000E+00  0.00000000000E+00 -0.66686777897E+02  0.66698869902E+02  0.12699999809E+01 0.  1.
    10030    2    1    2    0    0  0.00000000000E+00  0.00000000000E+00  0.84284541707E+03  0.97623195153E+03  0.49258545057E+03 0.  0.
        3    1    3    3  502    0  0.14380941025E+03 -0.16867541857E+03  0.63420721482E+03  0.67182687117E+03  0.10100000352E+00 0. -1.
       -3    1    3    3    0  502 -0.14380941025E+03  0.16867541857E+03  0.20863820225E+03  0.30440508035E+03  0.10100000352E+00 0.  1.
</event>
<event>
 5   0  0.7812547E-02  0.5051117E+03  0.7818609E-02  0.1012453E+00
       -1   -1    0    0    0  501  0.00000000000E+00  0.00000000000E+00  0.14216141217E+03  0.14216141226E+03  0.50400001928E-02 0. -1.
        1   -1    0    0  501    0  0.00000000000E+00  0.00000000000E+00 -0.44867628886E+03  0.44867628888E+03  0.50400001928E-02 0.  1.
    10030    2    1    2    0    0  0.00000000000E+00  0.00000000000E+00 -0.30651487669E+03  0.59083770114E+03  0.50511169008E+03 0.  0.
        4    1    3    3  502    0 -0.70490687242E+02 -0.45613132205E+02 -0.43186954452E+03  0.43995728338E+03  0.12699999809E+01 0.  1.
       -4    1    3    3    0  502  0.70490687242E+02  0.45613132205E+02  0.12535466783E+03  0.15088041776E+03  0.12699999809E+01 0. -1.
</event>
<event>
 5   0  0.1211345E-01  0.5043649E+03  0.7818609E-02  0.1012646E+00
        2   -1    0    0  501    0  0.00000000000E+00  0.00000000000E+00  0.44270058959E+03  0.44270058960E+03  0.25500000920E-02 0. -1.
       -2   -1    0    0    0  501  0.00000000000E+00  0.00000000000E+00 -0.14365461095E+03  0.14365461097E+03  0.25500000920E-02 0.  1.
    10030    2    1    2    0    0  0.00000000000E+00  0.00000000000E+00  0.29904597865E+03  0.58635520057E+03  0.50436487178E+03 0.  0.
        5    1    3    3  502    0  0.64152387910E+02  0.76267475009E+02 -0.11973397871E+03  0.15585433030E+03  0.46999998093E+01 0.  1.
       -5    1    3    3    0  502 -0.64152387910E+02 -0.76267475009E+02  0.41877995736E+03  0.43050087027E+03  0.46999998093E+01 0. -1.
</event>
<event>
 5   0  0.7416638E-02  0.5026694E+03  0.7818609E-02  0.1013085E+00
       -1   -1    0    0    0  501  0.00000000000E+00  0.00000000000E+00  0.13819693752E+03  0.13819693761E+03  0.50400001928E-02 0.  1.
        1   -1    0    0  501    0  0.00000000000E+00  0.00000000000E+00 -0.45709497876E+03  0.45709497879E+03  0.50400001928E-02 0. -1.
    10030    2    1    2    0    0  0.00000000000E+00  0.00000000000E+00 -0.31889804124E+03  0.59529191641E+03  0.50266937944E+03 0.  0.
        1    1    3    3  502    0  0.14396733983E+03  0.20589643628E+03 -0.15114323417E+03  0.29319654614E+03  0.50400001928E-02 0. -1.
       -1    1    3    3    0  502 -0.14396733983E+03 -0.20589643628E+03 -0.16775480708E+03  0.30209537026E+03  0.50400001928E-02 0.  1.
</event>
<event>
 5   0  0.5006750E-02  0.4994951E+03  0.7818609E-02  0.1013911E+00
        3   -1    0    0  501    0  0.00000000000E+00  0.00000000000E+00  0.33623397535E+02  0.33623549229E+02  0.10100000352E+00 0.  1.
       -3   -1    0    0    0  501  0.00000000000E+00  0.00000000000E+00 -0.18550677531E+04  0.18550677558E+04  0.10100000352E+00 0. -1.
    10030    2    1    2    0    0  0.00000000000E+00  0.00000000000E+00 -0.18214443555E+04  0.18886913050E+04  0.49949505048E+03 0.  0.
        3    1    3    3  502    0 -0.12909222429E+03 -0.17443132842E+03 -0.13781668320E+04  0.13951469162E+04  0.10100000352E+00 0. -1.
       -3    1    3    3    0  502  0.12909222429E+03  0.17443132842E+03 -0.44327752350E+03  0.49354438884E+03  0.10100000352E+00 0.  1.
</event>
<event>
 5   0  0.7812547E-02  0.4902835E+03  0.7818609E-02  0.1016347E+00
       -1   -1    0    0    0  501  0.00000000000E+00  0.00000000000E+00  0.14567069642E+03  0.14567069650E+03  0.50400001928E-02 0.  1.
        1   -1    0    0  501    0  0.00000000000E+00  0.00000000000E+00 -0.41253644327E+03  0.41253644330E+03  0.50400001928E-02 0. -1.
    10030    2    1    2    0    0  0.00000000000E+00  0.00000000000E+00 -0.26686574685E+03  0.55820713980E+03  0.49028347319E+03 0.  0.
        4    1    3    3  502    0  0.34311226115E+02  0.13681059029E+03  0.94839230875E+02  0.16997202848E+03  0.12699999809E+01 0.  1.
       -4    1    3    3    0  502 -0.34311226115E+02 -0.13681059029E+03 -0.36170497773E+03  0.38823511133E+03  0.12699999809E+01 0. -1.
</event>
<event>
 5   0  0.7602288E-02  0.4986822E+03  0.7818609E-02  0.1014123E+00
       -1   -1    0    0    0  501  0.00000000000E+00  0.00000000000E+00  0.72838307065E+03  0.72838307066E+03  0.50400001928E-02 0. -1.
        1   -1    0    0  501    0  0.00000000000E+00  0.00000000000E+00 -0.85354787695E+02  0.85354787844E+02  0.50400001928E-02 0.  1.
    10030    2    1    2    0    0  0.00000000000E+00  0.00000000000E+00  0.64302828295E+03  0.81373785851E+03  0.49868219308E+03 0.  0.
        5    1    3    3  502    0  0.40244366405E+02 -0.21394498854E+02  0.72145438970E+03  0.72290791946E+03  0.46999998093E+01 0. -1.
       -5    1    3    3    0  502 -0.40244366405E+02  0.21394498854E+02 -0.78426106749E+02  0.90829939043E+02  0.46999998093E+01 0.  1.
</event>
<event>
 5   0  0.1243803E-01  0.5046832E+03  0.7818609E-02  0.1012564E+00
        2   -1    0    0  501    0  0.00000000000E+00  0.00000000000E+00  0.69603925415E+03  0.69603925416E+03  0.25500000920E-02 0.  1.
       -2   -1    0    0    0  501  0.00000000000E+00  0.00000000000E+00 -0.91483768309E+02  0.91483768344E+02  0.25500000920E-02 0. -1.
    10030    2    1    2    0    0  0.00000000000E+00  0.00000000000E+00  0.60455548584E+03  0.78752302250E+03  0.50468324274E+03 0.  0.
        4    1    3    3  502    0 -0.19586718876E+03  0.12460874216E+03  0.14793401546E+03  0.27527691527E+03  0.12699999809E+01 0. -1.
       -4    1    3    3    0  502  0.19586718876E+03 -0.12460874216E+03  0.45662147038E+03  0.51224610723E+03  0.12699999809E+01 0.  1.
</event>
<event>
 5   0  0.7416638E-02  0.4972995E+03  0.7818609E-02  0.1014486E+00
       -1   -1    0    0    0  501  0.00000000000E+00  0.00000000000E+00  0.88278081089E+02  0.88278081232E+02  0.50400001928E-02 0. -1.
        1   -1    0    0  501    0  0.00000000000E+00  0.00000000000E+00 -0.70036294078E+03  0.70036294079E+03  0.50400001928E-02 0.  1.
    10030    2    1    2    0    0  0.00000000000E+00  0.00000000000E+00 -0.61208485969E+03  0.78864102203E+03  0.49729949343E+03 0.  0.
        1    1    3    3  502    0 -0.17105432360E+03  0.17363820990E+03 -0.22807925512E+03  0.33381125835E+03  0.50400001928E-02 0. -1.
       -1    1    3    3    0  502  0.17105432360E+03 -0.17363820990E+03 -0.38400560456E+03  0.45482976367E+03  0.50400001928E-02 0.  1.
</event>
<event>
 5   0  0.1279188E-01  0.4976597E+03  0.7818609E-02  0.1014392E+00
       -2   -1    0    0    0  501  0.00000000000E+00  0.00000000000E+00  0.44746456066E+02  0.44746456139E+02  0.25500000920E-02 0.  1.
        2   -1    0    0  501    0  0.00000000000E+00  0.00000000000E+00 -0.13837139797E+04  0.13837139797E+04  0.25500000920E-02 0. -1.
    10030    2    1    2    0    0  0.00000000000E+00  0.00000000000E+00 -0.13389675237E+04  0.14284604359E+04  0.49765971047E+03 0.  0.
        2    1    3    3  502    0 -0.16521489084E+03  0.96035798390E+02 -0.21204717840E+03  0.28545199352E+03  0.25500000920E-02 0. -1.
       -2    1    3    3    0  502  0.16521489084E+03 -0.96035798390E+02 -0.11269203453E+04  0.11430084424E+04  0.25500000920E-02 0.  1.
</event>
<event>
 5   0  0.1211345E-01  0.4933879E+03  0.7818609E-02  0.1015519E+00
        2   -1    0    0  501    0  0.00000000000E+00  0.00000000000E+00  0.10137156822E+04  0.10137156823E+04  0.25500000920E-02 0.  1.
       -2   -1    0    0    0  501  0.00000000000E+00  0.00000000000E+00 -0.60034484222E+02  0.60034484276E+02  0.25500000920E-02 0. -1.
    10030    2    1    2    0    0  0.00000000000E+00  0.00000000000E+00  0.95368119803E+03  0.10737501665E+04  0.49338787242E+03 0.  0.
        5    1    3    3  502    0  0.80085806445E+02 -0.67711052953E+02  0.96267913772E+03  0.96838614989E+03  0.46999998093E+01 0.  1.
       -5    1    3    3    0  502 -0.80085806445E+02  0.67711052953E+02 -0.89979396955E+01  0.10536401664E+03  0.46999998093E+01 0. -1.
</event>
<event>
 5   0  0.7531632E-02  0.4988887E+03  0.7818609E-02  0.1014069E+00
        1   -1    0    0  501    0  0.00000000000E+00  0.00000000000E+00  0.13401535503E+04  0.13401535503E+04  0.50400001928E-02 0.  1.
       -1   -1    0    0    0  501  0.00000000000E+00  0.00000000000E+00 -0.46429371410E+02  0.46429371683E+02  0.50400001928E-02 0. -1.
    10030    2    1    2    0    0  0.00000000000E+00  0.00000000000E+00  0.12937241789E+04  0.13865829220E+04  0.49888871356E+03 0.  0.
        3    1    3    3  502    0 -0.47531587023E+02 -0.32500412345E+02 -0.27705436841E+02  0.63899374012E+02  0.10100000352E+00 0. -1.
       -3    1    3    3    0  502  0.47531587023E+02  0.32500412345E+02  0.13214296157E+04  0.13226835480E+04  0.10100000352E+00 0.  1.
</event>
<event>
 5   0  0.5006750E-02  0.4929658E+03  0.7818609E-02  0.1015631E+00
       -3   -1    0    0    0  501  0.00000000000E+00  0.00000000000E+00  0.25698582023E+03  0.25698584008E+03  0.10100000352E+00 0. -1.
        3   -1    0    0  501    0  0.00000000000E+00  0.00000000000E+00 -0.23640919612E+03  0.23640921770E+03  0.10100000352E+00 0.  1.
    10030    2    1    2    0    0  0.00000000000E+00  0.00000000000E+00  0.20576624109E+02  0.49339505778E+03  0.49296580569E+03 0.  0.
        2    1    3    3  502    0  0.11376151271E+03 -0.19384236616E+03  0.11155584270E+03  0.25092080571E+03  0.25500000920E-02 0. -1.
       -2    1    3    3    0  502 -0.11376151271E+03  0.19384236616E+03 -0.90979218588E+02  0.24247425206E+03  0.25500000920E-02 0.  1.
</event>
<event>
 5   0  0.7531632E-02  0.5035287E+03  0.7818609E-02  0.1012862E+00
        1   -1    0    0  501    0  0.00000000000E+00  0.00000000000E+00  0.10217649138E+04  0.10217649138E+04  0.50400001928E-02 0.  1.
       -1   -1    0    0    0  501  0.00000000000E+00  0.00000000000E+00 -0.62035089519E+02  0.62035089724E+02  0.50400001928E-02 0. -1.
    10030    2    1    2    0    0  0.00000000000E+00  0.00000000000E+00  0.95972982429E+03  0.10838000036E+04  0.50352866061E+03 0.  0.
        3    1    3    3  502    0 -0.37537611113E+02 -0.10423700074E+03 -0.67455877503E+01  0.11099521488E+03  0.10100000352E+00 0. -1.
       -3    1    3    3    0  502  0.37537611113E+02  0.10423700074E+03  0.96647541204E+03  0.97280478867E+03  0.10100000352E+00 0.  1.
</event>
<event>
 5   0  0.1279188E-01  0.4895186E+03  0.7818609E-02  0.1016551E+00
        2   -1    0    0  501    0  0.00000000000E+00  0.00000000000E+00  0.72265100574E+03  0.72265100575E+03  0.25500000920E-02 0. -1.
       -2   -1    0    0    0  501  0.00000000000E+00  0.00000000000E+00 -0.82899108161E+02  0.82899108200E+02  0.25500000920E-02 0.  1.
    10030    2    1    2    0    0  0.00000000000E+00  0.00000000000E+00  0.63975189758E+03  0.80555011395E+03  0.48951863664E+03 0.  0.
        2    1    3    3  502    0 -0.31317880285E+02  0.22275920613E+03  0.16114070552E+03  0.27671068017E+03  0.25500000920E-02 0.  1.
       -2    1    3    3    0  502  0.31317880285E+02 -0.22275920613E+03  0.47861119206E+03  0.52883943377E+03  0.25500000920E-02 0. -1.
</event>
<event>
 5   0  0.7812547E-02  0.4533088E+03  0.7818609E-02  0.1026740E+00
        1   -1    0    0  501    0  0.00000000000E+00  0.00000000000E+00  0.64429641231E+03  0.64429641233E+03  0.50400001928E-02 0. -1.
       -1   -1    0    0    0  501  0.00000000000E+00  0.00000000000E+00 -0.79733837267E+02  0.79733837426E+02  0.50400001928E-02 0.  1.
    10030    2    1    2    0    0  0.00000000000E+00  0.00000000000E+00  0.56456257505E+03  0.72403024976E+03  0.45330883669E+03 0.  0.
        4    1    3    3  502    0 -0.62545511775E+02  0.12164854799E+03 -0.63694193812E+01  0.13693974104E+03  0.12699999809E+01 0.  1.
       -4    1    3    3    0  502  0.62545511775E+02 -0.12164854799E+03  0.57093199443E+03  0.58709050872E+03  0.12699999809E+01 0. -1.
</event>
<event>
 5   0  0.1191894E-01  0.5044041E+03  0.7818609E-02  0.1012636E+00
        2   -1    0    0  501    0  0.00000000000E+00  0.00000000000E+00  0.70590305298E+03  0.70590305299E+03  0.25500000920E-02 0.  1.
       -2   -1    0    0    0  501  0.00000000000E+00  0.00000000000E+00 -0.90105682388E+02  0.90105682424E+02  0.25500000920E-02 0. -1.
    10030    2    1    2    0    0  0.00000000000E+00  0.00000000000E+00  0.61579737059E+03  0.79600873541E+03  0.50440410904E+03 0.  0.
        3    1    3    3  502    0  0.66332818016E+02  0.13750722174E+03  0.62469399310E+03  0.64307921285E+03  0.10100000352E+00 0.  1.
       -3    1    3    3    0  502 -0.66332818016E+02 -0.13750722174E+03 -0.88966225093E+01  0.15292952256E+03  0.10100000352E+00 0. -1.
</event>
<event>
 5   0  0.1211345E-01  0.4818042E+03  0.7818609E-02  0.1018641E+00
       -2   -1    0    0    0  501  0.00000000000E+00  0.00000000000E+00  0.16241164670E+03  0.16241164672E+03  0.25500000920E-02 0. -1.
        2   -1    0    0  501    0  0.00000000000E+00  0.00000000000E+00 -0.35732544907E+03  0.35732544908E+03  0.25500000920E-02 0.  1.
    10030    2    1    2    0    0  0.00000000000E+00  0.00000000000E+00 -0.19491380236E+03  0.51973709580E+03  0.48180417018E+03 0.  0.
        5    1    3    3  502    0  0.41635736312E+02 -0.12891341331E+03 -0.31228292889E+03  0.34043343012E+03  0.46999998093E+01 0.  1.
       -5    1    3    3    0  502 -0.41635736312E+02  0.12891341331E+03  0.11736912653E+03  0.17930366568E+03  0.46999998093E+01 0. -1.
</event>
<event>
 5   0  0.1231822E-01  0.4968264E+03  0.7818609E-02  0.1014611E+00
       -2   -1    0    0    0  501  0.00000000000E+00  0.00000000000E+00  0.33097716028E+02  0.33097716127E+02  0.25500000920E-02 0.  1.
        2   -1    0    0  501    0  0.00000000000E+00  0.00000000000E+00 -0.18644521365E+04  0.18644521365E+04  0.25500000920E-02 0. -1.
    10030    2    1    2    0    0  0.00000000000E+00  0.00000000000E+00 -0.18313544205E+04  0.18975498526E+04  0.49682635782E+03 0.  0.
        1    1    3    3  502    0  0.19531479263E+02 -0.15111070376E+03 -0.16633450475E+03  0.22557280636E+03  0.50400001928E-02 0.  1.
       -1    1    3    3    0  502 -0.19531479263E+02  0.15111070376E+03 -0.16650199157E+04  0.16719770463E+04  0.50400001928E-02 0. -1.
</event>
<event>
 5   0  0.7812547E-02  0.5016799E+03  0.7818609E-02  0.1013341E+00
        1   -1    0    0  501    0  0.00000000000E+00  0.00000000000E+00  0.57989595060E+03  0.57989595063E+03  0.50400001928E-02 0. -1.
       -1   -1    0    0    0  501  0.00000000000E+00  0.00000000000E+00 -0.10850340030E+03  0.10850340042E+03  0.50400001928E-02 0.  1.
    10030    2    1    2    0    0  0.00000000000E+00  0.00000000000E+00  0.47139255030E+03  0.68839935105E+03  0.50167990795E+03 0.  0.
        4    1    3    3  502    0 -0.94771715710E+02 -0.15719207775E+03  0.11040540956E+01  0.18355887132E+03  0.12699999809E+01 0.  1.
       -4    1    3    3    0  502  0.94771715710E+02  0.15719207775E+03  0.47028849621E+03  0.50484047973E+03  0.12699999809E+01 0. -1.
</event>
<event>
 5   0  0.1231822E-01  0.5004478E+03  0.7818609E-02  0.1013662E+00
        2   -1    0    0  501    0  0.00000000000E+00  0.00000000000E+00  0.80948660725E+03  0.80948660726E+03  0.25500000920E-02 0. -1.
       -2   -1    0    0    0  501  0.00000000000E+00  0.00000000000E+00 -0.77347788889E+02  0.77347788931E+02  0.25500000920E-02 0.  1.
    10030    2    1    2    0    0  0.00000000000E+00  0.00000000000E+00  0.73213881836E+03  0.88683439619E+03  0.50044779638E+03 0.  0.
        1    1    3    3  502    0 -0.12774322793E+03 -0.73519288427E+02  0.77380902788E+01  0.14759165329E+03  0.50400001928E-02 0.  1.
       -1    1    3    3    0  502  0.12774322793E+03  0.73519288427E+02  0.72440072808E+03  0.73924274290E+03  0.50400001928E-02 0. -1.
</event>
<event>
 5   0  0.7812547E-02  0.4848075E+03  0.7818609E-02  0.1017822E+00
       -1   -1    0    0    0  501  0.00000000000E+00  0.00000000000E+00  0.21540087660E+03  0.21540087666E+03  0.50400001928E-02 0. -1.
        1   -1    0    0  501    0  0.00000000000E+00  0.00000000000E+00 -0.27279176581E+03  0.27279176585E+03  0.50400001928E-02 0.  1.
    10030    2    1    2    0    0  0.00000000000E+00  0.00000000000E+00 -0.57390889209E+02  0.48819264251E+03  0.48480753092E+03 0.  0.
        4    1    3    3  502    0  0.58402239001E+01  0.10150430852E+03  0.19288813935E+03  0.21804742619E+03  0.12699999809E+01 0. -1.
       -4    1    3    3    0  502 -0.58402239001E+01 -0.10150430852E+03 -0.25027902856E+03  0.27014521632E+03  0.12699999809E+01 0.  1.
</event>
<event>
 5   0  0.1243803E-01  0.5343469E+03  0.7818609E-02  0.1005183E+00
       -2   -1    0    0    0  501  0.00000000000E+00  0.00000000000E+00  0.52892872681E+02  0.52892872742E+02  0.25500000920E-02 0. -1.
        2   -1    0    0  501    0  0.00000000000E+00  0.00000000000E+00 -0.13495515061E+04  0.13495515061E+04  0.25500000920E-02 0.  1.
    10030    2    1    2    0    0  0.00000000000E+00  0.00000000000E+00 -0.12966586334E+04  0.14024443788E+04  0.53434691365E+03 0.  0.
        4    1    3    3  502    0 -0.15751759344E+03  0.14049433933E+03 -0.21842741033E+03  0.30374758947E+03  0.12699999809E+01 0. -1.
       -4    1    3    3    0  502  0.15751759344E+03 -0.14049433933E+03 -0.10782312231E+04  0.10986967894E+04  0.12699999809E+01 0.  1.
</event>
<event>
 5   0  0.7416638E-02  0.5186539E+03  0.7818609E-02  0.1009021E+00
        1   -1    0    0  501    0  0.00000000000E+00  0.00000000000E+00  0.14458959453E+03  0.14458959462E+03  0.50400001928E-02 0.  1.
       -1   -1    0    0    0  501  0.00000000000E+00  0.00000000000E+00 -0.46511276364E+03  0.46511276367E+03  0.50400001928E-02 0. -1.
    10030    2    1    2    0    0  0.00000000000E+00  0.00000000000E+00 -0.32052316911E+03  0.60970235829E+03  0.51865389593E+03 0.  0.
        1    1    3    3  502    0  0.26529612712E+02  0.43976850867E+02 -0.45907432817E+03  0.46193833200E+03  0.50400001928E-02 0. -1.
       -1    1    3    3    0  502 -0.26529612712E+02 -0.43976850867E+02  0.13855115906E+03  0.14776402629E+03  0.50400001928E-02 0.  1.
</event>
<event>
 5   0  0.1211345E-01  0.4914861E+03  0.7818609E-02  0.1016025E+00
        2   -1    0    0  501    0  0.00000000000E+00  0.00000000000E+00  0.54412484786E+03  0.54412484787E+03  0.25500000920E-02 0.  1.
       -2   -1    0    0    0  501  0.00000000000E+00  0.00000000000E+00 -0.11098488713E+03  0.11098488716E+03  0.25500000920E-02 0. -1.
    10030    2    1    2    0    0  0.00000000000E+00  0.00000000000E+00  0.43313996073E+03  0.65510973503E+03  0.49148605204E+03 0.  0.
        5    1    3    3  502    0  0.10435462914E+02  0.22041758958E+03  0.72548815711E+02  0.23233216166E+03  0.46999998093E+01 0. -1.
       -5    1    3    3    0  502 -0.10435462914E+02 -0.22041758958E+03  0.36059114502E+03  0.42277757337E+03  0.46999998093E+01 0.  1.
</event>
<event>
 5   0  0.1211345E-01  0.4843264E+03  0.7818609E-02  0.1017953E+00
        2   -1    0    0  501    0  0.00000000000E+00  0.00000000000E+00  0.75227147058E+02  0.75227147101E+02  0.25500000920E-02 0.  1.
       -2   -1    0    0    0  501  0.00000000000E+00  0.00000000000E+00 -0.77954576011E+03  0.77954576011E+03  0.25500000920E-02 0. -1.
    10030    2    1    2    0    0  0.00000000000E+00  0.00000000000E+00 -0.70431861305E+03  0.85477290721E+03  0.48432635094E+03 0.  0.
        5    1    3    3  502    0  0.75638380675E+01  0.19913492672E+03 -0.10947218307E+03  0.22741631329E+03  0.46999998093E+01 0.  1.
       -5    1    3    3    0  502 -0.75638380675E+01 -0.19913492672E+03 -0.59484642998E+03  0.62735659393E+03  0.46999998093E+01 0. -1.
</event>
<event>
 5   0  0.1279188E-01  0.4994171E+03  0.7818609E-02  0.1013931E+00
        2   -1    0    0  501    0  0.00000000000E+00  0.00000000000E+00  0.39907313520E+03  0.39907313521E+03  0.25500000920E-02 0.  1.
       -2   -1    0    0    0  501  0.00000000000E+00  0.00000000000E+00 -0.15624792387E+03  0.15624792389E+03  0.25500000920E-02 0. -1.
    10030    2    1    2    0    0  0.00000000000E+00  0.00000000000E+00  0.24282521133E+03  0.55532105910E+03  0.49941705560E+03 0.  0.
        2    1    3    3  502    0  0.15377248794E+03  0.11759934345E+03  0.29679871105E+03  0.35435160295E+03  0.25500000920E-02 0.  1.
       -2    1    3    3    0  502 -0.15377248794E+03 -0.11759934345E+03 -0.53973499720E+02  0.20096945615E+03  0.25500000920E-02 0. -1.
</event>
<event>
 5   0  0.1279188E-01  0.4973140E+03  0.7818609E-02  0.1014482E+00
       -2   -1    0    0    0  501  0.00000000000E+00  0.00000000000E+00  0.10767272720E+03  0.10767272723E+03  0.25500000920E-02 0.  1.
        2   -1    0    0  501    0  0.00000000000E+00  0.00000000000E+00 -0.57424300321E+03  0.57424300321E+03  0.25500000920E-02 0. -1.
    10030    2    1    2    0    0  0.00000000000E+00  0.00000000000E+00 -0.46657027600E+03  0.68191573045E+03  0.49731402653E+03 0.  0.
        2    1    3    3  502    0  0.16718553241E+03 -0.17762278880E+03 -0.29946516899E+03  0.38623858533E+03  0.25500000920E-02 0. -1.
       -2    1    3    3    0  502 -0.16718553241E+03  0.17762278880E+03 -0.16710510701E+03  0.29567714512E+03  0.25500000920E-02 0.  1.
</event>
<event>
 5   0  0.1231822E-01  0.5263334E+03  0.7818609E-02  0.1007125E+00
        2   -1    0    0  501    0  0.00000000000E+00  0.00000000000E+00  0.98594711040E+03  0.98594711040E+03  0.25500000920E-02 0.  1.
       -2   -1    0    0    0  501  0.00000000000E+00  0.00000000000E+00 -0.70243828854E+02  0.70243828901E+02  0.25500000920E-02 0. -1.
    10030    2    1    2    0    0  0.00000000000E+00  0.00000000000E+00  0.91570328154E+03  0.10561909393E+04  0.52633335486E+03 0.  0.
        1    1    3    3  502    0 -0.15058140328E+03  0.12541035507E+03  0.81033496564E+03  0.83369375237E+03  0.50400001928E-02 0.  1.
       -1    1    3    3    0  502  0.15058140328E+03 -0.12541035507E+03  0.10536831590E+03  0.22249718693E+03  0.50400001928E-02 0. -1.
</event>
<event>
 5   0  0.7531632E-02  0.5023934E+03  0.7818609E-02  0.1013156E+00
        1   -1    0    0  501    0  0.00000000000E+00  0.00000000000E+00  0.79092625584E+03  0.79092625586E+03  0.50400001928E-02 0. -1.
       -1   -1    0    0    0  501  0.00000000000E+00  0.00000000000E+00 -0.79779594794E+02  0.79779594953E+02  0.50400001928E-02 0.  1.
    10030    2    1    2    0    0  0.00000000000E+00  0.00000000000E+00  0.71114666105E+03  0.87070585081E+03  0.50239337686E+03 0.  0.
        3    1    3    3  502    0 -0.17443674866E+03  0.16765751366E+03  0.47263942600E+03  0.53096634393E+03  0.10100000352E+00 0. -1.
       -3    1    3    3    0  502  0.17443674866E+03 -0.16765751366E+03  0.23850723504E+03  0.33973950688E+03  0.10100000352E+00 0.  1.
</event>
<event>
 5   0  0.7531632E-02  0.4845193E+03  0.7818609E-02  0.1017900E+00
        1   -1    0    0  501    0  0.00000000000E+00  0.00000000000E+00  0.56288755122E+03  0.56288755124E+03  0.50400001928E-02 0.  1.
       -1   -1    0    0    0  501  0.00000000000E+00  0.00000000000E+00 -0.10426545746E+03  0.10426545758E+03  0.50400001928E-02 0. -1.
    10030    2    1    2    0    0  0.00000000000E+00  0.00000000000E+00  0.45862209376E+03  0.66715300882E+03  0.48451925895E+03 0.  0.
        3    1    3    3  502    0  0.15804233217E+03  0.22289260870E+01 -0.23488822532E+02  0.15979387302E+03  0.10100000352E+00 0. -1.
       -3    1    3    3    0  502 -0.15804233217E+03 -0.22289260870E+01  0.48211091629E+03  0.50735913580E+03  0.10100000352E+00 0.  1.
</event>
<event>
 5   0  0.7602288E-02  0.4137900E+03  0.7818609E-02  0.1039107E+00
        1   -1    0    0  501    0  0.00000000000E+00  0.00000000000E+00  0.35844046679E+03  0.35844046682E+03  0.50400001928E-02 0.  1.
       -1   -1    0    0    0  501  0.00000000000E+00  0.00000000000E+00 -0.11942163492E+03  0.11942163503E+03  0.50400001928E-02 0. -1.
    10030    2    1    2    0    0  0.00000000000E+00  0.00000000000E+00  0.23901883186E+03  0.47786210185E+03  0.41379002695E+03 0.  0.
        5    1    3    3  502    0 -0.74353898323E+02 -0.16542856135E+03  0.23434708951E+03  0.29637098284E+03  0.46999998093E+01 0.  1.
       -5    1    3    3    0  502  0.74353898323E+02  0.16542856135E+03  0.46717423548E+01  0.18149111902E+03  0.46999998093E+01 0. -1.
</event>
<event>
 5   0  0.1191894E-01  0.5009745E+03  0.7818609E-02  0.1013525E+00
        2   -1    0    0  501    0  0.00000000000E+00  0.00000000000E+00  0.11480247586E+04  0.11480247586E+04  0.25500000920E-02 0.  1.
       -2   -1    0    0    0  501  0.00000000000E+00  0.00000000000E+00 -0.54653759105E+02  0.54653759164E+02  0.25500000920E-02 0. -1.
    10030    2    1    2    0    0  0.00000000000E+00  0.00000000000E+00  0.10933709995E+04  0.12026785178E+04  0.50097452487E+03 0.  0.
        3    1    3    3  502    0  0.14131151752E+03 -0.26291168299E+02  0.10391680049E+04  0.10490616394E+04  0.10100000352E+00 0.  1.
       -3    1    3    3    0  502 -0.14131151752E+03  0.26291168299E+02  0.54202994596E+02  0.15361687843E+03  0.10100000352E+00 0. -1.
</event>
<event>
 5   0  0.5006750E-02  0.5019443E+03  0.7818609E-02  0.1013273E+00
       -3   -1    0    0    0  501  0.00000000000E+00  0.00000000000E+00  0.10588580007E+03  0.10588584824E+03  0.10100000352E+00 0.  1.
        3   -1    0    0  501    0  0.00000000000E+00  0.00000000000E+00 -0.59485775851E+03  0.59485776708E+03  0.10100000352E+00 0. -1.
    10030    2    1    2    0    0  0.00000000000E+00  0.00000000000E+00 -0.48897195844E+03  0.70074361532E+03  0.50194425814E+03 0.  0.
        5    1    3    3  502    0 -0.12956064945E+03 -0.16161891947E+03 -0.46766011323E+02  0.21240477120E+03  0.46999998093E+01 0.  1.
       -5    1    3    3    0  502  0.12956064945E+03  0.16161891947E+03 -0.44220594711E+03  0.48833884412E+03  0.46999998093E+01 0. -1.
</event>
<event>
 5   0  0.7812547E-02  0.4961380E+03  0.7818609E-02  0.1014792E+00
       -1   -1    0    0    0  501  0.00000000000E+00  0.00000000000E+00  0.41651401206E+03  0.41651401209E+03  0.50400001928E-02 0. -1.
        1   -1    0    0  501    0  0.00000000000E+00  0.00000000000E+00 -0.14774588796E+03  0.14774588804E+03  0.50400001928E-02 0.  1.
    10030    2    1    2    0    0  0.00000000000E+00  0.00000000000E+00  0.26876812410E+03  0.56425990013E+03  0.49613801544E+03 0.  0.
        4    1    3    3  502    0 -0.46623631624E+01 -0.12719987812E+03 -0.10777116198E+03  0.16678663878E+03  0.12699999809E+01 0.  1.
       -4    1    3    3    0  502  0.46623631624E+01  0.12719987812E+03  0.37653928608E+03  0.39747326135E+03  0.12699999809E+01 0. -1.
</event>
<event>
 5   0  0.1279188E-01  0.5009004E+03  0.7818609E-02  0.1013544E+00
        2   -1    0    0  501    0  0.00000000000E+00  0.00000000000E+00  0.12535163625E+04  0.12535163625E+04  0.25500000920E-02 0. -1.
       -2   -1    0    0    0  501  0.00000000000E+00  0.00000000000E+00 -0.50039481525E+02  0.50039481590E+02  0.25500000920E-02 0.  1.
    10030    2    1    2    0    0  0.00000000000E+00  0.00000000000E+00  0.12034768809E+04  0.13035558441E+04  0.50090042486E+03 0.  0.
        2    1    3    3  502    0  0.23670088824E+03 -0.39161437151E+02  0.78875813641E+03  0.82443940130E+03  0.25500000920E-02 0. -1.
       -2    1    3    3    0  502 -0.23670088824E+03  0.39161437151E+02  0.41471874452E+03  0.47911644275E+03  0.25500000920E-02 0.  1.
</event>
<event>
 5   0  0.7812547E-02  0.4976369E+03  0.7818609E-02  0.1014398E+00
        1   -1    0    0  501    0  0.00000000000E+00  0.00000000000E+00  0.11846982361E+04  0.11846982361E+04  0.50400001928E-02 0. -1.
       -1   -1    0    0    0  501  0.00000000000E+00  0.00000000000E+00 -0.52258558414E+02  0.52258558657E+02  0.50400001928E-02 0.  1.
    10030    2    1    2    0    0  0.00000000000E+00  0.00000000000E+00  0.11324396777E+04  0.12369567948E+04  0.49763690430E+03 0.  0.
        4    1    3    3  502    0 -0.96495679796E+02  0.38852459291E+02  0.11280457166E+04  0.11328325920E+04  0.12699999809E+01 0. -1.
       -4    1    3    3    0  502  0.96495679796E+02 -0.38852459291E+02  0.43939610875E+01  0.10412420279E+03  0.12699999809E+01 0.  1.
</event>
<event>
 5   0  0.7416638E-02  0.4978000E+03  0.7818609E-02  0.1014355E+00
        1   -1    0    0  501    0  0.00000000000E+00  0.00000000000E+00  0.80906273865E+02  0.80906274022E+02  0.50400001928E-02 0.  1.
       -1   -1    0    0    0  501  0.00000000000E+00  0.00000000000E+00 -0.76571581824E+03  0.76571581826E+03  0.50400001928E-02 0. -1.
    10030    2    1    2    0    0  0.00000000000E+00  0.00000000000E+00 -0.68480954438E+03  0.84662209228E+03  0.49780001513E+03 0.  0.
        1    1    3    3  502    0 -0.11336849221E+03  0.22113401804E+03 -0.36636902693E+03  0.44269507890E+03  0.50400001928E-02 0. -1.
       -1    1    3    3    0  502  0.11336849221E+03 -0.22113401804E+03 -0.31844051745E+03  0.40392701338E+03  0.50400001928E-02 0.  1.
</event>
<event>
 5   0  0.7781754E-02  0.5001773E+03  0.7818609E-02  0.1013733E+00
       -1   -1    0    0    0  501  0.00000000000E+00  0.00000000000E+00  0.56305209716E+02  0.56305209942E+02  0.50400001928E-02 0.  1.
        1   -1    0    0  501    0  0.00000000000E+00  0.00000000000E+00 -0.11108090905E+04  0.11108090905E+04  0.50400001928E-02 0. -1.
    10030    2    1    2    0    0  0.00000000000E+00  0.00000000000E+00 -0.10545038808E+04  0.11671143004E+04  0.50017732429E+03 0.  0.
        2    1    3    3  502    0 -0.19183939245E+03 -0.13260608034E+03 -0.31650029967E+03  0.39314013371E+03  0.25500000920E-02 0.  1.
       -2    1    3    3    0  502  0.19183939245E+03  0.13260608034E+03 -0.73800358109E+03  0.77397416672E+03  0.25500000920E-02 0. -1.
</event>
<event>
 5   0  0.7531632E-02  0.4973688E+03  0.7818609E-02  0.1014468E+00
        1   -1    0    0  501    0  0.00000000000E+00  0.00000000000E+00  0.13582539171E+04  0.13582539171E+04  0.50400001928E-02 0. -1.
       -1   -1    0    0    0  501  0.00000000000E+00  0.00000000000E+00 -0.45531927200E+02  0.45531927479E+02  0.50400001928E-02 0.  1.
    10030    2    1    2    0    0  0.00000000000E+00  0.00000000000E+00  0.13127219899E+04  0.14037858446E+04  0.49736875123E+03 0.  0.
        3    1    3    3  502    0 -0.58461374092E+02  0.24769001402E+02 -0.22270305892E+02  0.67284562990E+02  0.10100000352E+00 0.  1.
       -3    1    3    3    0  502  0.58461374092E+02 -0.24769001402E+02  0.13349922958E+04  0.13365012816E+04  0.10100000352E+00 0. -1.
</event>
<event>
 5   0  0.1243803E-01  0.5005894E+03  0.7818609E-02  0.1013625E+00
       -2   -1    0    0    0  501  0.00000000000E+00  0.00000000000E+00  0.89727913019E+02  0.89727913055E+02  0.25500000920E-02 0. -1.
        2   -1    0    0  501    0  0.00000000000E+00  0.00000000000E+00 -0.69819327521E+03  0.69819327521E+03  0.25500000920E-02 0.  1.
    10030    2    1    2    0    0  0.00000000000E+00  0.00000000000E+00 -0.60846536219E+03  0.78792118827E+03  0.50058935460E+03 0.  0.
        4    1    3    3  502    0  0.10656192228E+03 -0.14642264952E+03 -0.32288988875E+02  0.18395441630E+03  0.12699999809E+01 0. -1.
       -4    1    3    3    0  502 -0.10656192228E+03  0.14642264952E+03 -0.57617637331E+03  0.60396677197E+03  0.12699999809E+01 0.  1.
</event>
<event>
 5   0  0.1243803E-01  0.4932845E+03  0.7818609E-02  0.1015547E+00
        2   -1    0    0  501    0  0.00000000000E+00  0.00000000000E+00  0.15707204271E+04  0.15707204271E+04  0.25500000920E-02 0.  1.
       -2   -1    0    0    0  501  0.00000000000E+00  0.00000000000E+00 -0.38728980799E+02  0.38728980883E+02  0.25500000920E-02 0. -1.
    10030    2    1    2    0    0  0.00000000000E+00  0.00000000000E+00  0.15319914463E+04  0.16094494080E+04  0.49328450749E+03 0.  0.
        4    1    3    3  502    0 -0.89867594812E+02  0.22162341569E+03  0.96278037896E+03  0.99203870590E+03  0.12699999809E+01 0.  1.
       -4    1    3    3    0  502  0.89867594812E+02 -0.22162341569E+03  0.56921106735E+03  0.61741070210E+03  0.12699999809E+01 0. -1.
</event>
<event>
 5   0  0.7781754E-02  0.5001136E+03  0.7818609E-02  0.1013749E+00
        1   -1    0    0  501    0  0.00000000000E+00  0.00000000000E+00  0.85699400921E+03  0.85699400922E+03  0.50400001928E-02 0.  1.
       -1   -1    0    0    0  501  0.00000000000E+00  0.00000000000E+00 -0.72962472710E+02  0.72962472884E+02  0.50400001928E-02 0. -1.
    10030    2    1    2    0    0  0.00000000000E+00  0.00000000000E+00  0.78403153650E+03  0.92995648211E+03  0.50011359548E+03 0.  0.
        2    1    3    3  502    0 -0.23041417525E+03 -0.94065900888E+02  0.34687508126E+03  0.42692084497E+03  0.25500000920E-02 0. -1.
       -2    1    3    3    0  502  0.23041417525E+03  0.94065900888E+02  0.43715645524E+03  0.50303563713E+03  0.25500000920E-02 0.  1.
</event>
<event>
 5   0  0.1243803E-01  0.4972570E+03  0.7818609E-02  0.1014497E+00
       -2   -1    0    0    0  501  0.00000000000E+00  0.00000000000E+00  0.21628523065E+03  0.21628523067E+03  0.25500000920E-02 0. -1.
        2   -1    0    0  501    0  0.00000000000E+00  0.00000000000E+00 -0.28580834948E+03  0.28580834949E+03  0.25500000920E-02 0.  1.
    10030    2    1    2    0    0  0.00000000000E+00  0.00000000000E+00 -0.69523118823E+02  0.50209358016E+03  0.49725697500E+03 0.  0.
        4    1    3    3  502    0 -0.18534673005E+03 -0.23021528144E+02  0.13094164923E+03  0.22810245396E+03  0.12699999809E+01 0. -1.
       -4    1    3    3    0  502  0.18534673005E+03  0.23021528144E+02 -0.20046476806E+03  0.27399112619E+03  0.12699999809E+01 0.  1.
</event>
<event>
 5   0  0.1231822E-01  0.4242861E+03  0.7818609E-02  0.1035680E+00
       -2   -1    0    0    0  501  0.00000000000E+00  0.00000000000E+00  0.21724037147E+03  0.21724037148E+03  0.25500000920E-02 0. -1.
        2   -1    0    0  501    0  0.00000000000E+00  0.00000000000E+00 -0.20716533076E+03  0.20716533077E+03  0.25500000920E-02 0.  1.
    10030    2    1    2    0    0  0.00000000000E+00  0.00000000000E+00  0.10075040708E+02  0.42440570226E+03  0.42428609883E+03 0.  0.
        1    1    3    3  502    0  0.62267502359E+02 -0.17779904419E+03 -0.92534486757E+02  0.20988657230E+03  0.50400001928E-02 0. -1.
       -1    1    3    3    0  502 -0.62267502359E+02  0.17779904419E+03  0.10260952747E+03  0.21451912996E+03  0.50400001928E-02 0.  1.
</event>
<event>
 5   0  0.5006750E-02  0.5071092E+03  0.7818609E-02  0.1011940E+00
       -3   -1    0    0    0  501  0.00000000000E+00  0.00000000000E+00  0.16629679723E+03  0.16629682791E+03  0.10100000352E+00 0.  1.
        3   -1    0    0  501    0  0.00000000000E+00  0.00000000000E+00 -0.38659743817E+03  0.38659745137E+03  0.10100000352E+00 0. -1.
    10030    2    1    2    0    0  0.00000000000E+00  0.00000000000E+00 -0.22030064094E+03  0.55289427927E+03  0.50710917134E+03 0.  0.
        4    1    3    3  502    0 -0.11174341214E+03  0.26602062450E+02  0.13629797425E+03  0.17824985433E+03  0.12699999809E+01 0.  1.
       -4    1    3    3    0  502  0.11174341214E+03 -0.26602062450E+02 -0.35659861519E+03  0.37464442494E+03  0.12699999809E+01 0. -1.
</event>
<event>
 5   0  0.1243803E-01  0.4991381E+03  0.7818609E-02  0.1014004E+00
       -2   -1    0    0    0  501  0.00000000000E+00  0.00000000000E+00  0.77176755429E+02  0.77176755471E+02  0.25500000920E-02 0. -1.
        2   -1    0    0  501    0  0.00000000000E+00  0.00000000000E+00 -0.80703976891E+03  0.80703976891E+03  0.25500000920E-02 0.  1.
    10030    2    1    2    0    0  0.00000000000E+00  0.00000000000E+00 -0.72986301348E+03  0.88421652438E+03  0.49913810068E+03 0.  0.
        4    1    3    3  502    0 -0.57677875835E+02 -0.41024556975E+01  0.65140564652E+02  0.87111845157E+02  0.12699999809E+01 0. -1.
       -4    1    3    3    0  502  0.57677875835E+02  0.41024556975E+01 -0.79500357813E+03  0.79710467923E+03  0.12699999809E+01 0.  1.
</event>
<event>
 5   0  0.7531632E-02  0.5014093E+03  0.7818609E-02  0.1013412E+00
       -1   -1    0    0    0  501  0.00000000000E+00  0.00000000000E+00  0.11635987315E+03  0.11635987326E+03  0.50400001928E-02 0. -1.
        1   -1    0    0  501    0  0.00000000000E+00  0.00000000000E+00 -0.54015888751E+03  0.54015888753E+03  0.50400001928E-02 0.  1.
    10030    2    1    2    0    0  0.00000000000E+00  0.00000000000E+00 -0.42379901436E+03  0.65651876080E+03  0.50140929260E+03 0.  0.
        3    1    3    3  502    0  0.20770075131E+03 -0.96410801782E+02 -0.34554378596E+03  0.41453005079E+03  0.10100000352E+00 0.  1.
       -3    1    3    3    0  502 -0.20770075131E+03  0.96410801782E+02 -0.78255228401E+02  0.24198871000E+03  0.10100000352E+00 0. -1.
</event>
<event>
 5   0  0.1211345E-01  0.5060716E+03  0.7818609E-02  0.1012206E+00
        2   -1    0    0  501    0  0.00000000000E+00  0.00000000000E+00  0.15950292811E+04  0.15950292811E+04  0.25500000920E-02 0. -1.
       -2   -1    0    0    0  501  0.00000000000E+00  0.00000000000E+00 -0.40141653888E+02  0.40141653969E+02  0.25500000920E-02 0.  1.
    10030    2    1    2    0    0  0.00000000000E+00  0.00000000000E+00  0.15548876272E+04  0.16351709351E+04  0.50607158945E+03 0.  0.
        5    1    3    3  502    0 -0.77238784543E+02 -0.51510296909E+01  0.15556821014E+04  0.15576139616E+04  0.46999998093E+01 0. -1.
       -5    1    3    3    0  502  0.77238784543E+02  0.51510296909E+01 -0.79447414106E+00  0.77556973458E+02  0.46999998093E+01 0.  1.
</event>
<event>
 5   0  0.7531632E-02  0.4958733E+03  0.7818609E-02  0.1014862E+00
        1   -1    0    0  501    0  0.00000000000E+00  0.00000000000E+00  0.43680882598E+03  0.43680882601E+03  0.50400001928E-02 0.  1.
       -1   -1    0    0    0  501  0.00000000000E+00  0.00000000000E+00 -0.14073107049E+03  0.14073107058E+03  0.50400001928E-02 0. -1.
    10030    2    1    2    0    0  0.00000000000E+00  0.00000000000E+00  0.29607775549E+03  0.57753989659E+03  0.49587326491E+03 0.  0.
        3    1    3    3  502    0 -0.31454777138E+02 -0.22735771698E+03  0.38833009940E+02  0.23278519570E+03  0.10100000352E+00 0. -1.
       -3    1    3    3    0  502  0.31454777138E+02  0.22735771698E+03  0.25724474555E+03  0.34475470089E+03  0.10100000352E+00 0.  1.
</event>
<event>
 5   0  0.7531632E-02  0.5000800E+03  0.7818609E-02  0.1013758E+00
        1   -1    0    0  501    0  0.00000000000E+00  0.00000000000E+00  0.74691232438E+03  0.74691232439E+03  0.50400001928E-02 0.  1.
       -1   -1    0    0    0  501  0.00000000000E+00  0.00000000000E+00 -0.83704599942E+02  0.83704600094E+02  0.50400001928E-02 0. -1.
    10030    2    1    2    0    0  0.00000000000E+00  0.00000000000E+00  0.66320772443E+03  0.83061692449E+03  0.50007998310E+03 0.  0.
        3    1    3    3  502    0 -0.24044121689E+03  0.27332552839E+01  0.21772710925E+03  0.32438334385E+03  0.10100000352E+00 0. -1.
       -3    1    3    3    0  502  0.24044121689E+03 -0.27332552839E+01  0.44548061518E+03  0.50623358064E+03  0.10100000352E+00 0.  1.
</event>
<event>
 5   0  0.1191894E-01  0.5019835E+03  0.7818609E-02  0.1013262E+00
        2   -1    0    0  501    0  0.00000000000E+00  0.00000000000E+00  0.17214317449E+04  0.17214317449E+04  0.25500000920E-02 0. -1.
       -2   -1    0    0    0  501  0.00000000000E+00  0.00000000000E+00 -0.36595624519E+02  0.36595624607E+02  0.25500000920E-02 0.  1.
    10030    2    1    2    0    0  0.00000000000E+00  0.00000000000E+00  0.16848361204E+04  0.17580273695E+04  0.50198354495E+03 0.  0.
        3    1    3    3  502    0 -0.18701326734E+02 -0.18968908236E+02  0.17164673124E+04  0.17166739946E+04  0.10100000352E+00 0. -1.
       -3    1    3    3    0  502  0.18701326734E+02  0.18968908236E+02 -0.31631192040E+02  0.41353374858E+02  0.10100000352E+00 0.  1.
</event>
<event>
 5   0  0.5006750E-02  0.4997009E+03  0.7818609E-02  0.1013857E+00
        3   -1    0    0  501    0  0.00000000000E+00  0.00000000000E+00  0.17584054529E+03  0.17584057430E+03  0.10100000352E+00 0.  1.
       -3   -1    0    0    0  501  0.00000000000E+00  0.00000000000E+00 -0.35501048517E+03  0.35501049953E+03  0.10100000352E+00 0. -1.
    10030    2    1    2    0    0  0.00000000000E+00  0.00000000000E+00 -0.17916993987E+03  0.53085107383E+03  0.49970090578E+03 0.  0.
        3    1    3    3  502    0 -0.23204789589E+03  0.61833183448E+02 -0.16324715763E+02  0.24069913815E+03  0.10100000352E+00 0.  1.
       -3    1    3    3    0  502  0.23204789589E+03 -0.61833183448E+02 -0.16284522411E+03  0.29015193568E+03  0.10100000352E+00 0. -1.
</event>
<event>
 5   0  0.7416638E-02  0.5212446E+03  0.7818609E-02  0.1008378E+00
        1   -1    0    0  501    0  0.00000000000E+00  0.00000000000E+00  0.25812357646E+03  0.25812357651E+03  0.50400001928E-02 0.  1.
       -1   -1    0    0    0  501  0.00000000000E+00  0.00000000000E+00 -0.26314522118E+03  0.26314522123E+03  0.50400001928E-02 0. -1.
    10030    2    1    2    0    0  0.00000000000E+00  0.00000000000E+00 -0.50216447194E+01  0.52126879774E+03  0.52124460917E+03 0.  0.
        1    1    3    3  502    0  0.38159804712E+02 -0.80000813415E+02 -0.24760929204E+03  0.26299555580E+03  0.50400001928E-02 0. -1.
       -1    1    3    3    0  502 -0.38159804712E+02  0.80000813415E+02  0.24258764732E+03  0.25827324194E+03  0.50400001928E-02 0.  1.
</event>
<event>
 5   0  0.7812547E-02  0.4977887E+03  0.7818609E-02  0.1014358E+00
       -1   -1    0    0    0  501  0.00000000000E+00  0.00000000000E+00  0.28145931650E+03  0.28145931654E+03  0.50400001928E-02 0.  1.
        1   -1    0    0  501    0  0.00000000000E+00  0.00000000000E+00 -0.22009714945E+03  0.22009714951E+03  0.50400001928E-02 0. -1.
    10030    2    1    2    0    0  0.00000000000E+00  0.00000000000E+00  0.61362167048E+02  0.50155646605E+03  0.49778868317E+03 0.  0.
        4    1    3    3  502    0 -0.13711229666E+03 -0.13871865755E+03  0.18646094331E+03  0.26983688430E+03  0.12699999809E+01 0.  1.
       -4    1    3    3    0  502  0.13711229666E+03  0.13871865755E+03 -0.12509877626E+03  0.23171958176E+03  0.12699999809E+01 0. -1.
</event>
<event>
 5   0  0.7602288E-02  0.5017307E+03  0.7818609E-02  0.1013328E+00
       -1   -1    0    0    0  501  0.00000000000E+00  0.00000000000E+00  0.56965025362E+02  0.56965025585E+02  0.50400001928E-02 0.  1.
        1   -1    0    0  501    0  0.00000000000E+00  0.00000000000E+00 -0.11047731887E+04  0.11047731887E+04  0.50400001928E-02 0. -1.
    10030    2    1    2    0    0  0.00000000000E+00  0.00000000000E+00 -0.10478081634E+04  0.11617382143E+04  0.50173073596E+03 0.  0.
        5    1    3    3  502    0  0.32739459270E+02  0.37847302087E+01 -0.10996357858E+04  0.11001396038E+04  0.46999998093E+01 0. -1.
       -5    1    3    3    0  502 -0.32739459270E+02 -0.37847302087E+01  0.51827622437E+02  0.61598610550E+02  0.46999998093E+01 0.  1.
</event>
<event>
 5   0  0.5006750E-02  0.5050052E+03  0.7818609E-02  0.1012481E+00
       -3   -1    0    0    0  501  0.00000000000E+00  0.00000000000E+00  0.11490437608E+04  0.11490437653E+04  0.10100000352E+00 0.  1.
        3   -1    0    0  501    0  0.00000000000E+00  0.00000000000E+00 -0.55487455755E+02  0.55487547677E+02  0.10100000352E+00 0. -1.
    10030    2    1    2    0    0  0.00000000000E+00  0.00000000000E+00  0.10935563051E+04  0.12045313130E+04  0.50500523908E+03 0.  0.
        1    1    3    3  502    0 -0.27895103533E+01 -0.42155389291E+02 -0.46997616580E+02  0.63195207128E+02  0.50400001928E-02 0. -1.
       -1    1    3    3    0  502  0.27895103533E+01  0.42155389291E+02  0.11405539217E+04  0.11413361058E+04  0.50400001928E-02 0.  1.
</event>
<event>
 5   0  0.7812547E-02  0.4953329E+03  0.7818609E-02  0.1015004E+00
        1   -1    0    0  501    0  0.00000000000E+00  0.00000000000E+00  0.13972792747E+03  0.13972792756E+03  0.50400001928E-02 0.  1.
       -1   -1    0    0    0  501  0.00000000000E+00  0.00000000000E+00 -0.43898646549E+03  0.43898646552E+03  0.50400001928E-02 0. -1.
    10030    2    1    2    0    0  0.00000000000E+00  0.00000000000E+00 -0.29925853802E+03  0.57871439308E+03  0.49533289430E+03 0.  0.
        4    1    3    3  502    0 -0.26583872516E+02  0.13291187593E+03  0.92542461986E+02  0.16412796596E+03  0.12699999809E+01 0.  1.
       -4    1    3    3    0  502  0.26583872516E+02 -0.13291187593E+03 -0.39180100001E+03  0.41458642711E+03  0.12699999809E+01 0. -1.
</event>
<event>
 5   0  0.7416638E-02  0.5026856E+03  0.7818609E-02  0.1013080E+00
        1   -1    0    0  501    0  0.00000000000E+00  0.00000000000E+00  0.18454353258E+03  0.18454353265E+03  0.50400001928E-02 0. -1.
       -1   -1    0    0    0  501  0.00000000000E+00  0.00000000000E+00 -0.34232145222E+03  0.34232145226E+03  0.50400001928E-02 0.  1.
    10030    2    1    2    0    0  0.00000000000E+00  0.00000000000E+00 -0.15777791964E+03  0.52686498491E+03  0.50268562780E+03 0.  0.
        1    1    3    3  502    0 -0.30505533102E+02 -0.21971324618E+03  0.44985293413E+02  0.22633641939E+03  0.50400001928E-02 0. -1.
       -1    1    3    3    0  502  0.30505533102E+02  0.21971324618E+03 -0.20276321306E+03  0.30052856551E+03  0.50400001928E-02 0.  1.
</event>
<event>
 5   0  0.1243803E-01  0.5038827E+03  0.7818609E-02  0.1012770E+00
       -2   -1    0    0    0  501  0.00000000000E+00  0.00000000000E+00  0.14887752843E+03  0.14887752845E+03  0.25500000920E-02 0. -1.
        2   -1    0    0  501    0  0.00000000000E+00  0.00000000000E+00 -0.42635341823E+03  0.42635341823E+03  0.25500000920E-02 0.  1.
    10030    2    1    2    0    0  0.00000000000E+00  0.00000000000E+00 -0.27747588980E+03  0.57523094668E+03  0.50388269727E+03 0.  0.
        4    1    3    3  502    0 -0.24564095026E+03  0.19744527677E+02 -0.78942807564E+02  0.25877191228E+03  0.12699999809E+01 0. -1.
       -4    1    3    3    0  502  0.24564095026E+03 -0.19744527677E+02 -0.19853308223E+03  0.31645903441E+03  0.12699999809E+01 0.  1.
</event>
<event>
 5   0  0.7812547E-02  0.4996852E+03  0.7818609E-02  0.1013861E+00
        1   -1    0    0  501    0  0.00000000000E+00  0.00000000000E+00  0.23235560447E+03  0.23235560452E+03  0.50400001928E-02 0.  1.
       -1   -1    0    0    0  501  0.00000000000E+00  0.00000000000E+00 -0.26864566900E+03  0.26864566904E+03  0.50400001928E-02 0. -1.
    10030    2    1    2    0    0  0.00000000000E+00  0.00000000000E+00 -0.36290064527E+02  0.50100127357E+03  0.49968520824E+03 0.  0.
        4    1    3    3  502    0  0.20159210618E+02  0.13592241886E+03  0.19106314210E+03  0.23534662711E+03  0.12699999809E+01 0.  1.
       -4    1    3    3    0  502 -0.20159210618E+02 -0.13592241886E+03 -0.22735320663E+03  0.26565464646E+03  0.12699999809E+01 0. -1.
</event>
<event>
 5   0  0.7812547E-02  0.4997492E+03  0.7818609E-02  0.1013844E+00
        1   -1    0    0  501    0  0.00000000000E+00  0.00000000000E+00  0.54947107212E+03  0.54947107214E+03  0.50400001928E-02 0. -1.
       -1   -1    0    0    0  501  0.00000000000E+00  0.00000000000E+00 -0.11363167969E+03  0.11363167980E+03  0.50400001928E-02 0.  1.
    10030    2    1    2    0    0  0.00000000000E+00  0.00000000000E+00  0.43583939243E+03  0.66310275194E+03  0.49974922075E+03 0.  0.
        4    1    3    3  502    0 -0.32206937561E+02  0.21582191148E+03  0.56393525650E+02  0.22538462001E+03  0.12699999809E+01 0.  1.
       -4    1    3    3    0  502  0.32206937561E+02 -0.21582191148E+03  0.37944586678E+03  0.43771813193E+03  0.12699999809E+01 0. -1.
</event>
<event>
 5   0  0.7531632E-02  0.4915722E+03  0.7818609E-02  0.1016002E+00
        1   -1    0    0  501    0  0.00000000000E+00  0.00000000000E+00  0.34522962320E+03  0.34522962323E+03  0.50400001928E-02 0.  1.
       -1   -1    0    0    0  501  0.00000000000E+00  0.00000000000E+00 -0.17498733596E+03  0.17498733604E+03  0.50400001928E-02 0. -1.
    10030    2    1    2    0    0  0.00000000000E+00  0.00000000000E+00  0.17024228723E+03  0.52021695927E+03  0.49157222089E+03 0.  0.
        3    1    3    3  502    0 -0.51443419198E+02 -0.14334449227E+03  0.28927909413E+03  0.32691967414E+03  0.10100000352E+00 0.  1.
       -3    1    3    3    0  502  0.51443419198E+02  0.14334449227E+03 -0.11903680689E+03  0.19329728513E+03  0.10100000352E+00 0. -1.
</event>
<event>
 5   0  0.7531632E-02  0.5257810E+03  0.7818609E-02  0.1007260E+00
       -1   -1    0    0    0  501  0.00000000000E+00  0.00000000000E+00  0.19825763854E+03  0.19825763861E+03  0.50400001928E-02 0.  1.
        1   -1    0    0  501    0  0.00000000000E+00  0.00000000000E+00 -0.34859402350E+03  0.34859402354E+03  0.50400001928E-02 0. -1.
    10030    2    1    2    0    0  0.00000000000E+00  0.00000000000E+00 -0.15033638496E+03  0.54685166215E+03  0.52578104925E+03 0.  0.
        3    1    3    3  502    0  0.19965529667E+03 -0.37290053664E+01 -0.25300358493E+03  0.32231501231E+03  0.10100000352E+00 0. -1.
       -3    1    3    3    0  502 -0.19965529667E+03  0.37290053664E+01  0.10266719997E+03  0.22453664984E+03  0.10100000352E+00 0.  1.
</event>
<event>
 5   0  0.5006750E-02  0.5014256E+03  0.7818609E-02  0.1013407E+00
        3   -1    0    0  501    0  0.00000000000E+00  0.00000000000E+00  0.29375061311E+03  0.29375063047E+03  0.10100000352E+00 0. -1.
       -3   -1    0    0    0  501  0.00000000000E+00  0.00000000000E+00 -0.21398045774E+03  0.21398048158E+03  0.10100000352E+00 0.  1.
    10030    2    1    2    0    0  0.00000000000E+00  0.00000000000E+00  0.79770155370E+02  0.50773111205E+03  0.50142557220E+03 0.  0.
        1    1    3    3  502    0 -0.49763522075E+02  0.23950671881E+03  0.95503251292E+02  0.26260378428E+03  0.50400001928E-02 0. -1.
       -1    1    3    3    0  502  0.49763522075E+02 -0.23950671881E+03 -0.15733095922E+02  0.24512732777E+03  0.50400001928E-02 0.  1.
</event>
<event>
 5   0  0.1243803E-01  0.5024487E+03  0.7818609E-02  0.1013142E+00
       -2   -1    0    0    0  501  0.00000000000E+00  0.00000000000E+00  0.53420375974E+02  0.53420376035E+02  0.25500000920E-02 0. -1.
        2   -1    0    0  501    0  0.00000000000E+00  0.00000000000E+00 -0.11814531054E+04  0.11814531054E+04  0.25500000920E-02 0.  1.
    10030    2    1    2    0    0  0.00000000000E+00  0.00000000000E+00 -0.11280327294E+04  0.12348734814E+04  0.50244868046E+03 0.  0.
        4    1    3    3  502    0  0.83392892319E+02 -0.22581567584E+03 -0.38738642062E+03  0.45608874765E+03  0.12699999809E+01 0. -1.
       -4    1    3    3    0  502 -0.83392892319E+02  0.22581567584E+03 -0.74064630879E+03  0.77878473378E+03  0.12699999809E+01 0.  1.
</event>
<event>
 5   0  0.7781754E-02  0.4946036E+03  0.7818609E-02  0.1015197E+00
       -1   -1    0    0    0  501  0.00000000000E+00  0.00000000000E+00  0.12515431204E+03  0.12515431214E+03  0.50400001928E-02 0. -1.
        1   -1    0    0  501    0  0.00000000000E+00  0.00000000000E+00 -0.48866225203E+03  0.48866225205E+03  0.50400001928E-02 0.  1.
    10030    2    1    2    0    0  0.00000000000E+00  0.00000000000E+00 -0.36350793999E+03  0.61381656420E+03  0.49460363125E+03 0.  0.
        2    1    3    3  502    0 -0.60143005623E+02  0.23151444899E+03 -0.25967295605E+03  0.35305263818E+03  0.25500000920E-02 0.  1.
       -2    1    3    3    0  502  0.60143005623E+02 -0.23151444899E+03 -0.10383498394E+03  0.26076392602E+03  0.25500000920E-02 0. -1.
</event>
<event>
 5   0  0.7812547E-02  0.4895889E+03  0.7818609E-02  0.1016533E+00
        1   -1    0    0  501    0  0.00000000000E+00  0.00000000000E+00  0.23288315697E+03  0.23288315702E+03  0.50400001928E-02 0. -1.
       -1   -1    0    0    0  501  0.00000000000E+00  0.00000000000E+00 -0.25731501055E+03  0.25731501060E+03  0.50400001928E-02 0.  1.
    10030    2    1    2    0    0  0.00000000000E+00  0.00000000000E+00 -0.24431853583E+02  0.49019816763E+03  0.48958893786E+03 0.  0.
        4    1    3    3  502    0 -0.18016403040E+03  0.11432557652E+03  0.10790545889E+03  0.23911214159E+03  0.12699999809E+01 0. -1.
       -4    1    3    3    0  502  0.18016403040E+03 -0.11432557652E+03 -0.13233731248E+03  0.25108602604E+03  0.12699999809E+01 0.  1.
</event>
<event>
 5   0  0.1243803E-01  0.4997934E+03  0.7818609E-02  0.1013833E+00
       -2   -1    0    0    0  501  0.00000000000E+00  0.00000000000E+00  0.12081148639E+03  0.12081148641E+03  0.25500000920E-02 0.  1.
        2   -1    0    0  501    0  0.00000000000E+00  0.00000000000E+00 -0.51690756122E+03  0.51690756122E+03  0.25500000920E-02 0. -1.
    10030    2    1    2    0    0  0.00000000000E+00  0.00000000000E+00 -0.39609607483E+03  0.63771904764E+03  0.49979344055E+03 0.  0.
        4    1    3    3  502    0  0.49433073211E+02  0.22501598780E+03 -0.32156604738E+03  0.39557825929E+03  0.12699999809E+01 0. -1.
       -4    1    3    3    0  502 -0.49433073211E+02 -0.22501598780E+03 -0.74530027448E+02  0.24214078835E+03  0.12699999809E+01 0.  1.
</event>
<event>
 5   0  0.1211345E-01  0.5034721E+03  0.7818609E-02  0.1012877E+00
       -2   -1    0    0    0  501  0.00000000000E+00  0.00000000000E+00  0.71866821894E+02  0.71866821939E+02  0.25500000920E-02 0.  1.
        2   -1    0    0  501    0  0.00000000000E+00  0.00000000000E+00 -0.88178441105E+03  0.88178441105E+03  0.25500000920E-02 0. -1.
    10030    2    1    2    0    0  0.00000000000E+00  0.00000000000E+00 -0.80991758915E+03  0.95365123299E+03  0.50347211736E+03 0.  0.
        5    1    3    3  502    0 -0.26818632304E+02  0.17132448062E+03 -0.59425112879E+02  0.18337052854E+03  0.46999998093E+01 0.  1.
       -5    1    3    3    0  502  0.26818632304E+02 -0.17132448062E+03 -0.75049247627E+03  0.77028070445E+03  0.46999998093E+01 0. -1.
</event>
<event>
 5   0  0.7812547E-02  0.4945055E+03  0.7818609E-02  0.1015223E+00
        1   -1    0    0  501    0  0.00000000000E+00  0.00000000000E+00  0.22011701066E+03  0.22011701072E+03  0.50400001928E-02 0.  1.
       -1   -1    0    0    0  501  0.00000000000E+00  0.00000000000E+00 -0.27773379726E+03  0.27773379731E+03  0.50400001928E-02 0. -1.
    10030    2    1    2    0    0  0.00000000000E+00  0.00000000000E+00 -0.57616786596E+02  0.49785080803E+03  0.49450554391E+03 0.  0.
        4    1    3    3  502    0 -0.18019533077E+03 -0.72555764976E+02  0.12518919905E+03  0.23110310410E+03  0.12699999809E+01 0.  1.
       -4    1    3    3    0  502  0.18019533077E+03  0.72555764976E+02 -0.18280598565E+03  0.26674770393E+03  0.12699999809E+01 0. -1.
</event>
<event>
 5   0  0.1243803E-01  0.5019192E+03  0.7818609E-02  0.1013279E+00
        2   -1    0    0  501    0  0.00000000000E+00  0.00000000000E+00  0.52327081339E+03  0.52327081340E+03  0.25500000920E-02 0. -1.
       -2   -1    0    0    0  501  0.00000000000E+00  0.00000000000E+00 -0.12035968502E+03  0.12035968505E+03  0.25500000920E-02 0.  1.
    10030    2    1    2    0    0  0.00000000000E+00  0.00000000000E+00  0.40291112837E+03  0.64363049845E+03  0.50191915800E+03 0.  0.
        4    1    3    3  502    0 -0.93925364554E+02 -0.63786165394E+02  0.48844878054E+03  0.50147230543E+03  0.12699999809E+01 0. -1.
       -4    1    3    3    0  502  0.93925364554E+02  0.63786165394E+02 -0.85537652173E+02  0.14215819302E+03  0.12699999809E+01 0.  1.
</event>
<event>
 5   0  0.1191894E-01  0.4969403E+03  0.7818609E-02  0.1014581E+00
       -2   -1    0    0    0  501  0.00000000000E+00  0.00000000000E+00  0.10893672685E+03  0.10893672688E+03  0.25500000920E-02 0. -1.
        2   -1    0    0  501    0  0.00000000000E+00  0.00000000000E+00 -0.56672733323E+03  0.56672733323E+03  0.25500000920E-02 0.  1.
    10030    2    1    2    0    0  0.00000000000E+00  0.00000000000E+00 -0.45779060637E+03  0.67566406012E+03  0.49694032122E+03 0.  0.
        3    1    3    3  502    0  0.19897474552E+02 -0.16981769354E+03 -0.47402240229E+03  0.50391587255E+03  0.10100000352E+00 0.  1.
       -3    1    3    3    0  502 -0.19897474552E+02  0.16981769354E+03  0.16231795918E+02  0.17174818757E+03  0.10100000352E+00 0. -1.
</event>
<event>
 5   0  0.7602288E-02  0.4988029E+03  0.7818609E-02  0.1014092E+00
        1   -1    0    0  501    0  0.00000000000E+00  0.00000000000E+00  0.39628242085E+03  0.39628242088E+03  0.50400001928E-02 0. -1.
       -1   -1    0    0    0  501  0.00000000000E+00  0.00000000000E+00 -0.15696149104E+03  0.15696149112E+03  0.50400001928E-02 0.  1.
    10030    2    1    2    0    0  0.00000000000E+00  0.00000000000E+00  0.23932092981E+03  0.55324391200E+03  0.49880288564E+03 0.  0.
        5    1    3    3  502    0  0.12987521480E+03 -0.13662554926E+03 -0.61387876553E+02  0.19830449696E+03  0.46999998093E+01 0.  1.
       -5    1    3    3    0  502 -0.12987521480E+03  0.13662554926E+03  0.30070880636E+03  0.35493941504E+03  0.46999998093E+01 0. -1.
</event>
<event>
 5   0  0.1279188E-01  0.5228152E+03  0.7818609E-02  0.1007990E+00
       -2   -1    0    0    0  501  0.00000000000E+00  0.00000000000E+00  0.42423705094E+02  0.42423705171E+02  0.25500000920E-02 0.  1.
        2   -1    0    0  501    0  0.00000000000E+00  0.00000000000E+00 -0.16107486176E+04  0.16107486176E+04  0.25500000920E-02 0. -1.
    10030    2    1    2    0    0  0.00000000000E+00  0.00000000000E+00 -0.15683249125E+04  0.16531723228E+04  0.52281516580E+03 0.  0.
        2    1    3    3  502    0 -0.12176594993E+03  0.67319829199E+02 -0.14839355707E+04  0.14904441230E+04  0.25500000920E-02 0. -1.
       -2    1    3    3    0  502  0.12176594993E+03 -0.67319829199E+02 -0.84389341803E+02  0.16272819971E+03  0.25500000920E-02 0.  1.
</event>
<event>
 5   0  0.7602288E-02  0.4974642E+03  0.7818609E-02  0.1014443E+00
        1   -1    0    0  501    0  0.00000000000E+00  0.00000000000E+00  0.69283992150E+03  0.69283992152E+03  0.50400001928E-02 0.  1.
       -1   -1    0    0    0  501  0.00000000000E+00  0.00000000000E+00 -0.89295736436E+02  0.89295736578E+02  0.50400001928E-02 0. -1.
    10030    2    1    2    0    0  0.00000000000E+00  0.00000000000E+00  0.60354418506E+03  0.78213565810E+03  0.49746417393E+03 0.  0.
        5    1    3    3  502    0  0.10211258069E+03  0.52520740439E+02 -0.45050208426E+02  0.12343831897E+03  0.46999998093E+01 0. -1.
       -5    1    3    3    0  502 -0.10211258069E+03 -0.52520740439E+02  0.64859439349E+03  0.65869733913E+03  0.46999998093E+01 0.  1.
</event>
<event>
 5   0  0.1279188E-01  0.4999889E+03  0.7818609E-02  0.1013782E+00
       -2   -1    0    0    0  501  0.00000000000E+00  0.00000000000E+00  0.49615609165E+02  0.49615609231E+02  0.25500000920E-02 0. -1.
        2   -1    0    0  501    0  0.00000000000E+00  0.00000000000E+00 -0.12596284766E+04  0.12596284766E+04  0.25500000920E-02 0.  1.
    10030    2    1    2    0    0  0.00000000000E+00  0.00000000000E+00 -0.12100128675E+04  0.13092440859E+04  0.49998893682E+03 0.  0.
        2    1    3    3  502    0  0.13701822051E+02  0.69903429705E+02 -0.12324911948E+04  0.12345480042E+04  0.25500000920E-02 0.  1.
       -2    1    3    3    0  502 -0.13701822051E+02 -0.69903429705E+02  0.22478327321E+02  0.74696081676E+02  0.25500000920E-02 0. -1.
</event>
<event>
 5   0  0.7531632E-02  0.4898441E+03  0.7818609E-02  0.1016464E+00
        1   -1    0    0  501    0  0.00000000000E+00  0.00000000000E+00  0.70560905028E+03  0.70560905029E+03  0.50400001928E-02 0.  1.
       -1   -1    0    0    0  501  0.00000000000E+00  0.00000000000E+00 -0.85014220178E+02  0.85014220327E+02  0.50400001928E-02 0. -1.
    10030    2    1    2    0    0  0.00000000000E+00  0.00000000000E+00  0.62059483010E+03  0.79062327062E+03  0.48984406999E+03 0.  0.
        3    1    3    3  502    0  0.18652630368E+03  0.70372058433E+02  0.53993547001E+03  0.57556460154E+03  0.10100000352E+00 0.  1.
       -3    1    3    3    0  502 -0.18652630368E+03 -0.70372058433E+02  0.80659360089E+02  0.21505866908E+03  0.10100000352E+00 0. -1.
</event>
<event>
 5   0  0.1191894E-01  0.5119132E+03  0.7818609E-02  0.1010715E+00
       -2   -1    0    0    0  501  0.00000000000E+00  0.00000000000E+00  0.11733454190E+03  0.11733454193E+03  0.25500000920E-02 0.  1.
        2   -1    0    0  501    0  0.00000000000E+00  0.00000000000E+00 -0.55835034134E+03  0.55835034135E+03  0.25500000920E-02 0. -1.
    10030    2    1    2    0    0  0.00000000000E+00  0.00000000000E+00 -0.44101579944E+03  0.67568488327E+03  0.51191320175E+03 0.  0.
        3    1    3    3  502    0  0.46606669474E+02 -0.55867131336E+02  0.10339876436E+03  0.12643034713E+03  0.10100000352E+00 0.  1.
       -3    1    3    3    0  502 -0.46606669474E+02  0.55867131336E+02 -0.54441456380E+03  0.54925453615E+03  0.10100000352E+00 0. -1.
</event>
<event>
 5   0  0.7781754E-02  0.4925289E+03  0.7818609E-02  0.1015748E+00
       -1   -1    0    0    0  501  0.00000000000E+00  0.00000000000E+00  0.13948491312E+03  0.13948491321E+03  0.50400001928E-02 0.  1.
        1   -1    0    0  501    0  0.00000000000E+00  0.00000000000E+00 -0.43478673025E+03  0.43478673027E+03  0.50400001928E-02 0. -1.
    10030    2    1    2    0    0  0.00000000000E+00  0.00000000000E+00 -0.29530181713E+03  0.57427164348E+03  0.49252894058E+03 0.  0.
        2    1    3    3  502    0 -0.46900626277E+02  0.18541235052E+03 -0.32854011940E+03  0.38015262531E+03  0.25500000920E-02 0. -1.
       -2    1    3    3    0  502  0.46900626277E+02 -0.18541235052E+03  0.33238302272E+02  0.19411901817E+03  0.25500000920E-02 0.  1.
</event>
<event>
 5   0  0.7416638E-02  0.5004192E+03  0.7818609E-02  0.1013670E+00
        1   -1    0    0  501    0  0.00000000000E+00  0.00000000000E+00  0.17858254192E+03  0.17858254199E+03  0.50400001928E-02 0.  1.
       -1   -1    0    0    0  501  0.00000000000E+00  0.00000000000E+00 -0.35056526670E+03  0.35056526674E+03  0.50400001928E-02 0. -1.
    10030    2    1    2    0    0  0.00000000000E+00  0.00000000000E+00 -0.17198272478E+03  0.52914780873E+03  0.50041917016E+03 0.  0.
        1    1    3    3  502    0  0.16754157763E+03 -0.34188941239E+02  0.10715816764E+03  0.20179677118E+03  0.50400001928E-02 0.  1.
       -1    1    3    3    0  502 -0.16754157763E+03  0.34188941239E+02 -0.27914089243E+03  0.32735103755E+03  0.50400001928E-02 0. -1.
</event>
<event>
 5   0  0.1279188E-01  0.5013549E+03  0.7818609E-02  0.1013426E+00
       -2   -1    0    0    0  501  0.00000000000E+00  0.00000000000E+00  0.33109040837E+02  0.33109040935E+02  0.25500000920E-02 0. -1.
        2   -1    0    0  501    0  0.00000000000E+00  0.00000000000E+00 -0.18979460792E+04  0.18979460792E+04  0.25500000920E-02 0.  1.
    10030    2    1    2    0    0  0.00000000000E+00  0.00000000000E+00 -0.18648370384E+04  0.19310551201E+04  0.50135486170E+03 0.  0.
        2    1    3    3  502    0 -0.23829874557E+03 -0.77686105261E+02 -0.91619056433E+03  0.94985608029E+03  0.25500000920E-02 0. -1.
       -2    1    3    3    0  502  0.23829874557E+03  0.77686105261E+02 -0.94864647403E+03  0.98119903984E+03  0.25500000920E-02 0.  1.
</event>
<event>
 5   0  0.7531632E-02  0.5029031E+03  0.7818609E-02  0.1013024E+00
        1   -1    0    0  501    0  0.00000000000E+00  0.00000000000E+00  0.31430038588E+03  0.31430038592E+03  0.50400001928E-02 0. -1.
       -1   -1    0    0    0  501  0.00000000000E+00  0.00000000000E+00 -0.20117021249E+03  0.20117021255E+03  0.50400001928E-02 0.  1.
    10030    2    1    2    0    0  0.00000000000E+00  0.00000000000E+00  0.11313017339E+03  0.51547059847E+03  0.50290307392E+03 0.  0.
        3    1    3    3  502    0 -0.11288994892E+03  0.14305709117E+03  0.23415296995E+03  0.29671045725E+03  0.10100000352E+00 0. -1.
       -3    1    3    3    0  502  0.11288994892E+03 -0.14305709117E+03 -0.12102279656E+03  0.21876014122E+03  0.10100000352E+00 0.  1.
</event>
<event>
 5   0  0.1243803E-01  0.5016904E+03  0.7818609E-02  0.1013339E+00
        2   -1    0    0  501    0  0.00000000000E+00  0.00000000000E+00  0.17038399076E+04  0.17038399076E+04  0.25500000920E-02 0.  1.
       -2   -1    0    0    0  501  0.00000000000E+00  0.00000000000E+00 -0.36930300363E+02  0.36930300451E+02  0.25500000920E-02 0. -1.
    10030    2    1    2    0    0  0.00000000000E+00  0.00000000000E+00  0.16669096072E+04  0.17407702080E+04  0.50169042101E+03 0.  0.
        4    1    3    3  502    0 -0.16873672148E+03  0.94387422655E+02  0.27892930068E+03  0.33938802927E+03  0.12699999809E+01 0. -1.
       -4    1    3    3    0  502  0.16873672148E+03 -0.94387422655E+02  0.13879803065E+04  0.14013821787E+04  0.12699999809E+01 0.  1.
</event>
<event>
 5   0  0.1191894E-01  0.5210298E+03  0.7818609E-02  0.1008431E+00
        2   -1    0    0  501    0  0.00000000000E+00  0.00000000000E+00  0.10902094288E+04  0.10902094288E+04  0.25500000920E-02 0.  1.
       -2   -1    0    0    0  501  0.00000000000E+00  0.00000000000E+00 -0.62252270096E+02  0.62252270148E+02  0.25500000920E-02 0. -1.
    10030    2    1    2    0    0  0.00000000000E+00  0.00000000000E+00  0.10279571587E+04  0.11524616990E+04  0.52102979514E+03 0.  0.
        3    1    3    3  502    0  0.90224097102E+02  0.18202937991E+03  0.15327791227E+03  0.25449795960E+03  0.10100000352E+00 0. -1.
       -3    1    3    3    0  502 -0.90224097102E+02 -0.18202937991E+03  0.87467924645E+03  0.89796373937E+03  0.10100000352E+00 0.  1.
</event>
<event>
 5   0  0.1211345E-01  0.4796739E+03  0.7818609E-02  0.1019225E+00
       -2   -1    0    0    0  501  0.00000000000E+00  0.00000000000E+00  0.42912935052E+02  0.42912935127E+02  0.25500000920E-02 0.  1.
        2   -1    0    0  501    0  0.00000000000E+00  0.00000000000E+00 -0.13404295448E+04  0.13404295448E+04  0.25500000920E-02 0. -1.
    10030    2    1    2    0    0  0.00000000000E+00  0.00000000000E+00 -0.12975166097E+04  0.13833424799E+04  0.47967391445E+03 0.  0.
        5    1    3    3  502    0  0.13207949080E+03 -0.19396628344E+03 -0.79097298156E+03  0.82506257857E+03  0.46999998093E+01 0. -1.
       -5    1    3    3    0  502 -0.13207949080E+03  0.19396628344E+03 -0.50654362817E+03  0.55827990134E+03  0.46999998093E+01 0.  1.
</event>
<event>
 5   0  0.7812547E-02  0.5049347E+03  0.7818609E-02  0.1012499E+00
       -1   -1    0    0    0  501  0.00000000000E+00  0.00000000000E+00  0.21628948865E+03  0.21628948871E+03  0.50400001928E-02 0.  1.
        1   -1    0    0  501    0  0.00000000000E+00  0.00000000000E+00 -0.29469653507E+03  0.29469653512E+03  0.50400001928E-02 0. -1.
    10030    2    1    2    0    0  0.00000000000E+00  0.00000000000E+00 -0.78407046420E+02  0.51098602383E+03  0.50493470035E+03 0.  0.
        4    1    3    3  502    0 -0.14810035986E+03 -0.15080681453E+03  0.10051534321E+03  0.23405417967E+03  0.12699999809E+01 0.  1.
       -4    1    3    3    0  502  0.14810035986E+03  0.15080681453E+03 -0.17892238963E+03  0.27693184416E+03  0.12699999809E+01 0. -1.
</event>
<event>
 5   0  0.7416638E-02  0.4987289E+03  0.7818609E-02  0.1014111E+00
       -1   -1    0    0    0  501  0.00000000000E+00  0.00000000000E+00  0.13809786163E+03  0.13809786172E+03  0.50400001928E-02 0.  1.
        1   -1    0    0  501    0  0.00000000000E+00  0.00000000000E+00 -0.45027947881E+03  0.45027947884E+03  0.50400001928E-02 0. -1.
    10030    2    1    2    0    0  0.00000000000E+00  0.00000000000E+00 -0.31218161718E+03  0.58837734056E+03  0.49872891713E+03 0.  0.
        1    1    3    3  502    0 -0.73328717860E+02 -0.49291228540E+01  0.12503052867E+03  0.14503113542E+03  0.50400001928E-02 0.  1.
       -1    1    3    3    0  502  0.73328717860E+02  0.49291228540E+01 -0.43721214585E+03  0.44334620514E+03  0.50400001928E-02 0. -1.
</event>
<event>
 5   0  0.7602288E-02  0.4904291E+03  0.7818609E-02  0.1016308E+00
       -1   -1    0    0    0  501  0.00000000000E+00  0.00000000000E+00  0.47670560157E+02  0.47670560423E+02  0.50400001928E-02 0. -1.
        1   -1    0    0  501    0  0.00000000000E+00  0.00000000000E+00 -0.12613693062E+04  0.12613693062E+04  0.50400001928E-02 0.  1.
    10030    2    1    2    0    0  0.00000000000E+00  0.00000000000E+00 -0.12136987460E+04  0.13090398666E+04  0.49042912462E+03 0.  0.
        5    1    3    3  502    0 -0.34726105115E+02 -0.22553510225E+03 -0.36757319053E+03  0.43267092012E+03  0.46999998093E+01 0. -1.
       -5    1    3    3    0  502  0.34726105115E+02  0.22553510225E+03 -0.84612555546E+03  0.87636894647E+03  0.46999998093E+01 0.  1.
</event>
<event>
 5   0  0.1243803E-01  0.4989803E+03  0.7818609E-02  0.1014045E+00
       -2   -1    0    0    0  501  0.00000000000E+00  0.00000000000E+00  0.12710366442E+03  0.12710366445E+03  0.25500000920E-02 0. -1.
        2   -1    0    0  501    0  0.00000000000E+00  0.00000000000E+00 -0.48972102862E+03  0.48972102863E+03  0.25500000920E-02 0.  1.
    10030    2    1    2    0    0  0.00000000000E+00  0.00000000000E+00 -0.36261736420E+03  0.61682469308E+03  0.49898030941E+03 0.  0.
        4    1    3    3  502    0  0.14562751554E+02  0.87962810718E+02  0.10673280266E+03  0.13907923593E+03  0.12699999809E+01 0. -1.
       -4    1    3    3    0  502 -0.14562751554E+02 -0.87962810718E+02 -0.46935016686E+03  0.47774545715E+03  0.12699999809E+01 0.  1.
</event>
<event>
 5   0  0.1231822E-01  0.5094582E+03  0.7818609E-02  0.1011339E+00
       -2   -1    0    0    0  501  0.00000000000E+00  0.00000000000E+00  0.79809780841E+02  0.79809780881E+02  0.25500000920E-02 0. -1.
        2   -1    0    0  501    0  0.00000000000E+00  0.00000000000E+00 -0.81301962857E+03  0.81301962857E+03  0.25500000920E-02 0.  1.
    10030    2    1    2    0    0  0.00000000000E+00  0.00000000000E+00 -0.73320984773E+03  0.89282940945E+03  0.50945821574E+03 0.  0.
        1    1    3    3  502    0 -0.10498951584E+03 -0.21550579419E+03 -0.21563096776E+03  0.32243179131E+03  0.50400001928E-02 0. -1.
       -1    1    3    3    0  502  0.10498951584E+03  0.21550579419E+03 -0.51757887997E+03  0.57039761815E+03  0.50400001928E-02 0.  1.
</event>
<event>
 5   0  0.1211345E-01  0.4344741E+03  0.7818609E-02  0.1032456E+00
       -2   -1    0    0    0  501  0.00000000000E+00  0.00000000000E+00  0.55680914519E+02  0.55680914578E+02  0.25500000920E-02 0. -1.
        2   -1    0    0  501    0  0.00000000000E+00  0.00000000000E+00 -0.84754252082E+03  0.84754252082E+03  0.25500000920E-02 0.  1.
    10030    2    1    2    0    0  0.00000000000E+00  0.00000000000E+00 -0.79186160630E+03  0.90322343540E+03  0.43447413125E+03 0.  0.
        5    1    3    3  502    0  0.16631028542E+03 -0.11959982723E+03 -0.24592455839E+03  0.32010030948E+03  0.46999998093E+01 0.  1.
       -5    1    3    3    0  502 -0.16631028542E+03  0.11959982723E+03 -0.54593704791E+03  0.58312312592E+03  0.46999998093E+01 0. -1.
</event>
<event>
 5   0  0.1243803E-01  0.5028075E+03  0.7818609E-02  0.1013049E+00
        2   -1    0    0  501    0  0.00000000000E+00  0.00000000000E+00  0.15675105025E+04  0.15675105025E+04  0.25500000920E-02 0.  1.
       -2   -1    0    0    0  501  0.00000000000E+00  0.00000000000E+00 -0.40321155722E+02  0.40321155802E+02  0.25500000920E-02 0. -1.
    10030    2    1    2    0    0  0.00000000000E+00  0.00000000000E+00  0.15271893468E+04  0.16078316583E+04  0.50280745871E+03 0.  0.
        4    1    3    3  502    0  0.19965429438E+03  0.11706871351E+03  0.44970898545E+03  0.50577337360E+03  0.12699999809E+01 0.  1.
       -4    1    3    3    0  502 -0.19965429438E+03 -0.11706871351E+03  0.10774803613E+04  0.11020582847E+04  0.12699999809E+01 0. -1.
</event>
<event>
 5   0  0.1279188E-01  0.5040608E+03  0.7818609E-02  0.1012724E+00
       -2   -1    0    0    0  501  0.00000000000E+00  0.00000000000E+00  0.39967027424E+02  0.39967027506E+02  0.25500000920E-02 0. -1.
        2   -1    0    0  501    0  0.00000000000E+00  0.00000000000E+00 -0.15892933297E+04  0.15892933297E+04  0.25500000920E-02 0.  1.
    10030    2    1    2    0    0  0.00000000000E+00  0.00000000000E+00 -0.15493263022E+04  0.16292603572E+04  0.50406083030E+03 0.  0.
        2    1    3    3  502    0 -0.12712560395E+03 -0.52164042461E+02 -0.14575623665E+04  0.14640252930E+04  0.25500000920E-02 0.  1.
       -2    1    3    3    0  502  0.12712560395E+03  0.52164042461E+02 -0.91763935787E+02  0.16523506415E+03  0.25500000920E-02 0. -1.
</event>
<event>
 5   0  0.1211345E-01  0.5001169E+03  0.7818609E-02  0.1013748E+00
        2   -1    0    0  501    0  0.00000000000E+00  0.00000000000E+00  0.16817859749E+03  0.16817859751E+03  0.25500000920E-02 0. -1.
       -2   -1    0    0    0  501  0.00000000000E+00  0.00000000000E+00 -0.37180250021E+03  0.37180250022E+03  0.25500000920E-02 0.  1.
    10030    2    1    2    0    0  0.00000000000E+00  0.00000000000E+00 -0.20362390272E+03  0.53998109773E+03  0.50011687849E+03 0.  0.
        5    1    3    3  502    0 -0.65597563822E+02 -0.13587723966E+03 -0.31705493350E+03  0.35115749386E+03  0.46999998093E+01 0.  1.
       -5    1    3    3    0  502  0.65597563822E+02  0.13587723966E+03  0.11343103078E+03  0.18882360387E+03  0.46999998093E+01 0. -1.
</event>
<event>
 5   0  0.1211345E-01  0.5006516E+03  0.7818609E-02  0.1013609E+00
       -2   -1    0    0    0  501  0.00000000000E+00  0.00000000000E+00  0.14694304017E+03  0.14694304020E+03  0.25500000920E-02 0. -1.
        2   -1    0    0  501    0  0.00000000000E+00  0.00000000000E+00 -0.42644425484E+03  0.42644425485E+03  0.25500000920E-02 0.  1.
    10030    2    1    2    0    0  0.00000000000E+00  0.00000000000E+00 -0.27950121467E+03  0.57338729505E+03  0.50065163649E+03 0.  0.
        5    1    3    3  502    0  0.13945243792E+02  0.11899118221E+02 -0.42562378578E+03  0.42604431209E+03  0.46999998093E+01 0.  1.
       -5    1    3    3    0  502 -0.13945243792E+02 -0.11899118221E+02  0.14612257112E+03  0.14734298296E+03  0.46999998093E+01 0. -1.
</event>
<event>
 5   0  0.5006750E-02  0.5120661E+03  0.7818609E-02  0.1010677E+00
        4   -1    0    0  501    0  0.00000000000E+00  0.00000000000E+00  0.11732002270E+03  0.11732689644E+03  0.12699999809E+01 0.  1.
       -4   -1    0    0    0  501  0.00000000000E+00  0.00000000000E+00 -0.55872919493E+03  0.55873063829E+03  0.12699999809E+01 0. -1.
    10030    2    1    2    0    0  0.00000000000E+00  0.00000000000E+00 -0.44140917222E+03  0.67605753473E+03  0.51206614118E+03 0.  0.
        3    1    3    3  502    0 -0.42278349553E+02 -0.21888024771E+03 -0.54452631765E+02  0.22948011022E+03  0.10100000352E+00 0.  1.
       -3    1    3    3    0  502  0.42278349553E+02  0.21888024771E+03 -0.38695654046E+03  0.44657742451E+03  0.10100000352E+00 0. -1.
</event>
<event>
 5   0  0.5006750E-02  0.4431320E+03  0.7818609E-02  0.1029790E+00
        4   -1    0    0  501    0  0.00000000000E+00  0.00000000000E+00  0.51660592491E+03  0.51660748597E+03  0.12699999809E+01 0. -1.
       -4   -1    0    0    0  501  0.00000000000E+00  0.00000000000E+00 -0.95021011574E+02  0.95029498265E+02  0.12699999809E+01 0.  1.
    10030    2    1    2    0    0  0.00000000000E+00  0.00000000000E+00  0.42158491334E+03  0.61163698423E+03  0.44313199086E+03 0.  0.
        5    1    3    3  502    0  0.60980826934E+02 -0.46503734894E+02  0.49763455655E+03  0.50353103230E+03  0.46999998093E+01 0. -1.
       -5    1    3    3    0  502 -0.60980826934E+02  0.46503734894E+02 -0.76049643212E+02  0.10810595193E+03  0.46999998093E+01 0.  1.
</event>
<event>
 5   0  0.5006750E-02  0.4970876E+03  0.7818609E-02  0.1014542E+00
       -4   -1    0    0    0  501  0.00000000000E+00  0.00000000000E+00  0.27869315617E+03  0.27869604984E+03  0.12699999809E+01 0. -1.
        4   -1    0    0  501    0  0.00000000000E+00  0.00000000000E+00 -0.22165021557E+03  0.22165385393E+03  0.12699999809E+01 0.  1.
    10030    2    1    2    0    0  0.00000000000E+00  0.00000000000E+00  0.57042940601E+02  0.50034990377E+03  0.49708764733E+03 0.  0.
        2    1    3    3  502    0  0.72797507166E+02 -0.17536914006E+03 -0.13290627786E+03  0.23177120407E+03  0.25500000920E-02 0.  1.
       -2    1    3    3    0  502 -0.72797507166E+02  0.17536914006E+03  0.18994921846E+03  0.26857869970E+03  0.25500000920E-02 0. -1.
</event>
<event>
 5   0  0.7531632E-02  0.5023193E+03  0.7818609E-02  0.1013175E+00
        1   -1    0    0  501    0  0.00000000000E+00  0.00000000000E+00  0.88566124005E+03  0.88566124007E+03  0.50400001928E-02 0.  1.
       -1   -1    0    0    0  501  0.00000000000E+00  0.00000000000E+00 -0.71224931536E+02  0.71224931714E+02  0.50400001928E-02 0. -1.
    10030    2    1    2    0    0  0.00000000000E+00  0.00000000000E+00  0.81443630852E+03  0.95688617178E+03  0.50231926612E+03 0.  0.
        3    1    3    3  502    0 -0.23211062365E+02  0.23500225351E+03  0.24427829443E+03  0.33975977970E+03  0.10100000352E+00 0.  1.
       -3    1    3    3    0  502  0.23211062365E+02 -0.23500225351E+03  0.57015801409E+03  0.61712639208E+03  0.10100000352E+00 0. -1.
</event>
<event>
 5   0  0.1191894E-01  0.5607487E+03  0.7818609E-02  0.9990362E-01
        2   -1    0    0  501    0  0.00000000000E+00  0.00000000000E+00  0.18486261518E+04  0.18486261518E+04  0.25500000920E-02 0. -1.
       -2   -1    0    0    0  501  0.00000000000E+00  0.00000000000E+00 -0.42523351812E+02  0.42523351889E+02  0.25500000920E-02 0.  1.
    10030    2    1    2    0    0  0.00000000000E+00  0.00000000000E+00  0.18061027999E+04  0.18911495036E+04  0.56074871483E+03 0.  0.
        3    1    3    3  502    0 -0.19558612682E+03 -0.13969550574E+02  0.15789135916E+04  0.15910428094E+04  0.10100000352E+00 0. -1.
       -3    1    3    3    0  502  0.19558612682E+03  0.13969550574E+02  0.22718920830E+03  0.30010669422E+03  0.10100000352E+00 0.  1.
</event>
<event>
 5   0  0.7416638E-02  0.5057558E+03  0.7818609E-02  0.1012287E+00
       -1   -1    0    0    0  501  0.00000000000E+00  0.00000000000E+00  0.18742314178E+03  0.18742314185E+03  0.50400001928E-02 0. -1.
        1   -1    0    0  501    0  0.00000000000E+00  0.00000000000E+00 -0.34119171189E+03  0.34119171193E+03  0.50400001928E-02 0.  1.
    10030    2    1    2    0    0  0.00000000000E+00  0.00000000000E+00 -0.15376857011E+03  0.52861485378E+03  0.50575576169E+03 0.  0.
        1    1    3    3  502    0  0.21105938732E+03 -0.13542892866E+03 -0.42852492554E+02  0.25440793195E+03  0.50400001928E-02 0.  1.
       -1    1    3    3    0  502 -0.21105938732E+03  0.13542892866E+03 -0.11091607755E+03  0.27420692183E+03  0.50400001928E-02 0. -1.
</event>
<event>
 5   0  0.7781754E-02  0.4980212E+03  0.7818609E-02  0.1014297E+00
        1   -1    0    0  501    0  0.00000000000E+00  0.00000000000E+00  0.67333385980E+03  0.67333385982E+03  0.50400001928E-02 0. -1.
       -1   -1    0    0    0  501  0.00000000000E+00  0.00000000000E+00 -0.92088457569E+02  0.92088457707E+02  0.50400001928E-02 0.  1.
    10030    2    1    2    0    0  0.00000000000E+00  0.00000000000E+00  0.58124540223E+03  0.76542231753E+03  0.49802119087E+03 0.  0.
        2    1    3    3  502    0  0.25045925422E+01 -0.15119813238E+03 -0.13437006458E+02  0.15181469418E+03  0.25500000920E-02 0.  1.
       -2    1    3    3    0  502 -0.25045925422E+01  0.15119813238E+03  0.59468240869E+03  0.61360762335E+03  0.25500000920E-02 0. -1.
</event>
<event>
 5   0  0.7602288E-02  0.4882823E+03  0.7818609E-02  0.1016883E+00
       -1   -1    0    0    0  501  0.00000000000E+00  0.00000000000E+00  0.92315470733E+02  0.92315470870E+02  0.50400001928E-02 0.  1.
        1   -1    0    0  501    0  0.00000000000E+00  0.00000000000E+00 -0.64566534942E+03  0.64566534944E+03  0.50400001928E-02 0. -1.
    10030    2    1    2    0    0  0.00000000000E+00  0.00000000000E+00 -0.55334987869E+03  0.73798082031E+03  0.48828229837E+03 0.  0.
        5    1    3    3  502    0 -0.11646532776E+03 -0.19842339634E+03 -0.39989465507E+03  0.46138253319E+03  0.46999998093E+01 0. -1.
       -5    1    3    3    0  502  0.11646532776E+03  0.19842339634E+03 -0.15345522362E+03  0.27659828712E+03  0.46999998093E+01 0.  1.
</event>
<event>
 5   0  0.1279188E-01  0.4985984E+03  0.7818609E-02  0.1014145E+00
       -2   -1    0    0    0  501  0.00000000000E+00  0.00000000000E+00  0.60045322579E+02  0.60045322633E+02  0.25500000920E-02 0. -1.
        2   -1    0    0  501    0  0.00000000000E+00  0.00000000000E+00 -0.10350530930E+04  0.10350530930E+04  0.25500000920E-02 0.  1.
    10030    2    1    2    0    0  0.00000000000E+00  0.00000000000E+00 -0.97500777042E+03  0.10950984156E+04  0.49859842313E+03 0.  0.
        2    1    3    3  502    0  0.17280174548E+03  0.13883500836E+03 -0.73806628233E+03  0.77063443987E+03  0.25500000920E-02 0. -1.
       -2    1    3    3    0  502 -0.17280174548E+03 -0.13883500836E+03 -0.23694148809E+03  0.32446397577E+03  0.25500000920E-02 0.  1.
</event>
<event>
 5   0  0.1243803E-01  0.5020090E+03  0.7818609E-02  0.1013256E+00
       -2   -1    0    0    0  501  0.00000000000E+00  0.00000000000E+00  0.15953041977E+03  0.15953041979E+03  0.25500000920E-02 0. -1.
        2   -1    0    0  501    0  0.00000000000E+00  0.00000000000E+00 -0.39492940830E+03  0.39492940831E+03  0.25500000920E-02 0.  1.
    10030    2    1    2    0    0  0.00000000000E+00  0.00000000000E+00 -0.23539898853E+03  0.55445982809E+03  0.50200898116E+03 0.  0.
        4    1    3    3  502    0  0.18718002715E+03  0.16674030560E+03 -0.13179838255E+03  0.28321567509E+03  0.12699999809E+01 0.  1.
       -4    1    3    3    0  502 -0.18718002715E+03 -0.16674030560E+03 -0.10360060599E+03  0.27124415300E+03  0.12699999809E+01 0. -1.
</event>
<event>
 5   0  0.7531632E-02  0.4914078E+03  0.7818609E-02  0.1016046E+00
       -1   -1    0    0    0  501  0.00000000000E+00  0.00000000000E+00  0.68771711587E+02  0.68771711772E+02  0.50400001928E-02 0. -1.
        1   -1    0    0  501    0  0.00000000000E+00  0.00000000000E+00 -0.87783766958E+03  0.87783766959E+03  0.50400001928E-02 0.  1.
    10030    2    1    2    0    0  0.00000000000E+00  0.00000000000E+00 -0.80906595799E+03  0.94660938136E+03  0.49140777009E+03 0.  0.
        3    1    3    3  502    0  0.46967814924E+02  0.12290607227E+03 -0.80425519569E+03  0.81494681313E+03  0.10100000352E+00 0.  1.
       -3    1    3    3    0  502 -0.46967814924E+02 -0.12290607227E+03 -0.48107623063E+01  0.13166256824E+03  0.10100000352E+00 0. -1.
</event>
<event>
 5   0  0.1279188E-01  0.5014697E+03  0.7818609E-02  0.1013396E+00
        2   -1    0    0  501    0  0.00000000000E+00  0.00000000000E+00  0.64027247352E+03  0.64027247353E+03  0.25500000920E-02 0.  1.
       -2   -1    0    0    0  501  0.00000000000E+00  0.00000000000E+00 -0.98189378200E+02  0.98189378233E+02  0.25500000920E-02 0. -1.
    10030    2    1    2    0    0  0.00000000000E+00  0.00000000000E+00  0.54208309532E+03  0.73846185176E+03  0.50146966436E+03 0.  0.
        2    1    3    3  502    0  0.37882055941E+02 -0.31495690353E+02 -0.90992118738E+02  0.10347267442E+03  0.25500000920E-02 0. -1.
       -2    1    3    3    0  502 -0.37882055941E+02  0.31495690353E+02  0.63307521406E+03  0.63498917734E+03  0.25500000920E-02 0.  1.
</event>
<event>
 5   0  0.7602288E-02  0.5056304E+03  0.7818609E-02  0.1012320E+00
        1   -1    0    0  501    0  0.00000000000E+00  0.00000000000E+00  0.63147754150E+03  0.63147754152E+03  0.50400001928E-02 0. -1.
       -1   -1    0    0    0  501  0.00000000000E+00  0.00000000000E+00 -0.10121583400E+03  0.10121583413E+03  0.50400001928E-02 0.  1.
    10030    2    1    2    0    0  0.00000000000E+00  0.00000000000E+00  0.53026170750E+03  0.73269337564E+03  0.50563040284E+03 0.  0.
        5    1    3    3  502    0  0.12638649648E+03  0.91276891916E+02  0.55344978686E+03  0.57500762957E+03  0.46999998093E+01 0. -1.
       -5    1    3    3    0  502 -0.12638649648E+03 -0.91276891916E+02 -0.23188079365E+02  0.15768574607E+03  0.46999998093E+01 0.  1.
</event>
<event>
 5   0  0.7602288E-02  0.5004702E+03  0.7818609E-02  0.1013656E+00
        1   -1    0    0  501    0  0.00000000000E+00  0.00000000000E+00  0.30073782126E+03  0.30073782130E+03  0.50400001928E-02 0. -1.
       -1   -1    0    0    0  501  0.00000000000E+00  0.00000000000E+00 -0.20821329377E+03  0.20821329383E+03  0.50400001928E-02 0.  1.
    10030    2    1    2    0    0  0.00000000000E+00  0.00000000000E+00  0.92524527488E+02  0.50895111513E+03  0.50047022829E+03 0.  0.
        5    1    3    3  502    0 -0.93277793368E+02 -0.47589289753E+02 -0.18481064591E+03  0.21246776714E+03  0.46999998093E+01 0.  1.
       -5    1    3    3    0  502  0.93277793368E+02  0.47589289753E+02  0.27733517340E+03  0.29648334799E+03  0.46999998093E+01 0. -1.
</event>
<event>
 5   0  0.7812547E-02  0.4965388E+03  0.7818609E-02  0.1014686E+00
        1   -1    0    0  501    0  0.00000000000E+00  0.00000000000E+00  0.92493540361E+03  0.92493540363E+03  0.50400001928E-02 0.  1.
       -1   -1    0    0    0  501  0.00000000000E+00  0.00000000000E+00 -0.66639988287E+02  0.66639988478E+02  0.50400001928E-02 0. -1.
    10030    2    1    2    0    0  0.00000000000E+00  0.00000000000E+00  0.85829541533E+03  0.99157539211E+03  0.49653875806E+03 0.  0.
        4    1    3    3  502    0  0.12547418274E+02  0.22489392903E+03  0.63765095385E+03  0.67626553134E+03  0.12699999809E+01 0.  1.
       -4    1    3    3    0  502 -0.12547418274E+02 -0.22489392903E+03  0.22064446147E+03  0.31530986077E+03  0.12699999809E+01 0. -1.
</event>
<event>
 5   0  0.7781754E-02  0.5009853E+03  0.7818609E-02  0.1013522E+00
       -1   -1    0    0    0  501  0.00000000000E+00  0.00000000000E+00  0.74471586068E+02  0.74471586238E+02  0.50400001928E-02 0. -1.
        1   -1    0    0  501    0  0.00000000000E+00  0.00000000000E+00 -0.84255719195E+03  0.84255719197E+03  0.50400001928E-02 0.  1.
    10030    2    1    2    0    0  0.00000000000E+00  0.00000000000E+00 -0.76808560588E+03  0.91702877821E+03  0.50098531125E+03 0.  0.
        2    1    3    3  502    0  0.24942554674E+02  0.18069154445E+03 -0.69829977221E+03  0.72172996137E+03  0.25500000920E-02 0.  1.
       -2    1    3    3    0  502 -0.24942554674E+02 -0.18069154445E+03 -0.69785833674E+02  0.19529881683E+03  0.25500000920E-02 0. -1.
</event>
<event>
 5   0  0.7602288E-02  0.5013739E+03  0.7818609E-02  0.1013421E+00
        1   -1    0    0  501    0  0.00000000000E+00  0.00000000000E+00  0.13124681357E+04  0.13124681357E+04  0.50400001928E-02 0. -1.
       -1   -1    0    0    0  501  0.00000000000E+00  0.00000000000E+00 -0.47882266370E+02  0.47882266635E+02  0.50400001928E-02 0.  1.
    10030    2    1    2    0    0  0.00000000000E+00  0.00000000000E+00  0.12645858694E+04  0.13603504024E+04  0.50137390863E+03 0.  0.
        5    1    3    3  502    0  0.17872675222E+03 -0.83340566021E+02  0.21254628198E+03  0.28997743685E+03  0.46999998093E+01 0.  1.
       -5    1    3    3    0  502 -0.17872675222E+03  0.83340566021E+02  0.10520395874E+04  0.10703729655E+04  0.46999998093E+01 0. -1.
</event>
<event>
 5   0  0.7416638E-02  0.5200455E+03  0.7818609E-02  0.1008675E+00
        1   -1    0    0  501    0  0.00000000000E+00  0.00000000000E+00  0.49470287871E+03  0.49470287874E+03  0.50400001928E-02 0. -1.
       -1   -1    0    0    0  501  0.00000000000E+00  0.00000000000E+00 -0.13667161709E+03  0.13667161719E+03  0.50400001928E-02 0.  1.
    10030    2    1    2    0    0  0.00000000000E+00  0.00000000000E+00  0.35803126162E+03  0.63137449592E+03  0.52004554590E+03 0.  0.
        1    1    3    3  502    0 -0.22095938576E+03  0.24250061958E+02  0.34280662487E+03  0.40856761710E+03  0.50400001928E-02 0. -1.
       -1    1    3    3    0  502  0.22095938576E+03 -0.24250061958E+02  0.15224636745E+02  0.22280687882E+03  0.50400001928E-02 0.  1.
</event>
<event>
 5   0  0.1191894E-01  0.5077722E+03  0.7818609E-02  0.1011770E+00
        2   -1    0    0  501    0  0.00000000000E+00  0.00000000000E+00  0.61552040929E+03  0.61552040929E+03  0.25500000920E-02 0. -1.
       -2   -1    0    0    0  501  0.00000000000E+00  0.00000000000E+00 -0.10472139012E+03  0.10472139015E+03  0.25500000920E-02 0.  1.
    10030    2    1    2    0    0  0.00000000000E+00  0.00000000000E+00  0.51079901917E+03  0.72024179945E+03  0.50777220452E+03 0.  0.
        3    1    3    3  502    0  0.44638052945E+02  0.11694893515E+03  0.56870519828E+03  0.58231883187E+03  0.10100000352E+00 0. -1.
       -3    1    3    3    0  502 -0.44638052945E+02 -0.11694893515E+03 -0.57906179109E+02  0.13792296757E+03  0.10100000352E+00 0.  1.
</event>
<event>
 5   0  0.1191894E-01  0.5063359E+03  0.7818609E-02  0.1012138E+00
        2   -1    0    0  501    0  0.00000000000E+00  0.00000000000E+00  0.56102508015E+03  0.56102508016E+03  0.25500000920E-02 0.  1.
       -2   -1    0    0    0  501  0.00000000000E+00  0.00000000000E+00 -0.11424446609E+03  0.11424446612E+03  0.25500000920E-02 0. -1.
    10030    2    1    2    0    0  0.00000000000E+00  0.00000000000E+00  0.44678061406E+03  0.67526954628E+03  0.50633589941E+03 0.  0.
        3    1    3    3  502    0  0.77311286036E+01 -0.15458943253E+03 -0.43791765435E+02  0.16085829764E+03  0.10100000352E+00 0. -1.
       -3    1    3    3    0  502 -0.77311286036E+01  0.15458943253E+03  0.49057237950E+03  0.51441124864E+03  0.10100000352E+00 0.  1.
</event>
<event>
 5   0  0.7602288E-02  0.5323703E+03  0.7818609E-02  0.1005659E+00
       -1   -1    0    0    0  501  0.00000000000E+00  0.00000000000E+00  0.89572555364E+02  0.89572555506E+02  0.50400001928E-02 0. -1.
        1   -1    0    0  501    0  0.00000000000E+00  0.00000000000E+00 -0.79102941320E+03  0.79102941322E+03  0.50400001928E-02 0.  1.
    10030    2    1    2    0    0  0.00000000000E+00  0.00000000000E+00 -0.70145685784E+03  0.88060196872E+03  0.53237026956E+03 0.  0.
        5    1    3    3  502    0  0.22381884646E+03 -0.19370107442E+02 -0.58676532868E+03  0.62831975779E+03  0.46999998093E+01 0.  1.
       -5    1    3    3    0  502 -0.22381884646E+03  0.19370107442E+02 -0.11469152916E+03  0.25228221093E+03  0.46999998093E+01 0. -1.
</event>
<event>
 5   0  0.7416638E-02  0.4966520E+03  0.7818609E-02  0.1014657E+00
        1   -1    0    0  501    0  0.00000000000E+00  0.00000000000E+00  0.25928408010E+03  0.25928408015E+03  0.50400001928E-02 0.  1.
       -1   -1    0    0    0  501  0.00000000000E+00  0.00000000000E+00 -0.23783101643E+03  0.23783101648E+03  0.50400001928E-02 0. -1.
    10030    2    1    2    0    0  0.00000000000E+00  0.00000000000E+00  0.21453063676E+02  0.49711509663E+03  0.49665197610E+03 0.  0.
        1    1    3    3  502    0  0.47078471576E+02  0.14665817262E+02 -0.23288145117E+03  0.23804461558E+03  0.50400001928E-02 0. -1.
       -1    1    3    3    0  502 -0.47078471576E+02 -0.14665817262E+02  0.25433451485E+03  0.25907048105E+03  0.50400001928E-02 0.  1.
</event>
<event>
 5   0  0.7531632E-02  0.4992192E+03  0.7818609E-02  0.1013983E+00
        1   -1    0    0  501    0  0.00000000000E+00  0.00000000000E+00  0.18633804349E+03  0.18633804356E+03  0.50400001928E-02 0. -1.
       -1   -1    0    0    0  501  0.00000000000E+00  0.00000000000E+00 -0.33436512886E+03  0.33436512890E+03  0.50400001928E-02 0.  1.
    10030    2    1    2    0    0  0.00000000000E+00  0.00000000000E+00 -0.14802708536E+03  0.52070317246E+03  0.49921916611E+03 0.  0.
        3    1    3    3  502    0  0.14142818899E+03 -0.76478033456E+02  0.12513275278E+03  0.20373767021E+03  0.10100000352E+00 0. -1.
       -3    1    3    3    0  502 -0.14142818899E+03  0.76478033456E+02 -0.27315983814E+03  0.31696550225E+03  0.10100000352E+00 0.  1.
</event>
<event>
 5   0  0.1279188E-01  0.5050023E+03  0.7818609E-02  0.1012481E+00
        2   -1    0    0  501    0  0.00000000000E+00  0.00000000000E+00  0.49221779010E+03  0.49221779010E+03  0.25500000920E-02 0. -1.
       -2   -1    0    0    0  501  0.00000000000E+00  0.00000000000E+00 -0.12952970841E+03  0.12952970844E+03  0.25500000920E-02 0.  1.
    10030    2    1    2    0    0  0.00000000000E+00  0.00000000000E+00  0.36268808169E+03  0.62174749854E+03  0.50500228449E+03 0.  0.
        2    1    3    3  502    0 -0.24028815909E+03  0.56638647823E+02  0.24661376893E+03  0.34894797157E+03  0.25500000920E-02 0. -1.
       -2    1    3    3    0  502  0.24028815909E+03 -0.56638647823E+02  0.11607431275E+03  0.27279952697E+03  0.25500000920E-02 0.  1.
</event>
<event>
 5   0  0.1279188E-01  0.5441459E+03  0.7818609E-02  0.1002858E+00
       -2   -1    0    0    0  501  0.00000000000E+00  0.00000000000E+00  0.49151421519E+03  0.49151421520E+03  0.25500000920E-02 0.  1.
        2   -1    0    0  501    0  0.00000000000E+00  0.00000000000E+00 -0.15060335155E+03  0.15060335157E+03  0.25500000920E-02 0. -1.
    10030    2    1    2    0    0  0.00000000000E+00  0.00000000000E+00  0.34091086364E+03  0.64211756677E+03  0.54414589276E+03 0.  0.
        2    1    3    3  502    0  0.45866259653E+02  0.14086467934E+03  0.43974694118E+03  0.46403011103E+03  0.25500000920E-02 0.  1.
       -2    1    3    3    0  502 -0.45866259653E+02 -0.14086467934E+03 -0.98836077542E+02  0.17808745574E+03  0.25500000920E-02 0. -1.
</event>
<event>
 5   0  0.7812547E-02  0.5562472E+03  0.7818609E-02  0.1000058E+00
       -1   -1    0    0    0  501  0.00000000000E+00  0.00000000000E+00  0.25010360396E+03  0.25010360401E+03  0.50400001928E-02 0. -1.
        1   -1    0    0  501    0  0.00000000000E+00  0.00000000000E+00 -0.30928279309E+03  0.30928279313E+03  0.50400001928E-02 0.  1.
    10030    2    1    2    0    0  0.00000000000E+00  0.00000000000E+00 -0.59179189127E+02  0.55938639715E+03  0.55624721562E+03 0.  0.
        4    1    3    3  502    0  0.61666119982E+02 -0.21781953445E+03 -0.19206582393E+03  0.29688205328E+03  0.12699999809E+01 0.  1.
       -4    1    3    3    0  502 -0.61666119982E+02  0.21781953445E+03  0.13288663480E+03  0.26250434387E+03  0.12699999809E+01 0. -1.
</event>
<event>
 5   0  0.1231822E-01  0.5033487E+03  0.7818609E-02  0.1012909E+00
        2   -1    0    0  501    0  0.00000000000E+00  0.00000000000E+00  0.15798091023E+04  0.15798091023E+04  0.25500000920E-02 0.  1.
       -2   -1    0    0    0  501  0.00000000000E+00  0.00000000000E+00 -0.40093441627E+02  0.40093441708E+02  0.25500000920E-02 0. -1.
    10030    2    1    2    0    0  0.00000000000E+00  0.00000000000E+00  0.15397156607E+04  0.16199025440E+04  0.50334872243E+03 0.  0.
        1    1    3    3  502    0  0.22148410552E+02 -0.15014433134E+03  0.14159662033E+04  0.14240765995E+04  0.50400001928E-02 0.  1.
       -1    1    3    3    0  502 -0.22148410552E+02  0.15014433134E+03  0.12374945741E+03  0.19582594455E+03  0.50400001928E-02 0. -1.
</event>
<event>
 5   0  0.7602288E-02  0.5049748E+03  0.7818609E-02  0.1012489E+00
       -1   -1    0    0    0  501  0.00000000000E+00  0.00000000000E+00  0.15613958835E+03  0.15613958843E+03  0.50400001928E-02 0. -1.
        1   -1    0    0  501    0  0.00000000000E+00  0.00000000000E+00 -0.40828785242E+03  0.40828785245E+03  0.50400001928E-02 0.  1.
    10030    2    1    2    0    0  0.00000000000E+00  0.00000000000E+00 -0.25214826407E+03  0.56442744087E+03  0.50497483991E+03 0.  0.
        5    1    3    3  502    0  0.98976781134E+02  0.18963462602E+03 -0.27590930701E+03  0.34915001115E+03  0.46999998093E+01 0.  1.
       -5    1    3    3    0  502 -0.98976781134E+02 -0.18963462602E+03  0.23761042944E+02  0.21527742973E+03  0.46999998093E+01 0. -1.
</event>
<event>
 5   0  0.1211345E-01  0.5017331E+03  0.7818609E-02  0.1013328E+00
        2   -1    0    0  501    0  0.00000000000E+00  0.00000000000E+00  0.73572455716E+02  0.73572455760E+02  0.25500000920E-02 0.  1.
       -2   -1    0    0    0  501  0.00000000000E+00  0.00000000000E+00 -0.85540199689E+03  0.85540199689E+03  0.25500000920E-02 0. -1.
    10030    2    1    2    0    0  0.00000000000E+00  0.00000000000E+00 -0.78182954117E+03  0.92897445265E+03  0.50173309860E+03 0.  0.
        5    1    3    3  502    0 -0.17628962721E+03 -0.17793721633E+03 -0.36661453063E+03  0.44403602296E+03  0.46999998093E+01 0. -1.
       -5    1    3    3    0  502  0.17628962721E+03  0.17793721633E+03 -0.41521501054E+03  0.48493842969E+03  0.46999998093E+01 0.  1.
</event>
<event>
 5   0  0.1211345E-01  0.5115206E+03  0.7818609E-02  0.1010815E+00
        2   -1    0    0  501    0  0.00000000000E+00  0.00000000000E+00  0.57039326355E+03  0.57039326355E+03  0.25500000920E-02 0. -1.
       -2   -1    0    0    0  501  0.00000000000E+00  0.00000000000E+00 -0.11468111058E+03  0.11468111061E+03  0.25500000920E-02 0.  1.
    10030    2    1    2    0    0  0.00000000000E+00  0.00000000000E+00  0.45571215296E+03  0.68507437417E+03  0.51152060739E+03 0.  0.
        5    1    3    3  502    0 -0.23107453241E+03 -0.35249591469E+02  0.36673772330E+03  0.43492139625E+03  0.46999998093E+01 0. -1.
       -5    1    3    3    0  502  0.23107453241E+03  0.35249591469E+02  0.88974429661E+02  0.25015297791E+03  0.46999998093E+01 0.  1.
</event>
<event>
 5   0  0.5006750E-02  0.4856839E+03  0.7818609E-02  0.1017585E+00
        3   -1    0    0  501    0  0.00000000000E+00  0.00000000000E+00  0.30401302392E+03  0.30401304069E+03  0.10100000352E+00 0.  1.
       -3   -1    0    0    0  501  0.00000000000E+00  0.00000000000E+00 -0.19397915915E+03  0.19397918544E+03  0.10100000352E+00 0. -1.
    10030    2    1    2    0    0  0.00000000000E+00  0.00000000000E+00  0.11003386477E+03  0.49799222613E+03  0.48568385385E+03 0.  0.
        4    1    3    3  502    0 -0.11741024096E+03 -0.66790031192E+02  0.26193426016E+03  0.29471552809E+03  0.12699999809E+01 0.  1.
       -4    1    3    3    0  502  0.11741024096E+03  0.66790031192E+02 -0.15190039539E+03  0.20327669805E+03  0.12699999809E+01 0. -1.
</event>
<event>
 5   0  0.1279188E-01  0.4962853E+03  0.7818609E-02  0.1014753E+00
       -2   -1    0    0    0  501  0.00000000000E+00  0.00000000000E+00  0.35916270850E+02  0.35916270940E+02  0.25500000920E-02 0. -1.
        2   -1    0    0  501    0  0.00000000000E+00  0.00000000000E+00 -0.17143977104E+04  0.17143977104E+04  0.25500000920E-02 0.  1.
    10030    2    1    2    0    0  0.00000000000E+00  0.00000000000E+00 -0.16784814395E+04  0.17503139813E+04  0.49628529130E+03 0.  0.
        2    1    3    3  502    0  0.13752692938E+03 -0.69426785225E+02 -0.15317443553E+03  0.21724673189E+03  0.25500000920E-02 0. -1.
       -2    1    3    3    0  502 -0.13752692938E+03  0.69426785225E+02 -0.15253070040E+04  0.15330672494E+04  0.25500000920E-02 0.  1.
</event>
<event>
 5   0  0.7602288E-02  0.4989583E+03  0.7818609E-02  0.1014051E+00
        1   -1    0    0  501    0  0.00000000000E+00  0.00000000000E+00  0.12059063760E+03  0.12059063770E+03  0.50400001928E-02 0.  1.
       -1   -1    0    0    0  501  0.00000000000E+00  0.00000000000E+00 -0.51612493118E+03  0.51612493120E+03  0.50400001928E-02 0. -1.
    10030    2    1    2    0    0  0.00000000000E+00  0.00000000000E+00 -0.39553429358E+03  0.63671556890E+03  0.49895825305E+03 0.  0.
        5    1    3    3  502    0  0.15452793340E+03  0.94155148434E+02  0.21310652720E+02  0.18226439064E+03  0.46999998093E+01 0.  1.
       -5    1    3    3    0  502 -0.15452793340E+03 -0.94155148434E+02 -0.41684494630E+03  0.45445117827E+03  0.46999998093E+01 0. -1.
</event>
<event>
 5   0  0.1191894E-01  0.5062857E+03  0.7818609E-02  0.1012151E+00
        2   -1    0    0  501    0  0.00000000000E+00  0.00000000000E+00  0.96357212926E+03  0.96357212927E+03  0.25500000920E-02 0.  1.
       -2   -1    0    0    0  501  0.00000000000E+00  0.00000000000E+00 -0.66503891317E+02  0.66503891366E+02  0.25500000920E-02 0. -1.
    10030    2    1    2    0    0  0.00000000000E+00  0.00000000000E+00  0.89706823795E+03  0.10300760206E+04  0.50628567504E+03 0.  0.
        3    1    3    3  502    0  0.57082298047E+02  0.24358941179E+03  0.37007505967E+03  0.44670991737E+03  0.10100000352E+00 0. -1.
       -3    1    3    3    0  502 -0.57082298047E+02 -0.24358941179E+03  0.52699317827E+03  0.58336610326E+03  0.10100000352E+00 0.  1.
</event>
<event>
 5   0  0.7531632E-02  0.4785350E+03  0.7818609E-02  0.1019539E+00
        1   -1    0    0  501    0  0.00000000000E+00  0.00000000000E+00  0.98605484866E+02  0.98605484995E+02  0.50400001928E-02 0.  1.
       -1   -1    0    0    0  501  0.00000000000E+00  0.00000000000E+00 -0.58058583495E+03  0.58058583497E+03  0.50400001928E-02 0. -1.
    10030    2    1    2    0    0  0.00000000000E+00  0.00000000000E+00 -0.48198035009E+03  0.67919131997E+03  0.47853504705E+03 0.  0.
        3    1    3    3  502    0  0.19280915333E+03  0.10208759563E+03 -0.38042783234E+03  0.43854599828E+03  0.10100000352E+00 0. -1.
       -3    1    3    3    0  502 -0.19280915333E+03 -0.10208759563E+03 -0.10155251775E+03  0.24064532169E+03  0.10100000352E+00 0.  1.
</event>
<event>
 5   0  0.1243803E-01  0.5010378E+03  0.7818609E-02  0.1013508E+00
       -2   -1    0    0    0  501  0.00000000000E+00  0.00000000000E+00  0.12314785319E+03  0.12314785322E+03  0.25500000920E-02 0.  1.
        2   -1    0    0  501    0  0.00000000000E+00  0.00000000000E+00 -0.50962897826E+03  0.50962897827E+03  0.25500000920E-02 0. -1.
    10030    2    1    2    0    0  0.00000000000E+00  0.00000000000E+00 -0.38648112507E+03  0.63277683149E+03  0.50103778144E+03 0.  0.
        4    1    3    3  502    0  0.10670323623E+02  0.19744428495E+03 -0.38750238834E+03  0.43503771714E+03  0.12699999809E+01 0.  1.
       -4    1    3    3    0  502 -0.10670323623E+02 -0.19744428495E+03  0.10212632623E+01  0.19773911435E+03  0.12699999809E+01 0. -1.
</event>
<event>
 5   0  0.7781754E-02  0.4996050E+03  0.7818609E-02  0.1013882E+00
       -1   -1    0    0    0  501  0.00000000000E+00  0.00000000000E+00  0.18551530863E+03  0.18551530870E+03  0.50400001928E-02 0. -1.
        1   -1    0    0  501    0  0.00000000000E+00  0.00000000000E+00 -0.33636732489E+03  0.33636732493E+03  0.50400001928E-02 0.  1.
    10030    2    1    2    0    0  0.00000000000E+00  0.00000000000E+00 -0.15085201626E+03  0.52188263363E+03  0.49960499644E+03 0.  0.
        2    1    3    3  502    0  0.20386369880E+03 -0.74467469232E+02  0.53763598884E+02  0.22359860517E+03  0.25500000920E-02 0. -1.
       -2    1    3    3    0  502 -0.20386369880E+03  0.74467469232E+02 -0.20461561515E+03  0.29828402846E+03  0.25500000920E-02 0.  1.
</event>
<event>
 5   0  0.7416638E-02  0.5070013E+03  0.7818609E-02  0.1011967E+00
       -1   -1    0    0    0  501  0.00000000000E+00  0.00000000000E+00  0.11001981630E+03  0.11001981641E+03  0.50400001928E-02 0. -1.
        1   -1    0    0  501    0  0.00000000000E+00  0.00000000000E+00 -0.58410013722E+03  0.58410013725E+03  0.50400001928E-02 0.  1.
    10030    2    1    2    0    0  0.00000000000E+00  0.00000000000E+00 -0.47408032092E+03  0.69411995366E+03  0.50700134061E+03 0.  0.
        1    1    3    3  502    0 -0.91051122467E+02  0.12325780368E+03 -0.51351012057E+03  0.53588752274E+03  0.50400001928E-02 0.  1.
       -1    1    3    3    0  502  0.91051122467E+02 -0.12325780368E+03  0.39429799645E+02  0.15823243092E+03  0.50400001928E-02 0. -1.
</event>
<event>
 5   0  0.1211345E-01  0.4943982E+03  0.7818609E-02  0.1015252E+00
       -2   -1    0    0    0  501  0.00000000000E+00  0.00000000000E+00  0.34382773999E+03  0.34382774000E+03  0.25500000920E-02 0.  1.
        2   -1    0    0  501    0  0.00000000000E+00  0.00000000000E+00 -0.17772674461E+03  0.17772674463E+03  0.25500000920E-02 0. -1.
    10030    2    1    2    0    0  0.00000000000E+00  0.00000000000E+00  0.16610099537E+03  0.52155448462E+03  0.49439815915E+03 0.  0.
        5    1    3    3  502    0 -0.11588745854E+03  0.13901575670E+03 -0.94509942416E+02  0.20422904513E+03  0.46999998093E+01 0. -1.
       -5    1    3    3    0  502  0.11588745854E+03 -0.13901575670E+03  0.26061093779E+03  0.31732543950E+03  0.46999998093E+01 0.  1.
</event>
<event>
 5   0  0.7602288E-02  0.5007932E+03  0.7818609E-02  0.1013572E+00
        1   -1    0    0  501    0  0.00000000000E+00  0.00000000000E+00  0.43461668135E+03  0.43461668138E+03  0.50400001928E-02 0.  1.
       -1   -1    0    0    0  501  0.00000000000E+00  0.00000000000E+00 -0.14426147925E+03  0.14426147934E+03  0.50400001928E-02 0. -1.
    10030    2    1    2    0    0  0.00000000000E+00  0.00000000000E+00  0.29035520210E+03  0.57887816071E+03  0.50079315247E+03 0.  0.
        5    1    3    3  502    0  0.33187084073E+02 -0.11247841442E+03 -0.11049718079E+03  0.16119706331E+03  0.46999998093E+01 0. -1.
       -5    1    3    3    0  502 -0.33187084073E+02  0.11247841442E+03  0.40085238289E+03  0.41768109740E+03  0.46999998093E+01 0.  1.
</event>
<event>
 5   0  0.1191894E-01  0.4856609E+03  0.7818609E-02  0.1017591E+00
       -2   -1    0    0    0  501  0.00000000000E+00  0.00000000000E+00  0.19780083199E+03  0.19780083200E+03  0.25500000920E-02 0.  1.
        2   -1    0    0  501    0  0.00000000000E+00  0.00000000000E+00 -0.29811111354E+03  0.29811111355E+03  0.25500000920E-02 0. -1.
    10030    2    1    2    0    0  0.00000000000E+00  0.00000000000E+00 -0.10031028155E+03  0.49591194555E+03  0.48566089523E+03 0.  0.
        3    1    3    3  502    0 -0.37862530538E+02 -0.42856705145E+01 -0.29503934890E+03  0.29748977426E+03  0.10100000352E+00 0. -1.
       -3    1    3    3    0  502  0.37862530538E+02  0.42856705145E+01  0.19472906734E+03  0.19842217129E+03  0.10100000352E+00 0.  1.
</event>
<event>
 5   0  0.1231822E-01  0.5012590E+03  0.7818609E-02  0.1013451E+00
        2   -1    0    0  501    0  0.00000000000E+00  0.00000000000E+00  0.18308464849E+04  0.18308464849E+04  0.25500000920E-02 0.  1.
       -2   -1    0    0    0  501  0.00000000000E+00  0.00000000000E+00 -0.34309344829E+02  0.34309344924E+02  0.25500000920E-02 0. -1.
    10030    2    1    2    0    0  0.00000000000E+00  0.00000000000E+00  0.17965371400E+04  0.18651558298E+04  0.50125898882E+03 0.  0.
        1    1    3    3  502    0 -0.10865300883E+03  0.22139252055E+03  0.73207031403E+03  0.77249405771E+03  0.50400001928E-02 0. -1.
       -1    1    3    3    0  502  0.10865300883E+03 -0.22139252055E+03  0.10644668260E+04  0.10926617721E+04  0.50400001928E-02 0.  1.
</event>
<event>
 5   0  0.7781754E-02  0.4912116E+03  0.7818609E-02  0.1016099E+00
       -1   -1    0    0    0  501  0.00000000000E+00  0.00000000000E+00  0.59463750125E+02  0.59463750339E+02  0.50400001928E-02 0.  1.
        1   -1    0    0  501    0  0.00000000000E+00  0.00000000000E+00 -0.10144365124E+04  0.10144365124E+04  0.50400001928E-02 0. -1.
    10030    2    1    2    0    0  0.00000000000E+00  0.00000000000E+00 -0.95497276227E+03  0.10739002627E+04  0.49121156099E+03 0.  0.
        2    1    3    3  502    0  0.94418348904E+02  0.21432879614E+03 -0.63918657664E+03  0.68074307725E+03  0.25500000920E-02 0. -1.
       -2    1    3    3    0  502 -0.94418348904E+02 -0.21432879614E+03 -0.31578618563E+03  0.39315718549E+03  0.25500000920E-02 0.  1.
</event>
<event>
 5   0  0.5006750E-02  0.4985491E+03  0.7818609E-02  0.1014158E+00
        4   -1    0    0  501    0  0.00000000000E+00  0.00000000000E+00  0.16926519102E+03  0.16926995537E+03  0.12699999809E+01 0. -1.
       -4   -1    0    0    0  501  0.00000000000E+00  0.00000000000E+00 -0.36709214693E+03  0.36709434378E+03  0.12699999809E+01 0.  1.
    10030    2    1    2    0    0  0.00000000000E+00  0.00000000000E+00 -0.19782695591E+03  0.53636429916E+03  0.49854905168E+03 0.  0.
        3    1    3    3  502    0  0.23883967660E+03  0.48554335339E+01 -0.22310099258E+02  0.23992856663E+03  0.10100000352E+00 0. -1.
       -3    1    3    3    0  502 -0.23883967660E+03 -0.48554335339E+01 -0.17551685665E+03  0.29643573253E+03  0.10100000352E+00 0.  1.
</event>
<event>
 5   0  0.1191894E-01  0.5243664E+03  0.7818609E-02  0.1007608E+00
       -2   -1    0    0    0  501  0.00000000000E+00  0.00000000000E+00  0.47383863000E+02  0.47383863069E+02  0.25500000920E-02 0.  1.
        2   -1    0    0  501    0  0.00000000000E+00  0.00000000000E+00 -0.14507055753E+04  0.14507055754E+04  0.25500000920E-02 0. -1.
    10030    2    1    2    0    0  0.00000000000E+00  0.00000000000E+00 -0.14033217123E+04  0.14980894384E+04  0.52436641498E+03 0.  0.
        3    1    3    3  502    0  0.76895248798E+02 -0.17858920529E+03 -0.19918617903E+03  0.27835611661E+03  0.10100000352E+00 0.  1.
       -3    1    3    3    0  502 -0.76895248798E+02  0.17858920529E+03 -0.12041355333E+04  0.12197333218E+04  0.10100000352E+00 0. -1.
</event>
<event>
 5   0  0.1191894E-01  0.5033828E+03  0.7818609E-02  0.1012900E+00
       -2   -1    0    0    0  501  0.00000000000E+00  0.00000000000E+00  0.48031725619E+02  0.48031725687E+02  0.25500000920E-02 0.  1.
        2   -1    0    0  501    0  0.00000000000E+00  0.00000000000E+00 -0.13188900415E+04  0.13188900415E+04  0.25500000920E-02 0. -1.
    10030    2    1    2    0    0  0.00000000000E+00  0.00000000000E+00 -0.12708583159E+04  0.13669217672E+04  0.50338281514E+03 0.  0.
        3    1    3    3  502    0 -0.24833789813E+03 -0.32250458789E+02 -0.70395115183E+03  0.74716734277E+03  0.10100000352E+00 0.  1.
       -3    1    3    3    0  502  0.24833789813E+03  0.32250458789E+02 -0.56690716409E+03  0.61975442446E+03  0.10100000352E+00 0. -1.
</event>
<event>
 5   0  0.7781754E-02  0.5064321E+03  0.7818609E-02  0.1012114E+00
        1   -1    0    0  501    0  0.00000000000E+00  0.00000000000E+00  0.10341612610E+04  0.10341612610E+04  0.50400001928E-02 0.  1.
       -1   -1    0    0    0  501  0.00000000000E+00  0.00000000000E+00 -0.62000355498E+02  0.62000355703E+02  0.50400001928E-02 0. -1.
    10030    2    1    2    0    0  0.00000000000E+00  0.00000000000E+00  0.97216090547E+03  0.10961616167E+04  0.50643209196E+03 0.  0.
        2    1    3    3  502    0  0.30756711214E+02 -0.25117694884E+03  0.50574400533E+03  0.56551996768E+03  0.25500000920E-02 0.  1.
       -2    1    3    3    0  502 -0.30756711214E+02  0.25117694884E+03  0.46641690014E+03  0.53064164900E+03  0.25500000920E-02 0. -1.
</event>
<event>
 5   0  0.7812547E-02  0.5010910E+03  0.7818609E-02  0.1013495E+00
       -1   -1    0    0    0  501  0.00000000000E+00  0.00000000000E+00  0.16536789280E+03  0.16536789288E+03  0.50400001928E-02 0.  1.
        1   -1    0    0  501    0  0.00000000000E+00  0.00000000000E+00 -0.37959634965E+03  0.37959634968E+03  0.50400001928E-02 0. -1.
    10030    2    1    2    0    0  0.00000000000E+00  0.00000000000E+00 -0.21422845685E+03  0.54496424256E+03  0.50109100366E+03 0.  0.
        4    1    3    3  502    0  0.13736472588E+03  0.97220890172E+02  0.94745160019E+02  0.19313007961E+03  0.12699999809E+01 0.  1.
       -4    1    3    3    0  502 -0.13736472588E+03 -0.97220890172E+02 -0.30897361687E+03  0.35183416296E+03  0.12699999809E+01 0. -1.
</event>
<event>
 5   0  0.7416638E-02  0.4842926E+03  0.7818609E-02  0.1017962E+00
       -1   -1    0    0    0  501  0.00000000000E+00  0.00000000000E+00  0.12171616838E+03  0.12171616848E+03  0.50400001928E-02 0. -1.
        1   -1    0    0  501    0  0.00000000000E+00  0.00000000000E+00 -0.48173419770E+03  0.48173419772E+03  0.50400001928E-02 0.  1.
    10030    2    1    2    0    0  0.00000000000E+00  0.00000000000E+00 -0.36001802932E+03  0.60345036621E+03  0.48429264194E+03 0.  0.
        1    1    3    3  502    0  0.65947797319E+02  0.19333326430E+03 -0.34203307723E+03  0.39838861555E+03  0.50400001928E-02 0.  1.
       -1    1    3    3    0  502 -0.65947797319E+02 -0.19333326430E+03 -0.17984952086E+02  0.20506175065E+03  0.50400001928E-02 0. -1.
</event>
<event>
 5   0  0.7416638E-02  0.4994523E+03  0.7818609E-02  0.1013922E+00
       -1   -1    0    0    0  501  0.00000000000E+00  0.00000000000E+00  0.55606747071E+03  0.55606747073E+03  0.50400001928E-02 0.  1.
        1   -1    0    0  501    0  0.00000000000E+00  0.00000000000E+00 -0.11215032274E+03  0.11215032285E+03  0.50400001928E-02 0. -1.
    10030    2    1    2    0    0  0.00000000000E+00  0.00000000000E+00  0.44391714797E+03  0.66821779358E+03  0.49945228540E+03 0.  0.
        1    1    3    3  502    0  0.23792360921E+03  0.14338095787E+02  0.32162926106E+03  0.40032312749E+03  0.50400001928E-02 0.  1.
       -1    1    3    3    0  502 -0.23792360921E+03 -0.14338095787E+02  0.12228788692E+03  0.26789466609E+03  0.50400001928E-02 0. -1.
</event>
<event>
 5   0  0.7781754E-02  0.5111571E+03  0.7818609E-02  0.1010907E+00
       -1   -1    0    0    0  501  0.00000000000E+00  0.00000000000E+00  0.94959074618E+03  0.94959074619E+03  0.50400001928E-02 0. -1.
        1   -1    0    0  501    0  0.00000000000E+00  0.00000000000E+00 -0.68787931101E+02  0.68787931286E+02  0.50400001928E-02 0.  1.
    10030    2    1    2    0    0  0.00000000000E+00  0.00000000000E+00  0.88080281508E+03  0.10183786775E+04  0.51115705189E+03 0.  0.
        2    1    3    3  502    0  0.26297471947E+02 -0.91916699474E+01 -0.65754161992E+02  0.71411859330E+02  0.25500000920E-02 0.  1.
       -2    1    3    3    0  502 -0.26297471947E+02  0.91916699474E+01  0.94655697707E+03  0.94696681815E+03  0.25500000920E-02 0. -1.
</event>
<event>
 5   0  0.7602288E-02  0.5005626E+03  0.7818609E-02  0.1013632E+00
       -1   -1    0    0    0  501  0.00000000000E+00  0.00000000000E+00  0.24125003391E+03  0.24125003396E+03  0.50400001928E-02 0.  1.
        1   -1    0    0  501    0  0.00000000000E+00  0.00000000000E+00 -0.25965063133E+03  0.25965063138E+03  0.50400001928E-02 0. -1.
    10030    2    1    2    0    0  0.00000000000E+00  0.00000000000E+00 -0.18400597420E+02  0.50090066534E+03  0.50056257805E+03 0.  0.
        5    1    3    3  502    0 -0.88477178698E+02 -0.20863097656E+03 -0.11540179758E+03  0.25435164716E+03  0.46999998093E+01 0. -1.
       -5    1    3    3    0  502  0.88477178698E+02  0.20863097656E+03  0.97001200160E+02  0.24654901817E+03  0.46999998093E+01 0.  1.
</event>
<event>
 5   0  0.5006750E-02  0.5004069E+03  0.7818609E-02  0.1013673E+00
        3   -1    0    0  501    0  0.00000000000E+00  0.00000000000E+00  0.26257164869E+03  0.26257166812E+03  0.10100000352E+00 0.  1.
       -3   -1    0    0    0  501  0.00000000000E+00  0.00000000000E+00 -0.23841781243E+03  0.23841783383E+03  0.10100000352E+00 0. -1.
    10030    2    1    2    0    0  0.00000000000E+00  0.00000000000E+00  0.24153836261E+02  0.50098950194E+03  0.50040690768E+03 0.  0.
        4    1    3    3  502    0  0.23136990149E+03 -0.16994348379E+02 -0.81730174364E+02  0.24597209901E+03  0.12699999809E+01 0. -1.
       -4    1    3    3    0  502 -0.23136990149E+03  0.16994348379E+02  0.10588401063E+03  0.25501740293E+03  0.12699999809E+01 0.  1.
</event>
<event>
 5   0  0.7781754E-02  0.5101913E+03  0.7818609E-02  0.1011153E+00
        1   -1    0    0  501    0  0.00000000000E+00  0.00000000000E+00  0.52294930967E+03  0.52294930969E+03  0.50400001928E-02 0.  1.
       -1   -1    0    0    0  501  0.00000000000E+00  0.00000000000E+00 -0.12443611436E+03  0.12443611446E+03  0.50400001928E-02 0. -1.
    10030    2    1    2    0    0  0.00000000000E+00  0.00000000000E+00  0.39851319531E+03  0.64738542415E+03  0.51019125881E+03 0.  0.
        2    1    3    3  502    0  0.19155620750E+03  0.32111637839E+01  0.41298251156E+03  0.45525668262E+03  0.25500000920E-02 0.  1.
       -2    1    3    3    0  502 -0.19155620750E+03 -0.32111637839E+01 -0.14469316256E+02  0.19212874153E+03  0.25500000920E-02 0. -1.
</event>
<event>
 5   0  0.1231822E-01  0.5005518E+03  0.7818609E-02  0.1013635E+00
        2   -1    0    0  501    0  0.00000000000E+00  0.00000000000E+00  0.32639760931E+03  0.32639760932E+03  0.25500000920E-02 0.  1.
       -2   -1    0    0    0  501  0.00000000000E+00  0.00000000000E+00 -0.19190715349E+03  0.19190715350E+03  0.25500000920E-02 0. -1.
    10030    2    1    2    0    0  0.00000000000E+00  0.00000000000E+00  0.13449045582E+03  0.51830476282E+03  0.50055183993E+03 0.  0.
        1    1    3    3  502    0 -0.86342720127E+01  0.12784275154E+03  0.28985784501E+03  0.31691621939E+03  0.50400001928E-02 0.  1.
       -1    1    3    3    0  502  0.86342720127E+01 -0.12784275154E+03 -0.15536738919E+03  0.20138854343E+03  0.50400001928E-02 0. -1.
</event>
<event>
 5   0  0.1231822E-01  0.5228478E+03  0.7818609E-02  0.1007982E+00
       -2   -1    0    0    0  501  0.00000000000E+00  0.00000000000E+00  0.56799318519E+03  0.56799318520E+03  0.25500000920E-02 0. -1.
        2   -1    0    0  501    0  0.00000000000E+00  0.00000000000E+00 -0.12032266417E+03  0.12032266420E+03  0.25500000920E-02 0.  1.
    10030    2    1    2    0    0  0.00000000000E+00  0.00000000000E+00  0.44767052102E+03  0.68831584940E+03  0.52284779156E+03 0.  0.
        1    1    3    3  502    0 -0.11397105895E+03 -0.22826616989E+03  0.29885822205E+03  0.39295175722E+03  0.50400001928E-02 0. -1.
       -1    1    3    3    0  502  0.11397105895E+03  0.22826616989E+03  0.14881229898E+03  0.29536409218E+03  0.50400001928E-02 0.  1.
</event>
<event>
 5   0  0.1279188E-01  0.5018387E+03  0.7818609E-02  0.1013300E+00
        2   -1    0    0  501    0  0.00000000000E+00  0.00000000000E+00  0.10200300278E+04  0.10200300278E+04  0.25500000920E-02 0.  1.
       -2   -1    0    0    0  501  0.00000000000E+00  0.00000000000E+00 -0.61724171283E+02  0.61724171336E+02  0.25500000920E-02 0. -1.
    10030    2    1    2    0    0  0.00000000000E+00  0.00000000000E+00  0.95830585649E+03  0.10817541991E+04  0.50183865207E+03 0.  0.
        2    1    3    3  502    0  0.10476397199E+03 -0.21101817791E+03  0.29301814612E+03  0.37598376986E+03  0.25500000920E-02 0. -1.
       -2    1    3    3    0  502 -0.10476397199E+03  0.21101817791E+03  0.66528771037E+03  0.70577042926E+03  0.25500000920E-02 0.  1.
</event>
<event>
 5   0  0.7781754E-02  0.4995975E+03  0.7818609E-02  0.1013884E+00
       -1   -1    0    0    0  501  0.00000000000E+00  0.00000000000E+00  0.19973601001E+02  0.19973601637E+02  0.50400001928E-02 0. -1.
        1   -1    0    0  501    0  0.00000000000E+00  0.00000000000E+00 -0.31240940201E+04  0.31240940201E+04  0.50400001928E-02 0.  1.
    10030    2    1    2    0    0  0.00000000000E+00  0.00000000000E+00 -0.31041204191E+04  0.31440676218E+04  0.49959747179E+03 0.  0.
        2    1    3    3  502    0  0.55842353545E+02  0.16166926276E+03 -0.26977701801E+04  0.27031868718E+04  0.25500000920E-02 0.  1.
       -2    1    3    3    0  502 -0.55842353545E+02 -0.16166926276E+03 -0.40635023903E+03  0.44088075002E+03  0.25500000920E-02 0. -1.
</event>
<event>
 5   0  0.7812547E-02  0.4935412E+03  0.7818609E-02  0.1015479E+00
       -1   -1    0    0    0  501  0.00000000000E+00  0.00000000000E+00  0.38527986546E+03  0.38527986549E+03  0.50400001928E-02 0. -1.
        1   -1    0    0  501    0  0.00000000000E+00  0.00000000000E+00 -0.15805585894E+03  0.15805585902E+03  0.50400001928E-02 0.  1.
    10030    2    1    2    0    0  0.00000000000E+00  0.00000000000E+00  0.22722400652E+03  0.54333572450E+03  0.49354124487E+03 0.  0.
        4    1    3    3  502    0 -0.15038341486E+03 -0.17953527717E+03  0.28010711942E+02  0.23586924365E+03  0.12699999809E+01 0. -1.
       -4    1    3    3    0  502  0.15038341486E+03  0.17953527717E+03  0.19921329458E+03  0.30746648086E+03  0.12699999809E+01 0.  1.
</event>
<event>
 5   0  0.7416638E-02  0.5043990E+03  0.7818609E-02  0.1012637E+00
        1   -1    0    0  501    0  0.00000000000E+00  0.00000000000E+00  0.56793948673E+03  0.56793948675E+03  0.50400001928E-02 0.  1.
       -1   -1    0    0    0  501  0.00000000000E+00  0.00000000000E+00 -0.11199184768E+03  0.11199184780E+03  0.50400001928E-02 0. -1.
    10030    2    1    2    0    0  0.00000000000E+00  0.00000000000E+00  0.45594763904E+03  0.67993133454E+03  0.50439901878E+03 0.  0.
        1    1    3    3  502    0 -0.22201553156E+03  0.26245596957E+02  0.38532026095E+03  0.44547887844E+03  0.50400001928E-02 0.  1.
       -1    1    3    3    0  502  0.22201553156E+03 -0.26245596957E+02  0.70627378096E+02  0.23445245611E+03  0.50400001928E-02 0. -1.
</event>
<event>
 5   0  0.7781754E-02  0.4978103E+03  0.7818609E-02  0.1014352E+00
       -1   -1    0    0    0  501  0.00000000000E+00  0.00000000000E+00  0.99512480484E+02  0.99512480612E+02  0.50400001928E-02 0. -1.
        1   -1    0    0  501    0  0.00000000000E+00  0.00000000000E+00 -0.62257292282E+03  0.62257292285E+03  0.50400001928E-02 0.  1.
    10030    2    1    2    0    0  0.00000000000E+00  0.00000000000E+00 -0.52306044234E+03  0.72208540346E+03  0.49781030880E+03 0.  0.
        2    1    3    3  502    0 -0.83804609651E+02 -0.82025668255E+02 -0.57999308758E+03  0.59172916482E+03  0.25500000920E-02 0.  1.
       -2    1    3    3    0  502  0.83804609651E+02  0.82025668255E+02  0.56932645238E+02  0.13035623864E+03  0.25500000920E-02 0. -1.
</event>
<event>
 5   0  0.5006750E-02  0.4998585E+03  0.7818609E-02  0.1013816E+00
        4   -1    0    0  501    0  0.00000000000E+00  0.00000000000E+00  0.12800235231E+03  0.12800865243E+03  0.12699999809E+01 0. -1.
       -4   -1    0    0    0  501  0.00000000000E+00  0.00000000000E+00 -0.48797684906E+03  0.48797850170E+03  0.12699999809E+01 0.  1.
    10030    2    1    2    0    0  0.00000000000E+00  0.00000000000E+00 -0.35997449675E+03  0.61598715412E+03  0.49985851571E+03 0.  0.
        1    1    3    3  502    0 -0.27109594084E+02 -0.19124932121E+03 -0.37543150695E+03  0.42220853780E+03  0.50400001928E-02 0.  1.
       -1    1    3    3    0  502  0.27109594084E+02  0.19124932121E+03  0.15457010202E+02  0.19377861632E+03  0.50400001928E-02 0. -1.
</event>
<event>
 5   0  0.1191894E-01  0.4930877E+03  0.7818609E-02  0.1015599E+00
        2   -1    0    0  501    0  0.00000000000E+00  0.00000000000E+00  0.48176230942E+03  0.48176230943E+03  0.25500000920E-02 0.  1.
       -2   -1    0    0    0  501  0.00000000000E+00  0.00000000000E+00 -0.12616982520E+03  0.12616982523E+03  0.25500000920E-02 0. -1.
    10030    2    1    2    0    0  0.00000000000E+00  0.00000000000E+00  0.35559248422E+03  0.60793213466E+03  0.49308768542E+03 0.  0.
        3    1    3    3  502    0 -0.23130229840E+03 -0.67221062585E+02  0.24261995081E+03  0.34188283846E+03  0.10100000352E+00 0. -1.
       -3    1    3    3    0  502  0.23130229840E+03  0.67221062585E+02  0.11297253341E+03  0.26604929620E+03  0.10100000352E+00 0.  1.
</event>
<event>
 5   0  0.1231822E-01  0.4957483E+03  0.7818609E-02  0.1014895E+00
        2   -1    0    0  501    0  0.00000000000E+00  0.00000000000E+00  0.77758569022E+03  0.77758569022E+03  0.25500000920E-02 0. -1.
       -2   -1    0    0    0  501  0.00000000000E+00  0.00000000000E+00 -0.79015845093E+02  0.79015845134E+02  0.25500000920E-02 0.  1.
    10030    2    1    2    0    0  0.00000000000E+00  0.00000000000E+00  0.69856984513E+03  0.85660153536E+03  0.49574828478E+03 0.  0.
        1    1    3    3  502    0 -0.13816474542E+03 -0.56499091696E+01  0.70474541706E+03  0.71818348717E+03  0.50400001928E-02 0. -1.
       -1    1    3    3    0  502  0.13816474542E+03  0.56499091696E+01 -0.61755719327E+01  0.13841804819E+03  0.50400001928E-02 0.  1.
</event>
<event>
 5   0  0.1191894E-01  0.4989040E+03  0.7818609E-02  0.1014065E+00
       -2   -1    0    0    0  501  0.00000000000E+00  0.00000000000E+00  0.10730959320E+03  0.10730959323E+03  0.25500000920E-02 0.  1.
        2   -1    0    0  501    0  0.00000000000E+00  0.00000000000E+00 -0.57987632596E+03  0.57987632597E+03  0.25500000920E-02 0. -1.
    10030    2    1    2    0    0  0.00000000000E+00  0.00000000000E+00 -0.47256673276E+03  0.68718591920E+03  0.49890396935E+03 0.  0.
        3    1    3    3  502    0 -0.93108606054E+02 -0.24945902053E+02  0.80620702810E+02  0.12566311501E+03  0.10100000352E+00 0.  1.
       -3    1    3    3    0  502  0.93108606054E+02  0.24945902053E+02 -0.55318743557E+03  0.56152280419E+03  0.10100000352E+00 0. -1.
</event>
<event>
 5   0  0.7812547E-02  0.5051979E+03  0.7818609E-02  0.1012431E+00
        1   -1    0    0  501    0  0.00000000000E+00  0.00000000000E+00  0.45578804289E+03  0.45578804292E+03  0.50400001928E-02 0.  1.
       -1   -1    0    0    0  501  0.00000000000E+00  0.00000000000E+00 -0.13999103644E+03  0.13999103653E+03  0.50400001928E-02 0. -1.
    10030    2    1    2    0    0  0.00000000000E+00  0.00000000000E+00  0.31579700645E+03  0.59577907945E+03  0.50519794361E+03 0.  0.
        4    1    3    3  502    0  0.95737721124E+02  0.22078303909E+03  0.67362749447E+02  0.24990040918E+03  0.12699999809E+01 0.  1.
       -4    1    3    3    0  502 -0.95737721124E+02 -0.22078303909E+03  0.24843425700E+03  0.34587867027E+03  0.12699999809E+01 0. -1.
</event>
<event>
 5   0  0.1279188E-01  0.5005973E+03  0.7818609E-02  0.1013623E+00
       -2   -1    0    0    0  501  0.00000000000E+00  0.00000000000E+00  0.43743496739E+03  0.43743496740E+03  0.25500000920E-02 0.  1.
        2   -1    0    0  501    0  0.00000000000E+00  0.00000000000E+00 -0.14321992190E+03  0.14321992192E+03  0.25500000920E-02 0. -1.
    10030    2    1    2    0    0  0.00000000000E+00  0.00000000000E+00  0.29421504549E+03  0.58065488932E+03  0.50059725078E+03 0.  0.
        2    1    3    3  502    0  0.22500121410E+03  0.18269441660E+02  0.27251932956E+03  0.35387300524E+03  0.25500000920E-02 0.  1.
       -2    1    3    3    0  502 -0.22500121410E+03 -0.18269441660E+02  0.21695715927E+02  0.22678188407E+03  0.25500000920E-02 0. -1.
</event>
<event>
 5   0  0.1279188E-01  0.4971098E+03  0.7818609E-02  0.1014536E+00
        2   -1    0    0  501    0  0.00000000000E+00  0.00000000000E+00  0.46516538780E+03  0.46516538781E+03  0.25500000920E-02 0.  1.
       -2   -1    0    0    0  501  0.00000000000E+00  0.00000000000E+00 -0.13281199982E+03  0.13281199985E+03  0.25500000920E-02 0. -1.
    10030    2    1    2    0    0  0.00000000000E+00  0.00000000000E+00  0.33235338798E+03  0.59797738766E+03  0.49710982856E+03 0.  0.
        2    1    3    3  502    0 -0.64000679835E+02 -0.23251244835E+03  0.23856557186E+03  0.33922213628E+03  0.25500000920E-02 0. -1.
       -2    1    3    3    0  502  0.64000679835E+02  0.23251244835E+03  0.93787816116E+02  0.25875525138E+03  0.25500000920E-02 0.  1.
</event>
<event>
 5   0  0.7812547E-02  0.4931645E+03  0.7818609E-02  0.1015579E+00
        1   -1    0    0  501    0  0.00000000000E+00  0.00000000000E+00  0.16205072607E+03  0.16205072615E+03  0.50400001928E-02 0. -1.
       -1   -1    0    0    0  501  0.00000000000E+00  0.00000000000E+00 -0.37520842498E+03  0.37520842502E+03  0.50400001928E-02 0.  1.
    10030    2    1    2    0    0  0.00000000000E+00  0.00000000000E+00 -0.21315769891E+03  0.53725915116E+03  0.49316446638E+03 0.  0.
        4    1    3    3  502    0 -0.13406067878E+03 -0.26327702716E+02 -0.33020238964E+03  0.35735226955E+03  0.12699999809E+01 0.  1.
       -4    1    3    3    0  502  0.13406067878E+03  0.26327702716E+02  0.11704469073E+03  0.17990688162E+03  0.12699999809E+01 0. -1.
</event>
<event>
 5   0  0.7781754E-02  0.5004963E+03  0.7818609E-02  0.1013649E+00
        1   -1    0    0  501    0  0.00000000000E+00  0.00000000000E+00  0.53857333900E+03  0.53857333903E+03  0.50400001928E-02 0.  1.
       -1   -1    0    0    0  501  0.00000000000E+00  0.00000000000E+00 -0.11627782158E+03  0.11627782169E+03  0.50400001928E-02 0. -1.
    10030    2    1    2    0    0  0.00000000000E+00  0.00000000000E+00  0.42229551742E+03  0.65485116072E+03  0.50049629236E+03 0.  0.
        2    1    3    3  502    0  0.14255434022E+03 -0.14789226436E+03  0.39816378324E+03  0.44802707514E+03  0.25500000920E-02 0.  1.
       -2    1    3    3    0  502 -0.14255434022E+03  0.14789226436E+03  0.24131734182E+02  0.20682408558E+03  0.25500000920E-02 0. -1.
</event>
<event>
 5   0  0.7602288E-02  0.5211240E+03  0.7818609E-02  0.1008408E+00
       -1   -1    0    0    0  501  0.00000000000E+00  0.00000000000E+00  0.93851108363E+02  0.93851108498E+02  0.50400001928E-02 0. -1.
        1   -1    0    0  501    0  0.00000000000E+00  0.00000000000E+00 -0.72340698621E+03  0.72340698623E+03  0.50400001928E-02 0.  1.
    10030    2    1    2    0    0  0.00000000000E+00  0.00000000000E+00 -0.62955587785E+03  0.81725809473E+03  0.52112396804E+03 0.  0.
        5    1    3    3  502    0 -0.58613518261E+02  0.17979291920E+03 -0.33759764762E+02  0.19215319418E+03  0.46999998093E+01 0. -1.
       -5    1    3    3    0  502  0.58613518261E+02 -0.17979291920E+03 -0.59579611309E+03  0.62510490055E+03  0.46999998093E+01 0.  1.
</event>
<event>
 5   0  0.1243803E-01  0.5028744E+03  0.7818609E-02  0.1013031E+00
        2   -1    0    0  501    0  0.00000000000E+00  0.00000000000E+00  0.26107714075E+03  0.26107714076E+03  0.25500000920E-02 0. -1.
       -2   -1    0    0    0  501  0.00000000000E+00  0.00000000000E+00 -0.24215316119E+03  0.24215316120E+03  0.25500000920E-02 0.  1.
    10030    2    1    2    0    0  0.00000000000E+00  0.00000000000E+00  0.18923979562E+02  0.50323030196E+03  0.50287435788E+03 0.  0.
        4    1    3    3  502    0 -0.67208425885E+02  0.16372841530E+03 -0.16925634569E+03  0.24489444654E+03  0.12699999809E+01 0.  1.
       -4    1    3    3    0  502  0.67208425885E+02 -0.16372841530E+03  0.18818032526E+03  0.25833585543E+03  0.12699999809E+01 0. -1.
</event>
<event>
 5   0  0.7602288E-02  0.5386596E+03  0.7818609E-02  0.1004153E+00
       -1   -1    0    0    0  501  0.00000000000E+00  0.00000000000E+00  0.13642787776E+03  0.13642787785E+03  0.50400001928E-02 0. -1.
        1   -1    0    0  501    0  0.00000000000E+00  0.00000000000E+00 -0.53169888156E+03  0.53169888159E+03  0.50400001928E-02 0.  1.
    10030    2    1    2    0    0  0.00000000000E+00  0.00000000000E+00 -0.39527100381E+03  0.66812675944E+03  0.53865963300E+03 0.  0.
        5    1    3    3  502    0 -0.25223104305E+02 -0.71586999200E+02 -0.51810606693E+03  0.52365722571E+03  0.46999998093E+01 0.  1.
       -5    1    3    3    0  502  0.25223104305E+02  0.71586999200E+02  0.12283506312E+03  0.14446953373E+03  0.46999998093E+01 0. -1.
</event>
<event>
 5   0  0.1191894E-01  0.4955014E+03  0.7818609E-02  0.1014960E+00
       -2   -1    0    0    0  501  0.00000000000E+00  0.00000000000E+00  0.14858221348E+03  0.14858221350E+03  0.25500000920E-02 0.  1.
        2   -1    0    0  501    0  0.00000000000E+00  0.00000000000E+00 -0.41310741773E+03  0.41310741774E+03  0.25500000920E-02 0. -1.
    10030    2    1    2    0    0  0.00000000000E+00  0.00000000000E+00 -0.26452520425E+03  0.56168963124E+03  0.49550142094E+03 0.  0.
        3    1    3    3  502    0  0.67900036471E+02 -0.10794814499E+02  0.13755155121E+03  0.15377705425E+03  0.10100000352E+00 0.  1.
       -3    1    3    3    0  502 -0.67900036471E+02  0.10794814499E+02 -0.40207675547E+03  0.40791257698E+03  0.10100000352E+00 0. -1.
</event>
<event>
 5   0  0.7602288E-02  0.5046375E+03  0.7818609E-02  0.1012575E+00
       -1   -1    0    0    0  501  0.00000000000E+00  0.00000000000E+00  0.10821386786E+03  0.10821386798E+03  0.50400001928E-02 0. -1.
        1   -1    0    0  501    0  0.00000000000E+00  0.00000000000E+00 -0.58832350154E+03  0.58832350156E+03  0.50400001928E-02 0.  1.
    10030    2    1    2    0    0  0.00000000000E+00  0.00000000000E+00 -0.48010963368E+03  0.69653736954E+03  0.50463754003E+03 0.  0.
        5    1    3    3  502    0 -0.20113766522E+03  0.13707776191E+03 -0.14853953197E+03  0.28518898249E+03  0.46999998093E+01 0. -1.
       -5    1    3    3    0  502  0.20113766522E+03 -0.13707776191E+03 -0.33157010171E+03  0.41134838705E+03  0.46999998093E+01 0.  1.
</event>
<event>
 5   0  0.7416638E-02  0.5002430E+03  0.7818609E-02  0.1013716E+00
       -1   -1    0    0    0  501  0.00000000000E+00  0.00000000000E+00  0.12880598240E+04  0.12880598240E+04  0.50400001928E-02 0. -1.
        1   -1    0    0  501    0  0.00000000000E+00  0.00000000000E+00 -0.48569758601E+02  0.48569758863E+02  0.50400001928E-02 0.  1.
    10030    2    1    2    0    0  0.00000000000E+00  0.00000000000E+00  0.12394900654E+04  0.13366295829E+04  0.50024296056E+03 0.  0.
        1    1    3    3  502    0  0.16173725364E+03 -0.14774416733E+03  0.29718417290E+03  0.36919603308E+03  0.50400001928E-02 0.  1.
       -1    1    3    3    0  502 -0.16173725364E+03  0.14774416733E+03  0.94230589251E+03  0.96743354980E+03  0.50400001928E-02 0. -1.
</event>
<event>
 5   0  0.7416638E-02  0.4971743E+03  0.7818609E-02  0.1014519E+00
       -1   -1    0    0    0  501  0.00000000000E+00  0.00000000000E+00  0.48008552395E+02  0.48008552660E+02  0.50400001928E-02 0. -1.
        1   -1    0    0  501    0  0.00000000000E+00  0.00000000000E+00 -0.12871781811E+04  0.12871781811E+04  0.50400001928E-02 0.  1.
    10030    2    1    2    0    0  0.00000000000E+00  0.00000000000E+00 -0.12391696287E+04  0.13351867338E+04  0.49717426053E+03 0.  0.
        1    1    3    3  502    0  0.75815815477E+02 -0.20776191125E+03 -0.92439792594E+03  0.95048649394E+03  0.50400001928E-02 0.  1.
       -1    1    3    3    0  502 -0.75815815477E+02  0.20776191125E+03 -0.31477170277E+03  0.38470023984E+03  0.50400001928E-02 0. -1.
</event>
<event>
 5   0  0.7602288E-02  0.4989449E+03  0.7818609E-02  0.1014055E+00
       -1   -1    0    0    0  501  0.00000000000E+00  0.00000000000E+00  0.65006698697E+02  0.65006698892E+02  0.50400001928E-02 0.  1.
        1   -1    0    0  501    0  0.00000000000E+00  0.00000000000E+00 -0.95738613473E+03  0.95738613475E+03  0.50400001928E-02 0. -1.
    10030    2    1    2    0    0  0.00000000000E+00  0.00000000000E+00 -0.89237943604E+03  0.10223928336E+04  0.49894493525E+03 0.  0.
        5    1    3    3  502    0  0.97290338004E+02  0.21512375613E+03 -0.28135694863E+03  0.36732473761E+03  0.46999998093E+01 0.  1.
       -5    1    3    3    0  502 -0.97290338004E+02 -0.21512375613E+03 -0.61102248741E+03  0.65506809603E+03  0.46999998093E+01 0. -1.
</event>
<event>
 5   0  0.1243803E-01  0.4982244E+03  0.7818609E-02  0.1014243E+00
        2   -1    0    0  501    0  0.00000000000E+00  0.00000000000E+00  0.16511520023E+04  0.16511520023E+04  0.25500000920E-02 0.  1.
       -2   -1    0    0    0  501  0.00000000000E+00  0.00000000000E+00 -0.37583994030E+02  0.37583994117E+02  0.25500000920E-02 0. -1.
    10030    2    1    2    0    0  0.00000000000E+00  0.00000000000E+00  0.16135680083E+04  0.16887359965E+04  0.49822439553E+03 0.  0.
        4    1    3    3  502    0 -0.22488747684E+03  0.45330232849E+00  0.44360494899E+03  0.49735454798E+03  0.12699999809E+01 0. -1.
       -4    1    3    3    0  502  0.22488747684E+03 -0.45330232849E+00  0.11699630593E+04  0.11913814485E+04  0.12699999809E+01 0.  1.
</event>
<event>
 5   0  0.1191894E-01  0.4935838E+03  0.7818609E-02  0.1015467E+00
        2   -1    0    0  501    0  0.00000000000E+00  0.00000000000E+00  0.82239133169E+03  0.82239133170E+03  0.25500000920E-02 0.  1.
       -2   -1    0    0    0  501  0.00000000000E+00  0.00000000000E+00 -0.74059930882E+02  0.74059930926E+02  0.25500000920E-02 0. -1.
    10030    2    1    2    0    0  0.00000000000E+00  0.00000000000E+00  0.74833140081E+03  0.89645126262E+03  0.49358381337E+03 0.  0.
        3    1    3    3  502    0 -0.23836474648E+02 -0.41752640600E+02 -0.65472293848E+02  0.81228640168E+02  0.10100000352E+00 0. -1.
       -3    1    3    3    0  502  0.23836474648E+02  0.41752640600E+02  0.81380369466E+03  0.81522262246E+03  0.10100000352E+00 0.  1.
</event>
<event>
 5   0  0.1279188E-01  0.4829186E+03  0.7818609E-02  0.1018336E+00
       -2   -1    0    0    0  501  0.00000000000E+00  0.00000000000E+00  0.57803657218E+02  0.57803657275E+02  0.25500000920E-02 0. -1.
        2   -1    0    0  501    0  0.00000000000E+00  0.00000000000E+00 -0.10086315647E+04  0.10086315647E+04  0.25500000920E-02 0.  1.
    10030    2    1    2    0    0  0.00000000000E+00  0.00000000000E+00 -0.95082790743E+03  0.10664352219E+04  0.48291859875E+03 0.  0.
        2    1    3    3  502    0  0.15719546460E+03  0.36523691598E+02 -0.78788476446E+02  0.17958846891E+03  0.25500000920E-02 0. -1.
       -2    1    3    3    0  502 -0.15719546460E+03 -0.36523691598E+02 -0.87203943099E+03  0.88684675302E+03  0.25500000920E-02 0.  1.
</event>
<event>
 5   0  0.1231822E-01  0.4854427E+03  0.7818609E-02  0.1017650E+00
       -2   -1    0    0    0  501  0.00000000000E+00  0.00000000000E+00  0.37571284301E+02  0.37571284387E+02  0.25500000920E-02 0.  1.
        2   -1    0    0  501    0  0.00000000000E+00  0.00000000000E+00 -0.15680497305E+04  0.15680497305E+04  0.25500000920E-02 0. -1.
    10030    2    1    2    0    0  0.00000000000E+00  0.00000000000E+00 -0.15304784462E+04  0.16056210149E+04  0.48544265282E+03 0.  0.
        1    1    3    3  502    0  0.42216572292E+02 -0.12704477270E+03 -0.95586681212E+02  0.16449749815E+03  0.50400001928E-02 0.  1.
       -1    1    3    3    0  502 -0.42216572292E+02  0.12704477270E+03 -0.14348917650E+04  0.14411235168E+04  0.50400001928E-02 0. -1.
</event>
<event>
 5   0  0.1211345E-01  0.4946480E+03  0.7818609E-02  0.1015185E+00
        2   -1    0    0  501    0  0.00000000000E+00  0.00000000000E+00  0.68192365936E+03  0.68192365936E+03  0.25500000920E-02 0.  1.
       -2   -1    0    0    0  501  0.00000000000E+00  0.00000000000E+00 -0.89700879907E+02  0.89700879943E+02  0.25500000920E-02 0. -1.
    10030    2    1    2    0    0  0.00000000000E+00  0.00000000000E+00  0.59222277945E+03  0.77162453930E+03  0.49464796488E+03 0.  0.
        5    1    3    3  502    0 -0.17034171961E+03 -0.13297867889E+02  0.17260568883E+02  0.17179392296E+03  0.46999998093E+01 0. -1.
       -5    1    3    3    0  502  0.17034171961E+03  0.13297867889E+02  0.57496221057E+03  0.59983061635E+03  0.46999998093E+01 0.  1.
</event>
<event>
 5   0  0.1191894E-01  0.4972230E+03  0.7818609E-02  0.1014506E+00
        2   -1    0    0  501    0  0.00000000000E+00  0.00000000000E+00  0.42039841813E+03  0.42039841814E+03  0.25500000920E-02 0.  1.
       -2   -1    0    0    0  501  0.00000000000E+00  0.00000000000E+00 -0.14702166243E+03  0.14702166245E+03  0.25500000920E-02 0. -1.
    10030    2    1    2    0    0  0.00000000000E+00  0.00000000000E+00  0.27337675570E+03  0.56742008059E+03  0.49722298548E+03 0.  0.
        3    1    3    3  502    0 -0.63749153695E+02  0.62224559709E+02  0.40155931174E+03  0.41132194382E+03  0.10100000352E+00 0.  1.
       -3    1    3    3    0  502  0.63749153695E+02 -0.62224559709E+02 -0.12818255603E+03  0.15609813676E+03  0.10100000352E+00 0. -1.
</event>
<event>
 5   0  0.7416638E-02  0.5008933E+03  0.7818609E-02  0.1013546E+00
        1   -1    0    0  501    0  0.00000000000E+00  0.00000000000E+00  0.38024325765E+03  0.38024325769E+03  0.50400001928E-02 0.  1.
       -1   -1    0    0    0  501  0.00000000000E+00  0.00000000000E+00 -0.16495633267E+03  0.16495633275E+03  0.50400001928E-02 0. -1.
    10030    2    1    2    0    0  0.00000000000E+00  0.00000000000E+00  0.21528692498E+03  0.54519959043E+03  0.50089333529E+03 0.  0.
        1    1    3    3  502    0 -0.17309345564E+03  0.74554867039E+02  0.28716838208E+03  0.34349010507E+03  0.50400001928E-02 0.  1.
       -1    1    3    3    0  502  0.17309345564E+03 -0.74554867039E+02 -0.71881457098E+02  0.20170948536E+03  0.50400001928E-02 0. -1.
</event>
<event>
 5   0  0.7531632E-02  0.4908693E+03  0.7818609E-02  0.1016190E+00
        1   -1    0    0  501    0  0.00000000000E+00  0.00000000000E+00  0.53774367904E+03  0.53774367907E+03  0.50400001928E-02 0.  1.
       -1   -1    0    0    0  501  0.00000000000E+00  0.00000000000E+00 -0.11202024359E+03  0.11202024370E+03  0.50400001928E-02 0. -1.
    10030    2    1    2    0    0  0.00000000000E+00  0.00000000000E+00  0.42572343545E+03  0.64976392277E+03  0.49086934294E+03 0.  0.
        3    1    3    3  502    0  0.14989170765E+03 -0.16039002314E+03  0.35814158074E+03  0.42006890578E+03  0.10100000352E+00 0.  1.
       -3    1    3    3    0  502 -0.14989170765E+03  0.16039002314E+03  0.67581854713E+02  0.22969501699E+03  0.10100000352E+00 0. -1.
</event>
<event>
 5   0  0.7602288E-02  0.5021639E+03  0.7818609E-02  0.1013216E+00
        1   -1    0    0  501    0  0.00000000000E+00  0.00000000000E+00  0.58036042223E+03  0.58036042225E+03  0.50400001928E-02 0. -1.
       -1   -1    0    0    0  501  0.00000000000E+00  0.00000000000E+00 -0.10862586464E+03  0.10862586475E+03  0.50400001928E-02 0.  1.
    10030    2    1    2    0    0  0.00000000000E+00  0.00000000000E+00  0.47173455759E+03  0.68898628700E+03  0.50216392826E+03 0.  0.
        5    1    3    3  502    0 -0.17272465580E+03  0.15361383592E+03  0.10151261309E+03  0.25250330280E+03  0.46999998093E+01 0.  1.
       -5    1    3    3    0  502  0.17272465580E+03 -0.15361383592E+03  0.37022194450E+03  0.43648298420E+03  0.46999998093E+01 0. -1.
</event>
<event>
 5   0  0.7531632E-02  0.4926930E+03  0.7818609E-02  0.1015704E+00
       -1   -1    0    0    0  501  0.00000000000E+00  0.00000000000E+00  0.84182995532E+02  0.84182995683E+02  0.50400001928E-02 0. -1.
        1   -1    0    0  501    0  0.00000000000E+00  0.00000000000E+00 -0.72088914777E+03  0.72088914779E+03  0.50400001928E-02 0.  1.
    10030    2    1    2    0    0  0.00000000000E+00  0.00000000000E+00 -0.63670615224E+03  0.80507214347E+03  0.49269304024E+03 0.  0.
        3    1    3    3  502    0 -0.22866630877E+03  0.67351263095E+02 -0.21680504682E+03  0.32222493996E+03  0.10100000352E+00 0.  1.
       -3    1    3    3    0  502  0.22866630877E+03 -0.67351263095E+02 -0.41990110542E+03  0.48284720351E+03  0.10100000352E+00 0. -1.
</event>
<event>
 5   0  0.1279188E-01  0.5044560E+03  0.7818609E-02  0.1012622E+00
       -2   -1    0    0    0  501  0.00000000000E+00  0.00000000000E+00  0.48336467326E+02  0.48336467394E+02  0.25500000920E-02 0. -1.
        2   -1    0    0  501    0  0.00000000000E+00  0.00000000000E+00 -0.13161690268E+04  0.13161690268E+04  0.25500000920E-02 0.  1.
    10030    2    1    2    0    0  0.00000000000E+00  0.00000000000E+00 -0.12678325595E+04  0.13645054942E+04  0.50445598900E+03 0.  0.
        2    1    3    3  502    0 -0.50131660982E+02  0.70127002385E+02  0.72544985209E+01  0.86507847341E+02  0.25500000920E-02 0. -1.
       -2    1    3    3    0  502  0.50131660982E+02 -0.70127002385E+02 -0.12750870580E+04  0.12779976469E+04  0.25500000920E-02 0.  1.
</event>
<event>
 5   0  0.1191894E-01  0.5007078E+03  0.7818609E-02  0.1013594E+00
        2   -1    0    0  501    0  0.00000000000E+00  0.00000000000E+00  0.99901817668E+03  0.99901817668E+03  0.25500000920E-02 0. -1.
       -2   -1    0    0    0  501  0.00000000000E+00  0.00000000000E+00 -0.62738665556E+02  0.62738665607E+02  0.25500000920E-02 0.  1.
    10030    2    1    2    0    0  0.00000000000E+00  0.00000000000E+00  0.93627951112E+03  0.10617568423E+04  0.50070776826E+03 0.  0.
        3    1    3    3  502    0  0.72999877023E+02  0.23725898132E+03  0.39922308755E+03  0.47010625405E+03  0.10100000352E+00 0.  1.
       -3    1    3    3    0  502 -0.72999877023E+02 -0.23725898132E+03  0.53705642357E+03  0.59165058824E+03  0.10100000352E+00 0. -1.
</event>
<event>
 5   0  0.7531632E-02  0.4993582E+03  0.7818609E-02  0.1013947E+00
        1   -1    0    0  501    0  0.00000000000E+00  0.00000000000E+00  0.21816759226E+03  0.21816759231E+03  0.50400001928E-02 0. -1.
       -1   -1    0    0    0  501  0.00000000000E+00  0.00000000000E+00 -0.28574199130E+03  0.28574199135E+03  0.50400001928E-02 0.  1.
    10030    2    1    2    0    0  0.00000000000E+00  0.00000000000E+00 -0.67574399047E+02  0.50390958366E+03  0.49935815714E+03 0.  0.
        3    1    3    3  502    0 -0.60831908614E+02 -0.23469513002E+03  0.26399584437E+02  0.24388372931E+03  0.10100000352E+00 0.  1.
       -3    1    3    3    0  502  0.60831908614E+02  0.23469513002E+03 -0.93973983484E+02  0.26002585436E+03  0.10100000352E+00 0. -1.
</event>
<event>
 5   0  0.7781754E-02  0.4716065E+03  0.7818609E-02  0.1021468E+00
       -1   -1    0    0    0  501  0.00000000000E+00  0.00000000000E+00  0.34848549623E+02  0.34848549988E+02  0.50400001928E-02 0. -1.
        1   -1    0    0  501    0  0.00000000000E+00  0.00000000000E+00 -0.15955662079E+04  0.15955662079E+04  0.50400001928E-02 0.  1.
    10030    2    1    2    0    0  0.00000000000E+00  0.00000000000E+00 -0.15607176583E+04  0.16304147579E+04  0.47160648204E+03 0.  0.
        2    1    3    3  502    0  0.11137151011E+03  0.28186381707E+02 -0.14922724321E+04  0.14966880426E+04  0.25500000920E-02 0.  1.
       -2    1    3    3    0  502 -0.11137151011E+03 -0.28186381707E+02 -0.68445226168E+02  0.13372671524E+03  0.25500000920E-02 0. -1.
</event>
<event>
 5   0  0.1279188E-01  0.5026153E+03  0.7818609E-02  0.1013099E+00
        2   -1    0    0  501    0  0.00000000000E+00  0.00000000000E+00  0.18581934220E+04  0.18581934220E+04  0.25500000920E-02 0. -1.
       -2   -1    0    0    0  501  0.00000000000E+00  0.00000000000E+00 -0.33987602386E+02  0.33987602482E+02  0.25500000920E-02 0.  1.
    10030    2    1    2    0    0  0.00000000000E+00  0.00000000000E+00  0.18242058196E+04  0.18921810245E+04  0.50261531722E+03 0.  0.
        2    1    3    3  502    0 -0.21924564985E+03  0.64113206485E+02  0.13065207503E+04  0.13263391834E+04  0.25500000920E-02 0.  1.
       -2    1    3    3    0  502  0.21924564985E+03 -0.64113206485E+02  0.51768506931E+03  0.56584184116E+03  0.25500000920E-02 0. -1.
</event>
<event>
 5   0  0.7781754E-02  0.5047795E+03  0.7818609E-02  0.1012539E+00
        1   -1    0    0  501    0  0.00000000000E+00  0.00000000000E+00  0.33799782288E+03  0.33799782292E+03  0.50400001928E-02 0.  1.
       -1   -1    0    0    0  501  0.00000000000E+00  0.00000000000E+00 -0.18846448487E+03  0.18846448494E+03  0.50400001928E-02 0. -1.
    10030    2    1    2    0    0  0.00000000000E+00  0.00000000000E+00  0.14953333801E+03  0.52646230786E+03  0.50477949881E+03 0.  0.
        2    1    3    3  502    0 -0.58547149917E+02 -0.62465102146E+02  0.32239091537E+03  0.33356492631E+03  0.25500000920E-02 0.  1.
       -2    1    3    3    0  502  0.58547149917E+02  0.62465102146E+02 -0.17285757736E+03  0.19289738155E+03  0.25500000920E-02 0. -1.
</event>
<event>
 5   0  0.7602288E-02  0.4959567E+03  0.7818609E-02  0.1014840E+00
        1   -1    0    0  501    0  0.00000000000E+00  0.00000000000E+00  0.30386333221E+03  0.30386333225E+03  0.50400001928E-02 0. -1.
       -1   -1    0    0    0  501  0.00000000000E+00  0.00000000000E+00 -0.20237143348E+03  0.20237143354E+03  0.50400001928E-02 0.  1.
    10030    2    1    2    0    0  0.00000000000E+00  0.00000000000E+00  0.10149189873E+03  0.50623476579E+03  0.49595668418E+03 0.  0.
        5    1    3    3  502    0  0.15804927714E+03  0.18949400568E+03  0.26087157350E+02  0.24817369315E+03  0.46999998093E+01 0. -1.
       -5    1    3    3    0  502 -0.15804927714E+03 -0.18949400568E+03  0.75404741384E+02  0.25806107264E+03  0.46999998093E+01 0.  1.
</event>
<event>
 5   0  0.1231822E-01  0.5396010E+03  0.7818609E-02  0.1003930E+00
       -2   -1    0    0    0  501  0.00000000000E+00  0.00000000000E+00  0.26469702307E+03  0.26469702308E+03  0.25500000920E-02 0.  1.
        2   -1    0    0  501    0  0.00000000000E+00  0.00000000000E+00 -0.27500241048E+03  0.27500241050E+03  0.25500000920E-02 0. -1.
    10030    2    1    2    0    0  0.00000000000E+00  0.00000000000E+00 -0.10305387414E+02  0.53969943358E+03  0.53960103558E+03 0.  0.
        1    1    3    3  502    0 -0.11123095601E+03  0.22767116821E+03  0.87523973024E+02  0.26808008559E+03  0.50400001928E-02 0.  1.
       -1    1    3    3    0  502  0.11123095601E+03 -0.22767116821E+03 -0.97829360438E+02  0.27161934799E+03  0.50400001928E-02 0. -1.
</event>
<event>
 5   0  0.7781754E-02  0.5310326E+03  0.7818609E-02  0.1005982E+00
        1   -1    0    0  501    0  0.00000000000E+00  0.00000000000E+00  0.10802665871E+04  0.10802665872E+04  0.50400001928E-02 0.  1.
       -1   -1    0    0    0  501  0.00000000000E+00  0.00000000000E+00 -0.65260650127E+02  0.65260650322E+02  0.50400001928E-02 0. -1.
    10030    2    1    2    0    0  0.00000000000E+00  0.00000000000E+00  0.10150059370E+04  0.11455272375E+04  0.53103257869E+03 0.  0.
        2    1    3    3  502    0 -0.79464685510E+02 -0.86875686367E+02  0.10208770160E+04  0.10276438599E+04  0.25500000920E-02 0.  1.
       -2    1    3    3    0  502  0.79464685510E+02  0.86875686367E+02 -0.58710789563E+01  0.11788337754E+03  0.25500000920E-02 0. -1.
</event>
<event>
 5   0  0.7416638E-02  0.4993754E+03  0.7818609E-02  0.1013942E+00
       -1   -1    0    0    0  501  0.00000000000E+00  0.00000000000E+00  0.57136224460E+03  0.57136224462E+03  0.50400001928E-02 0.  1.
        1   -1    0    0  501    0  0.00000000000E+00  0.00000000000E+00 -0.10911457100E+03  0.10911457112E+03  0.50400001928E-02 0. -1.
    10030    2    1    2    0    0  0.00000000000E+00  0.00000000000E+00  0.46224767360E+03  0.68047681574E+03  0.49937539489E+03 0.  0.
        1    1    3    3  502    0  0.24542616375E+03  0.32432077014E+01  0.29356003873E+03  0.38265129898E+03  0.50400001928E-02 0. -1.
       -1    1    3    3    0  502 -0.24542616375E+03 -0.32432077014E+01  0.16868763487E+03  0.29782551676E+03  0.50400001928E-02 0.  1.
</event>
<event>
 5   0  0.7781754E-02  0.4989452E+03  0.7818609E-02  0.1014055E+00
        1   -1    0    0  501    0  0.00000000000E+00  0.00000000000E+00  0.36950233352E+03  0.36950233356E+03  0.50400001928E-02 0. -1.
       -1   -1    0    0    0  501  0.00000000000E+00  0.00000000000E+00 -0.16843349389E+03  0.16843349396E+03  0.50400001928E-02 0.  1.
    10030    2    1    2    0    0  0.00000000000E+00  0.00000000000E+00  0.20106883964E+03  0.53793582752E+03  0.49894516358E+03 0.  0.
        2    1    3    3  502    0 -0.14211820743E+03 -0.12398191628E+03 -0.75528763186E+02  0.20315928363E+03  0.25500000920E-02 0.  1.
       -2    1    3    3    0  502  0.14211820743E+03  0.12398191628E+03  0.27659760282E+03  0.33477654390E+03  0.25500000920E-02 0. -1.
</event>
<event>
 5   0  0.1231822E-01  0.4980017E+03  0.7818609E-02  0.1014302E+00
       -2   -1    0    0    0  501  0.00000000000E+00  0.00000000000E+00  0.21670933925E+03  0.21670933926E+03  0.25500000920E-02 0. -1.
        2   -1    0    0  501    0  0.00000000000E+00  0.00000000000E+00 -0.28610407046E+03  0.28610407047E+03  0.25500000920E-02 0.  1.
    10030    2    1    2    0    0  0.00000000000E+00  0.00000000000E+00 -0.69394731212E+02  0.50281340973E+03  0.49800170309E+03 0.  0.
        1    1    3    3  502    0 -0.77836292907E+02  0.10084589137E+03  0.18131614264E+03  0.22159405657E+03  0.50400001928E-02 0. -1.
       -1    1    3    3    0  502  0.77836292907E+02 -0.10084589137E+03 -0.25071087385E+03  0.28121935316E+03  0.50400001928E-02 0.  1.
</event>
<event>
 5   0  0.1211345E-01  0.4986273E+03  0.7818609E-02  0.1014138E+00
       -2   -1    0    0    0  501  0.00000000000E+00  0.00000000000E+00  0.80797636329E+02  0.80797636369E+02  0.25500000920E-02 0.  1.
        2   -1    0    0  501    0  0.00000000000E+00  0.00000000000E+00 -0.76929604027E+03  0.76929604027E+03  0.25500000920E-02 0. -1.
    10030    2    1    2    0    0  0.00000000000E+00  0.00000000000E+00 -0.68849840394E+03  0.85009367664E+03  0.49862732259E+03 0.  0.
        5    1    3    3  502    0 -0.29299635022E+02  0.99768541524E+02 -0.73047977746E+03  0.73785840495E+03  0.46999998093E+01 0. -1.
       -5    1    3    3    0  502  0.29299635022E+02 -0.99768541524E+02  0.41981373517E+02  0.11223527169E+03  0.46999998093E+01 0.  1.
</event>
<event>
 5   0  0.7531632E-02  0.4739516E+03  0.7818609E-02  0.1020811E+00
       -1   -1    0    0    0  501  0.00000000000E+00  0.00000000000E+00  0.79167906195E+02  0.79167906355E+02  0.50400001928E-02 0. -1.
        1   -1    0    0  501    0  0.00000000000E+00  0.00000000000E+00 -0.70934722156E+03  0.70934722158E+03  0.50400001928E-02 0.  1.
    10030    2    1    2    0    0  0.00000000000E+00  0.00000000000E+00 -0.63017931536E+03  0.78851512793E+03  0.47395161933E+03 0.  0.
        3    1    3    3  502    0  0.44392850778E+02  0.15512704504E+03 -0.60383886179E+03  0.62502520470E+03  0.10100000352E+00 0.  1.
       -3    1    3    3    0  502 -0.44392850778E+02 -0.15512704504E+03 -0.26340453572E+02  0.16348992323E+03  0.10100000352E+00 0. -1.
</event>
<event>
 5   0  0.1243803E-01  0.4861067E+03  0.7818609E-02  0.1017470E+00
       -2   -1    0    0    0  501  0.00000000000E+00  0.00000000000E+00  0.26927560128E+03  0.26927560129E+03  0.25500000920E-02 0.  1.
        2   -1    0    0  501    0  0.00000000000E+00  0.00000000000E+00 -0.21938466935E+03  0.21938466936E+03  0.25500000920E-02 0. -1.
    10030    2    1    2    0    0  0.00000000000E+00  0.00000000000E+00  0.49890931929E+02  0.48866027065E+03  0.48610673213E+03 0.  0.
        4    1    3    3  502    0  0.40902902552E+02 -0.19491429889E+03  0.16499238456E+03  0.25862855839E+03  0.12699999809E+01 0.  1.
       -4    1    3    3    0  502 -0.40902902552E+02  0.19491429889E+03 -0.11510145264E+03  0.23003171226E+03  0.12699999809E+01 0. -1.
</event>
<event>
 5   0  0.7812547E-02  0.4704061E+03  0.7818609E-02  0.1021806E+00
        1   -1    0    0  501    0  0.00000000000E+00  0.00000000000E+00  0.28003772638E+03  0.28003772642E+03  0.50400001928E-02 0. -1.
       -1   -1    0    0    0  501  0.00000000000E+00  0.00000000000E+00 -0.19754652789E+03  0.19754652795E+03  0.50400001928E-02 0.  1.
    10030    2    1    2    0    0  0.00000000000E+00  0.00000000000E+00  0.82491198487E+02  0.47758425437E+03  0.47040612475E+03 0.  0.
        4    1    3    3  502    0  0.12770157787E+03  0.65173875649E+02  0.23054055153E+03  0.27148827941E+03  0.12699999809E+01 0. -1.
       -4    1    3    3    0  502 -0.12770157787E+03 -0.65173875649E+02 -0.14804935305E+03  0.20609597496E+03  0.12699999809E+01 0.  1.
</event>
<event>
 5   0  0.7602288E-02  0.5405174E+03  0.7818609E-02  0.1003713E+00
        1   -1    0    0  501    0  0.00000000000E+00  0.00000000000E+00  0.94059384792E+02  0.94059384927E+02  0.50400001928E-02 0. -1.
       -1   -1    0    0    0  501  0.00000000000E+00  0.00000000000E+00 -0.77652822420E+03  0.77652822422E+03  0.50400001928E-02 0.  1.
    10030    2    1    2    0    0  0.00000000000E+00  0.00000000000E+00 -0.68246883941E+03  0.87058760915E+03  0.54051740808E+03 0.  0.
        5    1    3    3  502    0  0.20018366230E+02  0.26804073738E+03 -0.38596037444E+03  0.47035526203E+03  0.46999998093E+01 0. -1.
       -5    1    3    3    0  502 -0.20018366230E+02 -0.26804073738E+03 -0.29650846497E+03  0.40023234712E+03  0.46999998093E+01 0.  1.
</event>
<event>
 5   0  0.7781754E-02  0.4980439E+03  0.7818609E-02  0.1014291E+00
        1   -1    0    0  501    0  0.00000000000E+00  0.00000000000E+00  0.13000194948E+03  0.13000194958E+03  0.50400001928E-02 0. -1.
       -1   -1    0    0    0  501  0.00000000000E+00  0.00000000000E+00 -0.47700765749E+03  0.47700765751E+03  0.50400001928E-02 0.  1.
    10030    2    1    2    0    0  0.00000000000E+00  0.00000000000E+00 -0.34700570800E+03  0.60700960709E+03  0.49804387529E+03 0.  0.
        2    1    3    3  502    0 -0.22771594316E+03 -0.59427626234E+02 -0.27271044182E+03  0.36021823748E+03  0.25500000920E-02 0. -1.
       -2    1    3    3    0  502  0.22771594316E+03  0.59427626234E+02 -0.74295266186E+02  0.24679136961E+03  0.25500000920E-02 0.  1.
</event>
<event>
 5   0  0.7781754E-02  0.4892056E+03  0.7818609E-02  0.1016635E+00
        1   -1    0    0  501    0  0.00000000000E+00  0.00000000000E+00  0.60103452528E+03  0.60103452530E+03  0.50400001928E-02 0. -1.
       -1   -1    0    0    0  501  0.00000000000E+00  0.00000000000E+00 -0.99545920308E+02  0.99545920436E+02  0.50400001928E-02 0.  1.
    10030    2    1    2    0    0  0.00000000000E+00  0.00000000000E+00  0.50148860497E+03  0.70058044573E+03  0.48920562142E+03 0.  0.
        2    1    3    3  502    0 -0.62894666302E+02  0.23617183353E+03  0.26489660677E+03  0.36042070735E+03  0.25500000920E-02 0.  1.
       -2    1    3    3    0  502  0.62894666302E+02 -0.23617183353E+03  0.23659199820E+03  0.34015973839E+03  0.25500000920E-02 0. -1.
</event>
<event>
 5   0  0.7602288E-02  0.5001840E+03  0.7818609E-02  0.1013731E+00
        1   -1    0    0  501    0  0.00000000000E+00  0.00000000000E+00  0.73715503536E+02  0.73715503708E+02  0.50400001928E-02 0.  1.
       -1   -1    0    0    0  501  0.00000000000E+00  0.00000000000E+00 -0.84847829483E+03  0.84847829484E+03  0.50400001928E-02 0. -1.
    10030    2    1    2    0    0  0.00000000000E+00  0.00000000000E+00 -0.77476279129E+03  0.92219379855E+03  0.50018398547E+03 0.  0.
        5    1    3    3  502    0  0.72572680681E+02  0.12029020421E+02 -0.82799480438E+03  0.83126949745E+03  0.46999998093E+01 0. -1.
       -5    1    3    3    0  502 -0.72572680681E+02 -0.12029020421E+02  0.53232013093E+02  0.90924301095E+02  0.46999998093E+01 0.  1.
</event>
<event>
 5   0  0.7602288E-02  0.4989977E+03  0.7818609E-02  0.1014041E+00
       -1   -1    0    0    0  501  0.00000000000E+00  0.00000000000E+00  0.57253255258E+02  0.57253255480E+02  0.50400001928E-02 0. -1.
        1   -1    0    0  501    0  0.00000000000E+00  0.00000000000E+00 -0.10872685699E+04  0.10872685700E+04  0.50400001928E-02 0.  1.
    10030    2    1    2    0    0  0.00000000000E+00  0.00000000000E+00 -0.10300153147E+04  0.11445218254E+04  0.49899765572E+03 0.  0.
        5    1    3    3  502    0  0.34124521001E+01  0.69877753696E+02  0.34189170467E+02  0.78009836985E+02  0.46999998093E+01 0. -1.
       -5    1    3    3    0  502 -0.34124521001E+01 -0.69877753696E+02 -0.10642044852E+04  0.10665119885E+04  0.46999998093E+01 0.  1.
</event>
<event>
 5   0  0.7781754E-02  0.5031858E+03  0.7818609E-02  0.1012951E+00
       -1   -1    0    0    0  501  0.00000000000E+00  0.00000000000E+00  0.16510373466E+03  0.16510373473E+03  0.50400001928E-02 0.  1.
        1   -1    0    0  501    0  0.00000000000E+00  0.00000000000E+00 -0.38338917569E+03  0.38338917573E+03  0.50400001928E-02 0. -1.
    10030    2    1    2    0    0  0.00000000000E+00  0.00000000000E+00 -0.21828544104E+03  0.54849291046E+03  0.50318578980E+03 0.  0.
        2    1    3    3  502    0  0.52221300900E+02  0.24572738368E+03 -0.12416684071E+03  0.28022565139E+03  0.25500000920E-02 0.  1.
       -2    1    3    3    0  502 -0.52221300900E+02 -0.24572738368E+03 -0.94118600323E+02  0.26826725907E+03  0.25500000920E-02 0. -1.
</event>
<event>
 5   0  0.5006750E-02  0.4909392E+03  0.7818609E-02  0.1016171E+00
       -4   -1    0    0    0  501  0.00000000000E+00  0.00000000000E+00  0.26590850870E+03  0.26591154149E+03  0.12699999809E+01 0. -1.
        4   -1    0    0  501    0  0.00000000000E+00  0.00000000000E+00 -0.22659557301E+03  0.22659913197E+03  0.12699999809E+01 0.  1.
    10030    2    1    2    0    0  0.00000000000E+00  0.00000000000E+00  0.39312935687E+02  0.49251067346E+03  0.49093915769E+03 0.  0.
        3    1    3    3  502    0  0.13516259458E+03  0.14532112855E+03 -0.12526406184E+03  0.23468756415E+03  0.10100000352E+00 0.  1.
       -3    1    3    3    0  502 -0.13516259458E+03 -0.14532112855E+03  0.16457699753E+03  0.25782310931E+03  0.10100000352E+00 0. -1.
</event>
<event>
 5   0  0.5006750E-02  0.5238352E+03  0.7818609E-02  0.1007738E+00
       -3   -1    0    0    0  501  0.00000000000E+00  0.00000000000E+00  0.22753000802E+03  0.22753003044E+03  0.10100000352E+00 0. -1.
        3   -1    0    0  501    0  0.00000000000E+00  0.00000000000E+00 -0.30150225442E+03  0.30150227134E+03  0.10100000352E+00 0.  1.
    10030    2    1    2    0    0  0.00000000000E+00  0.00000000000E+00 -0.73972246399E+02  0.52903230178E+03  0.52383516786E+03 0.  0.
        3    1    3    3  502    0  0.16838894156E+03  0.19899577111E+03 -0.62667888290E+02  0.26810711849E+03  0.10100000352E+00 0. -1.
       -3    1    3    3    0  502 -0.16838894156E+03 -0.19899577111E+03 -0.11304358109E+02  0.26092518329E+03  0.10100000352E+00 0.  1.
</event>
<event>
 5   0  0.5006750E-02  0.5073369E+03  0.7818609E-02  0.1011881E+00
       -4   -1    0    0    0  501  0.00000000000E+00  0.00000000000E+00  0.16642312528E+03  0.16642797099E+03  0.12699999809E+01 0.  1.
        4   -1    0    0  501    0  0.00000000000E+00  0.00000000000E+00 -0.38663957219E+03  0.38664165798E+03  0.12699999809E+01 0. -1.
    10030    2    1    2    0    0  0.00000000000E+00  0.00000000000E+00 -0.22021644692E+03  0.55306962897E+03  0.50733690088E+03 0.  0.
        2    1    3    3  502    0 -0.12557324652E+03  0.19354354439E+03 -0.22506499533E+03  0.32230730049E+03  0.25500000920E-02 0. -1.
       -2    1    3    3    0  502  0.12557324652E+03 -0.19354354439E+03  0.48485484119E+01  0.23076232848E+03  0.25500000920E-02 0.  1.
</event>
<event>
 5   0  0.1231822E-01  0.5050668E+03  0.7818609E-02  0.1012465E+00
        2   -1    0    0  501    0  0.00000000000E+00  0.00000000000E+00  0.55808036369E+03  0.55808036369E+03  0.25500000920E-02 0.  1.
       -2   -1    0    0    0  501  0.00000000000E+00  0.00000000000E+00 -0.11427227055E+03  0.11427227058E+03  0.25500000920E-02 0. -1.
    10030    2    1    2    0    0  0.00000000000E+00  0.00000000000E+00  0.44380809313E+03  0.67235263427E+03  0.50506676913E+03 0.  0.
        1    1    3    3  502    0 -0.18305539595E+02 -0.44135446441E+02 -0.10819999712E+03  0.11828047097E+03  0.50400001928E-02 0. -1.
       -1    1    3    3    0  502  0.18305539595E+02  0.44135446441E+02  0.55200809025E+03  0.55407216330E+03  0.50400001928E-02 0.  1.
</event>
<event>
 5   0  0.7602288E-02  0.5009099E+03  0.7818609E-02  0.1013542E+00
       -1   -1    0    0    0  501  0.00000000000E+00  0.00000000000E+00  0.19349547994E+03  0.19349548000E+03  0.50400001928E-02 0. -1.
        1   -1    0    0  501    0  0.00000000000E+00  0.00000000000E+00 -0.32418167852E+03  0.32418167856E+03  0.50400001928E-02 0.  1.
    10030    2    1    2    0    0  0.00000000000E+00  0.00000000000E+00 -0.13068619859E+03  0.51767715856E+03  0.50090993002E+03 0.  0.
        5    1    3    3  502    0 -0.74568292309E+02 -0.15447257509E+03 -0.25388729063E+03  0.30643605045E+03  0.46999998093E+01 0.  1.
       -5    1    3    3    0  502  0.74568292309E+02  0.15447257509E+03  0.12320109205E+03  0.21124110811E+03  0.46999998093E+01 0. -1.
</event>
<event>
 5   0  0.7781754E-02  0.5005699E+03  0.7818609E-02  0.1013630E+00
       -1   -1    0    0    0  501  0.00000000000E+00  0.00000000000E+00  0.10155323915E+03  0.10155323928E+03  0.50400001928E-02 0. -1.
        1   -1    0    0  501    0  0.00000000000E+00  0.00000000000E+00 -0.61684457705E+03  0.61684457707E+03  0.50400001928E-02 0.  1.
    10030    2    1    2    0    0  0.00000000000E+00  0.00000000000E+00 -0.51529133790E+03  0.71839781635E+03  0.50056993479E+03 0.  0.
        2    1    3    3  502    0 -0.38627383129E+02 -0.49927989475E+02  0.89940674985E+02  0.10988268236E+03  0.25500000920E-02 0. -1.
       -2    1    3    3    0  502  0.38627383129E+02  0.49927989475E+02 -0.60523201288E+03  0.60851513398E+03  0.25500000920E-02 0.  1.
</event>
<event>
 5   0  0.7416638E-02  0.4964034E+03  0.7818609E-02  0.1014722E+00
       -1   -1    0    0    0  501  0.00000000000E+00  0.00000000000E+00  0.10516357878E+03  0.10516357890E+03  0.50400001928E-02 0. -1.
        1   -1    0    0  501    0  0.00000000000E+00  0.00000000000E+00 -0.58579300632E+03  0.58579300634E+03  0.50400001928E-02 0.  1.
    10030    2    1    2    0    0  0.00000000000E+00  0.00000000000E+00 -0.48062942754E+03  0.69095658524E+03  0.49640342068E+03 0.  0.
        1    1    3    3  502    0  0.16915056489E+03  0.16196201378E+03 -0.35476181799E+03  0.42508770276E+03  0.50400001928E-02 0.  1.
       -1    1    3    3    0  502 -0.16915056489E+03 -0.16196201378E+03 -0.12586760955E+03  0.26586888247E+03  0.50400001928E-02 0. -1.
</event>
<event>
 5   0  0.1211345E-01  0.4901537E+03  0.7818609E-02  0.1016381E+00
        2   -1    0    0  501    0  0.00000000000E+00  0.00000000000E+00  0.86265896436E+03  0.86265896436E+03  0.25500000920E-02 0.  1.
       -2   -1    0    0    0  501  0.00000000000E+00  0.00000000000E+00 -0.69625032852E+02  0.69625032899E+02  0.25500000920E-02 0. -1.
    10030    2    1    2    0    0  0.00000000000E+00  0.00000000000E+00  0.79303393151E+03  0.93228399726E+03  0.49015368511E+03 0.  0.
        5    1    3    3  502    0 -0.10926136139E+03  0.21819869210E+03  0.35433427753E+03  0.43025990350E+03  0.46999998093E+01 0.  1.
       -5    1    3    3    0  502  0.10926136139E+03 -0.21819869210E+03  0.43869965397E+03  0.50202409376E+03  0.46999998093E+01 0. -1.
</event>
<event>
 5   0  0.1211345E-01  0.4957931E+03  0.7818609E-02  0.1014883E+00
        2   -1    0    0  501    0  0.00000000000E+00  0.00000000000E+00  0.33866544003E+03  0.33866544004E+03  0.25500000920E-02 0.  1.
       -2   -1    0    0    0  501  0.00000000000E+00  0.00000000000E+00 -0.18145546204E+03  0.18145546206E+03  0.25500000920E-02 0. -1.
    10030    2    1    2    0    0  0.00000000000E+00  0.00000000000E+00  0.15720997799E+03  0.52012090210E+03  0.49579307742E+03 0.  0.
        5    1    3    3  502    0  0.12658026873E+03 -0.15375726615E+03 -0.76169924211E+02  0.21327871126E+03  0.46999998093E+01 0.  1.
       -5    1    3    3    0  502 -0.12658026873E+03  0.15375726615E+03  0.23337990220E+03  0.30684219083E+03  0.46999998093E+01 0. -1.
</event>
<event>
 5   0  0.1243803E-01  0.5009763E+03  0.7818609E-02  0.1013524E+00
        2   -1    0    0  501    0  0.00000000000E+00  0.00000000000E+00  0.17694481448E+04  0.17694481448E+04  0.25500000920E-02 0. -1.
       -2   -1    0    0    0  501  0.00000000000E+00  0.00000000000E+00 -0.35459826691E+02  0.35459826783E+02  0.25500000920E-02 0.  1.
    10030    2    1    2    0    0  0.00000000000E+00  0.00000000000E+00  0.17339883181E+04  0.18049079716E+04  0.50097634530E+03 0.  0.
        4    1    3    3  502    0  0.17170921991E+03 -0.99579492315E+02  0.14174370576E+04  0.14312685131E+04  0.12699999809E+01 0. -1.
       -4    1    3    3    0  502 -0.17170921991E+03  0.99579492315E+02  0.31655126052E+03  0.37363945847E+03  0.12699999809E+01 0.  1.
</event>
<event>
 5   0  0.7602288E-02  0.5024515E+03  0.7818609E-02  0.1013141E+00
       -1   -1    0    0    0  501  0.00000000000E+00  0.00000000000E+00  0.76916892312E+03  0.76916892314E+03  0.50400001928E-02 0.  1.
        1   -1    0    0  501    0  0.00000000000E+00  0.00000000000E+00 -0.82055284796E+02  0.82055284951E+02  0.50400001928E-02 0. -1.
    10030    2    1    2    0    0  0.00000000000E+00  0.00000000000E+00  0.68711363833E+03  0.85122420809E+03  0.50245149066E+03 0.  0.
        5    1    3    3  502    0 -0.11121339957E+03 -0.12399098119E+03  0.25030620008E+02  0.16849571388E+03  0.46999998093E+01 0. -1.
       -5    1    3    3    0  502  0.11121339957E+03  0.12399098119E+03  0.66208301832E+03  0.68272849421E+03  0.46999998093E+01 0.  1.
</event>
<event>
 5   0  0.1279188E-01  0.4990625E+03  0.7818609E-02  0.1014024E+00
       -2   -1    0    0    0  501  0.00000000000E+00  0.00000000000E+00  0.25121001282E+03  0.25121001283E+03  0.25500000920E-02 0.  1.
        2   -1    0    0  501    0  0.00000000000E+00  0.00000000000E+00 -0.24786372141E+03  0.24786372143E+03  0.25500000920E-02 0. -1.
    10030    2    1    2    0    0  0.00000000000E+00  0.00000000000E+00  0.33462914053E+01  0.49907373426E+03  0.49906251568E+03 0.  0.
        2    1    3    3  502    0  0.33939627663E+02 -0.24665694564E+03 -0.14889275922E+02  0.24942581603E+03  0.25500000920E-02 0.  1.
       -2    1    3    3    0  502 -0.33939627663E+02  0.24665694564E+03  0.18235567328E+02  0.24964791823E+03  0.25500000920E-02 0. -1.
</event>
<event>
 5   0  0.7781754E-02  0.4818799E+03  0.7818609E-02  0.1018620E+00
       -1   -1    0    0    0  501  0.00000000000E+00  0.00000000000E+00  0.44196552749E+02  0.44196553036E+02  0.50400001928E-02 0. -1.
        1   -1    0    0  501    0  0.00000000000E+00  0.00000000000E+00 -0.13134974688E+04  0.13134974688E+04  0.50400001928E-02 0.  1.
    10030    2    1    2    0    0  0.00000000000E+00  0.00000000000E+00 -0.12693009160E+04  0.13576940218E+04  0.48187990357E+03 0.  0.
        2    1    3    3  502    0 -0.47722842825E+02  0.12103761159E+03 -0.12060150705E+04  0.12130127466E+04  0.25500000920E-02 0.  1.
       -2    1    3    3    0  502  0.47722842825E+02 -0.12103761159E+03 -0.63285845516E+02  0.14468127521E+03  0.25500000920E-02 0. -1.
</event>
<event>
 5   0  0.1279188E-01  0.4978872E+03  0.7818609E-02  0.1014332E+00
       -2   -1    0    0    0  501  0.00000000000E+00  0.00000000000E+00  0.32094272945E+02  0.32094273047E+02  0.25500000920E-02 0.  1.
        2   -1    0    0  501    0  0.00000000000E+00  0.00000000000E+00 -0.19309648531E+04  0.19309648531E+04  0.25500000920E-02 0. -1.
    10030    2    1    2    0    0  0.00000000000E+00  0.00000000000E+00 -0.18988705802E+04  0.19630591262E+04  0.49788718860E+03 0.  0.
        2    1    3    3  502    0 -0.13160299198E+03 -0.11902619746E+03 -0.26101287585E+03  0.31561733879E+03  0.25500000920E-02 0.  1.
       -2    1    3    3    0  502  0.13160299198E+03  0.11902619746E+03 -0.16378577043E+04  0.16474417874E+04  0.25500000920E-02 0. -1.
</event>
<event>
 5   0  0.7602288E-02  0.5235230E+03  0.7818609E-02  0.1007815E+00
        1   -1    0    0  501    0  0.00000000000E+00  0.00000000000E+00  0.61785475081E+03  0.61785475083E+03  0.50400001928E-02 0. -1.
       -1   -1    0    0    0  501  0.00000000000E+00  0.00000000000E+00 -0.11089834854E+03  0.11089834866E+03  0.50400001928E-02 0.  1.
    10030    2    1    2    0    0  0.00000000000E+00  0.00000000000E+00  0.50695640227E+03  0.72875309949E+03  0.52352295673E+03 0.  0.
        5    1    3    3  502    0  0.24052206550E+03  0.75437437789E+02  0.35146783222E+03  0.43254294364E+03  0.46999998093E+01 0. -1.
       -5    1    3    3    0  502 -0.24052206550E+03 -0.75437437789E+02  0.15548857005E+03  0.29621015585E+03  0.46999998093E+01 0.  1.
</event>
<event>
 5   0  0.1243803E-01  0.4774813E+03  0.7818609E-02  0.1019830E+00
        2   -1    0    0  501    0  0.00000000000E+00  0.00000000000E+00  0.12082050482E+03  0.12082050485E+03  0.25500000920E-02 0. -1.
       -2   -1    0    0    0  501  0.00000000000E+00  0.00000000000E+00 -0.47175011159E+03  0.47175011160E+03  0.25500000920E-02 0.  1.
    10030    2    1    2    0    0  0.00000000000E+00  0.00000000000E+00 -0.35092960677E+03  0.59257061645E+03  0.47748125259E+03 0.  0.
        4    1    3    3  502    0 -0.34896338052E+02 -0.29014111984E+02  0.11541389117E+03  0.12402238620E+03  0.12699999809E+01 0. -1.
       -4    1    3    3    0  502  0.34896338052E+02  0.29014111984E+02 -0.46634349794E+03  0.46854823025E+03  0.12699999809E+01 0.  1.
</event>
<event>
 5   0  0.7416638E-02  0.4848346E+03  0.7818609E-02  0.1017815E+00
       -1   -1    0    0    0  501  0.00000000000E+00  0.00000000000E+00  0.14491205135E+03  0.14491205144E+03  0.50400001928E-02 0. -1.
        1   -1    0    0  501    0  0.00000000000E+00  0.00000000000E+00 -0.40552979428E+03  0.40552979431E+03  0.50400001928E-02 0.  1.
    10030    2    1    2    0    0  0.00000000000E+00  0.00000000000E+00 -0.26061774293E+03  0.55044184575E+03  0.48483462915E+03 0.  0.
        1    1    3    3  502    0 -0.16659753204E+03 -0.48221643788E+01  0.69546456071E+02  0.18059540562E+03  0.50400001928E-02 0. -1.
       -1    1    3    3    0  502  0.16659753204E+03  0.48221643788E+01 -0.33016419900E+03  0.36984644014E+03  0.50400001928E-02 0.  1.
</event>
<event>
 5   0  0.7602288E-02  0.4585399E+03  0.7818609E-02  0.1025206E+00
        1   -1    0    0  501    0  0.00000000000E+00  0.00000000000E+00  0.24453485399E+03  0.24453485404E+03  0.50400001928E-02 0. -1.
       -1   -1    0    0    0  501  0.00000000000E+00  0.00000000000E+00 -0.21495795957E+03  0.21495795963E+03  0.50400001928E-02 0.  1.
    10030    2    1    2    0    0  0.00000000000E+00  0.00000000000E+00  0.29576894422E+02  0.45949281367E+03  0.45853991444E+03 0.  0.
        5    1    3    3  502    0  0.12997852112E+03  0.18775261331E+03 -0.51819294751E+01  0.22846094229E+03  0.46999998093E+01 0.  1.
       -5    1    3    3    0  502 -0.12997852112E+03 -0.18775261331E+03  0.34758823898E+02  0.23103187139E+03  0.46999998093E+01 0. -1.
</event>
<event>
 5   0  0.7812547E-02  0.4996551E+03  0.7818609E-02  0.1013869E+00
       -1   -1    0    0    0  501  0.00000000000E+00  0.00000000000E+00  0.36789200326E+03  0.36789200329E+03  0.50400001928E-02 0. -1.
        1   -1    0    0  501    0  0.00000000000E+00  0.00000000000E+00 -0.16965249846E+03  0.16965249854E+03  0.50400001928E-02 0.  1.
    10030    2    1    2    0    0  0.00000000000E+00  0.00000000000E+00  0.19823950479E+03  0.53754450183E+03  0.49965507121E+03 0.  0.
        4    1    3    3  502    0  0.11437671475E+03 -0.47150811158E+02  0.33261961557E+03  0.35488399996E+03  0.12699999809E+01 0. -1.
       -4    1    3    3    0  502 -0.11437671475E+03  0.47150811158E+02 -0.13438011077E+03  0.18266050186E+03  0.12699999809E+01 0.  1.
</event>
<event>
 5   0  0.1279188E-01  0.5014862E+03  0.7818609E-02  0.1013392E+00
       -2   -1    0    0    0  501  0.00000000000E+00  0.00000000000E+00  0.46888868575E+02  0.46888868644E+02  0.25500000920E-02 0. -1.
        2   -1    0    0  501    0  0.00000000000E+00  0.00000000000E+00 -0.13408747761E+04  0.13408747761E+04  0.25500000920E-02 0.  1.
    10030    2    1    2    0    0  0.00000000000E+00  0.00000000000E+00 -0.12939859075E+04  0.13877636447E+04  0.50148619602E+03 0.  0.
        2    1    3    3  502    0  0.29810829187E+02  0.52933690191E+02 -0.13202009836E+04  0.13215980093E+04  0.25500000920E-02 0.  1.
       -2    1    3    3    0  502 -0.29810829187E+02 -0.52933690191E+02  0.26215076070E+02  0.66165635446E+02  0.25500000920E-02 0. -1.
</event>
<event>
 5   0  0.1191894E-01  0.5095561E+03  0.7818609E-02  0.1011314E+00
       -2   -1    0    0    0  501  0.00000000000E+00  0.00000000000E+00  0.10878470700E+03  0.10878470703E+03  0.25500000920E-02 0.  1.
        2   -1    0    0  501    0  0.00000000000E+00  0.00000000000E+00 -0.59670007969E+03  0.59670007969E+03  0.25500000920E-02 0. -1.
    10030    2    1    2    0    0  0.00000000000E+00  0.00000000000E+00 -0.48791537269E+03  0.70548478673E+03  0.50955605521E+03 0.  0.
        3    1    3    3  502    0 -0.48150199246E+02  0.14885232915E+01  0.10242186154E+03  0.11318526985E+03  0.10100000352E+00 0.  1.
       -3    1    3    3    0  502  0.48150199246E+02 -0.14885232915E+01 -0.59033723422E+03  0.59229951688E+03  0.10100000352E+00 0. -1.
</event>
<event>
 5   0  0.7531632E-02  0.5007119E+03  0.7818609E-02  0.1013593E+00
       -1   -1    0    0    0  501  0.00000000000E+00  0.00000000000E+00  0.38500881373E+02  0.38500881703E+02  0.50400001928E-02 0. -1.
        1   -1    0    0  501    0  0.00000000000E+00  0.00000000000E+00 -0.16279651630E+04  0.16279651630E+04  0.50400001928E-02 0.  1.
    10030    2    1    2    0    0  0.00000000000E+00  0.00000000000E+00 -0.15894642816E+04  0.16664660447E+04  0.50071186884E+03 0.  0.
        3    1    3    3  502    0  0.90118411280E+02 -0.89854917272E+02 -0.77177537830E+02  0.14883419216E+03  0.10100000352E+00 0. -1.
       -3    1    3    3    0  502 -0.90118411280E+02  0.89854917272E+02 -0.15122867438E+04  0.15176318525E+04  0.10100000352E+00 0.  1.
</event>
<event>
 5   0  0.1211345E-01  0.5012782E+03  0.7818609E-02  0.1013446E+00
        2   -1    0    0  501    0  0.00000000000E+00  0.00000000000E+00  0.43499154769E+03  0.43499154770E+03  0.25500000920E-02 0.  1.
       -2   -1    0    0    0  501  0.00000000000E+00  0.00000000000E+00 -0.14441649158E+03  0.14441649160E+03  0.25500000920E-02 0. -1.
    10030    2    1    2    0    0  0.00000000000E+00  0.00000000000E+00  0.29057505611E+03  0.57940803930E+03  0.50127817904E+03 0.  0.
        5    1    3    3  502    0  0.13580692937E+03  0.52134253013E+01 -0.98067697930E+02  0.16766056556E+03  0.46999998093E+01 0. -1.
       -5    1    3    3    0  502 -0.13580692937E+03 -0.52134253013E+01  0.38864275404E+03  0.41174747374E+03  0.46999998093E+01 0.  1.
</event>
<event>
 5   0  0.1211345E-01  0.5002493E+03  0.7818609E-02  0.1013714E+00
        2   -1    0    0  501    0  0.00000000000E+00  0.00000000000E+00  0.50728369271E+03  0.50728369272E+03  0.25500000920E-02 0. -1.
       -2   -1    0    0    0  501  0.00000000000E+00  0.00000000000E+00 -0.12332811290E+03  0.12332811293E+03  0.25500000920E-02 0.  1.
    10030    2    1    2    0    0  0.00000000000E+00  0.00000000000E+00  0.38395557981E+03  0.63061180565E+03  0.50024930001E+03 0.  0.
        5    1    3    3  502    0  0.14559952208E+03  0.24440010029E+01 -0.64314107001E+02  0.15925949996E+03  0.46999998093E+01 0.  1.
       -5    1    3    3    0  502 -0.14559952208E+03 -0.24440010029E+01  0.44826968681E+03  0.47135230569E+03  0.46999998093E+01 0. -1.
</event>
<event>
 5   0  0.1211345E-01  0.4989726E+03  0.7818609E-02  0.1014047E+00
       -2   -1    0    0    0  501  0.00000000000E+00  0.00000000000E+00  0.14170968590E+03  0.14170968592E+03  0.25500000920E-02 0.  1.
        2   -1    0    0  501    0  0.00000000000E+00  0.00000000000E+00 -0.43923194591E+03  0.43923194591E+03  0.25500000920E-02 0. -1.
    10030    2    1    2    0    0  0.00000000000E+00  0.00000000000E+00 -0.29752226001E+03  0.58094163184E+03  0.49897262891E+03 0.  0.
        5    1    3    3  502    0  0.63946083227E+01  0.99451276498E+02 -0.41499580304E+03  0.42681969724E+03  0.46999998093E+01 0. -1.
       -5    1    3    3    0  502 -0.63946083227E+01 -0.99451276498E+02  0.11747354303E+03  0.15412193460E+03  0.46999998093E+01 0.  1.
</event>
<event>
 5   0  0.7812547E-02  0.5002252E+03  0.7818609E-02  0.1013720E+00
        1   -1    0    0  501    0  0.00000000000E+00  0.00000000000E+00  0.22565420572E+03  0.22565420577E+03  0.50400001928E-02 0. -1.
       -1   -1    0    0    0  501  0.00000000000E+00  0.00000000000E+00 -0.27722197095E+03  0.27722197100E+03  0.50400001928E-02 0.  1.
    10030    2    1    2    0    0  0.00000000000E+00  0.00000000000E+00 -0.51567765236E+02  0.50287617677E+03  0.50022516405E+03 0.  0.
        4    1    3    3  502    0  0.20223680250E+01  0.24931824872E+03 -0.45662692824E+02  0.25347657393E+03  0.12699999809E+01 0.  1.
       -4    1    3    3    0  502 -0.20223680250E+01 -0.24931824872E+03 -0.59050724120E+01  0.24939960284E+03  0.12699999809E+01 0. -1.
</event>
<event>
 5   0  0.1243803E-01  0.5070650E+03  0.7818609E-02  0.1011951E+00
        2   -1    0    0  501    0  0.00000000000E+00  0.00000000000E+00  0.14835818641E+03  0.14835818644E+03  0.25500000920E-02 0. -1.
       -2   -1    0    0    0  501  0.00000000000E+00  0.00000000000E+00 -0.43326708557E+03  0.43326708558E+03  0.25500000920E-02 0.  1.
    10030    2    1    2    0    0  0.00000000000E+00  0.00000000000E+00 -0.28490889916E+03  0.58162527201E+03  0.50706496253E+03 0.  0.
        4    1    3    3  502    0  0.85260705973E+02  0.17517059509E+03  0.43645904574E+02  0.19965145443E+03  0.12699999809E+01 0. -1.
       -4    1    3    3    0  502 -0.85260705973E+02 -0.17517059509E+03 -0.32855480373E+03  0.38197381759E+03  0.12699999809E+01 0.  1.
</event>
<event>
 5   0  0.7812547E-02  0.5008492E+03  0.7818609E-02  0.1013557E+00
       -1   -1    0    0    0  501  0.00000000000E+00  0.00000000000E+00  0.62073875221E+02  0.62073875425E+02  0.50400001928E-02 0.  1.
        1   -1    0    0  501    0  0.00000000000E+00  0.00000000000E+00 -0.10102879866E+04  0.10102879867E+04  0.50400001928E-02 0. -1.
    10030    2    1    2    0    0  0.00000000000E+00  0.00000000000E+00 -0.94821411143E+03  0.10723618621E+04  0.50084924094E+03 0.  0.
        4    1    3    3  502    0  0.23074298775E+03 -0.88239971889E+02 -0.56192448488E+03  0.61383170221E+03  0.12699999809E+01 0. -1.
       -4    1    3    3    0  502 -0.23074298775E+03  0.88239971889E+02 -0.38628962655E+03  0.45853015987E+03  0.12699999809E+01 0.  1.
</event>
<event>
 5   0  0.5006750E-02  0.4979242E+03  0.7818609E-02  0.1014322E+00
       -3   -1    0    0    0  501  0.00000000000E+00  0.00000000000E+00  0.55612241277E+03  0.55612242194E+03  0.10100000352E+00 0.  1.
        3   -1    0    0  501    0  0.00000000000E+00  0.00000000000E+00 -0.11145407518E+03  0.11145412094E+03  0.10100000352E+00 0. -1.
    10030    2    1    2    0    0  0.00000000000E+00  0.00000000000E+00  0.44466833759E+03  0.66757654289E+03  0.49792420122E+03 0.  0.
        4    1    3    3  502    0 -0.18984057392E+03  0.16060876140E+03  0.20613991807E+03  0.32300138771E+03  0.12699999809E+01 0. -1.
       -4    1    3    3    0  502  0.18984057392E+03 -0.16060876140E+03  0.23852841952E+03  0.34457515518E+03  0.12699999809E+01 0.  1.
</event>
<event>
 5   0  0.7416638E-02  0.5005725E+03  0.7818609E-02  0.1013630E+00
        1   -1    0    0  501    0  0.00000000000E+00  0.00000000000E+00  0.82058079900E+03  0.82058079902E+03  0.50400001928E-02 0. -1.
       -1   -1    0    0    0  501  0.00000000000E+00  0.00000000000E+00 -0.76340075145E+02  0.76340075312E+02  0.50400001928E-02 0.  1.
    10030    2    1    2    0    0  0.00000000000E+00  0.00000000000E+00  0.74424072386E+03  0.89692087433E+03  0.50057247204E+03 0.  0.
        1    1    3    3  502    0  0.10986521195E+02 -0.62980165610E+02  0.80570396633E+03  0.80823640495E+03  0.50400001928E-02 0. -1.
       -1    1    3    3    0  502 -0.10986521195E+02  0.62980165610E+02 -0.61463242471E+02  0.88684469377E+02  0.50400001928E-02 0.  1.
</event>
<event>
 5   0  0.7781754E-02  0.4974972E+03  0.7818609E-02  0.1014434E+00
        1   -1    0    0  501    0  0.00000000000E+00  0.00000000000E+00  0.16893317821E+03  0.16893317828E+03  0.50400001928E-02 0.  1.
       -1   -1    0    0    0  501  0.00000000000E+00  0.00000000000E+00 -0.36627424437E+03  0.36627424441E+03  0.50400001928E-02 0. -1.
    10030    2    1    2    0    0  0.00000000000E+00  0.00000000000E+00 -0.19734106617E+03  0.53520742269E+03  0.49749722503E+03 0.  0.
        2    1    3    3  502    0  0.66620147316E+02  0.82315064358E+02 -0.34081359151E+03  0.35688642173E+03  0.25500000920E-02 0. -1.
       -2    1    3    3    0  502 -0.66620147316E+02 -0.82315064358E+02  0.14347252535E+03  0.17832100096E+03  0.25500000920E-02 0.  1.
</event>
<event>
 5   0  0.1243803E-01  0.4982475E+03  0.7818609E-02  0.1014237E+00
       -2   -1    0    0    0  501  0.00000000000E+00  0.00000000000E+00  0.90601052955E+02  0.90601052991E+02  0.25500000920E-02 0.  1.
        2   -1    0    0  501    0  0.00000000000E+00  0.00000000000E+00 -0.68501008008E+03  0.68501008008E+03  0.25500000920E-02 0. -1.
    10030    2    1    2    0    0  0.00000000000E+00  0.00000000000E+00 -0.59440902712E+03  0.77561113308E+03  0.49824746685E+03 0.  0.
        4    1    3    3  502    0  0.24443024164E+03  0.15351455499E+02 -0.22622250846E+03  0.33340672826E+03  0.12699999809E+01 0. -1.
       -4    1    3    3    0  502 -0.24443024164E+03 -0.15351455499E+02 -0.36818651867E+03  0.44220440482E+03  0.12699999809E+01 0.  1.
</event>
<event>
 5   0  0.7812547E-02  0.5282586E+03  0.7818609E-02  0.1006655E+00
        1   -1    0    0  501    0  0.00000000000E+00  0.00000000000E+00  0.20825656163E+03  0.20825656169E+03  0.50400001928E-02 0.  1.
       -1   -1    0    0    0  501  0.00000000000E+00  0.00000000000E+00 -0.33499201797E+03  0.33499201800E+03  0.50400001928E-02 0. -1.
    10030    2    1    2    0    0  0.00000000000E+00  0.00000000000E+00 -0.12673545634E+03  0.54324857969E+03  0.52825859524E+03 0.  0.
        4    1    3    3  502    0  0.16265495829E+03  0.20431567506E+03 -0.22735251823E+02  0.26214506500E+03  0.12699999809E+01 0.  1.
       -4    1    3    3    0  502 -0.16265495829E+03 -0.20431567506E+03 -0.10400020451E+03  0.28110351469E+03  0.12699999809E+01 0. -1.
</event>
<event>
 5   0  0.7416638E-02  0.5169291E+03  0.7818609E-02  0.1009452E+00
       -1   -1    0    0    0  501  0.00000000000E+00  0.00000000000E+00  0.32124968820E+03  0.32124968824E+03  0.50400001928E-02 0. -1.
        1   -1    0    0  501    0  0.00000000000E+00  0.00000000000E+00 -0.20795013053E+03  0.20795013059E+03  0.50400001928E-02 0.  1.
    10030    2    1    2    0    0  0.00000000000E+00  0.00000000000E+00  0.11329955768E+03  0.52919981883E+03  0.51692906523E+03 0.  0.
        1    1    3    3  502    0 -0.18500738088E+03 -0.11094232430E+03  0.20239489629E+03  0.29580335423E+03  0.50400001928E-02 0. -1.
       -1    1    3    3    0  502  0.18500738088E+03  0.11094232430E+03 -0.89095338617E+02  0.23339646460E+03  0.50400001928E-02 0.  1.
</event>
<event>
 5   0  0.1231822E-01  0.4999025E+03  0.7818609E-02  0.1013804E+00
       -2   -1    0    0    0  501  0.00000000000E+00  0.00000000000E+00  0.11054335073E+03  0.11054335076E+03  0.25500000920E-02 0. -1.
        2   -1    0    0  501    0  0.00000000000E+00  0.00000000000E+00 -0.56516850180E+03  0.56516850181E+03  0.25500000920E-02 0.  1.
    10030    2    1    2    0    0  0.00000000000E+00  0.00000000000E+00 -0.45462515107E+03  0.67571185257E+03  0.49990247021E+03 0.  0.
        1    1    3    3  502    0  0.26331253877E+02 -0.16767630007E+03 -0.47532766149E+03  0.50472275789E+03  0.50400001928E-02 0.  1.
       -1    1    3    3    0  502 -0.26331253877E+02  0.16767630007E+03  0.20702510421E+02  0.17098909468E+03  0.50400001928E-02 0. -1.
</event>
<event>
 5   0  0.5006750E-02  0.5003906E+03  0.7818609E-02  0.1013677E+00
        3   -1    0    0  501    0  0.00000000000E+00  0.00000000000E+00  0.24910194098E+03  0.24910196145E+03  0.10100000352E+00 0.  1.
       -3   -1    0    0    0  501  0.00000000000E+00  0.00000000000E+00 -0.25129340108E+03  0.25129342138E+03  0.10100000352E+00 0. -1.
    10030    2    1    2    0    0  0.00000000000E+00  0.00000000000E+00 -0.21914601060E+01  0.50039538283E+03  0.50039058411E+03 0.  0.
        3    1    3    3  502    0  0.24741186549E+03 -0.54746181196E+00 -0.38308222934E+02  0.25036066193E+03  0.10100000352E+00 0.  1.
       -3    1    3    3    0  502 -0.24741186549E+03  0.54746181196E+00  0.36116762828E+02  0.25003472090E+03  0.10100000352E+00 0. -1.
</event>
<event>
 5   0  0.1211345E-01  0.4888312E+03  0.7818609E-02  0.1016736E+00
       -2   -1    0    0    0  501  0.00000000000E+00  0.00000000000E+00  0.57693353554E+02  0.57693353610E+02  0.25500000920E-02 0.  1.
        2   -1    0    0  501    0  0.00000000000E+00  0.00000000000E+00 -0.10354570707E+04  0.10354570707E+04  0.25500000920E-02 0. -1.
    10030    2    1    2    0    0  0.00000000000E+00  0.00000000000E+00 -0.97776371717E+03  0.10931504243E+04  0.48883122201E+03 0.  0.
        5    1    3    3  502    0 -0.67659000437E+02  0.13441831510E+03 -0.58318149308E+02  0.16145934569E+03  0.46999998093E+01 0.  1.
       -5    1    3    3    0  502  0.67659000437E+02 -0.13441831510E+03 -0.91944556786E+03  0.93169107865E+03  0.46999998093E+01 0. -1.
</event>
<event>
 5   0  0.7812547E-02  0.5118263E+03  0.7818609E-02  0.1010737E+00
        1   -1    0    0  501    0  0.00000000000E+00  0.00000000000E+00  0.72383631432E+02  0.72383631607E+02  0.50400001928E-02 0. -1.
       -1   -1    0    0    0  501  0.00000000000E+00  0.00000000000E+00 -0.90478401207E+03  0.90478401208E+03  0.50400001928E-02 0.  1.
    10030    2    1    2    0    0  0.00000000000E+00  0.00000000000E+00 -0.83240038064E+03  0.97716764369E+03  0.51182634769E+03 0.  0.
        4    1    3    3  502    0  0.95841932224E+02  0.41936175951E+02 -0.86208880575E+03  0.86841409519E+03  0.12699999809E+01 0.  1.
       -4    1    3    3    0  502 -0.95841932224E+02 -0.41936175951E+02  0.29688425112E+02  0.10875354850E+03  0.12699999809E+01 0. -1.
</event>
<event>
 5   0  0.1243803E-01  0.5096611E+03  0.7818609E-02  0.1011288E+00
        2   -1    0    0  501    0  0.00000000000E+00  0.00000000000E+00  0.11503757877E+04  0.11503757877E+04  0.25500000920E-02 0. -1.
       -2   -1    0    0    0  501  0.00000000000E+00  0.00000000000E+00 -0.56449904461E+02  0.56449904518E+02  0.25500000920E-02 0.  1.
    10030    2    1    2    0    0  0.00000000000E+00  0.00000000000E+00  0.10939258832E+04  0.12068256922E+04  0.50966107698E+03 0.  0.
        4    1    3    3  502    0 -0.90375962597E+02  0.39053773503E+02 -0.95888099986E+01  0.98927094455E+02  0.12699999809E+01 0.  1.
       -4    1    3    3    0  502  0.90375962597E+02 -0.39053773503E+02  0.11035146932E+04  0.11078985978E+04  0.12699999809E+01 0. -1.
</event>
<event>
 5   0  0.1279188E-01  0.5008086E+03  0.7818609E-02  0.1013568E+00
        2   -1    0    0  501    0  0.00000000000E+00  0.00000000000E+00  0.16907426128E+04  0.16907426128E+04  0.25500000920E-02 0.  1.
       -2   -1    0    0    0  501  0.00000000000E+00  0.00000000000E+00 -0.37085670465E+02  0.37085670552E+02  0.25500000920E-02 0. -1.
    10030    2    1    2    0    0  0.00000000000E+00  0.00000000000E+00  0.16536569424E+04  0.17278282834E+04  0.50080863993E+03 0.  0.
        2    1    3    3  502    0  0.10754833199E+03 -0.22078570629E+03  0.65818528440E+03  0.70251038457E+03  0.25500000920E-02 0.  1.
       -2    1    3    3    0  502 -0.10754833199E+03  0.22078570629E+03  0.99547165797E+03  0.10253178988E+04  0.25500000920E-02 0. -1.
</event>
<event>
 5   0  0.7416638E-02  0.4971900E+03  0.7818609E-02  0.1014515E+00
       -1   -1    0    0    0  501  0.00000000000E+00  0.00000000000E+00  0.32899544151E+03  0.32899544155E+03  0.50400001928E-02 0.  1.
        1   -1    0    0  501    0  0.00000000000E+00  0.00000000000E+00 -0.18784298259E+03  0.18784298266E+03  0.50400001928E-02 0. -1.
    10030    2    1    2    0    0  0.00000000000E+00  0.00000000000E+00  0.14115245892E+03  0.51683842421E+03  0.49719004423E+03 0.  0.
        1    1    3    3  502    0 -0.10576639837E+03 -0.22486393760E+02  0.30326902674E+03  0.32196936428E+03  0.50400001928E-02 0.  1.
       -1    1    3    3    0  502  0.10576639837E+03  0.22486393760E+02 -0.16211656782E+03  0.19486905993E+03  0.50400001928E-02 0. -1.
</event>
<event>
 5   0  0.1279188E-01  0.5172916E+03  0.7818609E-02  0.1009362E+00
       -2   -1    0    0    0  501  0.00000000000E+00  0.00000000000E+00  0.14269500638E+03  0.14269500640E+03  0.25500000920E-02 0.  1.
        2   -1    0    0  501    0  0.00000000000E+00  0.00000000000E+00 -0.46881557355E+03  0.46881557355E+03  0.25500000920E-02 0. -1.
    10030    2    1    2    0    0  0.00000000000E+00  0.00000000000E+00 -0.32612056717E+03  0.61151057995E+03  0.51729156678E+03 0.  0.
        2    1    3    3  502    0  0.20308860656E+03 -0.15476803825E+03 -0.21179415175E+03  0.33174521925E+03  0.25500000920E-02 0.  1.
       -2    1    3    3    0  502 -0.20308860656E+03  0.15476803825E+03 -0.11432641542E+03  0.27976536070E+03  0.25500000920E-02 0. -1.
</event>
<event>
 5   0  0.7781754E-02  0.4465206E+03  0.7818609E-02  0.1028765E+00
       -1   -1    0    0    0  501  0.00000000000E+00  0.00000000000E+00  0.28041147379E+03  0.28041147384E+03  0.50400001928E-02 0.  1.
        1   -1    0    0  501    0  0.00000000000E+00  0.00000000000E+00 -0.17775721408E+03  0.17775721415E+03  0.50400001928E-02 0. -1.
    10030    2    1    2    0    0  0.00000000000E+00  0.00000000000E+00  0.10265425972E+03  0.45816868799E+03  0.44652060380E+03 0.  0.
        2    1    3    3  502    0  0.15505880418E+03  0.11398519486E+03  0.16745773402E+03  0.25510380258E+03  0.25500000920E-02 0.  1.
       -2    1    3    3    0  502 -0.15505880418E+03 -0.11398519486E+03 -0.64803474298E+02  0.20306488541E+03  0.25500000920E-02 0. -1.
</event>
<event>
 5   0  0.7812547E-02  0.4287794E+03  0.7818609E-02  0.1034246E+00
        1   -1    0    0  501    0  0.00000000000E+00  0.00000000000E+00  0.22519945002E+03  0.22519945008E+03  0.50400001928E-02 0. -1.
       -1   -1    0    0    0  501  0.00000000000E+00  0.00000000000E+00 -0.20409879152E+03  0.20409879158E+03  0.50400001928E-02 0.  1.
    10030    2    1    2    0    0  0.00000000000E+00  0.00000000000E+00  0.21100658504E+02  0.42929824166E+03  0.42877936343E+03 0.  0.
        4    1    3    3  502    0 -0.26066204021E+02  0.38726766682E+02 -0.19894463818E+03  0.20435212602E+03  0.12699999809E+01 0.  1.
       -4    1    3    3    0  502  0.26066204021E+02 -0.38726766682E+02  0.22004529668E+03  0.22494611564E+03  0.12699999809E+01 0. -1.
</event>
<event>
 5   0  0.1231822E-01  0.5023144E+03  0.7818609E-02  0.1013177E+00
       -2   -1    0    0    0  501  0.00000000000E+00  0.00000000000E+00  0.84454137304E+02  0.84454137343E+02  0.25500000920E-02 0. -1.
        2   -1    0    0  501    0  0.00000000000E+00  0.00000000000E+00 -0.74691354606E+03  0.74691354606E+03  0.25500000920E-02 0.  1.
    10030    2    1    2    0    0  0.00000000000E+00  0.00000000000E+00 -0.66245940875E+03  0.83136768340E+03  0.50231440031E+03 0.  0.
        1    1    3    3  502    0  0.19696998553E+03 -0.10981549782E+03 -0.51421327928E+03  0.56149079723E+03  0.50400001928E-02 0.  1.
       -1    1    3    3    0  502 -0.19696998553E+03  0.10981549782E+03 -0.14824612947E+03  0.26987688617E+03  0.50400001928E-02 0. -1.
</event>
<event>
 5   0  0.1279188E-01  0.4964612E+03  0.7818609E-02  0.1014707E+00
        2   -1    0    0  501    0  0.00000000000E+00  0.00000000000E+00  0.57156488772E+03  0.57156488772E+03  0.25500000920E-02 0.  1.
       -2   -1    0    0    0  501  0.00000000000E+00  0.00000000000E+00 -0.10780654480E+03  0.10780654483E+03  0.25500000920E-02 0. -1.
    10030    2    1    2    0    0  0.00000000000E+00  0.00000000000E+00  0.46375834291E+03  0.67937143256E+03  0.49646121979E+03 0.  0.
        2    1    3    3  502    0 -0.20158072590E+03 -0.88379097226E+02  0.38893740187E+03  0.44689814999E+03  0.25500000920E-02 0.  1.
       -2    1    3    3    0  502  0.20158072590E+03  0.88379097226E+02  0.74820941040E+02  0.23247328257E+03  0.25500000920E-02 0. -1.
</event>
<event>
 5   0  0.7416638E-02  0.5000697E+03  0.7818609E-02  0.1013761E+00
       -1   -1    0    0    0  501  0.00000000000E+00  0.00000000000E+00  0.14790853628E+03  0.14790853636E+03  0.50400001928E-02 0. -1.
        1   -1    0    0  501    0  0.00000000000E+00  0.00000000000E+00 -0.42267626804E+03  0.42267626807E+03  0.50400001928E-02 0.  1.
    10030    2    1    2    0    0  0.00000000000E+00  0.00000000000E+00 -0.27476773176E+03  0.57058480444E+03  0.50006970778E+03 0.  0.
        1    1    3    3  502    0  0.22452064324E+03  0.10127431816E+03 -0.88288297669E+02  0.26165020598E+03  0.50400001928E-02 0.  1.
       -1    1    3    3    0  502 -0.22452064324E+03 -0.10127431816E+03 -0.18647943409E+03  0.30893459846E+03  0.50400001928E-02 0. -1.
</event>
<event>
 5   0  0.7781754E-02  0.4938081E+03  0.7818609E-02  0.1015408E+00
        1   -1    0    0  501    0  0.00000000000E+00  0.00000000000E+00  0.13425895589E+04  0.13425895589E+04  0.50400001928E-02 0.  1.
       -1   -1    0    0    0  501  0.00000000000E+00  0.00000000000E+00 -0.45405995500E+02  0.45405995780E+02  0.50400001928E-02 0. -1.
    10030    2    1    2    0    0  0.00000000000E+00  0.00000000000E+00  0.12971835634E+04  0.13879955547E+04  0.49380812334E+03 0.  0.
        2    1    3    3  502    0  0.28879991233E+02  0.34260416461E+02  0.13310651270E+04  0.13318191327E+04  0.25500000920E-02 0.  1.
       -2    1    3    3    0  502 -0.28879991233E+02 -0.34260416461E+02 -0.33881563567E+02  0.56176421976E+02  0.25500000920E-02 0. -1.
</event>
<event>
 5   0  0.1231822E-01  0.4954275E+03  0.7818609E-02  0.1014979E+00
       -2   -1    0    0    0  501  0.00000000000E+00  0.00000000000E+00  0.18784936602E+03  0.18784936604E+03  0.25500000920E-02 0. -1.
        2   -1    0    0  501    0  0.00000000000E+00  0.00000000000E+00 -0.32665585754E+03  0.32665585755E+03  0.25500000920E-02 0.  1.
    10030    2    1    2    0    0  0.00000000000E+00  0.00000000000E+00 -0.13880649152E+03  0.51450522359E+03  0.49542747503E+03 0.  0.
        1    1    3    3  502    0  0.12400024677E+03 -0.38693350742E+01  0.15326176227E+03  0.19718062976E+03  0.50400001928E-02 0. -1.
       -1    1    3    3    0  502 -0.12400024677E+03  0.38693350742E+01 -0.29206825379E+03  0.31732459383E+03  0.50400001928E-02 0.  1.
</event>
<event>
 5   0  0.5006750E-02  0.5038988E+03  0.7818609E-02  0.1012766E+00
        4   -1    0    0  501    0  0.00000000000E+00  0.00000000000E+00  0.12421143105E+03  0.12421792344E+03  0.12699999809E+01 0. -1.
       -4   -1    0    0    0  501  0.00000000000E+00  0.00000000000E+00 -0.51103138307E+03  0.51103296116E+03  0.12699999809E+01 0.  1.
    10030    2    1    2    0    0  0.00000000000E+00  0.00000000000E+00 -0.38681995202E+03  0.63525088460E+03  0.50389881037E+03 0.  0.
        5    1    3    3  502    0 -0.30642834544E+01 -0.48420849928E+02  0.11821426740E+03  0.12786974449E+03  0.46999998093E+01 0. -1.
       -5    1    3    3    0  502  0.30642834544E+01  0.48420849928E+02 -0.50503421943E+03  0.50738114010E+03  0.46999998093E+01 0.  1.
</event>
<event>
 5   0  0.7416638E-02  0.4671180E+03  0.7818609E-02  0.1022737E+00
       -1   -1    0    0    0  501  0.00000000000E+00  0.00000000000E+00  0.22636456456E+03  0.22636456462E+03  0.50400001928E-02 0.  1.
        1   -1    0    0  501    0  0.00000000000E+00  0.00000000000E+00 -0.24098212413E+03  0.24098212418E+03  0.50400001928E-02 0. -1.
    10030    2    1    2    0    0  0.00000000000E+00  0.00000000000E+00 -0.14617559564E+02  0.46734668880E+03  0.46711803057E+03 0.  0.
        1    1    3    3  502    0  0.86320939939E+02 -0.83717271179E+02 -0.20763148382E+03  0.23993899072E+03  0.50400001928E-02 0. -1.
       -1    1    3    3    0  502 -0.86320939939E+02  0.83717271179E+02  0.19301392426E+03  0.22740769809E+03  0.50400001928E-02 0.  1.
</event>
<event>
 5   0  0.5006750E-02  0.5028033E+03  0.7818609E-02  0.1013050E+00
        3   -1    0    0  501    0  0.00000000000E+00  0.00000000000E+00  0.13808795683E+03  0.13808799376E+03  0.10100000352E+00 0. -1.
       -3   -1    0    0    0  501  0.00000000000E+00  0.00000000000E+00 -0.45769948938E+03  0.45769950052E+03  0.10100000352E+00 0.  1.
    10030    2    1    2    0    0  0.00000000000E+00  0.00000000000E+00 -0.31961153255E+03  0.59578749429E+03  0.50280334785E+03 0.  0.
        3    1    3    3  502    0 -0.10470188253E+03 -0.15048187359E+03  0.44042094505E+02  0.18853910675E+03  0.10100000352E+00 0. -1.
       -3    1    3    3    0  502  0.10470188253E+03  0.15048187359E+03 -0.36365362706E+03  0.40724838754E+03  0.10100000352E+00 0.  1.
</event>
<event>
 5   0  0.1231822E-01  0.4864407E+03  0.7818609E-02  0.1017380E+00
        2   -1    0    0  501    0  0.00000000000E+00  0.00000000000E+00  0.41357417022E+03  0.41357417023E+03  0.25500000920E-02 0. -1.
       -2   -1    0    0    0  501  0.00000000000E+00  0.00000000000E+00 -0.14303632229E+03  0.14303632231E+03  0.25500000920E-02 0.  1.
    10030    2    1    2    0    0  0.00000000000E+00  0.00000000000E+00  0.27053784793E+03  0.55661049254E+03  0.48644065747E+03 0.  0.
        1    1    3    3  502    0  0.22676704015E+02 -0.23891139871E+03  0.18051013328E+03  0.30029451806E+03  0.50400001928E-02 0.  1.
       -1    1    3    3    0  502 -0.22676704015E+02  0.23891139871E+03  0.90027714657E+02  0.25631597447E+03  0.50400001928E-02 0. -1.
</event>
<event>
 5   0  0.1243803E-01  0.4915679E+03  0.7818609E-02  0.1016004E+00
       -2   -1    0    0    0  501  0.00000000000E+00  0.00000000000E+00  0.58474518111E+02  0.58474518166E+02  0.25500000920E-02 0.  1.
        2   -1    0    0  501    0  0.00000000000E+00  0.00000000000E+00 -0.10330954855E+04  0.10330954855E+04  0.25500000920E-02 0. -1.
    10030    2    1    2    0    0  0.00000000000E+00  0.00000000000E+00 -0.97462096737E+03  0.10915700036E+04  0.49156794325E+03 0.  0.
        4    1    3    3  502    0 -0.47310616225E+02  0.17390423200E+03 -0.11621854913E+03  0.21445125408E+03  0.12699999809E+01 0.  1.
       -4    1    3    3    0  502  0.47310616225E+02 -0.17390423200E+03 -0.85840241824E+03  0.87711874957E+03  0.12699999809E+01 0. -1.
</event>
<event>
 5   0  0.1243803E-01  0.4295863E+03  0.7818609E-02  0.1033991E+00
       -2   -1    0    0    0  501  0.00000000000E+00  0.00000000000E+00  0.28495706180E+02  0.28495706295E+02  0.25500000920E-02 0. -1.
        2   -1    0    0  501    0  0.00000000000E+00  0.00000000000E+00 -0.16190542723E+04  0.16190542723E+04  0.25500000920E-02 0.  1.
    10030    2    1    2    0    0  0.00000000000E+00  0.00000000000E+00 -0.15905585661E+04  0.16475499786E+04  0.42958628902E+03 0.  0.
        4    1    3    3  502    0 -0.43596701740E+02 -0.88337358770E+01  0.10622173529E+02  0.45750964608E+02  0.12699999809E+01 0. -1.
       -4    1    3    3    0  502  0.43596701740E+02  0.88337358770E+01 -0.16011807396E+04  0.16017990140E+04  0.12699999809E+01 0.  1.
</event>
<event>
 5   0  0.1191894E-01  0.4987488E+03  0.7818609E-02  0.1014106E+00
       -2   -1    0    0    0  501  0.00000000000E+00  0.00000000000E+00  0.55405079239E+02  0.55405079297E+02  0.25500000920E-02 0. -1.
        2   -1    0    0  501    0  0.00000000000E+00  0.00000000000E+00 -0.11224167088E+04  0.11224167088E+04  0.25500000920E-02 0.  1.
    10030    2    1    2    0    0  0.00000000000E+00  0.00000000000E+00 -0.10670116296E+04  0.11778217881E+04  0.49874878136E+03 0.  0.
        3    1    3    3  502    0 -0.38926842254E+02 -0.23958186849E+03 -0.66860659346E+03  0.71130131293E+03  0.10100000352E+00 0. -1.
       -3    1    3    3    0  502  0.38926842254E+02  0.23958186849E+03 -0.39840503610E+03  0.46652047516E+03  0.10100000352E+00 0.  1.
</event>
<event>
 5   0  0.7416638E-02  0.4964417E+03  0.7818609E-02  0.1014712E+00
        1   -1    0    0  501    0  0.00000000000E+00  0.00000000000E+00  0.75293417411E+03  0.75293417413E+03  0.50400001928E-02 0. -1.
       -1   -1    0    0    0  501  0.00000000000E+00  0.00000000000E+00 -0.81831294693E+02  0.81831294848E+02  0.50400001928E-02 0.  1.
    10030    2    1    2    0    0  0.00000000000E+00  0.00000000000E+00  0.67110287942E+03  0.83476546898E+03  0.49644165159E+03 0.  0.
        1    1    3    3  502    0  0.20290310706E+03  0.86899445165E+02  0.14462633080E+03  0.26389005288E+03  0.50400001928E-02 0.  1.
       -1    1    3    3    0  502 -0.20290310706E+03 -0.86899445165E+02  0.52647654862E+03  0.57087541610E+03  0.50400001928E-02 0. -1.
</event>
<event>
 5   0  0.1279188E-01  0.4982361E+03  0.7818609E-02  0.1014240E+00
        2   -1    0    0  501    0  0.00000000000E+00  0.00000000000E+00  0.13562460187E+04  0.13562460187E+04  0.25500000920E-02 0. -1.
       -2   -1    0    0    0  501  0.00000000000E+00  0.00000000000E+00 -0.45758522057E+02  0.45758522128E+02  0.25500000920E-02 0.  1.
    10030    2    1    2    0    0  0.00000000000E+00  0.00000000000E+00  0.13104874966E+04  0.14020045408E+04  0.49823614246E+03 0.  0.
        2    1    3    3  502    0 -0.88392869231E+02 -0.61383462143E+02  0.23024409120E+02  0.11005158871E+03  0.25500000920E-02 0.  1.
       -2    1    3    3    0  502  0.88392869231E+02  0.61383462143E+02  0.12874630875E+04  0.12919529521E+04  0.25500000920E-02 0. -1.
</event>
<event>
 5   0  0.1231822E-01  0.5148788E+03  0.7818609E-02  0.1009967E+00
       -2   -1    0    0    0  501  0.00000000000E+00  0.00000000000E+00  0.88065976674E+02  0.88065976711E+02  0.25500000920E-02 0.  1.
        2   -1    0    0  501    0  0.00000000000E+00  0.00000000000E+00 -0.75256138442E+03  0.75256138443E+03  0.25500000920E-02 0. -1.
    10030    2    1    2    0    0  0.00000000000E+00  0.00000000000E+00 -0.66449540775E+03  0.84062736114E+03  0.51487883368E+03 0.  0.
        1    1    3    3  502    0  0.77638391021E+01 -0.89856043439E+02  0.61427888740E+02  0.10912273494E+03  0.50400001928E-02 0.  1.
       -1    1    3    3    0  502 -0.77638391021E+01  0.89856043439E+02 -0.72592329649E+03  0.73150462620E+03  0.50400001928E-02 0. -1.
</event>
<event>
 5   0  0.7781754E-02  0.5002818E+03  0.7818609E-02  0.1013705E+00
        1   -1    0    0  501    0  0.00000000000E+00  0.00000000000E+00  0.93133738788E+03  0.93133738789E+03  0.50400001928E-02 0.  1.
       -1   -1    0    0    0  501  0.00000000000E+00  0.00000000000E+00 -0.67183458186E+02  0.67183458375E+02  0.50400001928E-02 0. -1.
    10030    2    1    2    0    0  0.00000000000E+00  0.00000000000E+00  0.86415392969E+03  0.99852084627E+03  0.50028178682E+03 0.  0.
        2    1    3    3  502    0 -0.67089663951E+01 -0.24529627876E+03  0.33521448182E+03  0.41543233315E+03  0.25500000920E-02 0. -1.
       -2    1    3    3    0  502  0.67089663951E+01  0.24529627876E+03  0.52893944788E+03  0.58308851312E+03  0.25500000920E-02 0.  1.
</event>
<event>
 5   0  0.7781754E-02  0.5146699E+03  0.7818609E-02  0.1010019E+00
        1   -1    0    0  501    0  0.00000000000E+00  0.00000000000E+00  0.22838457271E+03  0.22838457276E+03  0.50400001928E-02 0. -1.
       -1   -1    0    0    0  501  0.00000000000E+00  0.00000000000E+00 -0.28995507356E+03  0.28995507360E+03  0.50400001928E-02 0.  1.
    10030    2    1    2    0    0  0.00000000000E+00  0.00000000000E+00 -0.61570500848E+02  0.51833964637E+03  0.51466985770E+03 0.  0.
        2    1    3    3  502    0 -0.43881059944E+02 -0.10253977925E+03  0.20277632168E+03  0.23142642544E+03  0.25500000920E-02 0. -1.
       -2    1    3    3    0  502  0.43881059944E+02  0.10253977925E+03 -0.26434682253E+03  0.28691322092E+03  0.25500000920E-02 0.  1.
</event>
<event>
 5   0  0.1231822E-01  0.5079825E+03  0.7818609E-02  0.1011716E+00
       -2   -1    0    0    0  501  0.00000000000E+00  0.00000000000E+00  0.93968881677E+02  0.93968881712E+02  0.25500000920E-02 0. -1.
        2   -1    0    0  501    0  0.00000000000E+00  0.00000000000E+00 -0.68652054175E+03  0.68652054175E+03  0.25500000920E-02 0.  1.
    10030    2    1    2    0    0  0.00000000000E+00  0.00000000000E+00 -0.59255166007E+03  0.78048942346E+03  0.50798254920E+03 0.  0.
        1    1    3    3  502    0 -0.22766419480E+03  0.42374275249E+02 -0.13597620715E+03  0.26854439807E+03  0.50400001928E-02 0. -1.
       -1    1    3    3    0  502  0.22766419480E+03 -0.42374275249E+02 -0.45657545292E+03  0.51194502540E+03  0.50400001928E-02 0.  1.
</event>
<event>
 5   0  0.1243803E-01  0.4967450E+03  0.7818609E-02  0.1014632E+00
        2   -1    0    0  501    0  0.00000000000E+00  0.00000000000E+00  0.14141032625E+04  0.14141032625E+04  0.25500000920E-02 0. -1.
       -2   -1    0    0    0  501  0.00000000000E+00  0.00000000000E+00 -0.43624046565E+02  0.43624046640E+02  0.25500000920E-02 0.  1.
    10030    2    1    2    0    0  0.00000000000E+00  0.00000000000E+00  0.13704792160E+04  0.14577273092E+04  0.49674503170E+03 0.  0.
        4    1    3    3  502    0 -0.22540649726E+03 -0.26081993400E+02  0.38887921923E+03  0.45024106814E+03  0.12699999809E+01 0.  1.
       -4    1    3    3    0  502  0.22540649726E+03  0.26081993400E+02  0.98159999674E+03  0.10074862410E+04  0.12699999809E+01 0. -1.
</event>
<event>
 5   0  0.1243803E-01  0.4974397E+03  0.7818609E-02  0.1014449E+00
        2   -1    0    0  501    0  0.00000000000E+00  0.00000000000E+00  0.80758175299E+03  0.80758175299E+03  0.25500000920E-02 0. -1.
       -2   -1    0    0    0  501  0.00000000000E+00  0.00000000000E+00 -0.76600988500E+02  0.76600988543E+02  0.25500000920E-02 0.  1.
    10030    2    1    2    0    0  0.00000000000E+00  0.00000000000E+00  0.73098076448E+03  0.88418274153E+03  0.49743968717E+03 0.  0.
        4    1    3    3  502    0 -0.82461985873E+02 -0.67723838493E+02 -0.33840684884E+02  0.11195223208E+03  0.12699999809E+01 0.  1.
       -4    1    3    3    0  502  0.82461985873E+02  0.67723838493E+02  0.76482144937E+03  0.77223050945E+03  0.12699999809E+01 0. -1.
</event>
<event>
 5   0  0.7531632E-02  0.4631601E+03  0.7818609E-02  0.1023869E+00
        1   -1    0    0  501    0  0.00000000000E+00  0.00000000000E+00  0.16801276646E+03  0.16801276654E+03  0.50400001928E-02 0. -1.
       -1   -1    0    0    0  501  0.00000000000E+00  0.00000000000E+00 -0.31919792972E+03  0.31919792976E+03  0.50400001928E-02 0.  1.
    10030    2    1    2    0    0  0.00000000000E+00  0.00000000000E+00 -0.15118516326E+03  0.48721069630E+03  0.46316013321E+03 0.  0.
        3    1    3    3  502    0 -0.51168056825E+02 -0.43762494736E+01  0.16194736131E+03  0.16989490762E+03  0.10100000352E+00 0. -1.
       -3    1    3    3    0  502  0.51168056825E+02  0.43762494736E+01 -0.31313252457E+03  0.31731578868E+03  0.10100000352E+00 0.  1.
</event>
<event>
 5   0  0.5006750E-02  0.4937767E+03  0.7818609E-02  0.1015416E+00
        3   -1    0    0  501    0  0.00000000000E+00  0.00000000000E+00  0.14356924480E+03  0.14356928033E+03  0.10100000352E+00 0.  1.
       -3   -1    0    0    0  501  0.00000000000E+00  0.00000000000E+00 -0.42456064310E+03  0.42456065511E+03  0.10100000352E+00 0. -1.
    10030    2    1    2    0    0  0.00000000000E+00  0.00000000000E+00 -0.28099139830E+03  0.56812993544E+03  0.49377672852E+03 0.  0.
        2    1    3    3  502    0 -0.36359044340E+02  0.13838788975E+03 -0.37199033655E+03  0.39855990595E+03  0.25500000920E-02 0. -1.
       -2    1    3    3    0  502  0.36359044340E+02 -0.13838788975E+03  0.90998938250E+02  0.16957002949E+03  0.25500000920E-02 0.  1.
</event>
<event>
 5   0  0.7531632E-02  0.4981301E+03  0.7818609E-02  0.1014268E+00
       -1   -1    0    0    0  501  0.00000000000E+00  0.00000000000E+00  0.16358039278E+03  0.16358039286E+03  0.50400001928E-02 0. -1.
        1   -1    0    0  501    0  0.00000000000E+00  0.00000000000E+00 -0.37922273358E+03  0.37922273361E+03  0.50400001928E-02 0.  1.
    10030    2    1    2    0    0  0.00000000000E+00  0.00000000000E+00 -0.21564234080E+03  0.54280312647E+03  0.49813011851E+03 0.  0.
        3    1    3    3  502    0  0.18051577197E+03  0.11046201601E+03 -0.25092083000E+03  0.32825154080E+03  0.10100000352E+00 0.  1.
       -3    1    3    3    0  502 -0.18051577197E+03 -0.11046201601E+03  0.35278489203E+02  0.21455158567E+03  0.10100000352E+00 0. -1.
</event>
<event>
 5   0  0.1279188E-01  0.5060809E+03  0.7818609E-02  0.1012204E+00
        2   -1    0    0  501    0  0.00000000000E+00  0.00000000000E+00  0.83936690971E+03  0.83936690971E+03  0.25500000920E-02 0. -1.
       -2   -1    0    0    0  501  0.00000000000E+00  0.00000000000E+00 -0.76283065132E+02  0.76283065174E+02  0.25500000920E-02 0.  1.
    10030    2    1    2    0    0  0.00000000000E+00  0.00000000000E+00  0.76308384458E+03  0.91564997489E+03  0.50608094477E+03 0.  0.
        2    1    3    3  502    0  0.23498842590E+03  0.58336017450E+02  0.24850235104E+03  0.34695254678E+03  0.25500000920E-02 0. -1.
       -2    1    3    3    0  502 -0.23498842590E+03 -0.58336017450E+02  0.51458149354E+03  0.56869742811E+03  0.25500000920E-02 0.  1.
</event>
<event>
 5   0  0.5006750E-02  0.5018929E+03  0.7818609E-02  0.1013286E+00
       -4   -1    0    0    0  501  0.00000000000E+00  0.00000000000E+00  0.94937802093E+02  0.94946296222E+02  0.12699999809E+01 0.  1.
        4   -1    0    0  501    0  0.00000000000E+00  0.00000000000E+00 -0.66328091847E+03  0.66328213432E+03  0.12699999809E+01 0. -1.
    10030    2    1    2    0    0  0.00000000000E+00  0.00000000000E+00 -0.56834311637E+03  0.75822843054E+03  0.50189287198E+03 0.  0.
        5    1    3    3  502    0  0.20396464165E+03  0.51938214825E+02 -0.49050131908E+03  0.53377222410E+03  0.46999998093E+01 0. -1.
       -5    1    3    3    0  502 -0.20396464165E+03 -0.51938214825E+02 -0.77841797294E+02  0.22445620644E+03  0.46999998093E+01 0.  1.
</event>
<event>
 5   0  0.7781754E-02  0.5069688E+03  0.7818609E-02  0.1011976E+00
        1   -1    0    0  501    0  0.00000000000E+00  0.00000000000E+00  0.18623016252E+03  0.18623016259E+03  0.50400001928E-02 0.  1.
       -1   -1    0    0    0  501  0.00000000000E+00  0.00000000000E+00 -0.34502646734E+03  0.34502646737E+03  0.50400001928E-02 0. -1.
    10030    2    1    2    0    0  0.00000000000E+00  0.00000000000E+00 -0.15879630481E+03  0.53125662996E+03  0.50696877661E+03 0.  0.
        2    1    3    3  502    0 -0.10774866118E+03  0.15173043209E+03  0.10095907207E+03  0.21171828510E+03  0.25500000920E-02 0.  1.
       -2    1    3    3    0  502  0.10774866118E+03 -0.15173043209E+03 -0.25975537688E+03  0.31953834486E+03  0.25500000920E-02 0. -1.
</event>
<event>
 5   0  0.7416638E-02  0.4560666E+03  0.7818609E-02  0.1025928E+00
        1   -1    0    0  501    0  0.00000000000E+00  0.00000000000E+00  0.17825701871E+03  0.17825701878E+03  0.50400001928E-02 0.  1.
       -1   -1    0    0    0  501  0.00000000000E+00  0.00000000000E+00 -0.29170906963E+03  0.29170906967E+03  0.50400001928E-02 0. -1.
    10030    2    1    2    0    0  0.00000000000E+00  0.00000000000E+00 -0.11345205092E+03  0.46996608845E+03  0.45606661404E+03 0.  0.
        1    1    3    3  502    0  0.21674946060E+03 -0.65100671092E+02 -0.85519751111E+02  0.24193398666E+03  0.50400001928E-02 0. -1.
       -1    1    3    3    0  502 -0.21674946060E+03  0.65100671092E+02 -0.27932299808E+02  0.22803210179E+03  0.50400001928E-02 0.  1.
</event>
<event>
 5   0  0.1279188E-01  0.4992702E+03  0.7818609E-02  0.1013970E+00
       -2   -1    0    0    0  501  0.00000000000E+00  0.00000000000E+00  0.73300988530E+02  0.73300988574E+02  0.25500000920E-02 0.  1.
        2   -1    0    0  501    0  0.00000000000E+00  0.00000000000E+00 -0.85016141977E+03  0.85016141978E+03  0.25500000920E-02 0. -1.
    10030    2    1    2    0    0  0.00000000000E+00  0.00000000000E+00 -0.77686043124E+03  0.92346240835E+03  0.49927015734E+03 0.  0.
        2    1    3    3  502    0 -0.15937657715E+03 -0.31732306793E+02 -0.37928339111E+02  0.16687238104E+03  0.25500000920E-02 0.  1.
       -2    1    3    3    0  502  0.15937657715E+03  0.31732306793E+02 -0.73893209213E+03  0.75659002731E+03  0.25500000920E-02 0. -1.
</event>
<event>
 5   0  0.1243803E-01  0.5006965E+03  0.7818609E-02  0.1013597E+00
       -2   -1    0    0    0  501  0.00000000000E+00  0.00000000000E+00  0.58261077692E+02  0.58261077748E+02  0.25500000920E-02 0. -1.
        2   -1    0    0  501    0  0.00000000000E+00  0.00000000000E+00 -0.10757483551E+04  0.10757483551E+04  0.25500000920E-02 0.  1.
    10030    2    1    2    0    0  0.00000000000E+00  0.00000000000E+00 -0.10174872774E+04  0.11340094329E+04  0.50069654893E+03 0.  0.
        4    1    3    3  502    0  0.11680361538E+01 -0.15883658542E+03 -0.70492687832E+02  0.17378508888E+03  0.12699999809E+01 0. -1.
       -4    1    3    3    0  502 -0.11680361538E+01  0.15883658542E+03 -0.94699458958E+03  0.96022434398E+03  0.12699999809E+01 0.  1.
</event>
<event>
 5   0  0.7416638E-02  0.4984386E+03  0.7818609E-02  0.1014187E+00
        1   -1    0    0  501    0  0.00000000000E+00  0.00000000000E+00  0.10875416049E+03  0.10875416061E+03  0.50400001928E-02 0. -1.
       -1   -1    0    0    0  501  0.00000000000E+00  0.00000000000E+00 -0.57110701689E+03  0.57110701691E+03  0.50400001928E-02 0.  1.
    10030    2    1    2    0    0  0.00000000000E+00  0.00000000000E+00 -0.46235285640E+03  0.67986117752E+03  0.49843861897E+03 0.  0.
        1    1    3    3  502    0  0.49157320302E+02 -0.10267842890E+03  0.71218547169E+02  0.13428098669E+03  0.50400001928E-02 0. -1.
       -1    1    3    3    0  502 -0.49157320302E+02  0.10267842890E+03 -0.53357140357E+03  0.54558019083E+03  0.50400001928E-02 0.  1.
</event>
<event>
 5   0  0.1231822E-01  0.5222271E+03  0.7818609E-02  0.1008135E+00
        2   -1    0    0  501    0  0.00000000000E+00  0.00000000000E+00  0.63678485689E+03  0.63678485689E+03  0.25500000920E-02 0.  1.
       -2   -1    0    0    0  501  0.00000000000E+00  0.00000000000E+00 -0.10706955862E+03  0.10706955866E+03  0.25500000920E-02 0. -1.
    10030    2    1    2    0    0  0.00000000000E+00  0.00000000000E+00  0.52971529826E+03  0.74385441555E+03  0.52222705245E+03 0.  0.
        1    1    3    3  502    0  0.13328214280E+03 -0.22438455461E+03  0.27657887381E+03  0.38027415295E+03  0.50400001928E-02 0. -1.
       -1    1    3    3    0  502 -0.13328214280E+03  0.22438455461E+03  0.25313642445E+03  0.36358026259E+03  0.50400001928E-02 0.  1.
</event>
<event>
 5   0  0.7781754E-02  0.5001155E+03  0.7818609E-02  0.1013749E+00
       -1   -1    0    0    0  501  0.00000000000E+00  0.00000000000E+00  0.37707453905E+03  0.37707453908E+03  0.50400001928E-02 0. -1.
        1   -1    0    0  501    0  0.00000000000E+00  0.00000000000E+00 -0.16582631505E+03  0.16582631512E+03  0.50400001928E-02 0.  1.
    10030    2    1    2    0    0  0.00000000000E+00  0.00000000000E+00  0.21124822400E+03  0.54290085421E+03  0.50011551201E+03 0.  0.
        2    1    3    3  502    0 -0.65173641774E+02  0.64633385924E+02 -0.14687746626E+03  0.17319950421E+03  0.25500000920E-02 0.  1.
       -2    1    3    3    0  502  0.65173641774E+02 -0.64633385924E+02  0.35812569026E+03  0.36970135000E+03  0.25500000920E-02 0. -1.
</event>
<event>
 5   0  0.7812547E-02  0.5019360E+03  0.7818609E-02  0.1013275E+00
        1   -1    0    0  501    0  0.00000000000E+00  0.00000000000E+00  0.76932895230E+03  0.76932895232E+03  0.50400001928E-02 0.  1.
       -1   -1    0    0    0  501  0.00000000000E+00  0.00000000000E+00 -0.81869975668E+02  0.81869975823E+02  0.50400001928E-02 0. -1.
    10030    2    1    2    0    0  0.00000000000E+00  0.00000000000E+00  0.68745897663E+03  0.85119892814E+03  0.50193602253E+03 0.  0.
        4    1    3    3  502    0  0.50111713129E+02  0.23961801474E+03  0.24999198115E+03  0.34989367002E+03  0.12699999809E+01 0. -1.
       -4    1    3    3    0  502 -0.50111713129E+02 -0.23961801474E+03  0.43746699548E+03  0.50130525812E+03  0.12699999809E+01 0.  1.
</event>
<event>
 5   0  0.7416638E-02  0.5045023E+03  0.7818609E-02  0.1012610E+00
        1   -1    0    0  501    0  0.00000000000E+00  0.00000000000E+00  0.96735239535E+03  0.96735239536E+03  0.50400001928E-02 0. -1.
       -1   -1    0    0    0  501  0.00000000000E+00  0.00000000000E+00 -0.65778141999E+02  0.65778142192E+02  0.50400001928E-02 0.  1.
    10030    2    1    2    0    0  0.00000000000E+00  0.00000000000E+00  0.90157425335E+03  0.10331305376E+04  0.50450230260E+03 0.  0.
        1    1    3    3  502    0  0.73512029782E+02 -0.38147757644E+02  0.93871625600E+03  0.94236271108E+03  0.50400001928E-02 0. -1.
       -1    1    3    3    0  502 -0.73512029782E+02  0.38147757644E+02 -0.37142002651E+02  0.90767826471E+02  0.50400001928E-02 0.  1.
</event>
<event>
 5   0  0.7416638E-02  0.5014073E+03  0.7818609E-02  0.1013412E+00
       -1   -1    0    0    0  501  0.00000000000E+00  0.00000000000E+00  0.93116680781E+02  0.93116680918E+02  0.50400001928E-02 0.  1.
        1   -1    0    0  501    0  0.00000000000E+00  0.00000000000E+00 -0.67498450876E+03  0.67498450878E+03  0.50400001928E-02 0. -1.
    10030    2    1    2    0    0  0.00000000000E+00  0.00000000000E+00 -0.58186782798E+03  0.76810118970E+03  0.50140728792E+03 0.  0.
        1    1    3    3  502    0 -0.16223673873E+03 -0.95424707275E+02 -0.54462576719E+03  0.57623247085E+03  0.50400001928E-02 0. -1.
       -1    1    3    3    0  502  0.16223673873E+03  0.95424707275E+02 -0.37242060788E+02  0.19186871884E+03  0.50400001928E-02 0.  1.
</event>
<event>
 5   0  0.7416638E-02  0.4987482E+03  0.7818609E-02  0.1014106E+00
       -1   -1    0    0    0  501  0.00000000000E+00  0.00000000000E+00  0.15246751674E+03  0.15246751683E+03  0.50400001928E-02 0.  1.
        1   -1    0    0  501    0  0.00000000000E+00  0.00000000000E+00 -0.40787342098E+03  0.40787342101E+03  0.50400001928E-02 0. -1.
    10030    2    1    2    0    0  0.00000000000E+00  0.00000000000E+00 -0.25540590423E+03  0.56034093783E+03  0.49874822375E+03 0.  0.
        1    1    3    3  502    0 -0.12149704019E+03 -0.74618510276E+02  0.10215535323E+03  0.17540002586E+03  0.50400001928E-02 0.  1.
       -1    1    3    3    0  502  0.12149704019E+03  0.74618510276E+02 -0.35756125746E+03  0.38494091198E+03  0.50400001928E-02 0. -1.
</event>
<event>
 5   0  0.5006750E-02  0.5063088E+03  0.7818609E-02  0.1012145E+00
       -3   -1    0    0    0  501  0.00000000000E+00  0.00000000000E+00  0.54793640294E+03  0.54793641225E+03  0.10100000352E+00 0. -1.
        3   -1    0    0  501    0  0.00000000000E+00  0.00000000000E+00 -0.11696089535E+03  0.11696093896E+03  0.10100000352E+00 0.  1.
    10030    2    1    2    0    0  0.00000000000E+00  0.00000000000E+00  0.43097550759E+03  0.66489735121E+03  0.50630879856E+03 0.  0.
        3    1    3    3  502    0  0.32323175360E+02 -0.18800270591E+03  0.43404143045E+03  0.47411156772E+03  0.10100000352E+00 0. -1.
       -3    1    3    3    0  502 -0.32323175360E+02  0.18800270591E+03 -0.30659228652E+01  0.19078578348E+03  0.10100000352E+00 0.  1.
</event>
<event>
 5   0  0.7781754E-02  0.4975637E+03  0.7818609E-02  0.1014417E+00
       -1   -1    0    0    0  501  0.00000000000E+00  0.00000000000E+00  0.62274012447E+03  0.62274012449E+03  0.50400001928E-02 0. -1.
        1   -1    0    0  501    0  0.00000000000E+00  0.00000000000E+00 -0.99387218106E+02  0.99387218234E+02  0.50400001928E-02 0.  1.
    10030    2    1    2    0    0  0.00000000000E+00  0.00000000000E+00  0.52335290637E+03  0.72212734273E+03  0.49756369895E+03 0.  0.
        2    1    3    3  502    0 -0.10493069451E+03 -0.21053695350E+03  0.14416247859E+03  0.27589686421E+03  0.25500000920E-02 0.  1.
       -2    1    3    3    0  502  0.10493069451E+03  0.21053695350E+03  0.37919042777E+03  0.44623047852E+03  0.25500000920E-02 0. -1.
</event>
<event>
 5   0  0.7812547E-02  0.5142810E+03  0.7818609E-02  0.1010117E+00
        1   -1    0    0  501    0  0.00000000000E+00  0.00000000000E+00  0.32060257233E+03  0.32060257237E+03  0.50400001928E-02 0.  1.
       -1   -1    0    0    0  501  0.00000000000E+00  0.00000000000E+00 -0.20624050854E+03  0.20624050860E+03  0.50400001928E-02 0. -1.
    10030    2    1    2    0    0  0.00000000000E+00  0.00000000000E+00  0.11436206379E+03  0.52684308098E+03  0.51428100328E+03 0.  0.
        4    1    3    3  502    0 -0.14983350094E+03  0.75672374095E+02  0.25672931527E+03  0.30673757583E+03  0.12699999809E+01 0.  1.
       -4    1    3    3    0  502  0.14983350094E+03 -0.75672374095E+02 -0.14236725148E+03  0.22010550515E+03  0.12699999809E+01 0. -1.
</event>
<event>
 5   0  0.1279188E-01  0.4982811E+03  0.7818609E-02  0.1014229E+00
        2   -1    0    0  501    0  0.00000000000E+00  0.00000000000E+00  0.17473676604E+04  0.17473676604E+04  0.25500000920E-02 0.  1.
       -2   -1    0    0    0  501  0.00000000000E+00  0.00000000000E+00 -0.35522581096E+02  0.35522581187E+02  0.25500000920E-02 0. -1.
    10030    2    1    2    0    0  0.00000000000E+00  0.00000000000E+00  0.17118450793E+04  0.17828902416E+04  0.49828108334E+03 0.  0.
        2    1    3    3  502    0  0.98748378411E+02  0.95714214824E+02  0.15992559656E+04  0.16051579663E+04  0.25500000920E-02 0.  1.
       -2    1    3    3    0  502 -0.98748378411E+02 -0.95714214824E+02  0.11258911369E+03  0.17773227531E+03  0.25500000920E-02 0. -1.
</event>
<event>
 5   0  0.5006750E-02  0.5002373E+03  0.7818609E-02  0.1013717E+00
        4   -1    0    0  501    0  0.00000000000E+00  0.00000000000E+00  0.98563677709E+03  0.98563759529E+03  0.12699999809E+01 0. -1.
       -4   -1    0    0    0  501  0.00000000000E+00  0.00000000000E+00 -0.63463782275E+02  0.63476488250E+02  0.12699999809E+01 0.  1.
    10030    2    1    2    0    0  0.00000000000E+00  0.00000000000E+00  0.92217299482E+03  0.10491140835E+04  0.50023727162E+03 0.  0.
        3    1    3    3  502    0  0.18503428821E+02  0.17105514123E+03  0.84181996716E+03  0.85922238422E+03  0.10100000352E+00 0. -1.
       -3    1    3    3    0  502 -0.18503428821E+02 -0.17105514123E+03  0.80353027651E+02  0.18989169933E+03  0.10100000352E+00 0.  1.
</event>
<event>
 5   0  0.7531632E-02  0.4972123E+03  0.7818609E-02  0.1014509E+00
       -1   -1    0    0    0  501  0.00000000000E+00  0.00000000000E+00  0.20128498774E+03  0.20128498780E+03  0.50400001928E-02 0.  1.
        1   -1    0    0  501    0  0.00000000000E+00  0.00000000000E+00 -0.30705230472E+03  0.30705230476E+03  0.50400001928E-02 0. -1.
    10030    2    1    2    0    0  0.00000000000E+00  0.00000000000E+00 -0.10576731698E+03  0.50833729256E+03  0.49721230643E+03 0.  0.
        3    1    3    3  502    0 -0.19953405580E+03 -0.95348944752E+01  0.98414866394E+02  0.22268868352E+03  0.10100000352E+00 0.  1.
       -3    1    3    3    0  502  0.19953405580E+03  0.95348944752E+01 -0.20418218338E+03  0.28564860904E+03  0.10100000352E+00 0. -1.
</event>
<event>
 5   0  0.1231822E-01  0.4983719E+03  0.7818609E-02  0.1014205E+00
        2   -1    0    0  501    0  0.00000000000E+00  0.00000000000E+00  0.10814795865E+03  0.10814795868E+03  0.25500000920E-02 0.  1.
       -2   -1    0    0    0  501  0.00000000000E+00  0.00000000000E+00 -0.57415452900E+03  0.57415452901E+03  0.25500000920E-02 0. -1.
    10030    2    1    2    0    0  0.00000000000E+00  0.00000000000E+00 -0.46600657035E+03  0.68230248769E+03  0.49837191042E+03 0.  0.
        1    1    3    3  502    0 -0.11829862104E+03 -0.19963810261E+03 -0.35730714263E+03  0.42604968015E+03  0.50400001928E-02 0. -1.
       -1    1    3    3    0  502  0.11829862104E+03  0.19963810261E+03 -0.10869942772E+03  0.25625280753E+03  0.50400001928E-02 0.  1.
</event>
<event>
 5   0  0.1231822E-01  0.4974403E+03  0.7818609E-02  0.1014449E+00
        2   -1    0    0  501    0  0.00000000000E+00  0.00000000000E+00  0.37128025948E+03  0.37128025949E+03  0.25500000920E-02 0.  1.
       -2   -1    0    0    0  501  0.00000000000E+00  0.00000000000E+00 -0.16661732007E+03  0.16661732009E+03  0.25500000920E-02 0. -1.
    10030    2    1    2    0    0  0.00000000000E+00  0.00000000000E+00  0.20466293942E+03  0.53789757958E+03  0.49744033546E+03 0.  0.
        1    1    3    3  502    0  0.37129271401E+02  0.56250760657E+02 -0.15655411022E+03  0.17044623880E+03  0.50400001928E-02 0. -1.
       -1    1    3    3    0  502 -0.37129271401E+02 -0.56250760657E+02  0.36121704963E+03  0.36745134078E+03  0.50400001928E-02 0.  1.
</event>
<event>
 5   0  0.1279188E-01  0.5031116E+03  0.7818609E-02  0.1012970E+00
       -2   -1    0    0    0  501  0.00000000000E+00  0.00000000000E+00  0.46439773424E+02  0.46439773494E+02  0.25500000920E-02 0.  1.
        2   -1    0    0  501    0  0.00000000000E+00  0.00000000000E+00 -0.13626322407E+04  0.13626322407E+04  0.25500000920E-02 0. -1.
    10030    2    1    2    0    0  0.00000000000E+00  0.00000000000E+00 -0.13161924672E+04  0.14090720141E+04  0.50311164792E+03 0.  0.
        2    1    3    3  502    0  0.21846050277E+03 -0.78739845138E+02 -0.38720216944E+03  0.45149803378E+03  0.25500000920E-02 0.  1.
       -2    1    3    3    0  502 -0.21846050277E+03  0.78739845138E+02 -0.92899029779E+03  0.95757398036E+03  0.25500000920E-02 0. -1.
</event>
<event>
 5   0  0.1211345E-01  0.4977300E+03  0.7818609E-02  0.1014373E+00
       -2   -1    0    0    0  501  0.00000000000E+00  0.00000000000E+00  0.13914863277E+03  0.13914863279E+03  0.25500000920E-02 0. -1.
        2   -1    0    0  501    0  0.00000000000E+00  0.00000000000E+00 -0.44509086522E+03  0.44509086523E+03  0.25500000920E-02 0.  1.
    10030    2    1    2    0    0  0.00000000000E+00  0.00000000000E+00 -0.30594223245E+03  0.58423949802E+03  0.49772998850E+03 0.  0.
        5    1    3    3  502    0  0.45137424428E+02  0.22780266240E+03 -0.48112167670E+02  0.23720942384E+03  0.46999998093E+01 0. -1.
       -5    1    3    3    0  502 -0.45137424428E+02 -0.22780266240E+03 -0.25783006478E+03  0.34703007418E+03  0.46999998093E+01 0.  1.
</event>
<event>
 5   0  0.7781754E-02  0.4986130E+03  0.7818609E-02  0.1014142E+00
        1   -1    0    0  501    0  0.00000000000E+00  0.00000000000E+00  0.13375761695E+04  0.13375761695E+04  0.50400001928E-02 0.  1.
       -1   -1    0    0    0  501  0.00000000000E+00  0.00000000000E+00 -0.46467431194E+02  0.46467431468E+02  0.50400001928E-02 0. -1.
    10030    2    1    2    0    0  0.00000000000E+00  0.00000000000E+00  0.12911087383E+04  0.13840436010E+04  0.49861299148E+03 0.  0.
        2    1    3    3  502    0  0.21284307644E+03 -0.97261183822E+02  0.40690419908E+03  0.46939635736E+03  0.25500000920E-02 0. -1.
       -2    1    3    3    0  502 -0.21284307644E+03  0.97261183822E+02  0.88420453921E+03  0.91464724361E+03  0.25500000920E-02 0.  1.
</event>
<event>
 5   0  0.1231822E-01  0.5037767E+03  0.7818609E-02  0.1012798E+00
        2   -1    0    0  501    0  0.00000000000E+00  0.00000000000E+00  0.93068304437E+03  0.93068304437E+03  0.25500000920E-02 0.  1.
       -2   -1    0    0    0  501  0.00000000000E+00  0.00000000000E+00 -0.68173313247E+02  0.68173313295E+02  0.25500000920E-02 0. -1.
    10030    2    1    2    0    0  0.00000000000E+00  0.00000000000E+00  0.86250973112E+03  0.99885635767E+03  0.50377672334E+03 0.  0.
        1    1    3    3  502    0  0.12035122439E+03 -0.17942245047E+03  0.68802428780E+03  0.72114787220E+03  0.50400001928E-02 0.  1.
       -1    1    3    3    0  502 -0.12035122439E+03  0.17942245047E+03  0.17448544332E+03  0.27770848547E+03  0.50400001928E-02 0. -1.
</event>
<event>
 5   0  0.7416638E-02  0.4954392E+03  0.7818609E-02  0.1014976E+00
       -1   -1    0    0    0  501  0.00000000000E+00  0.00000000000E+00  0.10239506541E+03  0.10239506553E+03  0.50400001928E-02 0. -1.
        1   -1    0    0  501    0  0.00000000000E+00  0.00000000000E+00 -0.59929656296E+03  0.59929656298E+03  0.50400001928E-02 0.  1.
    10030    2    1    2    0    0  0.00000000000E+00  0.00000000000E+00 -0.49690149755E+03  0.70169162851E+03  0.49543924275E+03 0.  0.
        1    1    3    3  502    0 -0.57880943662E+02 -0.22466935156E+03 -0.37142043435E+03  0.43792654663E+03  0.50400001928E-02 0. -1.
       -1    1    3    3    0  502  0.57880943662E+02  0.22466935156E+03 -0.12548106321E+03  0.26376508188E+03  0.50400001928E-02 0.  1.
</event>
<event>
 5   0  0.5006750E-02  0.4949459E+03  0.7818609E-02  0.1015107E+00
       -4   -1    0    0    0  501  0.00000000000E+00  0.00000000000E+00  0.15831870981E+03  0.15832380356E+03  0.12699999809E+01 0.  1.
        4   -1    0    0  501    0  0.00000000000E+00  0.00000000000E+00 -0.38682031847E+03  0.38682240329E+03  0.12699999809E+01 0. -1.
    10030    2    1    2    0    0  0.00000000000E+00  0.00000000000E+00 -0.22850160867E+03  0.54514620685E+03  0.49494585732E+03 0.  0.
        1    1    3    3  502    0 -0.24575627578E+03  0.25164423039E+02 -0.98158857419E+02  0.26582805832E+03  0.50400001928E-02 0. -1.
       -1    1    3    3    0  502  0.24575627578E+03 -0.25164423039E+02 -0.13034275125E+03  0.27931814853E+03  0.50400001928E-02 0.  1.
</event>
<event>
 5   0  0.5006750E-02  0.4962052E+03  0.7818609E-02  0.1014774E+00
        3   -1    0    0  501    0  0.00000000000E+00  0.00000000000E+00  0.15433766542E+03  0.15433769846E+03  0.10100000352E+00 0.  1.
       -3   -1    0    0    0  501  0.00000000000E+00  0.00000000000E+00 -0.39883254348E+03  0.39883255627E+03  0.10100000352E+00 0. -1.
    10030    2    1    2    0    0  0.00000000000E+00  0.00000000000E+00 -0.24449487806E+03  0.55317025473E+03  0.49620518470E+03 0.  0.
        5    1    3    3  502    0 -0.20215886442E+03 -0.61604412837E+02 -0.26704077611E+03  0.34058211381E+03  0.46999998093E+01 0. -1.
       -5    1    3    3    0  502  0.20215886442E+03  0.61604412837E+02  0.22545898050E+02  0.21258814092E+03  0.46999998093E+01 0.  1.
</event>
<event>
 5   0  0.7416638E-02  0.4982797E+03  0.7818609E-02  0.1014229E+00
        1   -1    0    0  501    0  0.00000000000E+00  0.00000000000E+00  0.15322391633E+03  0.15322391641E+03  0.50400001928E-02 0.  1.
       -1   -1    0    0    0  501  0.00000000000E+00  0.00000000000E+00 -0.40509772457E+03  0.40509772460E+03  0.50400001928E-02 0. -1.
    10030    2    1    2    0    0  0.00000000000E+00  0.00000000000E+00 -0.25187380824E+03  0.55832164102E+03  0.49827968005E+03 0.  0.
        1    1    3    3  502    0  0.17546833185E+03 -0.35093241178E+02  0.68300757985E+02  0.19153502193E+03  0.50400001928E-02 0.  1.
       -1    1    3    3    0  502 -0.17546833185E+03  0.35093241178E+02 -0.32017456623E+03  0.36678661909E+03  0.50400001928E-02 0. -1.
</event>
<event>
 5   0  0.7602288E-02  0.4976838E+03  0.7818609E-02  0.1014385E+00
        1   -1    0    0  501    0  0.00000000000E+00  0.00000000000E+00  0.19322503606E+03  0.19322503612E+03  0.50400001928E-02 0.  1.
       -1   -1    0    0    0  501  0.00000000000E+00  0.00000000000E+00 -0.32046717087E+03  0.32046717091E+03  0.50400001928E-02 0. -1.
    10030    2    1    2    0    0  0.00000000000E+00  0.00000000000E+00 -0.12724213482E+03  0.51369220704E+03  0.49768375772E+03 0.  0.
        5    1    3    3  502    0 -0.10825237493E+03 -0.17642312888E+03 -0.20610667757E+03  0.29213994868E+03  0.46999998093E+01 0. -1.
       -5    1    3    3    0  502  0.10825237493E+03  0.17642312888E+03  0.78864542750E+02  0.22155225836E+03  0.46999998093E+01 0.  1.
</event>
<event>
 5   0  0.5006750E-02  0.4979292E+03  0.7818609E-02  0.1014321E+00
       -4   -1    0    0    0  501  0.00000000000E+00  0.00000000000E+00  0.58500729639E+02  0.58514513313E+02  0.12699999809E+01 0. -1.
        4   -1    0    0  501    0  0.00000000000E+00  0.00000000000E+00 -0.10593928047E+04  0.10593935660E+04  0.12699999809E+01 0.  1.
    10030    2    1    2    0    0  0.00000000000E+00  0.00000000000E+00 -0.10008920751E+04  0.11179080793E+04  0.49792923969E+03 0.  0.
        1    1    3    3  502    0 -0.10970093307E+03  0.42014290458E+02 -0.99326723420E+03  0.10001896290E+04  0.50400001928E-02 0.  1.
       -1    1    3    3    0  502  0.10970093307E+03 -0.42014290458E+02 -0.76248408797E+01  0.11771845031E+03  0.50400001928E-02 0. -1.
</event>
<event>
 5   0  0.1231822E-01  0.4962157E+03  0.7818609E-02  0.1014771E+00
        2   -1    0    0  501    0  0.00000000000E+00  0.00000000000E+00  0.40180482390E+03  0.40180482391E+03  0.25500000920E-02 0.  1.
       -2   -1    0    0    0  501  0.00000000000E+00  0.00000000000E+00 -0.15320249028E+03  0.15320249030E+03  0.25500000920E-02 0. -1.
    10030    2    1    2    0    0  0.00000000000E+00  0.00000000000E+00  0.24860233362E+03  0.55500731421E+03  0.49621567744E+03 0.  0.
        1    1    3    3  502    0 -0.22967551190E+03 -0.91598968135E+02  0.10148066924E+03  0.26728175767E+03  0.50400001928E-02 0. -1.
       -1    1    3    3    0  502  0.22967551190E+03  0.91598968135E+02  0.14712166439E+03  0.28772555654E+03  0.50400001928E-02 0.  1.
</event>
<event>
 5   0  0.1191894E-01  0.5131907E+03  0.7818609E-02  0.1010392E+00
        2   -1    0    0  501    0  0.00000000000E+00  0.00000000000E+00  0.21110978184E+04  0.21110978184E+04  0.25500000920E-02 0. -1.
       -2   -1    0    0    0  501  0.00000000000E+00  0.00000000000E+00 -0.31188123410E+02  0.31188123514E+02  0.25500000920E-02 0.  1.
    10030    2    1    2    0    0  0.00000000000E+00  0.00000000000E+00  0.20799096950E+04  0.21422859419E+04  0.51319072245E+03 0.  0.
        3    1    3    3  502    0  0.23105403393E+03 -0.58734788340E+02  0.64381292734E+03  0.68653538698E+03  0.10100000352E+00 0.  1.
       -3    1    3    3    0  502 -0.23105403393E+03  0.58734788340E+02  0.14360967676E+04  0.14557505549E+04  0.10100000352E+00 0. -1.
</event>
<event>
 5   0  0.7416638E-02  0.4980641E+03  0.7818609E-02  0.1014285E+00
        1   -1    0    0  501    0  0.00000000000E+00  0.00000000000E+00  0.37210404335E+03  0.37210404338E+03  0.50400001928E-02 0.  1.
       -1   -1    0    0    0  501  0.00000000000E+00  0.00000000000E+00 -0.16666568104E+03  0.16666568112E+03  0.50400001928E-02 0. -1.
    10030    2    1    2    0    0  0.00000000000E+00  0.00000000000E+00  0.20543836231E+03  0.53876972450E+03  0.49806414781E+03 0.  0.
        1    1    3    3  502    0 -0.20600298759E+01  0.24173923568E+03  0.16739592559E+03  0.29404676112E+03  0.50400001928E-02 0. -1.
       -1    1    3    3    0  502  0.20600298759E+01 -0.24173923568E+03  0.38042436714E+02  0.24472296339E+03  0.50400001928E-02 0.  1.
</event>
<event>
 5   0  0.7781754E-02  0.4963058E+03  0.7818609E-02  0.1014748E+00
        1   -1    0    0  501    0  0.00000000000E+00  0.00000000000E+00  0.12244807577E+04  0.12244807577E+04  0.50400001928E-02 0.  1.
       -1   -1    0    0    0  501  0.00000000000E+00  0.00000000000E+00 -0.50290590442E+02  0.50290590695E+02  0.50400001928E-02 0. -1.
    10030    2    1    2    0    0  0.00000000000E+00  0.00000000000E+00  0.11741901673E+04  0.12747713484E+04  0.49630579468E+03 0.  0.
        2    1    3    3  502    0 -0.30327305796E+02 -0.16375055906E+02  0.12183031719E+04  0.12187905918E+04  0.25500000920E-02 0.  1.
       -2    1    3    3    0  502  0.30327305796E+02  0.16375055906E+02 -0.44113004617E+02  0.55980756655E+02  0.25500000920E-02 0. -1.
</event>
<event>
 5   0  0.5006750E-02  0.5029861E+03  0.7818609E-02  0.1013002E+00
        3   -1    0    0  501    0  0.00000000000E+00  0.00000000000E+00  0.32401610092E+02  0.32401767507E+02  0.10100000352E+00 0.  1.
       -3   -1    0    0    0  501  0.00000000000E+00  0.00000000000E+00 -0.19520203059E+04  0.19520203085E+04  0.10100000352E+00 0. -1.
    10030    2    1    2    0    0  0.00000000000E+00  0.00000000000E+00 -0.19196186958E+04  0.19844220760E+04  0.50298612158E+03 0.  0.
        2    1    3    3  502    0  0.10502076385E+02 -0.23982297028E+03 -0.66395505123E+03  0.70601817310E+03  0.25500000920E-02 0. -1.
       -2    1    3    3    0  502 -0.10502076385E+02  0.23982297028E+03 -0.12556636446E+04  0.12784039029E+04  0.25500000920E-02 0.  1.
</event>
<event>
 5   0  0.7812547E-02  0.4988125E+03  0.7818609E-02  0.1014089E+00
       -1   -1    0    0    0  501  0.00000000000E+00  0.00000000000E+00  0.11986157799E+03  0.11986157809E+03  0.50400001928E-02 0. -1.
        1   -1    0    0  501    0  0.00000000000E+00  0.00000000000E+00 -0.51896085346E+03  0.51896085349E+03  0.50400001928E-02 0.  1.
    10030    2    1    2    0    0  0.00000000000E+00  0.00000000000E+00 -0.39909927547E+03  0.63882243158E+03  0.49881245715E+03 0.  0.
        4    1    3    3  502    0  0.74754573001E+02  0.72526321728E+01 -0.50412967363E+03  0.50969519086E+03  0.12699999809E+01 0.  1.
       -4    1    3    3    0  502 -0.74754573001E+02 -0.72526321728E+01  0.10503039816E+03  0.12912724071E+03  0.12699999809E+01 0. -1.
</event>
<event>
 5   0  0.7781754E-02  0.5026744E+03  0.7818609E-02  0.1013083E+00
        1   -1    0    0  501    0  0.00000000000E+00  0.00000000000E+00  0.20349315677E+03  0.20349315683E+03  0.50400001928E-02 0. -1.
       -1   -1    0    0    0  501  0.00000000000E+00  0.00000000000E+00 -0.31043004752E+03  0.31043004756E+03  0.50400001928E-02 0.  1.
    10030    2    1    2    0    0  0.00000000000E+00  0.00000000000E+00 -0.10693689075E+03  0.51392320439E+03  0.50267440895E+03 0.  0.
        2    1    3    3  502    0 -0.15916689073E+03  0.52403240354E+02 -0.24498411851E+03  0.29681209044E+03  0.25500000920E-02 0.  1.
       -2    1    3    3    0  502  0.15916689073E+03 -0.52403240354E+02  0.13804722776E+03  0.21711111395E+03  0.25500000920E-02 0. -1.
</event>
<event>
 5   0  0.7531632E-02  0.4973295E+03  0.7818609E-02  0.1014478E+00
        1   -1    0    0  501    0  0.00000000000E+00  0.00000000000E+00  0.41758488677E+03  0.41758488680E+03  0.50400001928E-02 0. -1.
       -1   -1    0    0    0  501  0.00000000000E+00  0.00000000000E+00 -0.14807563315E+03  0.14807563324E+03  0.50400001928E-02 0.  1.
    10030    2    1    2    0    0  0.00000000000E+00  0.00000000000E+00  0.26950925362E+03  0.56566052004E+03  0.49732945433E+03 0.  0.
        3    1    3    3  502    0 -0.60806894064E+02  0.56704954007E+02 -0.13179723518E+03  0.15583148455E+03  0.10100000352E+00 0.  1.
       -3    1    3    3    0  502  0.60806894064E+02 -0.56704954007E+02  0.40130648880E+03  0.40982903549E+03  0.10100000352E+00 0. -1.
</event>
<event>
 5   0  0.1231822E-01  0.5026275E+03  0.7818609E-02  0.1013095E+00
        2   -1    0    0  501    0  0.00000000000E+00  0.00000000000E+00  0.82525488599E+03  0.82525488599E+03  0.25500000920E-02 0. -1.
       -2   -1    0    0    0  501  0.00000000000E+00  0.00000000000E+00 -0.76532250246E+02  0.76532250289E+02  0.25500000920E-02 0.  1.
    10030    2    1    2    0    0  0.00000000000E+00  0.00000000000E+00  0.74872263574E+03  0.90178713628E+03  0.50262754987E+03 0.  0.
        1    1    3    3  502    0 -0.57914612365E+02  0.17308205843E+03  0.64398995983E+02  0.19354258442E+03  0.50400001928E-02 0.  1.
       -1    1    3    3    0  502  0.57914612365E+02 -0.17308205843E+03  0.68432363976E+03  0.70824455185E+03  0.50400001928E-02 0. -1.
</event>
<event>
 5   0  0.7602288E-02  0.5011824E+03  0.7818609E-02  0.1013471E+00
       -1   -1    0    0    0  501  0.00000000000E+00  0.00000000000E+00  0.96491311081E+02  0.96491311213E+02  0.50400001928E-02 0. -1.
        1   -1    0    0  501    0  0.00000000000E+00  0.00000000000E+00 -0.65079374501E+03  0.65079374503E+03  0.50400001928E-02 0.  1.
    10030    2    1    2    0    0  0.00000000000E+00  0.00000000000E+00 -0.55430243393E+03  0.74728505625E+03  0.50118236903E+03 0.  0.
        5    1    3    3  502    0 -0.23086473453E+03  0.77629854500E+02 -0.18958576047E+03  0.30869041212E+03  0.46999998093E+01 0. -1.
       -5    1    3    3    0  502  0.23086473453E+03 -0.77629854500E+02 -0.36471667346E+03  0.43859464413E+03  0.46999998093E+01 0.  1.
</event>
<event>
 5   0  0.1279188E-01  0.4976164E+03  0.7818609E-02  0.1014403E+00
       -2   -1    0    0    0  501  0.00000000000E+00  0.00000000000E+00  0.11040770104E+03  0.11040770107E+03  0.25500000920E-02 0.  1.
        2   -1    0    0  501    0  0.00000000000E+00  0.00000000000E+00 -0.56069936844E+03  0.56069936845E+03  0.25500000920E-02 0. -1.
    10030    2    1    2    0    0  0.00000000000E+00  0.00000000000E+00 -0.45029166740E+03  0.67110706952E+03  0.49761643163E+03 0.  0.
        2    1    3    3  502    0  0.17949358050E+03  0.17000571356E+03 -0.26294732555E+03  0.36091714299E+03  0.25500000920E-02 0. -1.
       -2    1    3    3    0  502 -0.17949358050E+03 -0.17000571356E+03 -0.18734434185E+03  0.31018992652E+03  0.25500000920E-02 0.  1.
</event>
<event>
 5   0  0.7781754E-02  0.5004378E+03  0.7818609E-02  0.1013665E+00
        1   -1    0    0  501    0  0.00000000000E+00  0.00000000000E+00  0.52705680590E+03  0.52705680592E+03  0.50400001928E-02 0.  1.
       -1   -1    0    0    0  501  0.00000000000E+00  0.00000000000E+00 -0.11879077976E+03  0.11879077987E+03  0.50400001928E-02 0. -1.
    10030    2    1    2    0    0  0.00000000000E+00  0.00000000000E+00  0.40826602614E+03  0.64584758579E+03  0.50043776433E+03 0.  0.
        2    1    3    3  502    0  0.59822814843E+02 -0.24293394585E+03  0.20893033443E+03  0.32595637112E+03  0.25500000920E-02 0.  1.
       -2    1    3    3    0  502 -0.59822814843E+02  0.24293394585E+03  0.19933569172E+03  0.31989121467E+03  0.25500000920E-02 0. -1.
</event>
<event>
 5   0  0.1191894E-01  0.5029830E+03  0.7818609E-02  0.1013003E+00
       -2   -1    0    0    0  501  0.00000000000E+00  0.00000000000E+00  0.12675609999E+03  0.12675610001E+03  0.25500000920E-02 0. -1.
        2   -1    0    0  501    0  0.00000000000E+00  0.00000000000E+00 -0.49897374446E+03  0.49897374446E+03  0.25500000920E-02 0.  1.
    10030    2    1    2    0    0  0.00000000000E+00  0.00000000000E+00 -0.37221764447E+03  0.62572984448E+03  0.50298296533E+03 0.  0.
        3    1    3    3  502    0  0.39754091307E+02 -0.23894889463E+03 -0.27021713106E+03  0.36289705170E+03  0.10100000352E+00 0.  1.
       -3    1    3    3    0  502 -0.39754091307E+02  0.23894889463E+03 -0.10200051342E+03  0.26283279277E+03  0.10100000352E+00 0. -1.
</event>
<event>
 5   0  0.7416638E-02  0.5060721E+03  0.7818609E-02  0.1012206E+00
        1   -1    0    0  501    0  0.00000000000E+00  0.00000000000E+00  0.11405109402E+03  0.11405109414E+03  0.50400001928E-02 0.  1.
       -1   -1    0    0    0  501  0.00000000000E+00  0.00000000000E+00 -0.56139087770E+03  0.56139087772E+03  0.50400001928E-02 0. -1.
    10030    2    1    2    0    0  0.00000000000E+00  0.00000000000E+00 -0.44733978367E+03  0.67544197185E+03  0.50607210483E+03 0.  0.
        1    1    3    3  502    0  0.22745021714E+02 -0.13645720693E+03 -0.50644895248E+03  0.52500328268E+03  0.50400001928E-02 0. -1.
       -1    1    3    3    0  502 -0.22745021714E+02  0.13645720693E+03  0.59109168807E+02  0.15043868917E+03  0.50400001928E-02 0.  1.
</event>
<event>
 5   0  0.1191894E-01  0.4673415E+03  0.7818609E-02  0.1022673E+00
       -2   -1    0    0    0  501  0.00000000000E+00  0.00000000000E+00  0.17173232752E+03  0.17173232754E+03  0.25500000920E-02 0.  1.
        2   -1    0    0  501    0  0.00000000000E+00  0.00000000000E+00 -0.31794833993E+03  0.31794833994E+03  0.25500000920E-02 0. -1.
    10030    2    1    2    0    0  0.00000000000E+00  0.00000000000E+00 -0.14621601241E+03  0.48968066748E+03  0.46734145313E+03 0.  0.
        3    1    3    3  502    0  0.61493948141E+02 -0.11680834119E+03  0.12892008446E+03  0.18451583295E+03  0.10100000352E+00 0.  1.
       -3    1    3    3    0  502 -0.61493948141E+02  0.11680834119E+03 -0.27513609687E+03  0.30516483453E+03  0.10100000352E+00 0. -1.
</event>
<event>
 5   0  0.7531632E-02  0.4912935E+03  0.7818609E-02  0.1016077E+00
       -1   -1    0    0    0  501  0.00000000000E+00  0.00000000000E+00  0.52693876380E+02  0.52693876621E+02  0.50400001928E-02 0. -1.
        1   -1    0    0  501    0  0.00000000000E+00  0.00000000000E+00 -0.11451488716E+04  0.11451488716E+04  0.50400001928E-02 0.  1.
    10030    2    1    2    0    0  0.00000000000E+00  0.00000000000E+00 -0.10924549952E+04  0.11978427483E+04  0.49129353030E+03 0.  0.
        3    1    3    3  502    0 -0.21680055746E+03 -0.38116931413E+02 -0.28040372715E+03  0.35648512251E+03  0.10100000352E+00 0.  1.
       -3    1    3    3    0  502  0.21680055746E+03  0.38116931413E+02 -0.81205126810E+03  0.84135762574E+03  0.10100000352E+00 0. -1.
</event>
<event>
 5   0  0.7602288E-02  0.4992246E+03  0.7818609E-02  0.1013982E+00
        1   -1    0    0  501    0  0.00000000000E+00  0.00000000000E+00  0.92659140207E+02  0.92659140344E+02  0.50400001928E-02 0. -1.
       -1   -1    0    0    0  501  0.00000000000E+00  0.00000000000E+00 -0.67242466154E+03  0.67242466156E+03  0.50400001928E-02 0.  1.
    10030    2    1    2    0    0  0.00000000000E+00  0.00000000000E+00 -0.57976552134E+03  0.76508380191E+03  0.49922456291E+03 0.  0.
        5    1    3    3  502    0 -0.20144041171E+03  0.75706158143E+02 -0.48358169513E+03  0.52932316000E+03  0.46999998093E+01 0.  1.
       -5    1    3    3    0  502  0.20144041171E+03 -0.75706158143E+02 -0.96183826207E+02  0.23576064191E+03  0.46999998093E+01 0. -1.
</event>
<event>
 5   0  0.7531632E-02  0.4898925E+03  0.7818609E-02  0.1016451E+00
        1   -1    0    0  501    0  0.00000000000E+00  0.00000000000E+00  0.78451096357E+03  0.78451096358E+03  0.50400001928E-02 0. -1.
       -1   -1    0    0    0  501  0.00000000000E+00  0.00000000000E+00 -0.76479052187E+02  0.76479052353E+02  0.50400001928E-02 0.  1.
    10030    2    1    2    0    0  0.00000000000E+00  0.00000000000E+00  0.70803191138E+03  0.86099001593E+03  0.48989245760E+03 0.  0.
        3    1    3    3  502    0 -0.15181536719E+03  0.28401000548E+02  0.68814651954E+03  0.70526602435E+03  0.10100000352E+00 0. -1.
       -3    1    3    3    0  502  0.15181536719E+03 -0.28401000548E+02  0.19885391839E+02  0.15572399159E+03  0.10100000352E+00 0.  1.
</event>
<event>
 5   0  0.1211345E-01  0.4968645E+03  0.7818609E-02  0.1014601E+00
        2   -1    0    0  501    0  0.00000000000E+00  0.00000000000E+00  0.48908757401E+03  0.48908757402E+03  0.25500000920E-02 0.  1.
       -2   -1    0    0    0  501  0.00000000000E+00  0.00000000000E+00 -0.12619126884E+03  0.12619126887E+03  0.25500000920E-02 0. -1.
    10030    2    1    2    0    0  0.00000000000E+00  0.00000000000E+00  0.36289630517E+03  0.61527884288E+03  0.49686449480E+03 0.  0.
        5    1    3    3  502    0 -0.94142019455E+02 -0.18304015669E+02  0.46518022885E+03  0.47498683364E+03  0.46999998093E+01 0.  1.
       -5    1    3    3    0  502  0.94142019455E+02  0.18304015669E+02 -0.10228392368E+03  0.14029200925E+03  0.46999998093E+01 0. -1.
</event>
<event>
 5   0  0.1231822E-01  0.5018290E+03  0.7818609E-02  0.1013303E+00
       -2   -1    0    0    0  501  0.00000000000E+00  0.00000000000E+00  0.69047548765E+03  0.69047548765E+03  0.25500000920E-02 0.  1.
        2   -1    0    0  501    0  0.00000000000E+00  0.00000000000E+00 -0.91180752831E+02  0.91180752866E+02  0.25500000920E-02 0. -1.
    10030    2    1    2    0    0  0.00000000000E+00  0.00000000000E+00  0.59929473482E+03  0.78165624052E+03  0.50182895409E+03 0.  0.
        1    1    3    3  502    0 -0.11718936585E+03 -0.17467608232E+03  0.86572749482E+02  0.22746411185E+03  0.50400001928E-02 0. -1.
       -1    1    3    3    0  502  0.11718936585E+03  0.17467608232E+03  0.51272198534E+03  0.55419212867E+03  0.50400001928E-02 0.  1.
</event>
<event>
 5   0  0.1231822E-01  0.4772518E+03  0.7818609E-02  0.1019893E+00
       -2   -1    0    0    0  501  0.00000000000E+00  0.00000000000E+00  0.44513829801E+02  0.44513829874E+02  0.25500000920E-02 0. -1.
        2   -1    0    0  501    0  0.00000000000E+00  0.00000000000E+00 -0.12792050792E+04  0.12792050792E+04  0.25500000920E-02 0.  1.
    10030    2    1    2    0    0  0.00000000000E+00  0.00000000000E+00 -0.12346912494E+04  0.13237189091E+04  0.47725178775E+03 0.  0.
        1    1    3    3  502    0 -0.28445530569E+02 -0.20374867138E+03 -0.95270979806E+03  0.97466847115E+03  0.50400001928E-02 0.  1.
       -1    1    3    3    0  502  0.28445530569E+02  0.20374867138E+03 -0.28198145137E+03  0.34905043796E+03  0.50400001928E-02 0. -1.
</event>
<event>
 5   0  0.7781754E-02  0.4985555E+03  0.7818609E-02  0.1014157E+00
        1   -1    0    0  501    0  0.00000000000E+00  0.00000000000E+00  0.10438030991E+04  0.10438030991E+04  0.50400001928E-02 0.  1.
       -1   -1    0    0    0  501  0.00000000000E+00  0.00000000000E+00 -0.59531732145E+02  0.59531732358E+02  0.50400001928E-02 0. -1.
    10030    2    1    2    0    0  0.00000000000E+00  0.00000000000E+00  0.98427136696E+03  0.11033348315E+04  0.49855554006E+03 0.  0.
        2    1    3    3  502    0 -0.75732943054E+02 -0.92463752578E+02  0.80138826638E+01  0.11978834053E+03  0.25500000920E-02 0. -1.
       -2    1    3    3    0  502  0.75732943054E+02  0.92463752578E+02  0.97625748430E+03  0.98354649095E+03  0.25500000920E-02 0.  1.
</event>
<event>
 5   0  0.5006750E-02  0.5061003E+03  0.7818609E-02  0.1012199E+00
        4   -1    0    0  501    0  0.00000000000E+00  0.00000000000E+00  0.18122777574E+03  0.18123222561E+03  0.12699999809E+01 0.  1.
       -4   -1    0    0    0  501  0.00000000000E+00  0.00000000000E+00 -0.35332645408E+03  0.35332873652E+03  0.12699999809E+01 0. -1.
    10030    2    1    2    0    0  0.00000000000E+00  0.00000000000E+00 -0.17209867834E+03  0.53456096213E+03  0.50610025404E+03 0.  0.
        2    1    3    3  502    0 -0.19220701264E+02 -0.23055920698E+03  0.22220620849E+02  0.23242362031E+03  0.25500000920E-02 0.  1.
       -2    1    3    3    0  502  0.19220701264E+02  0.23055920698E+03 -0.19431929919E+03  0.30213734182E+03  0.25500000920E-02 0. -1.
</event>
<event>
 5   0  0.1279188E-01  0.5007857E+03  0.7818609E-02  0.1013574E+00
        2   -1    0    0  501    0  0.00000000000E+00  0.00000000000E+00  0.43009329393E+03  0.43009329393E+03  0.25500000920E-02 0.  1.
       -2   -1    0    0    0  501  0.00000000000E+00  0.00000000000E+00 -0.14577438688E+03  0.14577438690E+03  0.25500000920E-02 0. -1.
    10030    2    1    2    0    0  0.00000000000E+00  0.00000000000E+00  0.28431890705E+03  0.57586768083E+03  0.50078572755E+03 0.  0.
        2    1    3    3  502    0 -0.12197202451E+03 -0.21764382318E+03  0.11775013773E+03  0.27588240878E+03  0.25500000920E-02 0. -1.
       -2    1    3    3    0  502  0.12197202451E+03  0.21764382318E+03  0.16656876933E+03  0.29998527206E+03  0.25500000920E-02 0.  1.
</event>
<event>
 5   0  0.7602288E-02  0.4986104E+03  0.7818609E-02  0.1014142E+00
        1   -1    0    0  501    0  0.00000000000E+00  0.00000000000E+00  0.82426072260E+03  0.82426072262E+03  0.50400001928E-02 0.  1.
       -1   -1    0    0    0  501  0.00000000000E+00  0.00000000000E+00 -0.75404646572E+02  0.75404646740E+02  0.50400001928E-02 0. -1.
    10030    2    1    2    0    0  0.00000000000E+00  0.00000000000E+00  0.74885607603E+03  0.89966536936E+03  0.49861042329E+03 0.  0.
        5    1    3    3  502    0  0.13350348360E+03 -0.96713703393E+02  0.71176957437E+03  0.73062626394E+03  0.46999998093E+01 0.  1.
       -5    1    3    3    0  502 -0.13350348360E+03  0.96713703393E+02  0.37086501664E+02  0.16903910542E+03  0.46999998093E+01 0. -1.
</event>
<event>
 5   0  0.7812547E-02  0.4976639E+03  0.7818609E-02  0.1014390E+00
       -1   -1    0    0    0  501  0.00000000000E+00  0.00000000000E+00  0.35284296789E+03  0.35284296793E+03  0.50400001928E-02 0.  1.
        1   -1    0    0  501    0  0.00000000000E+00  0.00000000000E+00 -0.17548126548E+03  0.17548126556E+03  0.50400001928E-02 0. -1.
    10030    2    1    2    0    0  0.00000000000E+00  0.00000000000E+00  0.17736170241E+03  0.52832423348E+03  0.49766386468E+03 0.  0.
        4    1    3    3  502    0  0.18641299786E+03 -0.12042544764E+03  0.20814660229E+03  0.30426750591E+03  0.12699999809E+01 0.  1.
       -4    1    3    3    0  502 -0.18641299786E+03  0.12042544764E+03 -0.30784899879E+02  0.22405672757E+03  0.12699999809E+01 0. -1.
</event>
<event>
 5   0  0.7531632E-02  0.5108153E+03  0.7818609E-02  0.1010994E+00
        1   -1    0    0  501    0  0.00000000000E+00  0.00000000000E+00  0.11310019379E+03  0.11310019390E+03  0.50400001928E-02 0.  1.
       -1   -1    0    0    0  501  0.00000000000E+00  0.00000000000E+00 -0.57677228262E+03  0.57677228264E+03  0.50400001928E-02 0. -1.
    10030    2    1    2    0    0  0.00000000000E+00  0.00000000000E+00 -0.46367208883E+03  0.68987247654E+03  0.51081525813E+03 0.  0.
        3    1    3    3  502    0  0.20125009276E+03  0.36385166351E+02 -0.43846115132E+03  0.48381160754E+03  0.10100000352E+00 0. -1.
       -3    1    3    3    0  502 -0.20125009276E+03 -0.36385166351E+02 -0.25210937503E+02  0.20606086901E+03  0.10100000352E+00 0.  1.
</event>
<event>
 5   0  0.7531632E-02  0.5073563E+03  0.7818609E-02  0.1011876E+00
        1   -1    0    0  501    0  0.00000000000E+00  0.00000000000E+00  0.17719918022E+03  0.17719918029E+03  0.50400001928E-02 0.  1.
       -1   -1    0    0    0  501  0.00000000000E+00  0.00000000000E+00 -0.36316529695E+03  0.36316529699E+03  0.50400001928E-02 0. -1.
    10030    2    1    2    0    0  0.00000000000E+00  0.00000000000E+00 -0.18596611674E+03  0.54036447728E+03  0.50735625721E+03 0.  0.
        3    1    3    3  502    0 -0.16937214874E+03  0.14781178356E+03 -0.21817774802E+03  0.31326791738E+03  0.10100000352E+00 0. -1.
       -3    1    3    3    0  502  0.16937214874E+03 -0.14781178356E+03  0.32211631281E+02  0.22709655990E+03  0.10100000352E+00 0.  1.
</event>
<event>
 5   0  0.1279188E-01  0.4976612E+03  0.7818609E-02  0.1014391E+00
        2   -1    0    0  501    0  0.00000000000E+00  0.00000000000E+00  0.50841661243E+03  0.50841661244E+03  0.25500000920E-02 0.  1.
       -2   -1    0    0    0  501  0.00000000000E+00  0.00000000000E+00 -0.12178331215E+03  0.12178331218E+03  0.25500000920E-02 0. -1.
    10030    2    1    2    0    0  0.00000000000E+00  0.00000000000E+00  0.38663330028E+03  0.63019992462E+03  0.49766116596E+03 0.  0.
        2    1    3    3  502    0 -0.16926974638E+03 -0.42419444843E+02  0.41794185215E+03  0.45290953636E+03  0.25500000920E-02 0.  1.
       -2    1    3    3    0  502  0.16926974638E+03  0.42419444843E+02 -0.31308551867E+02  0.17729038826E+03  0.25500000920E-02 0. -1.
</event>
<event>
 5   0  0.1279188E-01  0.5066579E+03  0.7818609E-02  0.1012056E+00
       -2   -1    0    0    0  501  0.00000000000E+00  0.00000000000E+00  0.54303097748E+03  0.54303097749E+03  0.25500000920E-02 0.  1.
        2   -1    0    0  501    0  0.00000000000E+00  0.00000000000E+00 -0.11818028724E+03  0.11818028727E+03  0.25500000920E-02 0. -1.
    10030    2    1    2    0    0  0.00000000000E+00  0.00000000000E+00  0.42485069025E+03  0.66121126476E+03  0.50665790001E+03 0.  0.
        2    1    3    3  502    0  0.16316743536E+03  0.36351706266E+02 -0.35980939537E+02  0.17099615939E+03  0.25500000920E-02 0. -1.
       -2    1    3    3    0  502 -0.16316743536E+03 -0.36351706266E+02  0.46083162978E+03  0.49021510536E+03  0.25500000920E-02 0.  1.
</event>
<event>
 5   0  0.7812547E-02  0.4960853E+03  0.7818609E-02  0.1014806E+00
        1   -1    0    0  501    0  0.00000000000E+00  0.00000000000E+00  0.40675314836E+03  0.40675314839E+03  0.50400001928E-02 0. -1.
       -1   -1    0    0    0  501  0.00000000000E+00  0.00000000000E+00 -0.15125923073E+03  0.15125923082E+03  0.50400001928E-02 0.  1.
    10030    2    1    2    0    0  0.00000000000E+00  0.00000000000E+00  0.25549391762E+03  0.55801237920E+03  0.49608534891E+03 0.  0.
        4    1    3    3  502    0 -0.23773712240E+03 -0.19476622176E+02  0.51247860038E+02  0.24397998737E+03  0.12699999809E+01 0.  1.
       -4    1    3    3    0  502  0.23773712240E+03  0.19476622176E+02  0.20424605759E+03  0.31403239183E+03  0.12699999809E+01 0. -1.
</event>
<event>
 5   0  0.7416638E-02  0.5051529E+03  0.7818609E-02  0.1012443E+00
        1   -1    0    0  501    0  0.00000000000E+00  0.00000000000E+00  0.92955143703E+02  0.92955143840E+02  0.50400001928E-02 0. -1.
       -1   -1    0    0    0  501  0.00000000000E+00  0.00000000000E+00 -0.68629741754E+03  0.68629741756E+03  0.50400001928E-02 0.  1.
    10030    2    1    2    0    0  0.00000000000E+00  0.00000000000E+00 -0.59334227384E+03  0.77925256140E+03  0.50515294765E+03 0.  0.
        1    1    3    3  502    0 -0.59422852175E+02  0.15979523539E+03 -0.58414823509E+03  0.60851849043E+03  0.50400001928E-02 0.  1.
       -1    1    3    3    0  502  0.59422852175E+02 -0.15979523539E+03 -0.91940387470E+01  0.17073407097E+03  0.50400001928E-02 0. -1.
</event>
<event>
 5   0  0.5006750E-02  0.4327611E+03  0.7818609E-02  0.1032991E+00
        3   -1    0    0  501    0  0.00000000000E+00  0.00000000000E+00  0.59766537239E+02  0.59766622579E+02  0.10100000352E+00 0.  1.
       -3   -1    0    0    0  501  0.00000000000E+00  0.00000000000E+00 -0.78339008979E+03  0.78339009630E+03  0.10100000352E+00 0. -1.
    10030    2    1    2    0    0  0.00000000000E+00  0.00000000000E+00 -0.72362355255E+03  0.84315671888E+03  0.43276114288E+03 0.  0.
        5    1    3    3  502    0  0.15320668611E+03 -0.11546680972E+03 -0.55658120293E+03  0.58873559283E+03  0.46999998093E+01 0.  1.
       -5    1    3    3    0  502 -0.15320668611E+03  0.11546680972E+03 -0.16704234963E+03  0.25442112605E+03  0.46999998093E+01 0. -1.
</event>
<event>
 5   0  0.7812547E-02  0.5041170E+03  0.7818609E-02  0.1012710E+00
        1   -1    0    0  501    0  0.00000000000E+00  0.00000000000E+00  0.26928742954E+03  0.26928742959E+03  0.50400001928E-02 0.  1.
       -1   -1    0    0    0  501  0.00000000000E+00  0.00000000000E+00 -0.23593190374E+03  0.23593190379E+03  0.50400001928E-02 0. -1.
    10030    2    1    2    0    0  0.00000000000E+00  0.00000000000E+00  0.33355525809E+02  0.50521933338E+03  0.50411703375E+03 0.  0.
        4    1    3    3  502    0 -0.22025891628E+03 -0.10438336278E+03  0.81021002062E+02  0.25685772775E+03  0.12699999809E+01 0.  1.
       -4    1    3    3    0  502  0.22025891628E+03  0.10438336278E+03 -0.47665476253E+02  0.24836160564E+03  0.12699999809E+01 0. -1.
</event>
<event>
 5   0  0.5006750E-02  0.5021964E+03  0.7818609E-02  0.1013207E+00
       -3   -1    0    0    0  501  0.00000000000E+00  0.00000000000E+00  0.11040298033E+03  0.11040302653E+03  0.10100000352E+00 0. -1.
        3   -1    0    0  501    0  0.00000000000E+00  0.00000000000E+00 -0.57109230933E+03  0.57109231826E+03  0.10100000352E+00 0.  1.
    10030    2    1    2    0    0  0.00000000000E+00  0.00000000000E+00 -0.46068932900E+03  0.68149534479E+03  0.50219642284E+03 0.  0.
        1    1    3    3  502    0  0.79885737433E+02 -0.24500606082E+02 -0.55167222491E+03  0.55796438463E+03  0.50400001928E-02 0.  1.
       -1    1    3    3    0  502 -0.79885737433E+02  0.24500606082E+02  0.90982895916E+02  0.12353096016E+03  0.50400001928E-02 0. -1.
</event>
<event>
 5   0  0.5006750E-02  0.4965380E+03  0.7818609E-02  0.1014687E+00
        3   -1    0    0  501    0  0.00000000000E+00  0.00000000000E+00  0.12113011862E+03  0.12113016073E+03  0.10100000352E+00 0.  1.
       -3   -1    0    0    0  501  0.00000000000E+00  0.00000000000E+00 -0.50885354712E+03  0.50885355715E+03  0.10100000352E+00 0. -1.
    10030    2    1    2    0    0  0.00000000000E+00  0.00000000000E+00 -0.38772342850E+03  0.62998371787E+03  0.49653804263E+03 0.  0.
        2    1    3    3  502    0  0.18685202984E+03  0.14712090997E+03 -0.28428435349E+03  0.37064246498E+03  0.25500000920E-02 0.  1.
       -2    1    3    3    0  502 -0.18685202984E+03 -0.14712090997E+03 -0.10343907501E+03  0.25934125289E+03  0.25500000920E-02 0. -1.
</event>
<event>
 5   0  0.7531632E-02  0.5015275E+03  0.7818609E-02  0.1013381E+00
        1   -1    0    0  501    0  0.00000000000E+00  0.00000000000E+00  0.62980490330E+03  0.62980490332E+03  0.50400001928E-02 0. -1.
       -1   -1    0    0    0  501  0.00000000000E+00  0.00000000000E+00 -0.99844361217E+02  0.99844361344E+02  0.50400001928E-02 0.  1.
    10030    2    1    2    0    0  0.00000000000E+00  0.00000000000E+00  0.52996054208E+03  0.72964926466E+03  0.50152753988E+03 0.  0.
        3    1    3    3  502    0  0.92424068981E+02 -0.13302147346E+03 -0.13522749236E+02  0.16254167428E+03  0.10100000352E+00 0.  1.
       -3    1    3    3    0  502 -0.92424068981E+02  0.13302147346E+03  0.54348329132E+03  0.56710759039E+03  0.10100000352E+00 0. -1.
</event>
<event>
 5   0  0.1231822E-01  0.4990902E+03  0.7818609E-02  0.1014017E+00
        2   -1    0    0  501    0  0.00000000000E+00  0.00000000000E+00  0.14972041229E+04  0.14972041229E+04  0.25500000920E-02 0.  1.
       -2   -1    0    0    0  501  0.00000000000E+00  0.00000000000E+00 -0.41592700847E+02  0.41592700926E+02  0.25500000920E-02 0. -1.
    10030    2    1    2    0    0  0.00000000000E+00  0.00000000000E+00  0.14556114220E+04  0.15387968238E+04  0.49909022532E+03 0.  0.
        1    1    3    3  502    0 -0.48996097758E+02  0.15965221012E+03  0.12995161278E+04  0.13102028897E+04  0.50400001928E-02 0.  1.
       -1    1    3    3    0  502  0.48996097758E+02 -0.15965221012E+03  0.15609529420E+03  0.22859393406E+03  0.50400001928E-02 0. -1.
</event>
<event>
 5   0  0.1191894E-01  0.4970628E+03  0.7818609E-02  0.1014548E+00
       -2   -1    0    0    0  501  0.00000000000E+00  0.00000000000E+00  0.80989771481E+02  0.80989771522E+02  0.25500000920E-02 0. -1.
        2   -1    0    0  501    0  0.00000000000E+00  0.00000000000E+00 -0.76266240262E+03  0.76266240262E+03  0.25500000920E-02 0.  1.
    10030    2    1    2    0    0  0.00000000000E+00  0.00000000000E+00 -0.68167263114E+03  0.84365217415E+03  0.49706278768E+03 0.  0.
        3    1    3    3  502    0  0.33006826664E+02  0.16020650795E+03 -0.65842301020E+03  0.67843676666E+03  0.10100000352E+00 0.  1.
       -3    1    3    3    0  502 -0.33006826664E+02 -0.16020650795E+03 -0.23249620942E+02  0.16521540749E+03  0.10100000352E+00 0. -1.
</event>
<event>
 5   0  0.1231822E-01  0.5023868E+03  0.7818609E-02  0.1013158E+00
        2   -1    0    0  501    0  0.00000000000E+00  0.00000000000E+00  0.12788718666E+04  0.12788718666E+04  0.25500000920E-02 0. -1.
       -2   -1    0    0    0  501  0.00000000000E+00  0.00000000000E+00 -0.49338893268E+02  0.49338893334E+02  0.25500000920E-02 0.  1.
    10030    2    1    2    0    0  0.00000000000E+00  0.00000000000E+00  0.12295329733E+04  0.13282107599E+04  0.50238679351E+03 0.  0.
        1    1    3    3  502    0 -0.38556884692E+02 -0.16719591409E+02  0.12695114204E+04  0.12702068432E+04  0.50400001928E-02 0. -1.
       -1    1    3    3    0  502  0.38556884692E+02  0.16719591409E+02 -0.39978447074E+02  0.58003916677E+02  0.50400001928E-02 0.  1.
</event>
<event>
 5   0  0.5006750E-02  0.4990530E+03  0.7818609E-02  0.1014026E+00
       -3   -1    0    0    0  501  0.00000000000E+00  0.00000000000E+00  0.38468677156E+03  0.38468678482E+03  0.10100000352E+00 0. -1.
        3   -1    0    0  501    0  0.00000000000E+00  0.00000000000E+00 -0.16185493205E+03  0.16185496356E+03  0.10100000352E+00 0.  1.
    10030    2    1    2    0    0  0.00000000000E+00  0.00000000000E+00  0.22283183952E+03  0.54654174838E+03  0.49905295713E+03 0.  0.
        4    1    3    3  502    0  0.85963628763E+02 -0.13693821606E+03 -0.96721784639E+02  0.18841055440E+03  0.12699999809E+01 0.  1.
       -4    1    3    3    0  502 -0.85963628763E+02  0.13693821606E+03  0.31955362416E+03  0.35813119398E+03  0.12699999809E+01 0. -1.
</event>
<event>
 5   0  0.1191894E-01  0.5002156E+03  0.7818609E-02  0.1013723E+00
       -2   -1    0    0    0  501  0.00000000000E+00  0.00000000000E+00  0.11889209985E+03  0.11889209987E+03  0.25500000920E-02 0. -1.
        2   -1    0    0  501    0  0.00000000000E+00  0.00000000000E+00 -0.52614018388E+03  0.52614018388E+03  0.25500000920E-02 0.  1.
    10030    2    1    2    0    0  0.00000000000E+00  0.00000000000E+00 -0.40724808403E+03  0.64503228376E+03  0.50021559866E+03 0.  0.
        3    1    3    3  502    0  0.66639047140E+02 -0.59393693291E+02 -0.50489896038E+03  0.51272930851E+03  0.10100000352E+00 0.  1.
       -3    1    3    3    0  502 -0.66639047140E+02  0.59393693291E+02  0.97650876352E+02  0.13230297525E+03  0.10100000352E+00 0. -1.
</event>
<event>
 5   0  0.1211345E-01  0.4884371E+03  0.7818609E-02  0.1016842E+00
       -2   -1    0    0    0  501  0.00000000000E+00  0.00000000000E+00  0.36123464679E+02  0.36123464769E+02  0.25500000920E-02 0.  1.
        2   -1    0    0  501    0  0.00000000000E+00  0.00000000000E+00 -0.16510789355E+04  0.16510789355E+04  0.25500000920E-02 0. -1.
    10030    2    1    2    0    0  0.00000000000E+00  0.00000000000E+00 -0.16149554708E+04  0.16872024003E+04  0.48843706528E+03 0.  0.
        5    1    3    3  502    0 -0.19693098233E+03  0.50857940439E+02 -0.12741552670E+04  0.12902953446E+04  0.46999998093E+01 0.  1.
       -5    1    3    3    0  502  0.19693098233E+03 -0.50857940439E+02 -0.34080020381E+03  0.39690705564E+03  0.46999998093E+01 0. -1.
</event>
<event>
 5   0  0.5006750E-02  0.4302562E+03  0.7818609E-02  0.1033779E+00
       -4   -1    0    0    0  501  0.00000000000E+00  0.00000000000E+00  0.10407639008E+03  0.10408413842E+03  0.12699999809E+01 0. -1.
        4   -1    0    0  501    0  0.00000000000E+00  0.00000000000E+00 -0.44464914731E+03  0.44465096099E+03  0.12699999809E+01 0.  1.
    10030    2    1    2    0    0  0.00000000000E+00  0.00000000000E+00 -0.34057275723E+03  0.54873509941E+03  0.43025621013E+03 0.  0.
        2    1    3    3  502    0 -0.95759864733E+02  0.83040853060E+02  0.51401700424E+02  0.13677671506E+03  0.25500000920E-02 0. -1.
       -2    1    3    3    0  502  0.95759864733E+02 -0.83040853060E+02 -0.39197445766E+03  0.41195838435E+03  0.25500000920E-02 0.  1.
</event>
<event>
 5   0  0.7416638E-02  0.4953565E+03  0.7818609E-02  0.1014998E+00
       -1   -1    0    0    0  501  0.00000000000E+00  0.00000000000E+00  0.29727503577E+03  0.29727503581E+03  0.50400001928E-02 0.  1.
        1   -1    0    0  501    0  0.00000000000E+00  0.00000000000E+00 -0.20635608688E+03  0.20635608694E+03  0.50400001928E-02 0. -1.
    10030    2    1    2    0    0  0.00000000000E+00  0.00000000000E+00  0.90918948887E+02  0.50363112275E+03  0.49535649035E+03 0.  0.
        1    1    3    3  502    0  0.18363538276E+03  0.15446033128E+02 -0.12278584150E+03  0.22144276154E+03  0.50400001928E-02 0. -1.
       -1    1    3    3    0  502 -0.18363538276E+03 -0.15446033128E+02  0.21370479039E+03  0.28218836121E+03  0.50400001928E-02 0.  1.
</event>
<event>
 5   0  0.1231822E-01  0.4687934E+03  0.7818609E-02  0.1022261E+00
       -2   -1    0    0    0  501  0.00000000000E+00  0.00000000000E+00  0.14131648718E+03  0.14131648720E+03  0.25500000920E-02 0.  1.
        2   -1    0    0  501    0  0.00000000000E+00  0.00000000000E+00 -0.38878565883E+03  0.38878565884E+03  0.25500000920E-02 0. -1.
    10030    2    1    2    0    0  0.00000000000E+00  0.00000000000E+00 -0.24746917166E+03  0.53010214604E+03  0.46879344526E+03 0.  0.
        1    1    3    3  502    0  0.78185190651E+02 -0.15079651280E+03 -0.30638023812E+03  0.35031608962E+03  0.50400001928E-02 0. -1.
       -1    1    3    3    0  502 -0.78185190651E+02  0.15079651280E+03  0.58911066463E+02  0.17978605643E+03  0.50400001928E-02 0.  1.
</event>
<event>
 5   0  0.7531632E-02  0.5044124E+03  0.7818609E-02  0.1012634E+00
       -1   -1    0    0    0  501  0.00000000000E+00  0.00000000000E+00  0.12974841964E+03  0.12974841974E+03  0.50400001928E-02 0.  1.
        1   -1    0    0  501    0  0.00000000000E+00  0.00000000000E+00 -0.49024084200E+03  0.49024084203E+03  0.50400001928E-02 0. -1.
    10030    2    1    2    0    0  0.00000000000E+00  0.00000000000E+00 -0.36049242236E+03  0.61998926177E+03  0.50441242860E+03 0.  0.
        3    1    3    3  502    0 -0.14046951413E+03 -0.12302465128E+03 -0.38862377254E+03  0.43115565172E+03  0.10100000352E+00 0. -1.
       -3    1    3    3    0  502  0.14046951413E+03  0.12302465128E+03  0.28131350178E+02  0.18883361005E+03  0.10100000352E+00 0.  1.
</event>
<event>
 5   0  0.5006750E-02  0.4959352E+03  0.7818609E-02  0.1014845E+00
       -3   -1    0    0    0  501  0.00000000000E+00  0.00000000000E+00  0.10160386085E+03  0.10160391105E+03  0.10100000352E+00 0.  1.
        3   -1    0    0  501    0  0.00000000000E+00  0.00000000000E+00 -0.60517301817E+03  0.60517302659E+03  0.10100000352E+00 0. -1.
    10030    2    1    2    0    0  0.00000000000E+00  0.00000000000E+00 -0.50356915732E+03  0.70677693765E+03  0.49593522096E+03 0.  0.
        5    1    3    3  502    0  0.80069142743E+02 -0.23453032201E+03 -0.24167650158E+03  0.34618659849E+03  0.46999998093E+01 0.  1.
       -5    1    3    3    0  502 -0.80069142743E+02  0.23453032201E+03 -0.26189265574E+03  0.36059033915E+03  0.46999998093E+01 0. -1.
</event>
<event>
 5   0  0.7781754E-02  0.5646923E+03  0.7818609E-02  0.9981493E-01
       -1   -1    0    0    0  501  0.00000000000E+00  0.00000000000E+00  0.36157229251E+03  0.36157229254E+03  0.50400001928E-02 0. -1.
        1   -1    0    0  501    0  0.00000000000E+00  0.00000000000E+00 -0.22047972239E+03  0.22047972245E+03  0.50400001928E-02 0.  1.
    10030    2    1    2    0    0  0.00000000000E+00  0.00000000000E+00  0.14109257011E+03  0.58205201500E+03  0.56469233643E+03 0.  0.
        2    1    3    3  502    0  0.89265683864E+02 -0.17591613476E+03  0.27875743667E+03  0.34149752164E+03  0.25500000920E-02 0. -1.
       -2    1    3    3    0  502 -0.89265683864E+02  0.17591613476E+03 -0.13766486655E+03  0.24055449335E+03  0.25500000920E-02 0.  1.
</event>
<event>
 5   0  0.7812547E-02  0.5000108E+03  0.7818609E-02  0.1013776E+00
       -1   -1    0    0    0  501  0.00000000000E+00  0.00000000000E+00  0.21906242660E+03  0.21906242665E+03  0.50400001928E-02 0.  1.
        1   -1    0    0  501    0  0.00000000000E+00  0.00000000000E+00 -0.28531907227E+03  0.28531907231E+03  0.50400001928E-02 0. -1.
    10030    2    1    2    0    0  0.00000000000E+00  0.00000000000E+00 -0.66256645669E+02  0.50438149896E+03  0.50001075329E+03 0.  0.
        4    1    3    3  502    0  0.22186236366E+03 -0.98240585709E+02  0.27622315958E+02  0.24421041405E+03  0.12699999809E+01 0.  1.
       -4    1    3    3    0  502 -0.22186236366E+03  0.98240585709E+02 -0.93878961627E+02  0.26017108492E+03  0.12699999809E+01 0. -1.
</event>
<event>
 5   0  0.1243803E-01  0.5268119E+03  0.7818609E-02  0.1007008E+00
       -2   -1    0    0    0  501  0.00000000000E+00  0.00000000000E+00  0.51123522856E+02  0.51123522920E+02  0.25500000920E-02 0.  1.
        2   -1    0    0  501    0  0.00000000000E+00  0.00000000000E+00 -0.13571579144E+04  0.13571579144E+04  0.25500000920E-02 0. -1.
    10030    2    1    2    0    0  0.00000000000E+00  0.00000000000E+00 -0.13060343916E+04  0.14082814374E+04  0.52681189700E+03 0.  0.
        4    1    3    3  502    0 -0.15970133162E+03  0.21996833192E+01 -0.12129375374E+04  0.12234085321E+04  0.12699999809E+01 0. -1.
       -4    1    3    3    0  502  0.15970133162E+03 -0.21996833192E+01 -0.93096854157E+02  0.18487290522E+03  0.12699999809E+01 0.  1.
</event>
<event>
 5   0  0.7602288E-02  0.5060248E+03  0.7818609E-02  0.1012218E+00
       -1   -1    0    0    0  501  0.00000000000E+00  0.00000000000E+00  0.26139084478E+03  0.26139084483E+03  0.50400001928E-02 0.  1.
        1   -1    0    0  501    0  0.00000000000E+00  0.00000000000E+00 -0.24490247517E+03  0.24490247523E+03  0.50400001928E-02 0. -1.
    10030    2    1    2    0    0  0.00000000000E+00  0.00000000000E+00  0.16488369607E+02  0.50629332005E+03  0.50602476184E+03 0.  0.
        5    1    3    3  502    0  0.32408226775E+02 -0.23252840199E+03  0.10249303170E+03  0.25621604641E+03  0.46999998093E+01 0.  1.
       -5    1    3    3    0  502 -0.32408226775E+02  0.23252840199E+03 -0.86004662090E+02  0.25007727364E+03  0.46999998093E+01 0. -1.
</event>
<event>
 5   0  0.5006750E-02  0.4999570E+03  0.7818609E-02  0.1013790E+00
       -3   -1    0    0    0  501  0.00000000000E+00  0.00000000000E+00  0.35988387017E+03  0.35988388434E+03  0.10100000352E+00 0. -1.
        3   -1    0    0  501    0  0.00000000000E+00  0.00000000000E+00 -0.17363722677E+03  0.17363725614E+03  0.10100000352E+00 0.  1.
    10030    2    1    2    0    0  0.00000000000E+00  0.00000000000E+00  0.18624664340E+03  0.53352114048E+03  0.49995699331E+03 0.  0.
        5    1    3    3  502    0 -0.21604248304E+02 -0.19655594985E+03 -0.69998771904E+02  0.20981635549E+03  0.46999998093E+01 0.  1.
       -5    1    3    3    0  502  0.21604248304E+02  0.19655594985E+03  0.25624541531E+03  0.32370478499E+03  0.46999998093E+01 0. -1.
</event>
<event>
 5   0  0.7531632E-02  0.4993470E+03  0.7818609E-02  0.1013950E+00
       -1   -1    0    0    0  501  0.00000000000E+00  0.00000000000E+00  0.11870899086E+04  0.11870899087E+04  0.50400001928E-02 0. -1.
        1   -1    0    0  501    0  0.00000000000E+00  0.00000000000E+00 -0.52512324964E+02  0.52512325205E+02  0.50400001928E-02 0.  1.
    10030    2    1    2    0    0  0.00000000000E+00  0.00000000000E+00  0.11345775837E+04  0.12396022339E+04  0.49934697836E+03 0.  0.
        3    1    3    3  502    0 -0.30633498882E+01 -0.19452618363E+03  0.17882736702E+03  0.26425188292E+03  0.10100000352E+00 0.  1.
       -3    1    3    3    0  502  0.30633498882E+01  0.19452618363E+03  0.95575021666E+03  0.97535035094E+03  0.10100000352E+00 0. -1.
</event>
<event>
 5   0  0.7602288E-02  0.5004631E+03  0.7818609E-02  0.1013658E+00
        1   -1    0    0  501    0  0.00000000000E+00  0.00000000000E+00  0.78938065429E+03  0.78938065431E+03  0.50400001928E-02 0. -1.
       -1   -1    0    0    0  501  0.00000000000E+00  0.00000000000E+00 -0.79322736915E+02  0.79322737075E+02  0.50400001928E-02 0.  1.
    10030    2    1    2    0    0  0.00000000000E+00  0.00000000000E+00  0.71005791738E+03  0.86870339139E+03  0.50046312169E+03 0.  0.
        5    1    3    3  502    0  0.31703867120E+02 -0.20841793822E+03  0.12117507162E+03  0.24320497557E+03  0.46999998093E+01 0.  1.
       -5    1    3    3    0  502 -0.31703867120E+02  0.20841793822E+03  0.58888284576E+03  0.62549841581E+03  0.46999998093E+01 0. -1.
</event>
<event>
 5   0  0.1211345E-01  0.5016155E+03  0.7818609E-02  0.1013358E+00
        2   -1    0    0  501    0  0.00000000000E+00  0.00000000000E+00  0.18368721212E+03  0.18368721214E+03  0.25500000920E-02 0. -1.
       -2   -1    0    0    0  501  0.00000000000E+00  0.00000000000E+00 -0.34245452076E+03  0.34245452076E+03  0.25500000920E-02 0.  1.
    10030    2    1    2    0    0  0.00000000000E+00  0.00000000000E+00 -0.15876730864E+03  0.52614173290E+03  0.50161545511E+03 0.  0.
        5    1    3    3  502    0 -0.96222814125E+02  0.14663990202E+03  0.10860077468E+03  0.20634512129E+03  0.46999998093E+01 0. -1.
       -5    1    3    3    0  502  0.96222814125E+02 -0.14663990202E+03 -0.26736808332E+03  0.31979661161E+03  0.46999998093E+01 0.  1.
</event>
<event>
 5   0  0.1231822E-01  0.5042868E+03  0.7818609E-02  0.1012666E+00
        2   -1    0    0  501    0  0.00000000000E+00  0.00000000000E+00  0.39128444031E+03  0.39128444032E+03  0.25500000920E-02 0. -1.
       -2   -1    0    0    0  501  0.00000000000E+00  0.00000000000E+00 -0.16248104940E+03  0.16248104942E+03  0.25500000920E-02 0.  1.
    10030    2    1    2    0    0  0.00000000000E+00  0.00000000000E+00  0.22880339091E+03  0.55376548974E+03  0.50428684887E+03 0.  0.
        1    1    3    3  502    0  0.92272276047E+02  0.78268040998E+02  0.35732186520E+03  0.37725187149E+03  0.50400001928E-02 0. -1.
       -1    1    3    3    0  502 -0.92272276047E+02 -0.78268040998E+02 -0.12851847429E+03  0.17651361825E+03  0.50400001928E-02 0.  1.
</event>
<event>
 5   0  0.5006750E-02  0.5013289E+03  0.7818609E-02  0.1013433E+00
       -4   -1    0    0    0  501  0.00000000000E+00  0.00000000000E+00  0.71600157681E+02  0.71611420038E+02  0.12699999809E+01 0. -1.
        4   -1    0    0  501    0  0.00000000000E+00  0.00000000000E+00 -0.87746844921E+03  0.87746936827E+03  0.12699999809E+01 0.  1.
    10030    2    1    2    0    0  0.00000000000E+00  0.00000000000E+00 -0.80586829153E+03  0.94908078831E+03  0.50132887355E+03 0.  0.
        5    1    3    3  502    0  0.30046621853E+02  0.18741029542E+03 -0.71276703592E+03  0.73762073982E+03  0.46999998093E+01 0.  1.
       -5    1    3    3    0  502 -0.30046621853E+02 -0.18741029542E+03 -0.93101255604E+02  0.21146004849E+03  0.46999998093E+01 0. -1.
</event>
<event>
 5   0  0.5006750E-02  0.5021084E+03  0.7818609E-02  0.1013230E+00
        4   -1    0    0  501    0  0.00000000000E+00  0.00000000000E+00  0.11032360395E+03  0.11033091356E+03  0.12699999809E+01 0.  1.
       -4   -1    0    0    0  501  0.00000000000E+00  0.00000000000E+00 -0.57127618818E+03  0.57127759984E+03  0.12699999809E+01 0. -1.
    10030    2    1    2    0    0  0.00000000000E+00  0.00000000000E+00 -0.46095258423E+03  0.68160851340E+03  0.50210843514E+03 0.  0.
        2    1    3    3  502    0 -0.99512989464E+02  0.42796253705E+02 -0.53792325290E+03  0.54872195183E+03  0.25500000920E-02 0. -1.
       -2    1    3    3    0  502  0.99512989464E+02 -0.42796253705E+02  0.76970668672E+02  0.13288656157E+03  0.25500000920E-02 0.  1.
</event>
<event>
 5   0  0.1231822E-01  0.5012607E+03  0.7818609E-02  0.1013450E+00
        2   -1    0    0  501    0  0.00000000000E+00  0.00000000000E+00  0.18811762187E+03  0.18811762189E+03  0.25500000920E-02 0.  1.
       -2   -1    0    0    0  501  0.00000000000E+00  0.00000000000E+00 -0.33391643376E+03  0.33391643377E+03  0.25500000920E-02 0. -1.
    10030    2    1    2    0    0  0.00000000000E+00  0.00000000000E+00 -0.14579881189E+03  0.52203405565E+03  0.50126067242E+03 0.  0.
        1    1    3    3  502    0 -0.78479641192E+00 -0.11865613201E+03 -0.30280984037E+03  0.32522867804E+03  0.50400001928E-02 0. -1.
       -1    1    3    3    0  502  0.78479641192E+00  0.11865613201E+03  0.15701102848E+03  0.19680537762E+03  0.50400001928E-02 0.  1.
</event>
<event>
 5   0  0.7602288E-02  0.5015730E+03  0.7818609E-02  0.1013369E+00
        1   -1    0    0  501    0  0.00000000000E+00  0.00000000000E+00  0.14838620042E+04  0.14838620043E+04  0.50400001928E-02 0.  1.
       -1   -1    0    0    0  501  0.00000000000E+00  0.00000000000E+00 -0.42385247304E+02  0.42385247604E+02  0.50400001928E-02 0. -1.
    10030    2    1    2    0    0  0.00000000000E+00  0.00000000000E+00  0.14414767569E+04  0.15262472519E+04  0.50157295880E+03 0.  0.
        5    1    3    3  502    0  0.19345435133E+03 -0.44378160142E+02  0.11869886741E+04  0.12034775484E+04  0.46999998093E+01 0.  1.
       -5    1    3    3    0  502 -0.19345435133E+03  0.44378160142E+02  0.25448808288E+03  0.32276970346E+03  0.46999998093E+01 0. -1.
</event>
<event>
 5   0  0.1231822E-01  0.5018496E+03  0.7818609E-02  0.1013297E+00
        2   -1    0    0  501    0  0.00000000000E+00  0.00000000000E+00  0.17433638908E+04  0.17433638908E+04  0.25500000920E-02 0.  1.
       -2   -1    0    0    0  501  0.00000000000E+00  0.00000000000E+00 -0.36115958262E+02  0.36115958352E+02  0.25500000920E-02 0. -1.
    10030    2    1    2    0    0  0.00000000000E+00  0.00000000000E+00  0.17072479326E+04  0.17794798492E+04  0.50184960934E+03 0.  0.
        1    1    3    3  502    0 -0.21684979341E+03  0.89698449585E+02  0.11686579421E+04  0.11919861704E+04  0.50400001928E-02 0. -1.
       -1    1    3    3    0  502  0.21684979341E+03 -0.89698449585E+02  0.53858999048E+03  0.58749367880E+03  0.50400001928E-02 0.  1.
</event>
<event>
 5   0  0.1191894E-01  0.5020631E+03  0.7818609E-02  0.1013242E+00
       -2   -1    0    0    0  501  0.00000000000E+00  0.00000000000E+00  0.10128910615E+03  0.10128910618E+03  0.25500000920E-02 0.  1.
        2   -1    0    0  501    0  0.00000000000E+00  0.00000000000E+00 -0.62214818779E+03  0.62214818780E+03  0.25500000920E-02 0. -1.
    10030    2    1    2    0    0  0.00000000000E+00  0.00000000000E+00 -0.52085908164E+03  0.72343729398E+03  0.50206307909E+03 0.  0.
        3    1    3    3  502    0  0.60928587034E+02 -0.67447204266E+02  0.76746035228E+02  0.11895958223E+03  0.10100000352E+00 0.  1.
       -3    1    3    3    0  502 -0.60928587034E+02  0.67447204266E+02 -0.59760511687E+03  0.60447771174E+03  0.10100000352E+00 0. -1.
</event>
<event>
 5   0  0.7812547E-02  0.5003522E+03  0.7818609E-02  0.1013687E+00
        1   -1    0    0  501    0  0.00000000000E+00  0.00000000000E+00  0.16413969703E+04  0.16413969703E+04  0.50400001928E-02 0. -1.
       -1   -1    0    0    0  501  0.00000000000E+00  0.00000000000E+00 -0.38130976089E+02  0.38130976422E+02  0.50400001928E-02 0.  1.
    10030    2    1    2    0    0  0.00000000000E+00  0.00000000000E+00  0.16032659942E+04  0.16795279467E+04  0.50035215164E+03 0.  0.
        4    1    3    3  502    0  0.72811011291E+02  0.63564204291E+01  0.16047498845E+04  0.16064139106E+04  0.12699999809E+01 0. -1.
       -4    1    3    3    0  502 -0.72811011291E+02 -0.63564204291E+01 -0.14838903157E+01  0.73114036110E+02  0.12699999809E+01 0.  1.
</event>
<event>
 5   0  0.7812547E-02  0.5121304E+03  0.7818609E-02  0.1010660E+00
       -1   -1    0    0    0  501  0.00000000000E+00  0.00000000000E+00  0.45691555658E+03  0.45691555660E+03  0.50400001928E-02 0. -1.
        1   -1    0    0  501    0  0.00000000000E+00  0.00000000000E+00 -0.14350440499E+03  0.14350440508E+03  0.50400001928E-02 0.  1.
    10030    2    1    2    0    0  0.00000000000E+00  0.00000000000E+00  0.31341115159E+03  0.60041996168E+03  0.51213043304E+03 0.  0.
        4    1    3    3  502    0 -0.78790696574E+02 -0.16417186123E+03 -0.54349931306E+02  0.19004184229E+03  0.12699999809E+01 0.  1.
       -4    1    3    3    0  502  0.78790696574E+02  0.16417186123E+03  0.36776108289E+03  0.41037811939E+03  0.12699999809E+01 0. -1.
</event>
<event>
 5   0  0.7416638E-02  0.4982567E+03  0.7818609E-02  0.1014235E+00
       -1   -1    0    0    0  501  0.00000000000E+00  0.00000000000E+00  0.11574040444E+03  0.11574040455E+03  0.50400001928E-02 0. -1.
        1   -1    0    0  501    0  0.00000000000E+00  0.00000000000E+00 -0.53624269754E+03  0.53624269756E+03  0.50400001928E-02 0.  1.
    10030    2    1    2    0    0  0.00000000000E+00  0.00000000000E+00 -0.42050229310E+03  0.65198310212E+03  0.49825674802E+03 0.  0.
        1    1    3    3  502    0  0.19347320821E+03  0.70249601247E+02 -0.39390280565E+03  0.44443931993E+03  0.50400001928E-02 0.  1.
       -1    1    3    3    0  502 -0.19347320821E+03 -0.70249601247E+02 -0.26599487444E+02  0.20754378219E+03  0.50400001928E-02 0. -1.
</event>
<event>
 5   0  0.1211345E-01  0.4996585E+03  0.7818609E-02  0.1013868E+00
        2   -1    0    0  501    0  0.00000000000E+00  0.00000000000E+00  0.13671495249E+04  0.13671495249E+04  0.25500000920E-02 0.  1.
       -2   -1    0    0    0  501  0.00000000000E+00  0.00000000000E+00 -0.45653127814E+02  0.45653127885E+02  0.25500000920E-02 0. -1.
    10030    2    1    2    0    0  0.00000000000E+00  0.00000000000E+00  0.13214963971E+04  0.14128026528E+04  0.49965849159E+03 0.  0.
        5    1    3    3  502    0  0.85717406636E+02  0.15591520219E+03  0.11564592929E+04  0.11700757284E+04  0.46999998093E+01 0.  1.
       -5    1    3    3    0  502 -0.85717406636E+02 -0.15591520219E+03  0.16503710426E+03  0.24272692445E+03  0.46999998093E+01 0. -1.
</event>
<event>
 5   0  0.7416638E-02  0.5421482E+03  0.7818609E-02  0.1003328E+00
        1   -1    0    0  501    0  0.00000000000E+00  0.00000000000E+00  0.12157387444E+03  0.12157387454E+03  0.50400001928E-02 0.  1.
       -1   -1    0    0    0  501  0.00000000000E+00  0.00000000000E+00 -0.60441573094E+03  0.60441573096E+03  0.50400001928E-02 0. -1.
    10030    2    1    2    0    0  0.00000000000E+00  0.00000000000E+00 -0.48284185651E+03  0.72598960550E+03  0.54214817984E+03 0.  0.
        1    1    3    3  502    0 -0.26733779278E+03  0.18441590052E+02 -0.29616981195E+03  0.39940724233E+03  0.50400001928E-02 0. -1.
       -1    1    3    3    0  502  0.26733779278E+03 -0.18441590052E+02 -0.18667204455E+03  0.32658236317E+03  0.50400001928E-02 0.  1.
</event>
<event>
 5   0  0.5006750E-02  0.5028597E+03  0.7818609E-02  0.1013035E+00
        3   -1    0    0  501    0  0.00000000000E+00  0.00000000000E+00  0.31294922921E+03  0.31294924550E+03  0.10100000352E+00 0. -1.
       -3   -1    0    0    0  501  0.00000000000E+00  0.00000000000E+00 -0.20200385855E+03  0.20200388380E+03  0.10100000352E+00 0.  1.
    10030    2    1    2    0    0  0.00000000000E+00  0.00000000000E+00  0.11094537065E+03  0.51495312931E+03  0.50285967239E+03 0.  0.
        2    1    3    3  502    0  0.37003629402E+02  0.24865678148E+03  0.59756463595E+02  0.25839949403E+03  0.25500000920E-02 0.  1.
       -2    1    3    3    0  502 -0.37003629402E+02 -0.24865678148E+03  0.51188907056E+02  0.25655363528E+03  0.25500000920E-02 0. -1.
</event>
<event>
 5   0  0.1211345E-01  0.4992336E+03  0.7818609E-02  0.1013979E+00
       -2   -1    0    0    0  501  0.00000000000E+00  0.00000000000E+00  0.49614078584E+02  0.49614078649E+02  0.25500000920E-02 0.  1.
        2   -1    0    0  501    0  0.00000000000E+00  0.00000000000E+00 -0.12558640098E+04  0.12558640098E+04  0.25500000920E-02 0. -1.
    10030    2    1    2    0    0  0.00000000000E+00  0.00000000000E+00 -0.12062499312E+04  0.13054780884E+04  0.49923355542E+03 0.  0.
        5    1    3    3  502    0  0.72727322403E+02 -0.74424981734E+02 -0.11963134486E+04  0.12008398305E+04  0.46999998093E+01 0. -1.
       -5    1    3    3    0  502 -0.72727322403E+02  0.74424981734E+02 -0.99364826052E+01  0.10463825789E+03  0.46999998093E+01 0.  1.
</event>
<event>
 5   0  0.1231822E-01  0.5054117E+03  0.7818609E-02  0.1012376E+00
       -2   -1    0    0    0  501  0.00000000000E+00  0.00000000000E+00  0.79738182862E+02  0.79738182903E+02  0.25500000920E-02 0. -1.
        2   -1    0    0  501    0  0.00000000000E+00  0.00000000000E+00 -0.80087408876E+03  0.80087408876E+03  0.25500000920E-02 0.  1.
    10030    2    1    2    0    0  0.00000000000E+00  0.00000000000E+00 -0.72113590589E+03  0.88061227166E+03  0.50541169182E+03 0.  0.
        1    1    3    3  502    0 -0.10266744246E+02  0.70429479494E+02 -0.78304964998E+03  0.78627760491E+03  0.50400001928E-02 0.  1.
       -1    1    3    3    0  502  0.10266744246E+02 -0.70429479494E+02  0.61913744087E+02  0.94334666754E+02  0.50400001928E-02 0. -1.
</event>
<event>
 5   0  0.1243803E-01  0.5033208E+03  0.7818609E-02  0.1012916E+00
       -2   -1    0    0    0  501  0.00000000000E+00  0.00000000000E+00  0.53526074745E+02  0.53526074806E+02  0.25500000920E-02 0.  1.
        2   -1    0    0  501    0  0.00000000000E+00  0.00000000000E+00 -0.11832169382E+04  0.11832169382E+04  0.25500000920E-02 0. -1.
    10030    2    1    2    0    0  0.00000000000E+00  0.00000000000E+00 -0.11296908634E+04  0.12367430130E+04  0.50332080549E+03 0.  0.
        4    1    3    3  502    0  0.12020795471E+03  0.40249272046E+01 -0.21677162114E+02  0.12221973928E+03  0.12699999809E+01 0.  1.
       -4    1    3    3    0  502 -0.12020795471E+03 -0.40249272046E+01 -0.11080137013E+04  0.11145232737E+04  0.12699999809E+01 0. -1.
</event>
<event>
 5   0  0.1211345E-01  0.4853204E+03  0.7818609E-02  0.1017683E+00
        2   -1    0    0  501    0  0.00000000000E+00  0.00000000000E+00  0.13461644981E+04  0.13461644981E+04  0.25500000920E-02 0. -1.
       -2   -1    0    0    0  501  0.00000000000E+00  0.00000000000E+00 -0.43742034019E+02  0.43742034094E+02  0.25500000920E-02 0.  1.
    10030    2    1    2    0    0  0.00000000000E+00  0.00000000000E+00  0.13024224640E+04  0.13899065322E+04  0.48532040272E+03 0.  0.
        5    1    3    3  502    0 -0.11996457969E+03  0.79503060928E+02  0.12105852681E+04  0.12191189517E+04  0.46999998093E+01 0. -1.
       -5    1    3    3    0  502  0.11996457969E+03 -0.79503060928E+02  0.91837195935E+02  0.17078758044E+03  0.46999998093E+01 0.  1.
</event>
<event>
 5   0  0.7812547E-02  0.5010136E+03  0.7818609E-02  0.1013515E+00
       -1   -1    0    0    0  501  0.00000000000E+00  0.00000000000E+00  0.85851032753E+02  0.85851032901E+02  0.50400001928E-02 0.  1.
        1   -1    0    0  501    0  0.00000000000E+00  0.00000000000E+00 -0.73095975408E+03  0.73095975410E+03  0.50400001928E-02 0. -1.
    10030    2    1    2    0    0  0.00000000000E+00  0.00000000000E+00 -0.64510872133E+03  0.81681078700E+03  0.50101357210E+03 0.  0.
        4    1    3    3  502    0 -0.17033546580E+03  0.53616791887E+02 -0.36141980318E+02  0.18219985435E+03  0.12699999809E+01 0.  1.
       -4    1    3    3    0  502  0.17033546580E+03 -0.53616791887E+02 -0.60896674101E+03  0.63461093265E+03  0.12699999809E+01 0. -1.
</event>
<event>
 5   0  0.1231822E-01  0.5009848E+03  0.7818609E-02  0.1013522E+00
        2   -1    0    0  501    0  0.00000000000E+00  0.00000000000E+00  0.64772499490E+02  0.64772499540E+02  0.25500000920E-02 0.  1.
       -2   -1    0    0    0  501  0.00000000000E+00  0.00000000000E+00 -0.96872056758E+03  0.96872056759E+03  0.25500000920E-02 0. -1.
    10030    2    1    2    0    0  0.00000000000E+00  0.00000000000E+00 -0.90394806810E+03  0.10334930671E+04  0.50098484008E+03 0.  0.
        1    1    3    3  502    0 -0.24985491247E+03 -0.91117704394E+01 -0.48366195407E+03  0.54446247574E+03  0.50400001928E-02 0. -1.
       -1    1    3    3    0  502  0.24985491247E+03  0.91117704394E+01 -0.42028611402E+03  0.48903059139E+03  0.50400001928E-02 0.  1.
</event>
<event>
 5   0  0.5006750E-02  0.4991957E+03  0.7818609E-02  0.1013989E+00
       -3   -1    0    0    0  501  0.00000000000E+00  0.00000000000E+00  0.27956947417E+03  0.27956949242E+03  0.10100000352E+00 0. -1.
        3   -1    0    0  501    0  0.00000000000E+00  0.00000000000E+00 -0.22283931152E+03  0.22283933441E+03  0.10100000352E+00 0.  1.
    10030    2    1    2    0    0  0.00000000000E+00  0.00000000000E+00  0.56730162652E+02  0.50240882683E+03  0.49919567097E+03 0.  0.
        5    1    3    3  502    0 -0.13838049535E+03 -0.17128137367E+03  0.14655399920E+03  0.26454987268E+03  0.46999998093E+01 0.  1.
       -5    1    3    3    0  502  0.13838049535E+03  0.17128137367E+03 -0.89823836546E+02  0.23785895415E+03  0.46999998093E+01 0. -1.
</event>
<event>
 5   0  0.7812547E-02  0.4979202E+03  0.7818609E-02  0.1014323E+00
       -1   -1    0    0    0  501  0.00000000000E+00  0.00000000000E+00  0.76913923414E+02  0.76913923580E+02  0.50400001928E-02 0.  1.
        1   -1    0    0  501    0  0.00000000000E+00  0.00000000000E+00 -0.80585065747E+03  0.80585065749E+03  0.50400001928E-02 0. -1.
    10030    2    1    2    0    0  0.00000000000E+00  0.00000000000E+00 -0.72893673406E+03  0.88276458107E+03  0.49792021784E+03 0.  0.
        4    1    3    3  502    0 -0.15221931775E+03 -0.13496136074E+03 -0.61889229506E+03  0.65147108560E+03  0.12699999809E+01 0. -1.
       -4    1    3    3    0  502  0.15221931775E+03  0.13496136074E+03 -0.11004443900E+03  0.23129349547E+03  0.12699999809E+01 0.  1.
</event>
<event>
 5   0  0.7781754E-02  0.4952193E+03  0.7818609E-02  0.1015034E+00
       -1   -1    0    0    0  501  0.00000000000E+00  0.00000000000E+00  0.23279728063E+03  0.23279728069E+03  0.50400001928E-02 0. -1.
        1   -1    0    0  501    0  0.00000000000E+00  0.00000000000E+00 -0.26336451245E+03  0.26336451250E+03  0.50400001928E-02 0.  1.
    10030    2    1    2    0    0  0.00000000000E+00  0.00000000000E+00 -0.30567231820E+02  0.49616179319E+03  0.49521931441E+03 0.  0.
        2    1    3    3  502    0 -0.16848779246E+03 -0.54303728116E+02  0.15817447193E+03  0.23739459698E+03  0.25500000920E-02 0. -1.
       -2    1    3    3    0  502  0.16848779246E+03  0.54303728116E+02 -0.18874170375E+03  0.25876719622E+03  0.25500000920E-02 0.  1.
</event>
<event>
 5   0  0.5006750E-02  0.4132180E+03  0.7818609E-02  0.1039297E+00
        4   -1    0    0  501    0  0.00000000000E+00  0.00000000000E+00  0.24448517619E+03  0.24448847474E+03  0.12699999809E+01 0.  1.
       -4   -1    0    0    0  501  0.00000000000E+00  0.00000000000E+00 -0.17459385783E+03  0.17459847678E+03  0.12699999809E+01 0. -1.
    10030    2    1    2    0    0  0.00000000000E+00  0.00000000000E+00  0.69891318361E+02  0.41908695151E+03  0.41321795284E+03 0.  0.
        4    1    3    3  502    0  0.14414148465E+02 -0.10614726232E+03 -0.14422890013E+03  0.17966245436E+03  0.12699999809E+01 0. -1.
       -4    1    3    3    0  502 -0.14414148465E+02  0.10614726232E+03  0.21412021849E+03  0.23942449716E+03  0.12699999809E+01 0.  1.
</event>
<event>
 5   0  0.7812547E-02  0.5005364E+03  0.7818609E-02  0.1013639E+00
        1   -1    0    0  501    0  0.00000000000E+00  0.00000000000E+00  0.11341185232E+04  0.11341185233E+04  0.50400001928E-02 0.  1.
       -1   -1    0    0    0  501  0.00000000000E+00  0.00000000000E+00 -0.55227189446E+02  0.55227189676E+02  0.50400001928E-02 0. -1.
    10030    2    1    2    0    0  0.00000000000E+00  0.00000000000E+00  0.10788913338E+04  0.11893457129E+04  0.50053642697E+03 0.  0.
        4    1    3    3  502    0 -0.19030408492E+03 -0.16100358155E+03  0.48659224339E+03  0.54672792341E+03  0.12699999809E+01 0.  1.
       -4    1    3    3    0  502  0.19030408492E+03  0.16100358155E+03  0.59229909041E+03  0.64261778952E+03  0.12699999809E+01 0. -1.
</event>
<event>
 5   0  0.7812547E-02  0.5007548E+03  0.7818609E-02  0.1013582E+00
        1   -1    0    0  501    0  0.00000000000E+00  0.00000000000E+00  0.32164185104E+03  0.32164185108E+03  0.50400001928E-02 0.  1.
       -1   -1    0    0    0  501  0.00000000000E+00  0.00000000000E+00 -0.19490263951E+03  0.19490263958E+03  0.50400001928E-02 0. -1.
    10030    2    1    2    0    0  0.00000000000E+00  0.00000000000E+00  0.12673921153E+03  0.51654449066E+03  0.50075481335E+03 0.  0.
        4    1    3    3  502    0 -0.18268937176E+03 -0.16433942326E+03  0.13851995574E+02  0.24612261836E+03  0.12699999809E+01 0. -1.
       -4    1    3    3    0  502  0.18268937176E+03  0.16433942326E+03  0.11288721596E+03  0.27042187229E+03  0.12699999809E+01 0.  1.
</event>
<event>
 5   0  0.1243803E-01  0.4847775E+03  0.7818609E-02  0.1017830E+00
        2   -1    0    0  501    0  0.00000000000E+00  0.00000000000E+00  0.28849419529E+03  0.28849419530E+03  0.25500000920E-02 0. -1.
       -2   -1    0    0    0  501  0.00000000000E+00  0.00000000000E+00 -0.20365162282E+03  0.20365162284E+03  0.25500000920E-02 0.  1.
    10030    2    1    2    0    0  0.00000000000E+00  0.00000000000E+00  0.84842572466E+02  0.49214581814E+03  0.48477752032E+03 0.  0.
        4    1    3    3  502    0 -0.21523435691E+03 -0.68507081082E+02 -0.46844987851E+02  0.23068401405E+03  0.12699999809E+01 0.  1.
       -4    1    3    3    0  502  0.21523435691E+03  0.68507081082E+02  0.13168756032E+03  0.26146180408E+03  0.12699999809E+01 0. -1.
</event>
<event>
 5   0  0.1243803E-01  0.5068063E+03  0.7818609E-02  0.1012017E+00
        2   -1    0    0  501    0  0.00000000000E+00  0.00000000000E+00  0.50122859042E+03  0.50122859043E+03  0.25500000920E-02 0. -1.
       -2   -1    0    0    0  501  0.00000000000E+00  0.00000000000E+00 -0.12811151037E+03  0.12811151040E+03  0.25500000920E-02 0.  1.
    10030    2    1    2    0    0  0.00000000000E+00  0.00000000000E+00  0.37311708005E+03  0.62934010083E+03  0.50680628161E+03 0.  0.
        4    1    3    3  502    0  0.13119285162E+03  0.24322139840E+01  0.45575224180E+03  0.47426701212E+03  0.12699999809E+01 0. -1.
       -4    1    3    3    0  502 -0.13119285162E+03 -0.24322139840E+01 -0.82635161752E+02  0.15507308870E+03  0.12699999809E+01 0.  1.
</event>
<event>
 5   0  0.7531632E-02  0.4990001E+03  0.7818609E-02  0.1014040E+00
       -1   -1    0    0    0  501  0.00000000000E+00  0.00000000000E+00  0.12331056348E+03  0.12331056358E+03  0.50400001928E-02 0.  1.
        1   -1    0    0  501    0  0.00000000000E+00  0.00000000000E+00 -0.50482509384E+03  0.50482509387E+03  0.50400001928E-02 0. -1.
    10030    2    1    2    0    0  0.00000000000E+00  0.00000000000E+00 -0.38151453037E+03  0.62813565745E+03  0.49900006741E+03 0.  0.
        3    1    3    3  502    0  0.56992940344E+02  0.60112388838E+02  0.10549582479E+03  0.13413080851E+03  0.10100000352E+00 0.  1.
       -3    1    3    3    0  502 -0.56992940344E+02 -0.60112388838E+02 -0.48701035516E+03  0.49400484894E+03  0.10100000352E+00 0. -1.
</event>
<event>
 5   0  0.1279188E-01  0.4994789E+03  0.7818609E-02  0.1013915E+00
       -2   -1    0    0    0  501  0.00000000000E+00  0.00000000000E+00  0.11472936710E+04  0.11472936710E+04  0.25500000920E-02 0.  1.
        2   -1    0    0  501    0  0.00000000000E+00  0.00000000000E+00 -0.54362536928E+02  0.54362536988E+02  0.25500000920E-02 0. -1.
    10030    2    1    2    0    0  0.00000000000E+00  0.00000000000E+00  0.10929311340E+04  0.12016562080E+04  0.49947890684E+03 0.  0.
        2    1    3    3  502    0  0.25946348014E+02 -0.10766343972E+03  0.10849886604E+04  0.10906259773E+04  0.25500000920E-02 0.  1.
       -2    1    3    3    0  502 -0.25946348014E+02  0.10766343972E+03  0.79424736793E+01  0.11103023067E+03  0.25500000920E-02 0. -1.
</event>
<event>
 5   0  0.7602288E-02  0.5025200E+03  0.7818609E-02  0.1013123E+00
       -1   -1    0    0    0  501  0.00000000000E+00  0.00000000000E+00  0.51032755240E+03  0.51032755243E+03  0.50400001928E-02 0.  1.
        1   -1    0    0  501    0  0.00000000000E+00  0.00000000000E+00 -0.12370796008E+03  0.12370796019E+03  0.50400001928E-02 0. -1.
    10030    2    1    2    0    0  0.00000000000E+00  0.00000000000E+00  0.38661959232E+03  0.63403551261E+03  0.50251997183E+03 0.  0.
        5    1    3    3  502    0 -0.24540355963E+03 -0.32180419367E+02  0.13902678361E+03  0.28391728202E+03  0.46999998093E+01 0. -1.
       -5    1    3    3    0  502  0.24540355963E+03  0.32180419367E+02  0.24759280872E+03  0.35011823060E+03  0.46999998093E+01 0.  1.
</event>
<event>
 5   0  0.1231822E-01  0.4865979E+03  0.7818609E-02  0.1017337E+00
       -2   -1    0    0    0  501  0.00000000000E+00  0.00000000000E+00  0.46826391180E+02  0.46826391249E+02  0.25500000920E-02 0.  1.
        2   -1    0    0  501    0  0.00000000000E+00  0.00000000000E+00 -0.12641241749E+04  0.12641241749E+04  0.25500000920E-02 0. -1.
    10030    2    1    2    0    0  0.00000000000E+00  0.00000000000E+00 -0.12172977837E+04  0.13109505662E+04  0.48659787571E+03 0.  0.
        1    1    3    3  502    0  0.48078234433E+00 -0.81951957484E+02  0.85211284231E+01  0.82395170624E+02  0.50400001928E-02 0.  1.
       -1    1    3    3    0  502 -0.48078234433E+00  0.81951957484E+02 -0.12258189122E+04  0.12285553955E+04  0.50400001928E-02 0. -1.
</event>
<event>
 5   0  0.1243803E-01  0.4992379E+03  0.7818609E-02  0.1013978E+00
       -2   -1    0    0    0  501  0.00000000000E+00  0.00000000000E+00  0.76805999943E+02  0.76805999986E+02  0.25500000920E-02 0.  1.
        2   -1    0    0  501    0  0.00000000000E+00  0.00000000000E+00 -0.81125967815E+03  0.81125967816E+03  0.25500000920E-02 0. -1.
    10030    2    1    2    0    0  0.00000000000E+00  0.00000000000E+00 -0.73445367821E+03  0.88806567814E+03  0.49923786240E+03 0.  0.
        4    1    3    3  502    0  0.23660827859E+03 -0.19365792354E+02 -0.23001950927E+03  0.33055876778E+03  0.12699999809E+01 0.  1.
       -4    1    3    3    0  502 -0.23660827859E+03  0.19365792354E+02 -0.50443416893E+03  0.55750691036E+03  0.12699999809E+01 0. -1.
</event>
<event>
 5   0  0.7531632E-02  0.5005890E+03  0.7818609E-02  0.1013625E+00
       -1   -1    0    0    0  501  0.00000000000E+00  0.00000000000E+00  0.27471166222E+03  0.27471166227E+03  0.50400001928E-02 0.  1.
        1   -1    0    0  501    0  0.00000000000E+00  0.00000000000E+00 -0.22804762193E+03  0.22804762199E+03  0.50400001928E-02 0. -1.
    10030    2    1    2    0    0  0.00000000000E+00  0.00000000000E+00  0.46664040287E+02  0.50275928425E+03  0.50058901831E+03 0.  0.
        3    1    3    3  502    0 -0.22769935802E+03  0.10359952256E+03  0.31581790236E+02  0.25214535171E+03  0.10100000352E+00 0. -1.
       -3    1    3    3    0  502  0.22769935802E+03 -0.10359952256E+03  0.15082250052E+02  0.25061393254E+03  0.10100000352E+00 0.  1.
</event>
<event>
 5   0  0.1243803E-01  0.4982837E+03  0.7818609E-02  0.1014228E+00
       -2   -1    0    0    0  501  0.00000000000E+00  0.00000000000E+00  0.17835453226E+03  0.17835453228E+03  0.25500000920E-02 0.  1.
        2   -1    0    0  501    0  0.00000000000E+00  0.00000000000E+00 -0.34802402747E+03  0.34802402748E+03  0.25500000920E-02 0. -1.
    10030    2    1    2    0    0  0.00000000000E+00  0.00000000000E+00 -0.16966949521E+03  0.52637855976E+03  0.49828370490E+03 0.  0.
        4    1    3    3  502    0 -0.56279836208E+02 -0.52649777518E+02 -0.33511205134E+03  0.34386206375E+03  0.12699999809E+01 0. -1.
       -4    1    3    3    0  502  0.56279836208E+02  0.52649777518E+02  0.16544255613E+03  0.18251649601E+03  0.12699999809E+01 0.  1.
</event>
<event>
 5   0  0.1211345E-01  0.4988832E+03  0.7818609E-02  0.1014071E+00
        2   -1    0    0  501    0  0.00000000000E+00  0.00000000000E+00  0.13299605028E+04  0.13299605028E+04  0.25500000920E-02 0. -1.
       -2   -1    0    0    0  501  0.00000000000E+00  0.00000000000E+00 -0.46784188526E+02  0.46784188596E+02  0.25500000920E-02 0.  1.
    10030    2    1    2    0    0  0.00000000000E+00  0.00000000000E+00  0.12831763143E+04  0.13767446914E+04  0.49888324464E+03 0.  0.
        5    1    3    3  502    0  0.15946276426E+03 -0.16457951066E+03  0.91316164110E+03  0.94148874730E+03  0.46999998093E+01 0.  1.
       -5    1    3    3    0  502 -0.15946276426E+03  0.16457951066E+03  0.37001467320E+03  0.43525594412E+03  0.46999998093E+01 0. -1.
</event>
<event>
 5   0  0.1231822E-01  0.5024474E+03  0.7818609E-02  0.1013142E+00
        2   -1    0    0  501    0  0.00000000000E+00  0.00000000000E+00  0.44996203777E+03  0.44996203778E+03  0.25500000920E-02 0.  1.
       -2   -1    0    0    0  501  0.00000000000E+00  0.00000000000E+00 -0.14026369530E+03  0.14026369533E+03  0.25500000920E-02 0. -1.
    10030    2    1    2    0    0  0.00000000000E+00  0.00000000000E+00  0.30969834247E+03  0.59022573311E+03  0.50244736311E+03 0.  0.
        1    1    3    3  502    0 -0.31698529572E+02  0.24916366432E+03  0.16084012110E+03  0.29825638799E+03  0.50400001928E-02 0.  1.
       -1    1    3    3    0  502  0.31698529572E+02 -0.24916366432E+03  0.14885822137E+03  0.29196934512E+03  0.50400001928E-02 0. -1.
</event>
<event>
 5   0  0.7812547E-02  0.5011951E+03  0.7818609E-02  0.1013467E+00
       -1   -1    0    0    0  501  0.00000000000E+00  0.00000000000E+00  0.56134577384E+02  0.56134577610E+02  0.50400001928E-02 0.  1.
        1   -1    0    0  501    0  0.00000000000E+00  0.00000000000E+00 -0.11187247912E+04  0.11187247912E+04  0.50400001928E-02 0. -1.
    10030    2    1    2    0    0  0.00000000000E+00  0.00000000000E+00 -0.10625902138E+04  0.11748593689E+04  0.50119514564E+03 0.  0.
        4    1    3    3  502    0  0.53370233797E+02  0.14923115992E+03 -0.98631451470E+03  0.99896759495E+03  0.12699999809E+01 0. -1.
       -4    1    3    3    0  502 -0.53370233797E+02 -0.14923115992E+03 -0.76275699151E+02  0.17589177391E+03  0.12699999809E+01 0.  1.
</event>
<event>
 5   0  0.1231822E-01  0.4996215E+03  0.7818609E-02  0.1013878E+00
        2   -1    0    0  501    0  0.00000000000E+00  0.00000000000E+00  0.12352602326E+04  0.12352602326E+04  0.25500000920E-02 0. -1.
       -2   -1    0    0    0  501  0.00000000000E+00  0.00000000000E+00 -0.50520059318E+02  0.50520059382E+02  0.25500000920E-02 0.  1.
    10030    2    1    2    0    0  0.00000000000E+00  0.00000000000E+00  0.11847401733E+04  0.12857802920E+04  0.49962153783E+03 0.  0.
        1    1    3    3  502    0  0.11502668233E+03  0.17357263325E+03  0.94754059144E+03  0.97015038480E+03  0.50400001928E-02 0. -1.
       -1    1    3    3    0  502 -0.11502668233E+03 -0.17357263325E+03  0.23719958183E+03  0.31562990718E+03  0.50400001928E-02 0.  1.
</event>
<event>
 5   0  0.7781754E-02  0.4957341E+03  0.7818609E-02  0.1014898E+00
        1   -1    0    0  501    0  0.00000000000E+00  0.00000000000E+00  0.15487315658E+04  0.15487315658E+04  0.50400001928E-02 0.  1.
       -1   -1    0    0    0  501  0.00000000000E+00  0.00000000000E+00 -0.39669931235E+02  0.39669931555E+02  0.50400001928E-02 0. -1.
    10030    2    1    2    0    0  0.00000000000E+00  0.00000000000E+00  0.15090616346E+04  0.15884014974E+04  0.49573410203E+03 0.  0.
        2    1    3    3  502    0 -0.43899507092E+02  0.39428951964E+02  0.15258989461E+04  0.15270394241E+04  0.25500000920E-02 0.  1.
       -2    1    3    3    0  502  0.43899507092E+02 -0.39428951964E+02 -0.16837311507E+02  0.61362073312E+02  0.25500000920E-02 0. -1.
</event>
<event>
 5   0  0.1191894E-01  0.4951125E+03  0.7818609E-02  0.1015063E+00
        2   -1    0    0  501    0  0.00000000000E+00  0.00000000000E+00  0.12094440256E+04  0.12094440256E+04  0.25500000920E-02 0.  1.
       -2   -1    0    0    0  501  0.00000000000E+00  0.00000000000E+00 -0.50671290383E+02  0.50671290447E+02  0.25500000920E-02 0. -1.
    10030    2    1    2    0    0  0.00000000000E+00  0.00000000000E+00  0.11587727352E+04  0.12601153160E+04  0.49511246990E+03 0.  0.
        3    1    3    3  502    0 -0.23541394720E+03 -0.74917815093E+02  0.61976255905E+03  0.66718666455E+03  0.10100000352E+00 0. -1.
       -3    1    3    3    0  502  0.23541394720E+03  0.74917815093E+02  0.53901017613E+03  0.59292865146E+03  0.10100000352E+00 0.  1.
</event>
<event>
 5   0  0.5006750E-02  0.4997024E+03  0.7818609E-02  0.1013857E+00
       -3   -1    0    0    0  501  0.00000000000E+00  0.00000000000E+00  0.28304894787E+03  0.28304896589E+03  0.10100000352E+00 0. -1.
        3   -1    0    0  501    0  0.00000000000E+00  0.00000000000E+00 -0.22054704017E+03  0.22054706330E+03  0.10100000352E+00 0.  1.
    10030    2    1    2    0    0  0.00000000000E+00  0.00000000000E+00  0.62501907700E+02  0.50359602919E+03  0.49970238358E+03 0.  0.
        5    1    3    3  502    0  0.24764818918E+03  0.25008877751E+02  0.52592800266E+02  0.25444677677E+03  0.46999998093E+01 0. -1.
       -5    1    3    3    0  502 -0.24764818918E+03 -0.25008877751E+02  0.99091074343E+01  0.24914925242E+03  0.46999998093E+01 0.  1.
</event>
<event>
 5   0  0.7812547E-02  0.4625077E+03  0.7818609E-02  0.1024056E+00
        1   -1    0    0  501    0  0.00000000000E+00  0.00000000000E+00  0.28545661529E+03  0.28545661534E+03  0.50400001928E-02 0. -1.
       -1   -1    0    0    0  501  0.00000000000E+00  0.00000000000E+00 -0.18734312192E+03  0.18734312199E+03  0.50400001928E-02 0.  1.
    10030    2    1    2    0    0  0.00000000000E+00  0.00000000000E+00  0.98113493374E+02  0.47279973733E+03  0.46250765835E+03 0.  0.
        4    1    3    3  502    0 -0.17577113462E+03  0.15006004071E+03  0.57184332873E+02  0.23808647255E+03  0.12699999809E+01 0. -1.
       -4    1    3    3    0  502  0.17577113462E+03 -0.15006004071E+03  0.40929160501E+02  0.23471326478E+03  0.12699999809E+01 0.  1.
</event>
<event>
 5   0  0.7812547E-02  0.5015456E+03  0.7818609E-02  0.1013376E+00
        1   -1    0    0  501    0  0.00000000000E+00  0.00000000000E+00  0.11301796572E+04  0.11301796572E+04  0.50400001928E-02 0.  1.
       -1   -1    0    0    0  501  0.00000000000E+00  0.00000000000E+00 -0.55643356144E+02  0.55643356372E+02  0.50400001928E-02 0. -1.
    10030    2    1    2    0    0  0.00000000000E+00  0.00000000000E+00  0.10745363011E+04  0.11858230136E+04  0.50154556848E+03 0.  0.
        4    1    3    3  502    0 -0.19700313640E+03  0.94937124384E+02  0.82743780763E+03  0.85584942118E+03  0.12699999809E+01 0.  1.
       -4    1    3    3    0  502  0.19700313640E+03 -0.94937124384E+02  0.24709849346E+03  0.32997359244E+03  0.12699999809E+01 0. -1.
</event>
<event>
 5   0  0.1231822E-01  0.4987779E+03  0.7818609E-02  0.1014098E+00
       -2   -1    0    0    0  501  0.00000000000E+00  0.00000000000E+00  0.10050538386E+04  0.10050538386E+04  0.25500000920E-02 0. -1.
        2   -1    0    0  501    0  0.00000000000E+00  0.00000000000E+00 -0.61882104404E+02  0.61882104457E+02  0.25500000920E-02 0.  1.
    10030    2    1    2    0    0  0.00000000000E+00  0.00000000000E+00  0.94317173421E+03  0.10669359431E+04  0.49877789287E+03 0.  0.
        1    1    3    3  502    0 -0.50836689426E+02 -0.60631166985E+02  0.97749253742E+03  0.98068963905E+03  0.50400001928E-02 0. -1.
       -1    1    3    3    0  502  0.50836689426E+02  0.60631166985E+02 -0.34320803201E+02  0.86246304034E+02  0.50400001928E-02 0.  1.
</event>
<event>
 5   0  0.1243803E-01  0.4977237E+03  0.7818609E-02  0.1014375E+00
       -2   -1    0    0    0  501  0.00000000000E+00  0.00000000000E+00  0.85835145548E+02  0.85835145586E+02  0.25500000920E-02 0. -1.
        2   -1    0    0  501    0  0.00000000000E+00  0.00000000000E+00 -0.72152508504E+03  0.72152508505E+03  0.25500000920E-02 0.  1.
    10030    2    1    2    0    0  0.00000000000E+00  0.00000000000E+00 -0.63568993949E+03  0.80736023063E+03  0.49772366111E+03 0.  0.
        4    1    3    3  502    0  0.12705913328E+03  0.10392618550E+02  0.28840233333E+02  0.13071113888E+03  0.12699999809E+01 0. -1.
       -4    1    3    3    0  502 -0.12705913328E+03 -0.10392618550E+02 -0.66453017283E+03  0.67664909175E+03  0.12699999809E+01 0.  1.
</event>
<event>
 5   0  0.7602288E-02  0.5301214E+03  0.7818609E-02  0.1006203E+00
       -1   -1    0    0    0  501  0.00000000000E+00  0.00000000000E+00  0.38675575233E+02  0.38675575561E+02  0.50400001928E-02 0.  1.
        1   -1    0    0  501    0  0.00000000000E+00  0.00000000000E+00 -0.18165771917E+04  0.18165771917E+04  0.50400001928E-02 0. -1.
    10030    2    1    2    0    0  0.00000000000E+00  0.00000000000E+00 -0.17779016165E+04  0.18552527673E+04  0.53012137537E+03 0.  0.
        5    1    3    3  502    0 -0.11089181091E+03  0.51612273609E+02 -0.66160379079E+02  0.13914059894E+03  0.46999998093E+01 0.  1.
       -5    1    3    3    0  502  0.11089181091E+03 -0.51612273609E+02 -0.17117412374E+04  0.17161121684E+04  0.46999998093E+01 0. -1.
</event>
<event>
 5   0  0.1231822E-01  0.4930225E+03  0.7818609E-02  0.1015616E+00
       -2   -1    0    0    0  501  0.00000000000E+00  0.00000000000E+00  0.22565385550E+03  0.22565385552E+03  0.25500000920E-02 0.  1.
        2   -1    0    0  501    0  0.00000000000E+00  0.00000000000E+00 -0.26929646155E+03  0.26929646156E+03  0.25500000920E-02 0. -1.
    10030    2    1    2    0    0  0.00000000000E+00  0.00000000000E+00 -0.43642606045E+02  0.49495031707E+03  0.49302245315E+03 0.  0.
        1    1    3    3  502    0  0.16448526830E+03  0.15631082970E+03  0.74884526125E+02  0.23894805135E+03  0.50400001928E-02 0.  1.
       -1    1    3    3    0  502 -0.16448526830E+03 -0.15631082970E+03 -0.11852713217E+03  0.25600226572E+03  0.50400001928E-02 0. -1.
</event>
<event>
 5   0  0.1191894E-01  0.4989441E+03  0.7818609E-02  0.1014055E+00
        2   -1    0    0  501    0  0.00000000000E+00  0.00000000000E+00  0.86759830033E+03  0.86759830034E+03  0.25500000920E-02 0. -1.
       -2   -1    0    0    0  501  0.00000000000E+00  0.00000000000E+00 -0.71734008008E+02  0.71734008053E+02  0.25500000920E-02 0.  1.
    10030    2    1    2    0    0  0.00000000000E+00  0.00000000000E+00  0.79586429233E+03  0.93933230839E+03  0.49894409886E+03 0.  0.
        3    1    3    3  502    0 -0.22506194322E+03  0.84216594809E+02  0.52409686843E+03  0.57656122903E+03  0.10100000352E+00 0. -1.
       -3    1    3    3    0  502  0.22506194322E+03 -0.84216594809E+02  0.27176742390E+03  0.36277107936E+03  0.10100000352E+00 0.  1.
</event>
<event>
 5   0  0.7416638E-02  0.4968183E+03  0.7818609E-02  0.1014613E+00
       -1   -1    0    0    0  501  0.00000000000E+00  0.00000000000E+00  0.31602922395E+03  0.31602922399E+03  0.50400001928E-02 0.  1.
        1   -1    0    0  501    0  0.00000000000E+00  0.00000000000E+00 -0.19525757134E+03  0.19525757140E+03  0.50400001928E-02 0. -1.
    10030    2    1    2    0    0  0.00000000000E+00  0.00000000000E+00  0.12077165261E+03  0.51128679539E+03  0.49681827167E+03 0.  0.
        1    1    3    3  502    0 -0.91597077036E+02 -0.15974866117E+03 -0.11119526023E+03  0.21511402834E+03  0.50400001928E-02 0.  1.
       -1    1    3    3    0  502  0.91597077036E+02  0.15974866117E+03  0.23196691284E+03  0.29617276705E+03  0.50400001928E-02 0. -1.
</event>
<event>
 5   0  0.7812547E-02  0.5645860E+03  0.7818609E-02  0.9981731E-01
        1   -1    0    0  501    0  0.00000000000E+00  0.00000000000E+00  0.55540702717E+03  0.55540702719E+03  0.50400001928E-02 0. -1.
       -1   -1    0    0    0  501  0.00000000000E+00  0.00000000000E+00 -0.14347914241E+03  0.14347914250E+03  0.50400001928E-02 0.  1.
    10030    2    1    2    0    0  0.00000000000E+00  0.00000000000E+00  0.41192788476E+03  0.69888616969E+03  0.56458595089E+03 0.  0.
        4    1    3    3  502    0  0.17622326397E+03 -0.10905957849E+03 -0.31304796291E+02  0.20959540452E+03  0.12699999809E+01 0.  1.
       -4    1    3    3    0  502 -0.17622326397E+03  0.10905957849E+03  0.44323268105E+03  0.48929076517E+03  0.12699999809E+01 0. -1.
</event>
<event>
 5   0  0.7416638E-02  0.5001132E+03  0.7818609E-02  0.1013749E+00
       -1   -1    0    0    0  501  0.00000000000E+00  0.00000000000E+00  0.27033141109E+02  0.27033141578E+02  0.50400001928E-02 0.  1.
        1   -1    0    0  501    0  0.00000000000E+00  0.00000000000E+00 -0.23130240678E+04  0.23130240678E+04  0.50400001928E-02 0. -1.
    10030    2    1    2    0    0  0.00000000000E+00  0.00000000000E+00 -0.22859909267E+04  0.23400572094E+04  0.50011321345E+03 0.  0.
        1    1    3    3  502    0 -0.14468082221E+03 -0.49389409535E+02 -0.21710456483E+03  0.26553012294E+03  0.50400001928E-02 0.  1.
       -1    1    3    3    0  502  0.14468082221E+03  0.49389409535E+02 -0.20688863618E+04  0.20745270864E+04  0.50400001928E-02 0. -1.
</event>
<event>
 5   0  0.7531632E-02  0.5046520E+03  0.7818609E-02  0.1012572E+00
       -1   -1    0    0    0  501  0.00000000000E+00  0.00000000000E+00  0.13937714701E+03  0.13937714710E+03  0.50400001928E-02 0.  1.
        1   -1    0    0  501    0  0.00000000000E+00  0.00000000000E+00 -0.45680664112E+03  0.45680664115E+03  0.50400001928E-02 0. -1.
    10030    2    1    2    0    0  0.00000000000E+00  0.00000000000E+00 -0.31742949411E+03  0.59618378825E+03  0.50465198468E+03 0.  0.
        3    1    3    3  502    0 -0.23663920657E+03  0.18520325824E+01 -0.26215670192E+03  0.35316807709E+03  0.10100000352E+00 0. -1.
       -3    1    3    3    0  502  0.23663920657E+03 -0.18520325824E+01 -0.55272792189E+02  0.24301571116E+03  0.10100000352E+00 0.  1.
</event>
<event>
 5   0  0.5006750E-02  0.5011930E+03  0.7818609E-02  0.1013468E+00
       -3   -1    0    0    0  501  0.00000000000E+00  0.00000000000E+00  0.26676127060E+03  0.26676128972E+03  0.10100000352E+00 0.  1.
        3   -1    0    0  501    0  0.00000000000E+00  0.00000000000E+00 -0.23541121635E+03  0.23541123802E+03  0.10100000352E+00 0. -1.
    10030    2    1    2    0    0  0.00000000000E+00  0.00000000000E+00  0.31350054247E+02  0.50217252774E+03  0.50119299847E+03 0.  0.
        3    1    3    3  502    0  0.49461326978E+02  0.20142204110E+03 -0.12524598044E+03  0.24228872719E+03  0.10100000352E+00 0. -1.
       -3    1    3    3    0  502 -0.49461326978E+02 -0.20142204110E+03  0.15659603469E+03  0.25988380055E+03  0.10100000352E+00 0.  1.
</event>
<event>
 5   0  0.5006750E-02  0.4984531E+03  0.7818609E-02  0.1014183E+00
        3   -1    0    0  501    0  0.00000000000E+00  0.00000000000E+00  0.22935570874E+04  0.22935570896E+04  0.10100000352E+00 0.  1.
       -3   -1    0    0    0  501  0.00000000000E+00  0.00000000000E+00 -0.27081797367E+02  0.27081985703E+02  0.10100000352E+00 0. -1.
    10030    2    1    2    0    0  0.00000000000E+00  0.00000000000E+00  0.22664752900E+04  0.23206390753E+04  0.49845308465E+03 0.  0.
        2    1    3    3  502    0  0.14982365534E+03  0.55677312507E+02  0.20235177404E+04  0.20298204690E+04  0.25500000920E-02 0.  1.
       -2    1    3    3    0  502 -0.14982365534E+03 -0.55677312507E+02  0.24295754960E+03  0.29081860625E+03  0.25500000920E-02 0. -1.
</event>
<event>
 5   0  0.7531632E-02  0.5063603E+03  0.7818609E-02  0.1012132E+00
       -1   -1    0    0    0  501  0.00000000000E+00  0.00000000000E+00  0.35980320255E+03  0.35980320258E+03  0.50400001928E-02 0.  1.
        1   -1    0    0  501    0  0.00000000000E+00  0.00000000000E+00 -0.17815350059E+03  0.17815350066E+03  0.50400001928E-02 0. -1.
    10030    2    1    2    0    0  0.00000000000E+00  0.00000000000E+00  0.18164970196E+03  0.53795670324E+03  0.50636034633E+03 0.  0.
        3    1    3    3  502    0 -0.92843799475E+02  0.20358222508E+03  0.21668436548E+03  0.31147683367E+03  0.10100000352E+00 0.  1.
       -3    1    3    3    0  502  0.92843799475E+02 -0.20358222508E+03 -0.35034663515E+02  0.22647986957E+03  0.10100000352E+00 0. -1.
</event>
<event>
 5   0  0.1243803E-01  0.5170535E+03  0.7818609E-02  0.1009421E+00
       -2   -1    0    0    0  501  0.00000000000E+00  0.00000000000E+00  0.38576272086E+02  0.38576272170E+02  0.25500000920E-02 0. -1.
        2   -1    0    0  501    0  0.00000000000E+00  0.00000000000E+00 -0.17325694021E+04  0.17325694021E+04  0.25500000920E-02 0.  1.
    10030    2    1    2    0    0  0.00000000000E+00  0.00000000000E+00 -0.16939931300E+04  0.17711456743E+04  0.51705345464E+03 0.  0.
        4    1    3    3  502    0  0.30380093318E+02 -0.14025024474E+03 -0.15836007917E+04  0.15900899854E+04  0.12699999809E+01 0.  1.
       -4    1    3    3    0  502 -0.30380093318E+02  0.14025024474E+03 -0.11039233829E+03  0.18105568888E+03  0.12699999809E+01 0. -1.
</event>
<event>
 5   0  0.1231822E-01  0.5005420E+03  0.7818609E-02  0.1013638E+00
       -2   -1    0    0    0  501  0.00000000000E+00  0.00000000000E+00  0.11495566876E+03  0.11495566879E+03  0.25500000920E-02 0.  1.
        2   -1    0    0  501    0  0.00000000000E+00  0.00000000000E+00 -0.54486722279E+03  0.54486722280E+03  0.25500000920E-02 0. -1.
    10030    2    1    2    0    0  0.00000000000E+00  0.00000000000E+00 -0.42991155403E+03  0.65982289159E+03  0.50054201020E+03 0.  0.
        1    1    3    3  502    0 -0.13291910380E+03 -0.24253633703E+02  0.62746701379E+02  0.14897273396E+03  0.50400001928E-02 0.  1.
       -1    1    3    3    0  502  0.13291910380E+03  0.24253633703E+02 -0.49265825541E+03  0.51085015763E+03  0.50400001928E-02 0. -1.
</event>
<event>
 5   0  0.7781754E-02  0.4897531E+03  0.7818609E-02  0.1016489E+00
        1   -1    0    0  501    0  0.00000000000E+00  0.00000000000E+00  0.20756195464E+03  0.20756195470E+03  0.50400001928E-02 0.  1.
       -1   -1    0    0    0  501  0.00000000000E+00  0.00000000000E+00 -0.28889938702E+03  0.28889938707E+03  0.50400001928E-02 0. -1.
    10030    2    1    2    0    0  0.00000000000E+00  0.00000000000E+00 -0.81337432386E+02  0.49646134177E+03  0.48975308673E+03 0.  0.
        2    1    3    3  502    0  0.12943237043E+03  0.10891885926E+03 -0.22014885443E+03  0.27763568670E+03  0.25500000920E-02 0. -1.
       -2    1    3    3    0  502 -0.12943237043E+03 -0.10891885926E+03  0.13881142204E+03  0.21882565506E+03  0.25500000920E-02 0.  1.
</event>
<event>
 5   0  0.1211345E-01  0.5030914E+03  0.7818609E-02  0.1012975E+00
       -2   -1    0    0    0  501  0.00000000000E+00  0.00000000000E+00  0.33907667015E+03  0.33907667016E+03  0.25500000920E-02 0.  1.
        2   -1    0    0  501    0  0.00000000000E+00  0.00000000000E+00 -0.18661041685E+03  0.18661041686E+03  0.25500000920E-02 0. -1.
    10030    2    1    2    0    0  0.00000000000E+00  0.00000000000E+00  0.15246625331E+03  0.52568708703E+03  0.50309139833E+03 0.  0.
        5    1    3    3  502    0 -0.22745551765E+02 -0.24683475610E+03  0.31797973166E+02  0.24995591219E+03  0.46999998093E+01 0. -1.
       -5    1    3    3    0  502  0.22745551765E+02  0.24683475610E+03  0.12066828014E+03  0.27573117483E+03  0.46999998093E+01 0.  1.
</event>
<event>
 5   0  0.5006750E-02  0.5014337E+03  0.7818609E-02  0.1013405E+00
        3   -1    0    0  501    0  0.00000000000E+00  0.00000000000E+00  0.74432736728E+03  0.74432737413E+03  0.10100000352E+00 0.  1.
       -3   -1    0    0    0  501  0.00000000000E+00  0.00000000000E+00 -0.84450620075E+02  0.84450680471E+02  0.10100000352E+00 0. -1.
    10030    2    1    2    0    0  0.00000000000E+00  0.00000000000E+00  0.65987674721E+03  0.82877805461E+03  0.50143368683E+03 0.  0.
        1    1    3    3  502    0  0.15606382642E+03 -0.19300508560E+03  0.27145446847E+03  0.36782388376E+03  0.50400001928E-02 0. -1.
       -1    1    3    3    0  502 -0.15606382642E+03  0.19300508560E+03  0.38842227873E+03  0.46095417085E+03  0.50400001928E-02 0.  1.
</event>
<event>
 5   0  0.5006750E-02  0.5010523E+03  0.7818609E-02  0.1013505E+00
       -3   -1    0    0    0  501  0.00000000000E+00  0.00000000000E+00  0.13554968937E+03  0.13554972700E+03  0.10100000352E+00 0. -1.
        3   -1    0    0  501    0  0.00000000000E+00  0.00000000000E+00 -0.46302827373E+03  0.46302828475E+03  0.10100000352E+00 0.  1.
    10030    2    1    2    0    0  0.00000000000E+00  0.00000000000E+00 -0.32747858436E+03  0.59857801175E+03  0.50105230559E+03 0.  0.
        3    1    3    3  502    0  0.55365058504E+02  0.22251645441E+03 -0.43178208694E+02  0.23333073114E+03  0.10100000352E+00 0. -1.
       -3    1    3    3    0  502 -0.55365058504E+02 -0.22251645441E+03 -0.28430037567E+03  0.36524728061E+03  0.10100000352E+00 0.  1.
</event>
<event>
 5   0  0.7781754E-02  0.5012664E+03  0.7818609E-02  0.1013449E+00
        1   -1    0    0  501    0  0.00000000000E+00  0.00000000000E+00  0.16923548475E+03  0.16923548482E+03  0.50400001928E-02 0. -1.
       -1   -1    0    0    0  501  0.00000000000E+00  0.00000000000E+00 -0.37118106935E+03  0.37118106938E+03  0.50400001928E-02 0.  1.
    10030    2    1    2    0    0  0.00000000000E+00  0.00000000000E+00 -0.20194558460E+03  0.54041655420E+03  0.50126642907E+03 0.  0.
        2    1    3    3  502    0  0.10928978678E+03 -0.78744290618E+02  0.12689248291E+03  0.18505843138E+03  0.25500000920E-02 0. -1.
       -2    1    3    3    0  502 -0.10928978678E+03  0.78744290618E+02 -0.32883806752E+03  0.35535812282E+03  0.25500000920E-02 0.  1.
</event>
<event>
 5   0  0.1279188E-01  0.5003113E+03  0.7818609E-02  0.1013698E+00
       -2   -1    0    0    0  501  0.00000000000E+00  0.00000000000E+00  0.30760973627E+03  0.30760973628E+03  0.25500000920E-02 0. -1.
        2   -1    0    0  501    0  0.00000000000E+00  0.00000000000E+00 -0.20343263469E+03  0.20343263470E+03  0.25500000920E-02 0.  1.
    10030    2    1    2    0    0  0.00000000000E+00  0.00000000000E+00  0.10417710158E+03  0.51104237098E+03  0.50031133951E+03 0.  0.
        2    1    3    3  502    0  0.67853428347E+02 -0.90900617328E+02  0.27983003882E+03  0.30194678438E+03  0.25500000920E-02 0. -1.
       -2    1    3    3    0  502 -0.67853428347E+02  0.90900617328E+02 -0.17565293724E+03  0.20909558660E+03  0.25500000920E-02 0.  1.
</event>
<event>
 5   0  0.1191894E-01  0.4999346E+03  0.7818609E-02  0.1013796E+00
       -2   -1    0    0    0  501  0.00000000000E+00  0.00000000000E+00  0.68892130820E+02  0.68892130867E+02  0.25500000920E-02 0. -1.
        2   -1    0    0  501    0  0.00000000000E+00  0.00000000000E+00 -0.90697811137E+03  0.90697811138E+03  0.25500000920E-02 0.  1.
    10030    2    1    2    0    0  0.00000000000E+00  0.00000000000E+00 -0.83808598055E+03  0.97587024224E+03  0.49993461462E+03 0.  0.
        3    1    3    3  502    0 -0.22744665446E+03  0.36519557806E+02 -0.60847696987E+03  0.65062269542E+03  0.10100000352E+00 0. -1.
       -3    1    3    3    0  502  0.22744665446E+03 -0.36519557806E+02 -0.22960901068E+03  0.32524754683E+03  0.10100000352E+00 0.  1.
</event>
<event>
 5   0  0.7602288E-02  0.4978867E+03  0.7818609E-02  0.1014332E+00
       -1   -1    0    0    0  501  0.00000000000E+00  0.00000000000E+00  0.42937105445E+03  0.42937105448E+03  0.50400001928E-02 0. -1.
        1   -1    0    0  501    0  0.00000000000E+00  0.00000000000E+00 -0.14433389020E+03  0.14433389029E+03  0.50400001928E-02 0.  1.
    10030    2    1    2    0    0  0.00000000000E+00  0.00000000000E+00  0.28503716425E+03  0.57370494477E+03  0.49788671267E+03 0.  0.
        5    1    3    3  502    0  0.25318193465E+02 -0.10849406879E+03  0.39898499330E+03  0.41427417100E+03  0.46999998093E+01 0. -1.
       -5    1    3    3    0  502 -0.25318193465E+02  0.10849406879E+03 -0.11394782905E+03  0.15943077377E+03  0.46999998093E+01 0.  1.
</event>
<event>
 5   0  0.1231822E-01  0.5006511E+03  0.7818609E-02  0.1013609E+00
        2   -1    0    0  501    0  0.00000000000E+00  0.00000000000E+00  0.16237211753E+03  0.16237211755E+03  0.25500000920E-02 0. -1.
       -2   -1    0    0    0  501  0.00000000000E+00  0.00000000000E+00 -0.38592139685E+03  0.38592139686E+03  0.25500000920E-02 0.  1.
    10030    2    1    2    0    0  0.00000000000E+00  0.00000000000E+00 -0.22354927933E+03  0.54829351441E+03  0.50065107376E+03 0.  0.
        1    1    3    3  502    0  0.91877963307E+02  0.13472289875E+03 -0.31977178666E+03  0.35895099269E+03  0.50400001928E-02 0.  1.
       -1    1    3    3    0  502 -0.91877963307E+02 -0.13472289875E+03  0.96222507329E+02  0.18934252172E+03  0.50400001928E-02 0. -1.
</event>
<event>
 5   0  0.1243803E-01  0.4938772E+03  0.7818609E-02  0.1015390E+00
       -2   -1    0    0    0  501  0.00000000000E+00  0.00000000000E+00  0.79459482888E+02  0.79459482929E+02  0.25500000920E-02 0.  1.
        2   -1    0    0  501    0  0.00000000000E+00  0.00000000000E+00 -0.76741849819E+03  0.76741849820E+03  0.25500000920E-02 0. -1.
    10030    2    1    2    0    0  0.00000000000E+00  0.00000000000E+00 -0.68795901531E+03  0.84687798113E+03  0.49387721974E+03 0.  0.
        4    1    3    3  502    0 -0.10250494382E+03 -0.18466642684E+01  0.41235295954E+02  0.11051079680E+03  0.12699999809E+01 0.  1.
       -4    1    3    3    0  502  0.10250494382E+03  0.18466642684E+01 -0.72919431126E+03  0.73636718433E+03  0.12699999809E+01 0. -1.
</event>
<event>
 5   0  0.7602288E-02  0.4989733E+03  0.7818609E-02  0.1014047E+00
        1   -1    0    0  501    0  0.00000000000E+00  0.00000000000E+00  0.11219655122E+04  0.11219655122E+04  0.50400001928E-02 0. -1.
       -1   -1    0    0    0  501  0.00000000000E+00  0.00000000000E+00 -0.55477282567E+02  0.55477282795E+02  0.50400001928E-02 0.  1.
    10030    2    1    2    0    0  0.00000000000E+00  0.00000000000E+00  0.10664882296E+04  0.11774427950E+04  0.49897333753E+03 0.  0.
        5    1    3    3  502    0  0.23716641738E+03 -0.23013857396E+02  0.70735261261E+03  0.74642304072E+03  0.46999998093E+01 0. -1.
       -5    1    3    3    0  502 -0.23716641738E+03  0.23013857396E+02  0.35913561701E+03  0.43101975427E+03  0.46999998093E+01 0.  1.
</event>
<event>
 5   0  0.7781754E-02  0.5083051E+03  0.7818609E-02  0.1011634E+00
        1   -1    0    0  501    0  0.00000000000E+00  0.00000000000E+00  0.24709866764E+03  0.24709866769E+03  0.50400001928E-02 0.  1.
       -1   -1    0    0    0  501  0.00000000000E+00  0.00000000000E+00 -0.26140784654E+03  0.26140784659E+03  0.50400001928E-02 0. -1.
    10030    2    1    2    0    0  0.00000000000E+00  0.00000000000E+00 -0.14309178896E+02  0.50850651428E+03  0.50830514700E+03 0.  0.
        2    1    3    3  502    0 -0.24103878320E+03  0.35398661353E+02  0.65267254702E+02  0.25221533414E+03  0.25500000920E-02 0.  1.
       -2    1    3    3    0  502  0.24103878320E+03 -0.35398661353E+02 -0.79576433599E+02  0.25629118015E+03  0.25500000920E-02 0. -1.
</event>
<event>
 5   0  0.7602288E-02  0.4990995E+03  0.7818609E-02  0.1014014E+00
       -1   -1    0    0    0  501  0.00000000000E+00  0.00000000000E+00  0.14303726946E+03  0.14303726955E+03  0.50400001928E-02 0.  1.
        1   -1    0    0  501    0  0.00000000000E+00  0.00000000000E+00 -0.43537652147E+03  0.43537652150E+03  0.50400001928E-02 0. -1.
    10030    2    1    2    0    0  0.00000000000E+00  0.00000000000E+00 -0.29233925201E+03  0.57841379105E+03  0.49909946445E+03 0.  0.
        5    1    3    3  502    0 -0.65896019978E+01 -0.22216732956E+03 -0.27754801910E+03  0.35560756190E+03  0.46999998093E+01 0.  1.
       -5    1    3    3    0  502  0.65896019978E+01  0.22216732956E+03 -0.14791232905E+02  0.22280622915E+03  0.46999998093E+01 0. -1.
</event>
<event>
 5   0  0.1191894E-01  0.5005402E+03  0.7818609E-02  0.1013638E+00
       -2   -1    0    0    0  501  0.00000000000E+00  0.00000000000E+00  0.10286842928E+03  0.10286842931E+03  0.25500000920E-02 0.  1.
        2   -1    0    0  501    0  0.00000000000E+00  0.00000000000E+00 -0.60888581947E+03  0.60888581948E+03  0.25500000920E-02 0. -1.
    10030    2    1    2    0    0  0.00000000000E+00  0.00000000000E+00 -0.50601739020E+03  0.71175424879E+03  0.50054021965E+03 0.  0.
        3    1    3    3  502    0 -0.11190735095E+03  0.21739520957E+03 -0.17708037134E+03  0.30189634058E+03  0.10100000352E+00 0.  1.
       -3    1    3    3    0  502  0.11190735095E+03 -0.21739520957E+03 -0.32893701886E+03  0.40985790821E+03  0.10100000352E+00 0. -1.
</event>
<event>
 5   0  0.1279188E-01  0.4708377E+03  0.7818609E-02  0.1021684E+00
        2   -1    0    0  501    0  0.00000000000E+00  0.00000000000E+00  0.66477134284E+03  0.66477134285E+03  0.25500000920E-02 0.  1.
       -2   -1    0    0    0  501  0.00000000000E+00  0.00000000000E+00 -0.83370064214E+02  0.83370064253E+02  0.25500000920E-02 0. -1.
    10030    2    1    2    0    0  0.00000000000E+00  0.00000000000E+00  0.58140127863E+03  0.74814140710E+03  0.47083767715E+03 0.  0.
        2    1    3    3  502    0 -0.50292796440E+02 -0.11679642269E+02 -0.74262869246E+02  0.90447516121E+02  0.25500000920E-02 0. -1.
       -2    1    3    3    0  502  0.50292796440E+02  0.11679642269E+02  0.65566414787E+03  0.65769389098E+03  0.25500000920E-02 0.  1.
</event>
<event>
 5   0  0.1211345E-01  0.4989997E+03  0.7818609E-02  0.1014040E+00
        2   -1    0    0  501    0  0.00000000000E+00  0.00000000000E+00  0.66349918260E+03  0.66349918260E+03  0.25500000920E-02 0.  1.
       -2   -1    0    0    0  501  0.00000000000E+00  0.00000000000E+00 -0.93821045181E+02  0.93821045216E+02  0.25500000920E-02 0. -1.
    10030    2    1    2    0    0  0.00000000000E+00  0.00000000000E+00  0.56967813741E+03  0.75732022782E+03  0.49899974670E+03 0.  0.
        5    1    3    3  502    0  0.19610743492E+03 -0.12230574702E+03  0.42730092866E+03  0.48582403751E+03  0.46999998093E+01 0.  1.
       -5    1    3    3    0  502 -0.19610743492E+03  0.12230574702E+03  0.14237720875E+03  0.27149619031E+03  0.46999998093E+01 0. -1.
</event>
<event>
 5   0  0.5006750E-02  0.4975213E+03  0.7818609E-02  0.1014428E+00
        3   -1    0    0  501    0  0.00000000000E+00  0.00000000000E+00  0.18165818511E+03  0.18165821318E+03  0.10100000352E+00 0. -1.
       -3   -1    0    0    0  501  0.00000000000E+00  0.00000000000E+00 -0.34064993412E+03  0.34064994909E+03  0.10100000352E+00 0.  1.
    10030    2    1    2    0    0  0.00000000000E+00  0.00000000000E+00 -0.15899174902E+03  0.52230816228E+03  0.49752129615E+03 0.  0.
        5    1    3    3  502    0 -0.40638198938E+02 -0.20085429344E+03 -0.22746422032E+03  0.30619596981E+03  0.46999998093E+01 0.  1.
       -5    1    3    3    0  502  0.40638198938E+02  0.20085429344E+03  0.68472471307E+02  0.21611219246E+03  0.46999998093E+01 0. -1.
</event>
<event>
 5   0  0.7812547E-02  0.5075008E+03  0.7818609E-02  0.1011839E+00
        1   -1    0    0  501    0  0.00000000000E+00  0.00000000000E+00  0.12807680955E+04  0.12807680955E+04  0.50400001928E-02 0. -1.
       -1   -1    0    0    0  501  0.00000000000E+00  0.00000000000E+00 -0.50273935982E+02  0.50273936235E+02  0.50400001928E-02 0.  1.
    10030    2    1    2    0    0  0.00000000000E+00  0.00000000000E+00  0.12304941595E+04  0.13310420317E+04  0.50750075237E+03 0.  0.
        4    1    3    3  502    0  0.73222885365E+02  0.21783130940E+03  0.33306704908E+03  0.40465706763E+03  0.12699999809E+01 0.  1.
       -4    1    3    3    0  502 -0.73222885365E+02 -0.21783130940E+03  0.89742711040E+03  0.92638496408E+03  0.12699999809E+01 0. -1.
</event>
<event>
 5   0  0.7416638E-02  0.4868135E+03  0.7818609E-02  0.1017279E+00
       -1   -1    0    0    0  501  0.00000000000E+00  0.00000000000E+00  0.70272407672E+02  0.70272407852E+02  0.50400001928E-02 0. -1.
        1   -1    0    0  501    0  0.00000000000E+00  0.00000000000E+00 -0.84310255113E+03  0.84310255114E+03  0.50400001928E-02 0.  1.
    10030    2    1    2    0    0  0.00000000000E+00  0.00000000000E+00 -0.77283014346E+03  0.91337495900E+03  0.48681350134E+03 0.  0.
        1    1    3    3  502    0  0.19996148564E+03 -0.79808178740E+02 -0.59945542795E+03  0.63694642730E+03  0.50400001928E-02 0.  1.
       -1    1    3    3    0  502 -0.19996148564E+03  0.79808178740E+02 -0.17337471551E+03  0.27642853170E+03  0.50400001928E-02 0. -1.
</event>
<event>
 5   0  0.1279188E-01  0.4704688E+03  0.7818609E-02  0.1021788E+00
        2   -1    0    0  501    0  0.00000000000E+00  0.00000000000E+00  0.57545156014E+02  0.57545156070E+02  0.25500000920E-02 0. -1.
       -2   -1    0    0    0  501  0.00000000000E+00  0.00000000000E+00 -0.96159644002E+03  0.96159644003E+03  0.25500000920E-02 0.  1.
    10030    2    1    2    0    0  0.00000000000E+00  0.00000000000E+00 -0.90405128401E+03  0.10191415961E+04  0.47046877556E+03 0.  0.
        2    1    3    3  502    0 -0.78109148894E+02  0.80136611844E+02 -0.90024231751E+03  0.90717095740E+03  0.25500000920E-02 0.  1.
       -2    1    3    3    0  502  0.78109148894E+02 -0.80136611844E+02 -0.38089664984E+01  0.11197063870E+03  0.25500000920E-02 0. -1.
</event>
<event>
 5   0  0.7602288E-02  0.4986992E+03  0.7818609E-02  0.1014119E+00
       -1   -1    0    0    0  501  0.00000000000E+00  0.00000000000E+00  0.67651328021E+03  0.67651328023E+03  0.50400001928E-02 0.  1.
        1   -1    0    0  501    0  0.00000000000E+00  0.00000000000E+00 -0.91905410230E+02  0.91905410368E+02  0.50400001928E-02 0. -1.
    10030    2    1    2    0    0  0.00000000000E+00  0.00000000000E+00  0.58460786998E+03  0.76841869060E+03  0.49869923042E+03 0.  0.
        5    1    3    3  502    0  0.21078072493E+03  0.18747827176E+02  0.49539857007E+03  0.53872240370E+03  0.46999998093E+01 0. -1.
       -5    1    3    3    0  502 -0.21078072493E+03 -0.18747827176E+02  0.89209299910E+02  0.22969628690E+03  0.46999998093E+01 0.  1.
</event>
<event>
 5   0  0.7812547E-02  0.5010204E+03  0.7818609E-02  0.1013513E+00
        1   -1    0    0  501    0  0.00000000000E+00  0.00000000000E+00  0.15931535182E+03  0.15931535189E+03  0.50400001928E-02 0. -1.
       -1   -1    0    0    0  501  0.00000000000E+00  0.00000000000E+00 -0.39390655164E+03  0.39390655167E+03  0.50400001928E-02 0.  1.
    10030    2    1    2    0    0  0.00000000000E+00  0.00000000000E+00 -0.23459119982E+03  0.55322190357E+03  0.50102040233E+03 0.  0.
        4    1    3    3  502    0 -0.23636982457E+02  0.58232371751E+02 -0.38505671482E+03  0.39015381913E+03  0.12699999809E+01 0.  1.
       -4    1    3    3    0  502  0.23636982457E+02 -0.58232371751E+02  0.15046551499E+03  0.16306808443E+03  0.12699999809E+01 0. -1.
</event>
<event>
 5   0  0.1243803E-01  0.4982236E+03  0.7818609E-02  0.1014244E+00
       -2   -1    0    0    0  501  0.00000000000E+00  0.00000000000E+00  0.17266511229E+03  0.17266511231E+03  0.25500000920E-02 0.  1.
        2   -1    0    0  501    0  0.00000000000E+00  0.00000000000E+00 -0.35940484739E+03  0.35940484740E+03  0.25500000920E-02 0. -1.
    10030    2    1    2    0    0  0.00000000000E+00  0.00000000000E+00 -0.18673973510E+03  0.53206995971E+03  0.49822355761E+03 0.  0.
        4    1    3    3  502    0  0.18525103493E+03 -0.13077730446E+03 -0.20349876884E+03  0.30468674261E+03  0.12699999809E+01 0. -1.
       -4    1    3    3    0  502 -0.18525103493E+03  0.13077730446E+03  0.16759033735E+02  0.22738321709E+03  0.12699999809E+01 0.  1.
</event>
<event>
 5   0  0.7602288E-02  0.4986817E+03  0.7818609E-02  0.1014124E+00
        1   -1    0    0  501    0  0.00000000000E+00  0.00000000000E+00  0.64716817780E+03  0.64716817782E+03  0.50400001928E-02 0.  1.
       -1   -1    0    0    0  501  0.00000000000E+00  0.00000000000E+00 -0.96066005865E+02  0.96066005997E+02  0.50400001928E-02 0. -1.
    10030    2    1    2    0    0  0.00000000000E+00  0.00000000000E+00  0.55110217194E+03  0.74323418382E+03  0.49868171020E+03 0.  0.
        5    1    3    3  502    0 -0.16494619237E+03 -0.13084027251E+03  0.47451975950E+03  0.51915076369E+03  0.46999998093E+01 0.  1.
       -5    1    3    3    0  502  0.16494619237E+03  0.13084027251E+03  0.76582412443E+02  0.22408342014E+03  0.46999998093E+01 0. -1.
</event>
<event>
 5   0  0.1211345E-01  0.5084252E+03  0.7818609E-02  0.1011603E+00
        2   -1    0    0  501    0  0.00000000000E+00  0.00000000000E+00  0.13398752641E+04  0.13398752641E+04  0.25500000920E-02 0. -1.
       -2   -1    0    0    0  501  0.00000000000E+00  0.00000000000E+00 -0.48231392025E+02  0.48231392093E+02  0.25500000920E-02 0.  1.
    10030    2    1    2    0    0  0.00000000000E+00  0.00000000000E+00  0.12916438721E+04  0.13881066562E+04  0.50842521250E+03 0.  0.
        5    1    3    3  502    0 -0.15412548494E+03 -0.14176934896E+03  0.10390927188E+04  0.10599948027E+04  0.46999998093E+01 0. -1.
       -5    1    3    3    0  502  0.15412548494E+03  0.14176934896E+03  0.25255115329E+03  0.32811185355E+03  0.46999998093E+01 0.  1.
</event>
<event>
 5   0  0.1231822E-01  0.5021029E+03  0.7818609E-02  0.1013231E+00
       -2   -1    0    0    0  501  0.00000000000E+00  0.00000000000E+00  0.17612398655E+03  0.17612398656E+03  0.25500000920E-02 0. -1.
        2   -1    0    0  501    0  0.00000000000E+00  0.00000000000E+00 -0.35785492057E+03  0.35785492058E+03  0.25500000920E-02 0.  1.
    10030    2    1    2    0    0  0.00000000000E+00  0.00000000000E+00 -0.18173093402E+03  0.53397890714E+03  0.50210291863E+03 0.  0.
        1    1    3    3  502    0  0.16308373192E+03  0.11841682125E+03  0.68330766429E+02  0.21280963521E+03  0.50400001928E-02 0. -1.
       -1    1    3    3    0  502 -0.16308373192E+03 -0.11841682125E+03 -0.25006170045E+03  0.32116927193E+03  0.50400001928E-02 0.  1.
</event>
<event>
 5   0  0.7416638E-02  0.4999229E+03  0.7818609E-02  0.1013799E+00
       -1   -1    0    0    0  501  0.00000000000E+00  0.00000000000E+00  0.99743566313E+02  0.99743566441E+02  0.50400001928E-02 0.  1.
        1   -1    0    0  501    0  0.00000000000E+00  0.00000000000E+00 -0.62641370319E+03  0.62641370321E+03  0.50400001928E-02 0. -1.
    10030    2    1    2    0    0  0.00000000000E+00  0.00000000000E+00 -0.52667013688E+03  0.72615726965E+03  0.49992294125E+03 0.  0.
        1    1    3    3  502    0  0.80192745255E+02  0.15758619679E+03 -0.66979999909E+01  0.17694391496E+03  0.50400001928E-02 0.  1.
       -1    1    3    3    0  502 -0.80192745255E+02 -0.15758619679E+03 -0.51997213689E+03  0.54921335470E+03  0.50400001928E-02 0. -1.
</event>
<event>
 5   0  0.5006750E-02  0.4989100E+03  0.7818609E-02  0.1014064E+00
        3   -1    0    0  501    0  0.00000000000E+00  0.00000000000E+00  0.14099273725E+03  0.14099277342E+03  0.10100000352E+00 0. -1.
       -3   -1    0    0    0  501  0.00000000000E+00  0.00000000000E+00 -0.44135456078E+03  0.44135457234E+03  0.10100000352E+00 0.  1.
    10030    2    1    2    0    0  0.00000000000E+00  0.00000000000E+00 -0.30036182354E+03  0.58234734577E+03  0.49891001802E+03 0.  0.
        4    1    3    3  502    0 -0.92926473796E+02 -0.17045224086E+03  0.32658433502E+02  0.19686920055E+03  0.12699999809E+01 0. -1.
       -4    1    3    3    0  502  0.92926473796E+02  0.17045224086E+03 -0.33302025704E+03  0.38547814522E+03  0.12699999809E+01 0.  1.
</event>
<event>
 5   0  0.7781754E-02  0.4998626E+03  0.7818609E-02  0.1013815E+00
       -1   -1    0    0    0  501  0.00000000000E+00  0.00000000000E+00  0.46420178067E+02  0.46420178341E+02  0.50400001928E-02 0. -1.
        1   -1    0    0  501    0  0.00000000000E+00  0.00000000000E+00 -0.13456571011E+04  0.13456571011E+04  0.50400001928E-02 0.  1.
    10030    2    1    2    0    0  0.00000000000E+00  0.00000000000E+00 -0.12992369231E+04  0.13920772795E+04  0.49986255090E+03 0.  0.
        2    1    3    3  502    0  0.24775753113E+03 -0.31054774605E+02 -0.61943717522E+03  0.66787020244E+03  0.25500000920E-02 0.  1.
       -2    1    3    3    0  502 -0.24775753113E+03  0.31054774605E+02 -0.67979974784E+03  0.72420707703E+03  0.25500000920E-02 0. -1.
</event>
<event>
 5   0  0.7812547E-02  0.4982019E+03  0.7818609E-02  0.1014249E+00
        1   -1    0    0  501    0  0.00000000000E+00  0.00000000000E+00  0.33739759390E+03  0.33739759394E+03  0.50400001928E-02 0. -1.
       -1   -1    0    0    0  501  0.00000000000E+00  0.00000000000E+00 -0.18391147628E+03  0.18391147635E+03  0.50400001928E-02 0.  1.
    10030    2    1    2    0    0  0.00000000000E+00  0.00000000000E+00  0.15348611763E+03  0.52130907028E+03  0.49820192538E+03 0.  0.
        4    1    3    3  502    0  0.15569354602E+03  0.19244220199E+03  0.10587674617E+03  0.26923220397E+03  0.12699999809E+01 0. -1.
       -4    1    3    3    0  502 -0.15569354602E+03 -0.19244220199E+03  0.47609371458E+02  0.25207686631E+03  0.12699999809E+01 0.  1.
</event>
<event>
 5   0  0.7781754E-02  0.5044833E+03  0.7818609E-02  0.1012615E+00
       -1   -1    0    0    0  501  0.00000000000E+00  0.00000000000E+00  0.55084494900E+02  0.55084495130E+02  0.50400001928E-02 0. -1.
        1   -1    0    0  501    0  0.00000000000E+00  0.00000000000E+00 -0.11550589509E+04  0.11550589509E+04  0.50400001928E-02 0.  1.
    10030    2    1    2    0    0  0.00000000000E+00  0.00000000000E+00 -0.10999744560E+04  0.12101434460E+04  0.50448325655E+03 0.  0.
        2    1    3    3  502    0  0.15190857308E+03 -0.49547719254E+02 -0.10181771688E+04  0.10306386069E+04  0.25500000920E-02 0.  1.
       -2    1    3    3    0  502 -0.15190857308E+03  0.49547719254E+02 -0.81797287197E+02  0.17950483909E+03  0.25500000920E-02 0. -1.
</event>
<event>
 5   0  0.7416638E-02  0.5044621E+03  0.7818609E-02  0.1012621E+00
       -1   -1    0    0    0  501  0.00000000000E+00  0.00000000000E+00  0.32943879994E+03  0.32943879998E+03  0.50400001928E-02 0.  1.
        1   -1    0    0  501    0  0.00000000000E+00  0.00000000000E+00 -0.19311785265E+03  0.19311785272E+03  0.50400001928E-02 0. -1.
    10030    2    1    2    0    0  0.00000000000E+00  0.00000000000E+00  0.13632094728E+03  0.52255665269E+03  0.50446214388E+03 0.  0.
        1    1    3    3  502    0 -0.22480231455E+03  0.78393257223E+02 -0.18127656903E+02  0.23876807864E+03  0.50400001928E-02 0. -1.
       -1    1    3    3    0  502  0.22480231455E+03 -0.78393257223E+02  0.15444860419E+03  0.28378857406E+03  0.50400001928E-02 0.  1.
</event>
<event>
 5   0  0.1211345E-01  0.4995339E+03  0.7818609E-02  0.1013901E+00
        2   -1    0    0  501    0  0.00000000000E+00  0.00000000000E+00  0.11278401789E+04  0.11278401789E+04  0.25500000920E-02 0.  1.
       -2   -1    0    0    0  501  0.00000000000E+00  0.00000000000E+00 -0.55312384223E+02  0.55312384282E+02  0.25500000920E-02 0. -1.
    10030    2    1    2    0    0  0.00000000000E+00  0.00000000000E+00  0.10725277947E+04  0.11831525632E+04  0.49953390017E+03 0.  0.
        5    1    3    3  502    0  0.15979547596E+03  0.83961907212E+02  0.94497649839E+03  0.96207425312E+03  0.46999998093E+01 0.  1.
       -5    1    3    3    0  502 -0.15979547596E+03 -0.83961907212E+02  0.12755129628E+03  0.22107831007E+03  0.46999998093E+01 0. -1.
</event>
<event>
 5   0  0.1279188E-01  0.5006796E+03  0.7818609E-02  0.1013602E+00
       -2   -1    0    0    0  501  0.00000000000E+00  0.00000000000E+00  0.99720270158E+02  0.99720270190E+02  0.25500000920E-02 0. -1.
        2   -1    0    0  501    0  0.00000000000E+00  0.00000000000E+00 -0.62845810686E+03  0.62845810686E+03  0.25500000920E-02 0.  1.
    10030    2    1    2    0    0  0.00000000000E+00  0.00000000000E+00 -0.52873783670E+03  0.72817837705E+03  0.50067958701E+03 0.  0.
        2    1    3    3  502    0  0.11565232510E+03 -0.19836700962E+03 -0.40940700580E+03  0.46940284108E+03  0.25500000920E-02 0.  1.
       -2    1    3    3    0  502 -0.11565232510E+03  0.19836700962E+03 -0.11933083090E+03  0.25877553597E+03  0.25500000920E-02 0. -1.
</event>
<event>
 5   0  0.7781754E-02  0.4987979E+03  0.7818609E-02  0.1014093E+00
        1   -1    0    0  501    0  0.00000000000E+00  0.00000000000E+00  0.79367929682E+03  0.79367929683E+03  0.50400001928E-02 0. -1.
       -1   -1    0    0    0  501  0.00000000000E+00  0.00000000000E+00 -0.78368979005E+02  0.78368979167E+02  0.50400001928E-02 0.  1.
    10030    2    1    2    0    0  0.00000000000E+00  0.00000000000E+00  0.71531031781E+03  0.87204827600E+03  0.49879789986E+03 0.  0.
        2    1    3    3  502    0  0.22990327853E+03  0.92206442547E+02  0.30691557364E+03  0.39440425311E+03  0.25500000920E-02 0.  1.
       -2    1    3    3    0  502 -0.22990327853E+03 -0.92206442547E+02  0.40839474417E+03  0.47764402289E+03  0.25500000920E-02 0. -1.
</event>
<event>
 5   0  0.7812547E-02  0.4990082E+03  0.7818609E-02  0.1014038E+00
        1   -1    0    0  501    0  0.00000000000E+00  0.00000000000E+00  0.25219246279E+03  0.25219246284E+03  0.50400001928E-02 0.  1.
       -1   -1    0    0    0  501  0.00000000000E+00  0.00000000000E+00 -0.24684443900E+03  0.24684443905E+03  0.50400001928E-02 0. -1.
    10030    2    1    2    0    0  0.00000000000E+00  0.00000000000E+00  0.53480237859E+01  0.49903690189E+03  0.49900824451E+03 0.  0.
        4    1    3    3  502    0  0.79760339894E+02 -0.11565750485E+02  0.23881299596E+03  0.25204907924E+03  0.12699999809E+01 0.  1.
       -4    1    3    3    0  502 -0.79760339894E+02  0.11565750485E+02 -0.23346497218E+03  0.24698782265E+03  0.12699999809E+01 0. -1.
</event>
<event>
 5   0  0.7416638E-02  0.4985828E+03  0.7818609E-02  0.1014149E+00
        1   -1    0    0  501    0  0.00000000000E+00  0.00000000000E+00  0.64989737786E+03  0.64989737787E+03  0.50400001928E-02 0. -1.
       -1   -1    0    0    0  501  0.00000000000E+00  0.00000000000E+00 -0.95624645928E+02  0.95624646061E+02  0.50400001928E-02 0.  1.
    10030    2    1    2    0    0  0.00000000000E+00  0.00000000000E+00  0.55427273193E+03  0.74552202394E+03  0.49858281841E+03 0.  0.
        1    1    3    3  502    0  0.83408523861E+02  0.23491321865E+03  0.28048143330E+03  0.37524796682E+03  0.50400001928E-02 0. -1.
       -1    1    3    3    0  502 -0.83408523861E+02 -0.23491321865E+03  0.27379129862E+03  0.37027405712E+03  0.50400001928E-02 0.  1.
</event>
<event>
 5   0  0.7416638E-02  0.5352608E+03  0.7818609E-02  0.1004964E+00
        1   -1    0    0  501    0  0.00000000000E+00  0.00000000000E+00  0.93773804437E+03  0.93773804438E+03  0.50400001928E-02 0. -1.
       -1   -1    0    0    0  501  0.00000000000E+00  0.00000000000E+00 -0.76381714634E+02  0.76381714801E+02  0.50400001928E-02 0.  1.
    10030    2    1    2    0    0  0.00000000000E+00  0.00000000000E+00  0.86135632974E+03  0.10141197592E+04  0.53526083286E+03 0.  0.
        1    1    3    3  502    0  0.14649117626E+03  0.41850532967E+02  0.84756034784E+03  0.86114439852E+03  0.50400001928E-02 0. -1.
       -1    1    3    3    0  502 -0.14649117626E+03 -0.41850532967E+02  0.13795981892E+02  0.15297536067E+03  0.50400001928E-02 0.  1.
</event>
<event>
 5   0  0.5006750E-02  0.5352810E+03  0.7818609E-02  0.1004959E+00
       -3   -1    0    0    0  501  0.00000000000E+00  0.00000000000E+00  0.62978508587E+02  0.62978589575E+02  0.10100000352E+00 0.  1.
        3   -1    0    0  501    0  0.00000000000E+00  0.00000000000E+00 -0.11373942350E+04  0.11373942395E+04  0.10100000352E+00 0. -1.
    10030    2    1    2    0    0  0.00000000000E+00  0.00000000000E+00 -0.10744157264E+04  0.12003728290E+04  0.53528102486E+03 0.  0.
        3    1    3    3  502    0 -0.12673822875E+02 -0.12469035172E+03 -0.68976142885E+01  0.12552249552E+03  0.10100000352E+00 0.  1.
       -3    1    3    3    0  502  0.12673822875E+02  0.12469035172E+03 -0.10675181121E+04  0.10748503335E+04  0.10100000352E+00 0. -1.
</event>
<event>
 5   0  0.7781754E-02  0.4457179E+03  0.7818609E-02  0.1029007E+00
       -1   -1    0    0    0  501  0.00000000000E+00  0.00000000000E+00  0.99890910176E+02  0.99890910303E+02  0.50400001928E-02 0.  1.
        1   -1    0    0  501    0  0.00000000000E+00  0.00000000000E+00 -0.49720357367E+03  0.49720357369E+03  0.50400001928E-02 0. -1.
    10030    2    1    2    0    0  0.00000000000E+00  0.00000000000E+00 -0.39731266349E+03  0.59709448400E+03  0.44571792677E+03 0.  0.
        2    1    3    3  502    0  0.15888279611E+03 -0.48523486448E+02  0.34818284645E+00  0.16612764031E+03  0.25500000920E-02 0.  1.
       -2    1    3    3    0  502 -0.15888279611E+03  0.48523486448E+02 -0.39766084634E+03  0.43096684368E+03  0.25500000920E-02 0. -1.
</event>
<event>
 5   0  0.7812547E-02  0.4549996E+03  0.7818609E-02  0.1026242E+00
       -1   -1    0    0    0  501  0.00000000000E+00  0.00000000000E+00  0.68633321706E+02  0.68633321891E+02  0.50400001928E-02 0. -1.
        1   -1    0    0  501    0  0.00000000000E+00  0.00000000000E+00 -0.75409656959E+03  0.75409656960E+03  0.50400001928E-02 0.  1.
    10030    2    1    2    0    0  0.00000000000E+00  0.00000000000E+00 -0.68546324788E+03  0.82272989149E+03  0.45499957161E+03 0.  0.
        4    1    3    3  502    0  0.21605260146E+03 -0.25284079839E+02 -0.46317083974E+03  0.51170973313E+03  0.12699999809E+01 0.  1.
       -4    1    3    3    0  502 -0.21605260146E+03  0.25284079839E+02 -0.22229240814E+03  0.31102015836E+03  0.12699999809E+01 0. -1.
</event>
<event>
 5   0  0.7531632E-02  0.5058644E+03  0.7818609E-02  0.1012259E+00
       -1   -1    0    0    0  501  0.00000000000E+00  0.00000000000E+00  0.66006895829E+02  0.66006896021E+02  0.50400001928E-02 0. -1.
        1   -1    0    0  501    0  0.00000000000E+00  0.00000000000E+00 -0.96921231464E+03  0.96921231465E+03  0.50400001928E-02 0.  1.
    10030    2    1    2    0    0  0.00000000000E+00  0.00000000000E+00 -0.90320541881E+03  0.10352192107E+04  0.50586439446E+03 0.  0.
        3    1    3    3  502    0 -0.17050351572E+03  0.13812636302E+03 -0.70903385171E+03  0.74221247234E+03  0.10100000352E+00 0.  1.
       -3    1    3    3    0  502  0.17050351572E+03 -0.13812636302E+03 -0.19417156710E+03  0.29300673833E+03  0.10100000352E+00 0. -1.
</event>
<event>
 5   0  0.1279188E-01  0.4999000E+03  0.7818609E-02  0.1013805E+00
        2   -1    0    0  501    0  0.00000000000E+00  0.00000000000E+00  0.54012798270E+03  0.54012798271E+03  0.25500000920E-02 0. -1.
       -2   -1    0    0    0  501  0.00000000000E+00  0.00000000000E+00 -0.11566704370E+03  0.11566704373E+03  0.25500000920E-02 0.  1.
    10030    2    1    2    0    0  0.00000000000E+00  0.00000000000E+00  0.42446093900E+03  0.65579502644E+03  0.49990001797E+03 0.  0.
        2    1    3    3  502    0 -0.43548657818E+02 -0.23528466465E+03  0.11745289875E+03  0.26655307623E+03  0.25500000920E-02 0.  1.
       -2    1    3    3    0  502  0.43548657818E+02  0.23528466465E+03  0.30700804024E+03  0.38924195020E+03  0.25500000920E-02 0. -1.
</event>
<event>
 5   0  0.7602288E-02  0.4996659E+03  0.7818609E-02  0.1013866E+00
        1   -1    0    0  501    0  0.00000000000E+00  0.00000000000E+00  0.14537612744E+04  0.14537612744E+04  0.50400001928E-02 0. -1.
       -1   -1    0    0    0  501  0.00000000000E+00  0.00000000000E+00 -0.42934484888E+02  0.42934485184E+02  0.50400001928E-02 0.  1.
    10030    2    1    2    0    0  0.00000000000E+00  0.00000000000E+00  0.14108267895E+04  0.14966957596E+04  0.49966585512E+03 0.  0.
        5    1    3    3  502    0  0.13278908759E+03 -0.20307311210E+03  0.88319878323E+03  0.91593330070E+03  0.46999998093E+01 0. -1.
       -5    1    3    3    0  502 -0.13278908759E+03  0.20307311210E+03  0.52762800624E+03  0.58076245885E+03  0.46999998093E+01 0.  1.
</event>
<event>
 5   0  0.1231822E-01  0.4888376E+03  0.7818609E-02  0.1016734E+00
       -2   -1    0    0    0  501  0.00000000000E+00  0.00000000000E+00  0.49789329601E+02  0.49789329666E+02  0.25500000920E-02 0. -1.
        2   -1    0    0  501    0  0.00000000000E+00  0.00000000000E+00 -0.11998664057E+04  0.11998664057E+04  0.25500000920E-02 0.  1.
    10030    2    1    2    0    0  0.00000000000E+00  0.00000000000E+00 -0.11500770761E+04  0.12496557354E+04  0.48883757627E+03 0.  0.
        1    1    3    3  502    0  0.44352877115E+02  0.83538915622E+02  0.11102393633E+01  0.94589432753E+02  0.50400001928E-02 0. -1.
       -1    1    3    3    0  502 -0.44352877115E+02 -0.83538915622E+02 -0.11511873155E+04  0.11550663026E+04  0.50400001928E-02 0.  1.
</event>
<event>
 5   0  0.7531632E-02  0.4880477E+03  0.7818609E-02  0.1016947E+00
       -1   -1    0    0    0  501  0.00000000000E+00  0.00000000000E+00  0.25779488161E+03  0.25779488166E+03  0.50400001928E-02 0. -1.
        1   -1    0    0  501    0  0.00000000000E+00  0.00000000000E+00 -0.23098840591E+03  0.23098840596E+03  0.50400001928E-02 0.  1.
    10030    2    1    2    0    0  0.00000000000E+00  0.00000000000E+00  0.26806475704E+02  0.48878328763E+03  0.48804765661E+03 0.  0.
        3    1    3    3  502    0 -0.64177003602E+02  0.11597894339E+03  0.21859694297E+03  0.25564513838E+03  0.10100000352E+00 0. -1.
       -3    1    3    3    0  502  0.64177003602E+02 -0.11597894339E+03 -0.19179046726E+03  0.23313814925E+03  0.10100000352E+00 0.  1.
</event>
<event>
 5   0  0.1231822E-01  0.5011217E+03  0.7818609E-02  0.1013487E+00
       -2   -1    0    0    0  501  0.00000000000E+00  0.00000000000E+00  0.69330487265E+02  0.69330487312E+02  0.25500000920E-02 0.  1.
        2   -1    0    0  501    0  0.00000000000E+00  0.00000000000E+00 -0.90552858662E+03  0.90552858662E+03  0.25500000920E-02 0. -1.
    10030    2    1    2    0    0  0.00000000000E+00  0.00000000000E+00 -0.83619809936E+03  0.97485907394E+03  0.50112169447E+03 0.  0.
        1    1    3    3  502    0  0.20478760596E+03 -0.17522934744E+02 -0.69687391534E+03  0.72655231794E+03  0.50400001928E-02 0. -1.
       -1    1    3    3    0  502 -0.20478760596E+03  0.17522934744E+02 -0.13932418402E+03  0.24830675600E+03  0.50400001928E-02 0.  1.
</event>
<event>
 5   0  0.7416638E-02  0.4989200E+03  0.7818609E-02  0.1014061E+00
       -1   -1    0    0    0  501  0.00000000000E+00  0.00000000000E+00  0.71730331164E+02  0.71730331342E+02  0.50400001928E-02 0.  1.
        1   -1    0    0  501    0  0.00000000000E+00  0.00000000000E+00 -0.86755885937E+03  0.86755885938E+03  0.50400001928E-02 0. -1.
    10030    2    1    2    0    0  0.00000000000E+00  0.00000000000E+00 -0.79582852820E+03  0.93928919072E+03  0.49891997105E+03 0.  0.
        1    1    3    3  502    0 -0.29039261850E+02  0.22321464562E+03 -0.60035093804E+03  0.64116246426E+03  0.50400001928E-02 0. -1.
       -1    1    3    3    0  502  0.29039261850E+02 -0.22321464562E+03 -0.19547759017E+03  0.29812672647E+03  0.50400001928E-02 0.  1.
</event>
<event>
 5   0  0.1211345E-01  0.4983181E+03  0.7818609E-02  0.1014219E+00
        2   -1    0    0  501    0  0.00000000000E+00  0.00000000000E+00  0.18576217568E+04  0.18576217568E+04  0.25500000920E-02 0. -1.
       -2   -1    0    0    0  501  0.00000000000E+00  0.00000000000E+00 -0.33419204105E+02  0.33419204202E+02  0.25500000920E-02 0.  1.
    10030    2    1    2    0    0  0.00000000000E+00  0.00000000000E+00  0.18242025527E+04  0.18910409610E+04  0.49831813426E+03 0.  0.
        5    1    3    3  502    0  0.34736013553E+02 -0.24622763876E+03  0.85536736445E+03  0.89079181569E+03  0.46999998093E+01 0.  1.
       -5    1    3    3    0  502 -0.34736013553E+02  0.24622763876E+03  0.96883518822E+03  0.10002491453E+04  0.46999998093E+01 0. -1.
</event>
<event>
 5   0  0.7781754E-02  0.4981988E+03  0.7818609E-02  0.1014250E+00
        1   -1    0    0  501    0  0.00000000000E+00  0.00000000000E+00  0.15702302457E+03  0.15702302465E+03  0.50400001928E-02 0. -1.
       -1   -1    0    0    0  501  0.00000000000E+00  0.00000000000E+00 -0.39516822334E+03  0.39516822337E+03  0.50400001928E-02 0.  1.
    10030    2    1    2    0    0  0.00000000000E+00  0.00000000000E+00 -0.23814519877E+03  0.55219124803E+03  0.49819879436E+03 0.  0.
        2    1    3    3  502    0 -0.71990079147E+02 -0.16585587708E+03  0.70844095340E+02  0.19418967354E+03  0.25500000920E-02 0. -1.
       -2    1    3    3    0  502  0.71990079147E+02  0.16585587708E+03 -0.30898929411E+03  0.35800157449E+03  0.25500000920E-02 0.  1.
</event>
<event>
 5   0  0.1191894E-01  0.4956026E+03  0.7818609E-02  0.1014933E+00
        2   -1    0    0  501    0  0.00000000000E+00  0.00000000000E+00  0.16403595298E+04  0.16403595298E+04  0.25500000920E-02 0.  1.
       -2   -1    0    0    0  501  0.00000000000E+00  0.00000000000E+00 -0.37434165249E+02  0.37434165336E+02  0.25500000920E-02 0. -1.
    10030    2    1    2    0    0  0.00000000000E+00  0.00000000000E+00  0.16029253645E+04  0.16777936951E+04  0.49560262219E+03 0.  0.
        3    1    3    3  502    0 -0.22794585889E+03  0.81834487208E+02  0.62395605059E+03  0.66931110939E+03  0.10100000352E+00 0.  1.
       -3    1    3    3    0  502  0.22794585889E+03 -0.81834487208E+02  0.97896931392E+03  0.10084825857E+04  0.10100000352E+00 0. -1.
</event>
<event>
 5   0  0.1279188E-01  0.4976902E+03  0.7818609E-02  0.1014384E+00
       -2   -1    0    0    0  501  0.00000000000E+00  0.00000000000E+00  0.22576063863E+03  0.22576063865E+03  0.25500000920E-02 0. -1.
        2   -1    0    0  501    0  0.00000000000E+00  0.00000000000E+00 -0.27429001290E+03  0.27429001291E+03  0.25500000920E-02 0.  1.
    10030    2    1    2    0    0  0.00000000000E+00  0.00000000000E+00 -0.48529374267E+02  0.50005065156E+03  0.49769021887E+03 0.  0.
        2    1    3    3  502    0 -0.19122303536E+03  0.14840066653E+03 -0.82287006990E+02  0.25565632909E+03  0.25500000920E-02 0.  1.
       -2    1    3    3    0  502  0.19122303536E+03 -0.14840066653E+03  0.33757632723E+02  0.24439432246E+03  0.25500000920E-02 0. -1.
</event>
<event>
 5   0  0.5006750E-02  0.4983197E+03  0.7818609E-02  0.1014218E+00
        4   -1    0    0  501    0  0.00000000000E+00  0.00000000000E+00  0.10555603539E+04  0.10555611179E+04  0.12699999809E+01 0. -1.
       -4   -1    0    0    0  501  0.00000000000E+00  0.00000000000E+00 -0.58805328730E+02  0.58819041024E+02  0.12699999809E+01 0.  1.
    10030    2    1    2    0    0  0.00000000000E+00  0.00000000000E+00  0.99675502516E+03  0.11143801589E+04  0.49831973511E+03 0.  0.
        4    1    3    3  502    0  0.15752667691E+03  0.15623501416E+03  0.24482891768E+03  0.33040406387E+03  0.12699999809E+01 0.  1.
       -4    1    3    3    0  502 -0.15752667691E+03 -0.15623501416E+03  0.75192610748E+03  0.78397609504E+03  0.12699999809E+01 0. -1.
</event>
<event>
 5   0  0.1211345E-01  0.4957014E+03  0.7818609E-02  0.1014907E+00
        2   -1    0    0  501    0  0.00000000000E+00  0.00000000000E+00  0.18893509722E+04  0.18893509722E+04  0.25500000920E-02 0. -1.
       -2   -1    0    0    0  501  0.00000000000E+00  0.00000000000E+00 -0.32513795733E+02  0.32513795833E+02  0.25500000920E-02 0.  1.
    10030    2    1    2    0    0  0.00000000000E+00  0.00000000000E+00  0.18568371765E+04  0.19218647680E+04  0.49570140882E+03 0.  0.
        5    1    3    3  502    0 -0.75554418691E+02  0.18257229226E+03  0.34858375196E+03  0.40071665078E+03  0.46999998093E+01 0.  1.
       -5    1    3    3    0  502  0.75554418691E+02 -0.18257229226E+03  0.15082534245E+04  0.15211481172E+04  0.46999998093E+01 0. -1.
</event>
<event>
 5   0  0.1211345E-01  0.5055245E+03  0.7818609E-02  0.1012347E+00
       -2   -1    0    0    0  501  0.00000000000E+00  0.00000000000E+00  0.94295388900E+02  0.94295388935E+02  0.25500000920E-02 0.  1.
        2   -1    0    0  501    0  0.00000000000E+00  0.00000000000E+00 -0.67753847544E+03  0.67753847544E+03  0.25500000920E-02 0. -1.
    10030    2    1    2    0    0  0.00000000000E+00  0.00000000000E+00 -0.58324308654E+03  0.77183386438E+03  0.50552449615E+03 0.  0.
        5    1    3    3  502    0  0.21725134902E+03 -0.69921537343E+02 -0.45733010291E+03  0.51113607098E+03  0.46999998093E+01 0. -1.
       -5    1    3    3    0  502 -0.21725134902E+03  0.69921537343E+02 -0.12591298363E+03  0.26069779340E+03  0.46999998093E+01 0.  1.
</event>
<event>
 5   0  0.1191894E-01  0.4992676E+03  0.7818609E-02  0.1013970E+00
        2   -1    0    0  501    0  0.00000000000E+00  0.00000000000E+00  0.50505726559E+03  0.50505726560E+03  0.25500000920E-02 0. -1.
       -2   -1    0    0    0  501  0.00000000000E+00  0.00000000000E+00 -0.12338608875E+03  0.12338608878E+03  0.25500000920E-02 0.  1.
    10030    2    1    2    0    0  0.00000000000E+00  0.00000000000E+00  0.38167117684E+03  0.62844335437E+03  0.49926762605E+03 0.  0.
        3    1    3    3  502    0  0.65196222629E-01 -0.23807209711E+03  0.28535528781E+03  0.37162612685E+03  0.10100000352E+00 0. -1.
       -3    1    3    3    0  502 -0.65196222629E-01  0.23807209711E+03  0.96315889026E+02  0.25681722752E+03  0.10100000352E+00 0.  1.
</event>
<event>
 5   0  0.1231822E-01  0.5033145E+03  0.7818609E-02  0.1012917E+00
       -2   -1    0    0    0  501  0.00000000000E+00  0.00000000000E+00  0.35343453902E+02  0.35343453994E+02  0.25500000920E-02 0.  1.
        2   -1    0    0  501    0  0.00000000000E+00  0.00000000000E+00 -0.17918843210E+04  0.17918843210E+04  0.25500000920E-02 0. -1.
    10030    2    1    2    0    0  0.00000000000E+00  0.00000000000E+00 -0.17565408671E+04  0.18272277750E+04  0.50331453777E+03 0.  0.
        1    1    3    3  502    0 -0.23193892991E+03 -0.17090287043E+02 -0.12273099732E+04  0.12491507177E+04  0.50400001928E-02 0. -1.
       -1    1    3    3    0  502  0.23193892991E+03  0.17090287043E+02 -0.52923089387E+03  0.57807705730E+03  0.50400001928E-02 0.  1.
</event>
<event>
 5   0  0.7602288E-02  0.5002987E+03  0.7818609E-02  0.1013701E+00
        1   -1    0    0  501    0  0.00000000000E+00  0.00000000000E+00  0.93379978733E+03  0.93379978734E+03  0.50400001928E-02 0. -1.
       -1   -1    0    0    0  501  0.00000000000E+00  0.00000000000E+00 -0.67010815642E+02  0.67010815831E+02  0.50400001928E-02 0.  1.
    10030    2    1    2    0    0  0.00000000000E+00  0.00000000000E+00  0.86678897169E+03  0.10008106032E+04  0.50029865279E+03 0.  0.
        5    1    3    3  502    0  0.39319219682E+02  0.18062284807E+03  0.96383608296E+02  0.20852458902E+03  0.46999998093E+01 0.  1.
       -5    1    3    3    0  502 -0.39319219682E+02 -0.18062284807E+03  0.77040536339E+03  0.79228601415E+03  0.46999998093E+01 0. -1.
</event>
<event>
 5   0  0.7416638E-02  0.5073191E+03  0.7818609E-02  0.1011886E+00
        1   -1    0    0  501    0  0.00000000000E+00  0.00000000000E+00  0.50600488655E+03  0.50600488657E+03  0.50400001928E-02 0.  1.
       -1   -1    0    0    0  501  0.00000000000E+00  0.00000000000E+00 -0.12715918511E+03  0.12715918521E+03  0.50400001928E-02 0. -1.
    10030    2    1    2    0    0  0.00000000000E+00  0.00000000000E+00  0.37884570143E+03  0.63316407178E+03  0.50731910698E+03 0.  0.
        1    1    3    3  502    0 -0.14712794619E+03 -0.10038960476E+03 -0.35983836125E+02  0.18171280027E+03  0.50400001928E-02 0. -1.
       -1    1    3    3    0  502  0.14712794619E+03  0.10038960476E+03  0.41482953756E+03  0.45145127151E+03  0.50400001928E-02 0.  1.
</event>
<event>
 5   0  0.5006750E-02  0.5143588E+03  0.7818609E-02  0.1010098E+00
        3   -1    0    0  501    0  0.00000000000E+00  0.00000000000E+00  0.61549234486E+03  0.61549235315E+03  0.10100000352E+00 0. -1.
       -3   -1    0    0    0  501  0.00000000000E+00  0.00000000000E+00 -0.10746067883E+03  0.10746072629E+03  0.10100000352E+00 0.  1.
    10030    2    1    2    0    0  0.00000000000E+00  0.00000000000E+00  0.50803166604E+03  0.72295307944E+03  0.51435880606E+03 0.  0.
        2    1    3    3  502    0  0.16036177652E+03  0.16116437976E+03  0.85050066402E+02  0.24274136539E+03  0.25500000920E-02 0.  1.
       -2    1    3    3    0  502 -0.16036177652E+03 -0.16116437976E+03  0.42298159964E+03  0.48021171405E+03  0.25500000920E-02 0. -1.
</event>
<event>
 5   0  0.1279188E-01  0.5033146E+03  0.7818609E-02  0.1012917E+00
        2   -1    0    0  501    0  0.00000000000E+00  0.00000000000E+00  0.67684232603E+02  0.67684232651E+02  0.25500000920E-02 0. -1.
       -2   -1    0    0    0  501  0.00000000000E+00  0.00000000000E+00 -0.93568898653E+03  0.93568898653E+03  0.25500000920E-02 0.  1.
    10030    2    1    2    0    0  0.00000000000E+00  0.00000000000E+00 -0.86800475392E+03  0.10033732192E+04  0.50331457771E+03 0.  0.
        2    1    3    3  502    0  0.74655081654E+02 -0.12325514142E+02  0.44470364321E+02  0.87766239666E+02  0.25500000920E-02 0. -1.
       -2    1    3    3    0  502 -0.74655081654E+02  0.12325514142E+02 -0.91247511825E+03  0.91560697952E+03  0.25500000920E-02 0.  1.
</event>
<event>
 5   0  0.5006750E-02  0.4873689E+03  0.7818609E-02  0.1017129E+00
       -4   -1    0    0    0  501  0.00000000000E+00  0.00000000000E+00  0.50299912454E+03  0.50300072782E+03  0.12699999809E+01 0.  1.
        4   -1    0    0  501    0  0.00000000000E+00  0.00000000000E+00 -0.11805090134E+03  0.11805773252E+03  0.12699999809E+01 0. -1.
    10030    2    1    2    0    0  0.00000000000E+00  0.00000000000E+00  0.38494822320E+03  0.62105846034E+03  0.48736893275E+03 0.  0.
        5    1    3    3  502    0  0.53226533809E+02 -0.10797369969E+03  0.46240098228E+03  0.47783694095E+03  0.46999998093E+01 0.  1.
       -5    1    3    3    0  502 -0.53226533809E+02  0.10797369969E+03 -0.77452759082E+02  0.14322151938E+03  0.46999998093E+01 0. -1.
</event>
<event>
 5   0  0.1191894E-01  0.4954280E+03  0.7818609E-02  0.1014979E+00
       -2   -1    0    0    0  501  0.00000000000E+00  0.00000000000E+00  0.12639373405E+03  0.12639373408E+03  0.25500000920E-02 0. -1.
        2   -1    0    0  501    0  0.00000000000E+00  0.00000000000E+00 -0.48548478060E+03  0.48548478061E+03  0.25500000920E-02 0.  1.
    10030    2    1    2    0    0  0.00000000000E+00  0.00000000000E+00 -0.35909104655E+03  0.61187851468E+03  0.49542803415E+03 0.  0.
        3    1    3    3  502    0  0.72177815880E+02  0.29155442945E+01  0.11309646319E+03  0.13419745784E+03  0.10100000352E+00 0. -1.
       -3    1    3    3    0  502 -0.72177815880E+02 -0.29155442945E+01 -0.47218750974E+03  0.47768105684E+03  0.10100000352E+00 0.  1.
</event>
<event>
 5   0  0.1211345E-01  0.5321455E+03  0.7818609E-02  0.1005713E+00
       -2   -1    0    0    0  501  0.00000000000E+00  0.00000000000E+00  0.57959510968E+02  0.57959511024E+02  0.25500000920E-02 0. -1.
        2   -1    0    0  501    0  0.00000000000E+00  0.00000000000E+00 -0.12214512201E+04  0.12214512201E+04  0.25500000920E-02 0.  1.
    10030    2    1    2    0    0  0.00000000000E+00  0.00000000000E+00 -0.11634917091E+04  0.12794107311E+04  0.53214552680E+03 0.  0.
        5    1    3    3  502    0 -0.16355976807E+03  0.10098181433E+03 -0.10239154249E+04  0.10418128488E+04  0.46999998093E+01 0.  1.
       -5    1    3    3    0  502  0.16355976807E+03 -0.10098181433E+03 -0.13957628415E+03  0.23759788226E+03  0.46999998093E+01 0. -1.
</event>
<event>
 5   0  0.5006750E-02  0.4994841E+03  0.7818609E-02  0.1013914E+00
       -3   -1    0    0    0  501  0.00000000000E+00  0.00000000000E+00  0.44395689283E+03  0.44395690432E+03  0.10100000352E+00 0.  1.
        3   -1    0    0  501    0  0.00000000000E+00  0.00000000000E+00 -0.14048905443E+03  0.14048909073E+03  0.10100000352E+00 0. -1.
    10030    2    1    2    0    0  0.00000000000E+00  0.00000000000E+00  0.30346783841E+03  0.58444599505E+03  0.49948412606E+03 0.  0.
        2    1    3    3  502    0 -0.15474142645E+03  0.47015597361E+02  0.37440882319E+03  0.40784475275E+03  0.25500000920E-02 0.  1.
       -2    1    3    3    0  502  0.15474142645E+03 -0.47015597361E+02 -0.70940984783E+02  0.17660124231E+03  0.25500000920E-02 0. -1.
</event>
<event>
 5   0  0.7531632E-02  0.5019480E+03  0.7818609E-02  0.1013272E+00
       -1   -1    0    0    0  501  0.00000000000E+00  0.00000000000E+00  0.20927189289E+03  0.20927189295E+03  0.50400001928E-02 0.  1.
        1   -1    0    0  501    0  0.00000000000E+00  0.00000000000E+00 -0.30098617608E+03  0.30098617612E+03  0.50400001928E-02 0. -1.
    10030    2    1    2    0    0  0.00000000000E+00  0.00000000000E+00 -0.91714283186E+02  0.51025806907E+03  0.50194799264E+03 0.  0.
        3    1    3    3  502    0  0.67454765908E+02  0.18826640575E+03  0.10828954321E+03  0.22742255901E+03  0.10100000352E+00 0.  1.
       -3    1    3    3    0  502 -0.67454765908E+02 -0.18826640575E+03 -0.20000382640E+03  0.28283551006E+03  0.10100000352E+00 0. -1.
</event>
<event>
 5   0  0.7602288E-02  0.4993471E+03  0.7818609E-02  0.1013949E+00
       -1   -1    0    0    0  501  0.00000000000E+00  0.00000000000E+00  0.16390606581E+04  0.16390606581E+04  0.50400001928E-02 0. -1.
        1   -1    0    0  501    0  0.00000000000E+00  0.00000000000E+00 -0.38032073188E+02  0.38032073522E+02  0.50400001928E-02 0.  1.
    10030    2    1    2    0    0  0.00000000000E+00  0.00000000000E+00  0.16010285849E+04  0.16770927316E+04  0.49934707446E+03 0.  0.
        5    1    3    3  502    0  0.68127388908E+02  0.15794041045E+02  0.16053389222E+04  0.16068683636E+04  0.46999998093E+01 0. -1.
       -5    1    3    3    0  502 -0.68127388908E+02 -0.15794041045E+02 -0.43103373264E+01  0.70224367978E+02  0.46999998093E+01 0.  1.
</event>
<event>
 5   0  0.1231822E-01  0.5023122E+03  0.7818609E-02  0.1013177E+00
        2   -1    0    0  501    0  0.00000000000E+00  0.00000000000E+00  0.83672963499E+02  0.83672963537E+02  0.25500000920E-02 0. -1.
       -2   -1    0    0    0  501  0.00000000000E+00  0.00000000000E+00 -0.75388013369E+03  0.75388013369E+03  0.25500000920E-02 0.  1.
    10030    2    1    2    0    0  0.00000000000E+00  0.00000000000E+00 -0.67020717019E+03  0.83755309723E+03  0.50231219347E+03 0.  0.
        1    1    3    3  502    0 -0.18164644434E+03 -0.16923687650E+03 -0.39843902350E+03  0.46945735332E+03  0.50400001928E-02 0.  1.
       -1    1    3    3    0  502  0.18164644434E+03  0.16923687650E+03 -0.27176814669E+03  0.36809574391E+03  0.50400001928E-02 0. -1.
</event>
<event>
 5   0  0.1243803E-01  0.4909810E+03  0.7818609E-02  0.1016160E+00
        2   -1    0    0  501    0  0.00000000000E+00  0.00000000000E+00  0.19727817670E+04  0.19727817670E+04  0.25500000920E-02 0. -1.
       -2   -1    0    0    0  501  0.00000000000E+00  0.00000000000E+00 -0.30548528533E+02  0.30548528639E+02  0.25500000920E-02 0.  1.
    10030    2    1    2    0    0  0.00000000000E+00  0.00000000000E+00  0.19422332385E+04  0.20033302956E+04  0.49098097807E+03 0.  0.
        4    1    3    3  502    0  0.61834695577E+02  0.23517488223E+03  0.83376190485E+03  0.86849944253E+03  0.12699999809E+01 0.  1.
       -4    1    3    3    0  502 -0.61834695577E+02 -0.23517488223E+03  0.11084713336E+04  0.11348308531E+04  0.12699999809E+01 0. -1.
</event>
<event>
 5   0  0.5006750E-02  0.4991381E+03  0.7818609E-02  0.1014004E+00
        4   -1    0    0  501    0  0.00000000000E+00  0.00000000000E+00  0.23837459488E+03  0.23837797798E+03  0.12699999809E+01 0.  1.
       -4   -1    0    0    0  501  0.00000000000E+00  0.00000000000E+00 -0.26128246826E+03  0.26128555474E+03  0.12699999809E+01 0. -1.
    10030    2    1    2    0    0  0.00000000000E+00  0.00000000000E+00 -0.22907873373E+02  0.49966353272E+03  0.49913813246E+03 0.  0.
        4    1    3    3  502    0 -0.22347195034E+03  0.10737342089E+03  0.17112776355E+02  0.24852207974E+03  0.12699999809E+01 0.  1.
       -4    1    3    3    0  502  0.22347195034E+03 -0.10737342089E+03 -0.40020649728E+02  0.25114145299E+03  0.12699999809E+01 0. -1.
</event>
<event>
 5   0  0.7781754E-02  0.5000326E+03  0.7818609E-02  0.1013770E+00
       -1   -1    0    0    0  501  0.00000000000E+00  0.00000000000E+00  0.53680100362E+02  0.53680100598E+02  0.50400001928E-02 0.  1.
        1   -1    0    0  501    0  0.00000000000E+00  0.00000000000E+00 -0.11644566427E+04  0.11644566427E+04  0.50400001928E-02 0. -1.
    10030    2    1    2    0    0  0.00000000000E+00  0.00000000000E+00 -0.11107765423E+04  0.12181367433E+04  0.50003259732E+03 0.  0.
        2    1    3    3  502    0 -0.14006653662E+03  0.19996235453E+03 -0.68668042567E+03  0.72878912239E+03  0.25500000920E-02 0. -1.
       -2    1    3    3    0  502  0.14006653662E+03 -0.19996235453E+03 -0.42409611663E+03  0.48934762088E+03  0.25500000920E-02 0.  1.
</event>
<event>
 5   0  0.1191894E-01  0.4971969E+03  0.7818609E-02  0.1014513E+00
       -2   -1    0    0    0  501  0.00000000000E+00  0.00000000000E+00  0.38892848212E+02  0.38892848296E+02  0.25500000920E-02 0.  1.
        2   -1    0    0  501    0  0.00000000000E+00  0.00000000000E+00 -0.15890118134E+04  0.15890118134E+04  0.25500000920E-02 0. -1.
    10030    2    1    2    0    0  0.00000000000E+00  0.00000000000E+00 -0.15501189652E+04  0.16279046617E+04  0.49719692410E+03 0.  0.
        3    1    3    3  502    0 -0.10462475787E+03 -0.37496393383E+02 -0.46980154903E+02  0.12066260660E+03  0.10100000352E+00 0.  1.
       -3    1    3    3    0  502  0.10462475787E+03  0.37496393383E+02 -0.15031388103E+04  0.15072420551E+04  0.10100000352E+00 0. -1.
</event>
<event>
 5   0  0.7812547E-02  0.5012214E+03  0.7818609E-02  0.1013461E+00
       -1   -1    0    0    0  501  0.00000000000E+00  0.00000000000E+00  0.50825497905E+02  0.50825498155E+02  0.50400001928E-02 0. -1.
        1   -1    0    0  501    0  0.00000000000E+00  0.00000000000E+00 -0.12357129951E+04  0.12357129951E+04  0.50400001928E-02 0.  1.
    10030    2    1    2    0    0  0.00000000000E+00  0.00000000000E+00 -0.11848874972E+04  0.12865384932E+04  0.50122142176E+03 0.  0.
        4    1    3    3  502    0 -0.66392374411E+02  0.18986874328E+03 -0.97614510499E+03  0.99665388473E+03  0.12699999809E+01 0.  1.
       -4    1    3    3    0  502  0.66392374411E+02 -0.18986874328E+03 -0.20874239216E+03  0.28988460849E+03  0.12699999809E+01 0. -1.
</event>
<event>
 5   0  0.1211345E-01  0.5026604E+03  0.7818609E-02  0.1013087E+00
       -2   -1    0    0    0  501  0.00000000000E+00  0.00000000000E+00  0.45831995859E+02  0.45831995930E+02  0.25500000920E-02 0.  1.
        2   -1    0    0  501    0  0.00000000000E+00  0.00000000000E+00 -0.13782262524E+04  0.13782262524E+04  0.25500000920E-02 0. -1.
    10030    2    1    2    0    0  0.00000000000E+00  0.00000000000E+00 -0.13323942565E+04  0.14240582483E+04  0.50266036225E+03 0.  0.
        5    1    3    3  502    0  0.57436273815E+02 -0.23372266343E+03 -0.87087462759E+03  0.90353191196E+03  0.46999998093E+01 0. -1.
       -5    1    3    3    0  502 -0.57436273815E+02  0.23372266343E+03 -0.46151962895E+03  0.52052633637E+03  0.46999998093E+01 0.  1.
</event>
<event>
 5   0  0.7781754E-02  0.4949692E+03  0.7818609E-02  0.1015100E+00
       -1   -1    0    0    0  501  0.00000000000E+00  0.00000000000E+00  0.91088019493E+02  0.91088019632E+02  0.50400001928E-02 0.  1.
        1   -1    0    0  501    0  0.00000000000E+00  0.00000000000E+00 -0.67241155595E+03  0.67241155597E+03  0.50400001928E-02 0. -1.
    10030    2    1    2    0    0  0.00000000000E+00  0.00000000000E+00 -0.58132353646E+03  0.76349957560E+03  0.49496923935E+03 0.  0.
        2    1    3    3  502    0 -0.61824153713E+02  0.12924208044E+01 -0.66030274680E+03  0.66319198862E+03  0.25500000920E-02 0. -1.
       -2    1    3    3    0  502  0.61824153713E+02 -0.12924208044E+01  0.78979210340E+02  0.10030758698E+03  0.25500000920E-02 0.  1.
</event>
<event>
 5   0  0.1231822E-01  0.4958532E+03  0.7818609E-02  0.1014867E+00
        2   -1    0    0  501    0  0.00000000000E+00  0.00000000000E+00  0.55758121452E+03  0.55758121453E+03  0.25500000920E-02 0.  1.
       -2   -1    0    0    0  501  0.00000000000E+00  0.00000000000E+00 -0.11023973843E+03  0.11023973846E+03  0.25500000920E-02 0. -1.
    10030    2    1    2    0    0  0.00000000000E+00  0.00000000000E+00  0.44734147609E+03  0.66782095299E+03  0.49585323335E+03 0.  0.
        1    1    3    3  502    0  0.15959096105E+03 -0.66422859450E+02  0.46303346160E+03  0.49424817419E+03  0.50400001928E-02 0. -1.
       -1    1    3    3    0  502 -0.15959096105E+03  0.66422859450E+02 -0.15691985510E+02  0.17357277880E+03  0.50400001928E-02 0.  1.
</event>
<event>
 5   0  0.1279188E-01  0.4895053E+03  0.7818609E-02  0.1016555E+00
        2   -1    0    0  501    0  0.00000000000E+00  0.00000000000E+00  0.76086637954E+03  0.76086637955E+03  0.25500000920E-02 0.  1.
       -2   -1    0    0    0  501  0.00000000000E+00  0.00000000000E+00 -0.78731101579E+02  0.78731101620E+02  0.25500000920E-02 0. -1.
    10030    2    1    2    0    0  0.00000000000E+00  0.00000000000E+00  0.68213527797E+03  0.83959748117E+03  0.48950525323E+03 0.  0.
        2    1    3    3  502    0 -0.22820170970E+03 -0.31266516525E+02  0.48302778507E+03  0.53513498906E+03  0.25500000920E-02 0.  1.
       -2    1    3    3    0  502  0.22820170970E+03  0.31266516525E+02  0.19910749290E+03  0.30446249210E+03  0.25500000920E-02 0. -1.
</event>
<event>
 5   0  0.7602288E-02  0.4996679E+03  0.7818609E-02  0.1013866E+00
        1   -1    0    0  501    0  0.00000000000E+00  0.00000000000E+00  0.60992919957E+03  0.60992919959E+03  0.50400001928E-02 0.  1.
       -1   -1    0    0    0  501  0.00000000000E+00  0.00000000000E+00 -0.10233481901E+03  0.10233481913E+03  0.50400001928E-02 0. -1.
    10030    2    1    2    0    0  0.00000000000E+00  0.00000000000E+00  0.50759438056E+03  0.71226401873E+03  0.49966786688E+03 0.  0.
        5    1    3    3  502    0  0.15654010964E+03  0.13122000477E+03  0.45874563242E+03  0.50218835195E+03  0.46999998093E+01 0. -1.
       -5    1    3    3    0  502 -0.15654010964E+03 -0.13122000477E+03  0.48848748144E+02  0.21007566677E+03  0.46999998093E+01 0.  1.
</event>
<event>
 5   0  0.7812547E-02  0.4992979E+03  0.7818609E-02  0.1013962E+00
       -1   -1    0    0    0  501  0.00000000000E+00  0.00000000000E+00  0.23163064848E+03  0.23163064853E+03  0.50400001928E-02 0. -1.
        1   -1    0    0  501    0  0.00000000000E+00  0.00000000000E+00 -0.26906883194E+03  0.26906883198E+03  0.50400001928E-02 0.  1.
    10030    2    1    2    0    0  0.00000000000E+00  0.00000000000E+00 -0.37438183455E+02  0.50069948052E+03  0.49929785921E+03 0.  0.
        4    1    3    3  502    0  0.63661902860E+01  0.15513455784E+03  0.17731808340E+03  0.23569169484E+03  0.12699999809E+01 0. -1.
       -4    1    3    3    0  502 -0.63661902860E+01 -0.15513455784E+03 -0.21475626686E+03  0.26500778568E+03  0.12699999809E+01 0.  1.
</event>
<event>
 5   0  0.7602288E-02  0.4965260E+03  0.7818609E-02  0.1014690E+00
        1   -1    0    0  501    0  0.00000000000E+00  0.00000000000E+00  0.13200396465E+03  0.13200396474E+03  0.50400001928E-02 0.  1.
       -1   -1    0    0    0  501  0.00000000000E+00  0.00000000000E+00 -0.46691422966E+03  0.46691422969E+03  0.50400001928E-02 0. -1.
    10030    2    1    2    0    0  0.00000000000E+00  0.00000000000E+00 -0.33491026501E+03  0.59891819443E+03  0.49652604968E+03 0.  0.
        5    1    3    3  502    0  0.16218473050E+03 -0.17866126511E+03 -0.97238119120E+02  0.26019430483E+03  0.46999998093E+01 0. -1.
       -5    1    3    3    0  502 -0.16218473050E+03  0.17866126511E+03 -0.23767214589E+03  0.33872388960E+03  0.46999998093E+01 0.  1.
</event>
<event>
 5   0  0.1243803E-01  0.5079307E+03  0.7818609E-02  0.1011729E+00
        2   -1    0    0  501    0  0.00000000000E+00  0.00000000000E+00  0.27247130826E+03  0.27247130827E+03  0.25500000920E-02 0. -1.
       -2   -1    0    0    0  501  0.00000000000E+00  0.00000000000E+00 -0.23671630386E+03  0.23671630387E+03  0.25500000920E-02 0.  1.
    10030    2    1    2    0    0  0.00000000000E+00  0.00000000000E+00  0.35755004402E+02  0.50918761215E+03  0.50793070790E+03 0.  0.
        4    1    3    3  502    0  0.14768143663E+03 -0.20484911928E+03  0.44847975125E+02  0.25648766475E+03  0.12699999809E+01 0. -1.
       -4    1    3    3    0  502 -0.14768143663E+03  0.20484911928E+03 -0.90929707228E+01  0.25269994740E+03  0.12699999809E+01 0.  1.
</event>
<event>
 5   0  0.1211345E-01  0.4997909E+03  0.7818609E-02  0.1013834E+00
        2   -1    0    0  501    0  0.00000000000E+00  0.00000000000E+00  0.66922745006E+03  0.66922745007E+03  0.25500000920E-02 0. -1.
       -2   -1    0    0    0  501  0.00000000000E+00  0.00000000000E+00 -0.93313162141E+02  0.93313162176E+02  0.25500000920E-02 0.  1.
    10030    2    1    2    0    0  0.00000000000E+00  0.00000000000E+00  0.57591428792E+03  0.76254061224E+03  0.49979087455E+03 0.  0.
        5    1    3    3  502    0 -0.10963474356E+02  0.24289666077E+03  0.37569136667E+03  0.44753220954E+03  0.46999998093E+01 0.  1.
       -5    1    3    3    0  502  0.10963474356E+02 -0.24289666077E+03  0.20022292125E+03  0.31500840271E+03  0.46999998093E+01 0. -1.
</event>
<event>
 5   0  0.7812547E-02  0.4643874E+03  0.7818609E-02  0.1023516E+00
       -1   -1    0    0    0  501  0.00000000000E+00  0.00000000000E+00  0.86043911291E+02  0.86043911439E+02  0.50400001928E-02 0. -1.
        1   -1    0    0  501    0  0.00000000000E+00  0.00000000000E+00 -0.62658612647E+03  0.62658612649E+03  0.50400001928E-02 0.  1.
    10030    2    1    2    0    0  0.00000000000E+00  0.00000000000E+00 -0.54054221517E+03  0.71263003792E+03  0.46438742938E+03 0.  0.
        4    1    3    3  502    0 -0.18131835796E+03  0.11506772986E+03 -0.13478265513E+03  0.25354468327E+03  0.12699999809E+01 0. -1.
       -4    1    3    3    0  502  0.18131835796E+03 -0.11506772986E+03 -0.40575956004E+03  0.45908535465E+03  0.12699999809E+01 0.  1.
</event>
<event>
 5   0  0.1243803E-01  0.4903168E+03  0.7818609E-02  0.1016338E+00
       -2   -1    0    0    0  501  0.00000000000E+00  0.00000000000E+00  0.61219980809E+03  0.61219980809E+03  0.25500000920E-02 0.  1.
        2   -1    0    0  501    0  0.00000000000E+00  0.00000000000E+00 -0.98174894247E+02  0.98174894280E+02  0.25500000920E-02 0. -1.
    10030    2    1    2    0    0  0.00000000000E+00  0.00000000000E+00  0.51402491384E+03  0.71037470237E+03  0.49031684218E+03 0.  0.
        4    1    3    3  502    0  0.67436838872E+02  0.23473435928E+03  0.28785170695E+03  0.37750253610E+03  0.12699999809E+01 0.  1.
       -4    1    3    3    0  502 -0.67436838872E+02 -0.23473435928E+03  0.22617320689E+03  0.33287216627E+03  0.12699999809E+01 0. -1.
</event>
<event>
 5   0  0.7602288E-02  0.4828256E+03  0.7818609E-02  0.1018362E+00
        1   -1    0    0  501    0  0.00000000000E+00  0.00000000000E+00  0.37539968065E+03  0.37539968068E+03  0.50400001928E-02 0. -1.
       -1   -1    0    0    0  501  0.00000000000E+00  0.00000000000E+00 -0.15524821080E+03  0.15524821088E+03  0.50400001928E-02 0.  1.
    10030    2    1    2    0    0  0.00000000000E+00  0.00000000000E+00  0.22015146985E+03  0.53064789156E+03  0.48282555353E+03 0.  0.
        5    1    3    3  502    0 -0.21183179901E+03 -0.57213318648E+02 -0.44250270309E+00  0.21947291566E+03  0.46999998093E+01 0.  1.
       -5    1    3    3    0  502  0.21183179901E+03  0.57213318648E+02  0.22059397255E+03  0.31117497590E+03  0.46999998093E+01 0. -1.
</event>
<event>
 5   0  0.7531632E-02  0.4994064E+03  0.7818609E-02  0.1013934E+00
        1   -1    0    0  501    0  0.00000000000E+00  0.00000000000E+00  0.13477610425E+04  0.13477610425E+04  0.50400001928E-02 0. -1.
       -1   -1    0    0    0  501  0.00000000000E+00  0.00000000000E+00 -0.46263165228E+02  0.46263165503E+02  0.50400001928E-02 0.  1.
    10030    2    1    2    0    0  0.00000000000E+00  0.00000000000E+00  0.13014978772E+04  0.13940242080E+04  0.49940641563E+03 0.  0.
        3    1    3    3  502    0 -0.98193877338E+02  0.22189934586E+03  0.81518658224E+03  0.85053543801E+03  0.10100000352E+00 0. -1.
       -3    1    3    3    0  502  0.98193877338E+02 -0.22189934586E+03  0.48631129501E+03  0.54348876998E+03  0.10100000352E+00 0.  1.
</event>
<event>
 5   0  0.7781754E-02  0.5031460E+03  0.7818609E-02  0.1012961E+00
        1   -1    0    0  501    0  0.00000000000E+00  0.00000000000E+00  0.18250492878E+03  0.18250492885E+03  0.50400001928E-02 0. -1.
       -1   -1    0    0    0  501  0.00000000000E+00  0.00000000000E+00 -0.34677948456E+03  0.34677948459E+03  0.50400001928E-02 0.  1.
    10030    2    1    2    0    0  0.00000000000E+00  0.00000000000E+00 -0.16427455578E+03  0.52928441344E+03  0.50314596355E+03 0.  0.
        2    1    3    3  502    0  0.84892862390E+02  0.14237169651E+03 -0.28121021871E+03  0.32642868312E+03  0.25500000920E-02 0.  1.
       -2    1    3    3    0  502 -0.84892862390E+02 -0.14237169651E+03  0.11693566293E+03  0.20285573032E+03  0.25500000920E-02 0. -1.
</event>
<event>
 5   0  0.7781754E-02  0.5047261E+03  0.7818609E-02  0.1012553E+00
        1   -1    0    0  501    0  0.00000000000E+00  0.00000000000E+00  0.91119904221E+03  0.91119904223E+03  0.50400001928E-02 0. -1.
       -1   -1    0    0    0  501  0.00000000000E+00  0.00000000000E+00 -0.69893750022E+02  0.69893750204E+02  0.50400001928E-02 0.  1.
    10030    2    1    2    0    0  0.00000000000E+00  0.00000000000E+00  0.84130529219E+03  0.98109279243E+03  0.50472613633E+03 0.  0.
        2    1    3    3  502    0  0.21649301102E+03  0.12106344470E+03  0.51102500073E+03  0.56804236887E+03  0.25500000920E-02 0. -1.
       -2    1    3    3    0  502 -0.21649301102E+03 -0.12106344470E+03  0.33028029146E+03  0.41305042356E+03  0.25500000920E-02 0.  1.
</event>
<event>
 5   0  0.7416638E-02  0.5014907E+03  0.7818609E-02  0.1013391E+00
       -1   -1    0    0    0  501  0.00000000000E+00  0.00000000000E+00  0.28293404090E+03  0.28293404094E+03  0.50400001928E-02 0. -1.
        1   -1    0    0  501    0  0.00000000000E+00  0.00000000000E+00 -0.22221865451E+03  0.22221865457E+03  0.50400001928E-02 0.  1.
    10030    2    1    2    0    0  0.00000000000E+00  0.00000000000E+00  0.60715386385E+02  0.50515269552E+03  0.50149066556E+03 0.  0.
        1    1    3    3  502    0 -0.72784133299E+01 -0.21125965279E+03  0.16621139079E+03  0.26890489517E+03  0.50400001928E-02 0. -1.
       -1    1    3    3    0  502  0.72784133299E+01  0.21125965279E+03 -0.10549600440E+03  0.23624780034E+03  0.50400001928E-02 0.  1.
</event>
<event>
 5   0  0.7602288E-02  0.5226195E+03  0.7818609E-02  0.1008038E+00
       -1   -1    0    0    0  501  0.00000000000E+00  0.00000000000E+00  0.10363966745E+03  0.10363966757E+03  0.50400001928E-02 0.  1.
        1   -1    0    0  501    0  0.00000000000E+00  0.00000000000E+00 -0.65884786916E+03  0.65884786918E+03  0.50400001928E-02 0. -1.
    10030    2    1    2    0    0  0.00000000000E+00  0.00000000000E+00 -0.55520820171E+03  0.76248753675E+03  0.52261945663E+03 0.  0.
        5    1    3    3  502    0 -0.23916854806E+03  0.42783658017E+02 -0.13744663908E+03  0.27918757918E+03  0.46999998093E+01 0.  1.
       -5    1    3    3    0  502  0.23916854806E+03 -0.42783658017E+02 -0.41776156263E+03  0.48329995756E+03  0.46999998093E+01 0. -1.
</event>
<event>
 5   0  0.7781754E-02  0.4576693E+03  0.7818609E-02  0.1025459E+00
       -1   -1    0    0    0  501  0.00000000000E+00  0.00000000000E+00  0.87632180654E+02  0.87632180799E+02  0.50400001928E-02 0.  1.
        1   -1    0    0  501    0  0.00000000000E+00  0.00000000000E+00 -0.59755778050E+03  0.59755778053E+03  0.50400001928E-02 0. -1.
    10030    2    1    2    0    0  0.00000000000E+00  0.00000000000E+00 -0.50992559985E+03  0.68518996132E+03  0.45766927548E+03 0.  0.
        2    1    3    3  502    0 -0.55985482402E+02 -0.10878121815E+03 -0.54448434586E+03  0.55805997039E+03  0.25500000920E-02 0. -1.
       -2    1    3    3    0  502  0.55985482402E+02  0.10878121815E+03  0.34558746006E+02  0.12712999093E+03  0.25500000920E-02 0.  1.
</event>
<event>
 5   0  0.1243803E-01  0.5468546E+03  0.7818609E-02  0.1002225E+00
       -2   -1    0    0    0  501  0.00000000000E+00  0.00000000000E+00  0.23648699264E+03  0.23648699265E+03  0.25500000920E-02 0.  1.
        2   -1    0    0  501    0  0.00000000000E+00  0.00000000000E+00 -0.31613782813E+03  0.31613782814E+03  0.25500000920E-02 0. -1.
    10030    2    1    2    0    0  0.00000000000E+00  0.00000000000E+00 -0.79650835489E+02  0.55262482079E+03  0.54685458484E+03 0.  0.
        4    1    3    3  502    0 -0.23577067561E+03  0.27365069938E+02 -0.17699347894E+03  0.29608269625E+03  0.12699999809E+01 0. -1.
       -4    1    3    3    0  502  0.23577067561E+03 -0.27365069938E+02  0.97342643449E+02  0.25654212454E+03  0.12699999809E+01 0.  1.
</event>
<event>
 5   0  0.1243803E-01  0.5093217E+03  0.7818609E-02  0.1011374E+00
       -2   -1    0    0    0  501  0.00000000000E+00  0.00000000000E+00  0.24934530469E+03  0.24934530470E+03  0.25500000920E-02 0. -1.
        2   -1    0    0  501    0  0.00000000000E+00  0.00000000000E+00 -0.26008969920E+03  0.26008969921E+03  0.25500000920E-02 0.  1.
    10030    2    1    2    0    0  0.00000000000E+00  0.00000000000E+00 -0.10744394512E+02  0.50943500391E+03  0.50932168734E+03 0.  0.
        4    1    3    3  502    0  0.99380086604E+02  0.15313579707E+03  0.17221605420E+03  0.25097202271E+03  0.12699999809E+01 0. -1.
       -4    1    3    3    0  502 -0.99380086604E+02 -0.15313579707E+03 -0.18296044871E+03  0.25846298120E+03  0.12699999809E+01 0.  1.
</event>
<event>
 5   0  0.1231822E-01  0.4973810E+03  0.7818609E-02  0.1014465E+00
        2   -1    0    0  501    0  0.00000000000E+00  0.00000000000E+00  0.11783221060E+04  0.11783221060E+04  0.25500000920E-02 0. -1.
       -2   -1    0    0    0  501  0.00000000000E+00  0.00000000000E+00 -0.52487308109E+02  0.52487308171E+02  0.25500000920E-02 0.  1.
    10030    2    1    2    0    0  0.00000000000E+00  0.00000000000E+00  0.11258347979E+04  0.12308094142E+04  0.49738096252E+03 0.  0.
        1    1    3    3  502    0  0.16708543908E+03  0.71295032376E+02  0.14262872530E+03  0.23096207243E+03  0.50400001928E-02 0.  1.
       -1    1    3    3    0  502 -0.16708543908E+03 -0.71295032376E+02  0.98320607260E+03  0.99984734176E+03  0.50400001928E-02 0. -1.
</event>
<event>
 5   0  0.7812547E-02  0.4987182E+03  0.7818609E-02  0.1014114E+00
       -1   -1    0    0    0  501  0.00000000000E+00  0.00000000000E+00  0.52233546997E+02  0.52233547240E+02  0.50400001928E-02 0. -1.
        1   -1    0    0  501    0  0.00000000000E+00  0.00000000000E+00 -0.11904219429E+04  0.11904219430E+04  0.50400001928E-02 0.  1.
    10030    2    1    2    0    0  0.00000000000E+00  0.00000000000E+00 -0.11381883960E+04  0.12426554902E+04  0.49871819963E+03 0.  0.
        4    1    3    3  502    0  0.44396287514E+02 -0.78429870116E+02  0.10224800967E+02  0.90710717813E+02  0.12699999809E+01 0. -1.
       -4    1    3    3    0  502 -0.44396287514E+02  0.78429870116E+02 -0.11484131969E+04  0.11519447724E+04  0.12699999809E+01 0.  1.
</event>
<event>
 5   0  0.7812547E-02  0.4724148E+03  0.7818609E-02  0.1021241E+00
       -1   -1    0    0    0  501  0.00000000000E+00  0.00000000000E+00  0.47698436945E+03  0.47698436948E+03  0.50400001928E-02 0. -1.
        1   -1    0    0  501    0  0.00000000000E+00  0.00000000000E+00 -0.11697223227E+03  0.11697223238E+03  0.50400001928E-02 0.  1.
    10030    2    1    2    0    0  0.00000000000E+00  0.00000000000E+00  0.36001213718E+03  0.59395660186E+03  0.47241476054E+03 0.  0.
        4    1    3    3  502    0 -0.18152543627E+03  0.36457024925E+02  0.36440940401E+03  0.40874983218E+03  0.12699999809E+01 0.  1.
       -4    1    3    3    0  502  0.18152543627E+03 -0.36457024925E+02 -0.43972668356E+01  0.18520676967E+03  0.12699999809E+01 0. -1.
</event>
<event>
 5   0  0.1211345E-01  0.5052598E+03  0.7818609E-02  0.1012415E+00
        2   -1    0    0  501    0  0.00000000000E+00  0.00000000000E+00  0.67704600268E+03  0.67704600269E+03  0.25500000920E-02 0. -1.
       -2   -1    0    0    0  501  0.00000000000E+00  0.00000000000E+00 -0.94265190187E+02  0.94265190221E+02  0.25500000920E-02 0.  1.
    10030    2    1    2    0    0  0.00000000000E+00  0.00000000000E+00  0.58278081250E+03  0.77131119291E+03  0.50525981524E+03 0.  0.
        5    1    3    3  502    0  0.13328865341E+03 -0.32054142112E+02  0.61524662414E+03  0.63035214894E+03  0.46999998093E+01 0. -1.
       -5    1    3    3    0  502 -0.13328865341E+03  0.32054142112E+02 -0.32465811644E+02  0.14095904397E+03  0.46999998093E+01 0.  1.
</event>
<event>
 5   0  0.7602288E-02  0.4949254E+03  0.7818609E-02  0.1015112E+00
        1   -1    0    0  501    0  0.00000000000E+00  0.00000000000E+00  0.96028339755E+03  0.96028339756E+03  0.50400001928E-02 0. -1.
       -1   -1    0    0    0  501  0.00000000000E+00  0.00000000000E+00 -0.63770543467E+02  0.63770543666E+02  0.50400001928E-02 0.  1.
    10030    2    1    2    0    0  0.00000000000E+00  0.00000000000E+00  0.89651285408E+03  0.10240539412E+04  0.49492542571E+03 0.  0.
        5    1    3    3  502    0  0.10801601832E+03 -0.14353514154E+03  0.80028397505E+03  0.82021114829E+03  0.46999998093E+01 0. -1.
       -5    1    3    3    0  502 -0.10801601832E+03  0.14353514154E+03  0.96228879039E+02  0.20384279294E+03  0.46999998093E+01 0.  1.
</event>
<event>
 5   0  0.7602288E-02  0.4811661E+03  0.7818609E-02  0.1018815E+00
        1   -1    0    0  501    0  0.00000000000E+00  0.00000000000E+00  0.10063775234E+04  0.10063775234E+04  0.50400001928E-02 0.  1.
       -1   -1    0    0    0  501  0.00000000000E+00  0.00000000000E+00 -0.57513405804E+02  0.57513406024E+02  0.50400001928E-02 0. -1.
    10030    2    1    2    0    0  0.00000000000E+00  0.00000000000E+00  0.94886411757E+03  0.10638909294E+04  0.48116607951E+03 0.  0.
        5    1    3    3  502    0  0.62769878797E+02 -0.22967134983E+03  0.55003385147E+03  0.59937326799E+03  0.46999998093E+01 0.  1.
       -5    1    3    3    0  502 -0.62769878797E+02  0.22967134983E+03  0.39883026610E+03  0.46451766143E+03  0.46999998093E+01 0. -1.
</event>
<event>
 5   0  0.1279188E-01  0.5031888E+03  0.7818609E-02  0.1012950E+00
       -2   -1    0    0    0  501  0.00000000000E+00  0.00000000000E+00  0.21148019084E+03  0.21148019086E+03  0.25500000920E-02 0. -1.
        2   -1    0    0  501    0  0.00000000000E+00  0.00000000000E+00 -0.29931755326E+03  0.29931755327E+03  0.25500000920E-02 0.  1.
    10030    2    1    2    0    0  0.00000000000E+00  0.00000000000E+00 -0.87837362416E+02  0.51079774413E+03  0.50318876495E+03 0.  0.
        2    1    3    3  502    0  0.19543693255E+03  0.12691357562E+03 -0.14020595675E+03  0.27195654174E+03  0.25500000920E-02 0.  1.
       -2    1    3    3    0  502 -0.19543693255E+03 -0.12691357562E+03  0.52368594333E+02  0.23884120239E+03  0.25500000920E-02 0. -1.
</event>
<event>
 5   0  0.7531632E-02  0.4977410E+03  0.7818609E-02  0.1014370E+00
        1   -1    0    0  501    0  0.00000000000E+00  0.00000000000E+00  0.72406719166E+03  0.72406719168E+03  0.50400001928E-02 0. -1.
       -1   -1    0    0    0  501  0.00000000000E+00  0.00000000000E+00 -0.85539758343E+02  0.85539758492E+02  0.50400001928E-02 0.  1.
    10030    2    1    2    0    0  0.00000000000E+00  0.00000000000E+00  0.63852743332E+03  0.80960695017E+03  0.49774102771E+03 0.  0.
        3    1    3    3  502    0  0.15629459846E+03 -0.64635967811E+02  0.61622038848E+03  0.63900969259E+03  0.10100000352E+00 0. -1.
       -3    1    3    3    0  502 -0.15629459846E+03  0.64635967811E+02  0.22307044836E+02  0.17059725758E+03  0.10100000352E+00 0.  1.
</event>
<event>
 5   0  0.1191894E-01  0.4890215E+03  0.7818609E-02  0.1016685E+00
        2   -1    0    0  501    0  0.00000000000E+00  0.00000000000E+00  0.67851315560E+03  0.67851315561E+03  0.25500000920E-02 0. -1.
       -2   -1    0    0    0  501  0.00000000000E+00  0.00000000000E+00 -0.88112520193E+02  0.88112520230E+02  0.25500000920E-02 0.  1.
    10030    2    1    2    0    0  0.00000000000E+00  0.00000000000E+00  0.59040063541E+03  0.76662567584E+03  0.48902148885E+03 0.  0.
        3    1    3    3  502    0  0.51888179057E+02  0.18603516568E+03  0.60132879049E+02  0.20228059556E+03  0.10100000352E+00 0.  1.
       -3    1    3    3    0  502 -0.51888179057E+02 -0.18603516568E+03  0.53026775636E+03  0.56434508028E+03  0.10100000352E+00 0. -1.
</event>
<event>
 5   0  0.5006750E-02  0.4972421E+03  0.7818609E-02  0.1014501E+00
       -3   -1    0    0    0  501  0.00000000000E+00  0.00000000000E+00  0.60104026936E+03  0.60104027785E+03  0.10100000352E+00 0.  1.
        3   -1    0    0  501    0  0.00000000000E+00  0.00000000000E+00 -0.10284236964E+03  0.10284241924E+03  0.10100000352E+00 0. -1.
    10030    2    1    2    0    0  0.00000000000E+00  0.00000000000E+00  0.49819789972E+03  0.70388269709E+03  0.49724209795E+03 0.  0.
        2    1    3    3  502    0  0.39684098733E+02  0.20440453659E+03  0.56787250874E+02  0.21582593482E+03  0.25500000920E-02 0. -1.
       -2    1    3    3    0  502 -0.39684098733E+02 -0.20440453659E+03  0.44141064884E+03  0.48805676226E+03  0.25500000920E-02 0.  1.
</event>
<event>
 5   0  0.1243803E-01  0.5003434E+03  0.7818609E-02  0.1013689E+00
       -2   -1    0    0    0  501  0.00000000000E+00  0.00000000000E+00  0.38622989238E+03  0.38622989239E+03  0.25500000920E-02 0. -1.
        2   -1    0    0  501    0  0.00000000000E+00  0.00000000000E+00 -0.16204308138E+03  0.16204308140E+03  0.25500000920E-02 0.  1.
    10030    2    1    2    0    0  0.00000000000E+00  0.00000000000E+00  0.22418681100E+03  0.54827297378E+03  0.50034340962E+03 0.  0.
        4    1    3    3  502    0 -0.23433805619E+03  0.76531255242E+02  0.15875041965E+03  0.29321436910E+03  0.12699999809E+01 0. -1.
       -4    1    3    3    0  502  0.23433805619E+03 -0.76531255242E+02  0.65436391356E+02  0.25505860468E+03  0.12699999809E+01 0.  1.
</event>
<event>
 5   0  0.1243803E-01  0.4995627E+03  0.7818609E-02  0.1013893E+00
       -2   -1    0    0    0  501  0.00000000000E+00  0.00000000000E+00  0.32970409339E+03  0.32970409340E+03  0.25500000920E-02 0. -1.
        2   -1    0    0  501    0  0.00000000000E+00  0.00000000000E+00 -0.18923245002E+03  0.18923245004E+03  0.25500000920E-02 0.  1.
    10030    2    1    2    0    0  0.00000000000E+00  0.00000000000E+00  0.14047164337E+03  0.51893654344E+03  0.49956266227E+03 0.  0.
        4    1    3    3  502    0 -0.10082428946E+03 -0.83396886341E+02  0.29125117466E+03  0.31929522019E+03  0.12699999809E+01 0. -1.
       -4    1    3    3    0  502  0.10082428946E+03  0.83396886341E+02 -0.15077953129E+03  0.19964132326E+03  0.12699999809E+01 0.  1.
</event>
<event>
 5   0  0.7781754E-02  0.4991958E+03  0.7818609E-02  0.1013989E+00
        1   -1    0    0  501    0  0.00000000000E+00  0.00000000000E+00  0.48977078167E+03  0.48977078170E+03  0.50400001928E-02 0. -1.
       -1   -1    0    0    0  501  0.00000000000E+00  0.00000000000E+00 -0.12720053728E+03  0.12720053738E+03  0.50400001928E-02 0.  1.
    10030    2    1    2    0    0  0.00000000000E+00  0.00000000000E+00  0.36257024439E+03  0.61697131907E+03  0.49919577967E+03 0.  0.
        2    1    3    3  502    0  0.17700463256E+03 -0.36238199623E+00  0.39878198702E+03  0.43630017700E+03  0.25500000920E-02 0. -1.
       -2    1    3    3    0  502 -0.17700463256E+03  0.36238199623E+00 -0.36211742628E+02  0.18067114207E+03  0.25500000920E-02 0.  1.
</event>
<event>
 5   0  0.1231822E-01  0.5026710E+03  0.7818609E-02  0.1013084E+00
       -2   -1    0    0    0  501  0.00000000000E+00  0.00000000000E+00  0.54303401409E+02  0.54303401468E+02  0.25500000920E-02 0. -1.
        2   -1    0    0  501    0  0.00000000000E+00  0.00000000000E+00 -0.11632701444E+04  0.11632701444E+04  0.25500000920E-02 0.  1.
    10030    2    1    2    0    0  0.00000000000E+00  0.00000000000E+00 -0.11089667430E+04  0.12175735459E+04  0.50267096848E+03 0.  0.
        1    1    3    3  502    0  0.29507340448E+02  0.10048014807E+03 -0.10601302168E+01  0.10472854051E+03  0.50400001928E-02 0. -1.
       -1    1    3    3    0  502 -0.29507340448E+02 -0.10048014807E+03 -0.11079066128E+04  0.11128450054E+04  0.50400001928E-02 0.  1.
</event>
<event>
 5   0  0.7416638E-02  0.5060190E+03  0.7818609E-02  0.1012220E+00
       -1   -1    0    0    0  501  0.00000000000E+00  0.00000000000E+00  0.21777570410E+03  0.21777570416E+03  0.50400001928E-02 0.  1.
        1   -1    0    0  501    0  0.00000000000E+00  0.00000000000E+00 -0.29394372522E+03  0.29394372526E+03  0.50400001928E-02 0. -1.
    10030    2    1    2    0    0  0.00000000000E+00  0.00000000000E+00 -0.76168021119E+02  0.51171942941E+03  0.50601897889E+03 0.  0.
        1    1    3    3  502    0 -0.11580503080E+03  0.20130420517E+03 -0.13961229359E+03  0.27097191870E+03  0.50400001928E-02 0. -1.
       -1    1    3    3    0  502  0.11580503080E+03 -0.20130420517E+03  0.63444272466E+02  0.24074751071E+03  0.50400001928E-02 0.  1.
</event>
<event>
 5   0  0.7602288E-02  0.4897419E+03  0.7818609E-02  0.1016492E+00
        1   -1    0    0  501    0  0.00000000000E+00  0.00000000000E+00  0.37794393432E+02  0.37794393768E+02  0.50400001928E-02 0. -1.
       -1   -1    0    0    0  501  0.00000000000E+00  0.00000000000E+00 -0.15865258582E+04  0.15865258582E+04  0.50400001928E-02 0.  1.
    10030    2    1    2    0    0  0.00000000000E+00  0.00000000000E+00 -0.15487314648E+04  0.16243202520E+04  0.48974190246E+03 0.  0.
        5    1    3    3  502    0 -0.19555795089E+03  0.19736070324E+02 -0.29022872574E+03  0.35055274620E+03  0.46999998093E+01 0. -1.
       -5    1    3    3    0  502  0.19555795089E+03 -0.19736070324E+02 -0.12585027391E+04  0.12737675058E+04  0.46999998093E+01 0.  1.
</event>
<event>
 5   0  0.1231822E-01  0.4961508E+03  0.7818609E-02  0.1014789E+00
       -2   -1    0    0    0  501  0.00000000000E+00  0.00000000000E+00  0.94559069642E+02  0.94559069676E+02  0.25500000920E-02 0. -1.
        2   -1    0    0  501    0  0.00000000000E+00  0.00000000000E+00 -0.65082490469E+03  0.65082490470E+03  0.25500000920E-02 0.  1.
    10030    2    1    2    0    0  0.00000000000E+00  0.00000000000E+00 -0.55626583505E+03  0.74538397437E+03  0.49615077346E+03 0.  0.
        1    1    3    3  502    0  0.18692816683E+03  0.10490065115E+03 -0.90520915468E+02  0.23268073047E+03  0.50400001928E-02 0. -1.
       -1    1    3    3    0  502 -0.18692816683E+03 -0.10490065115E+03 -0.46574491958E+03  0.51270324391E+03  0.50400001928E-02 0.  1.
</event>
<event>
 5   0  0.7602288E-02  0.4973268E+03  0.7818609E-02  0.1014479E+00
       -1   -1    0    0    0  501  0.00000000000E+00  0.00000000000E+00  0.24296308027E+03  0.24296308032E+03  0.50400001928E-02 0. -1.
        1   -1    0    0  501    0  0.00000000000E+00  0.00000000000E+00 -0.25449749281E+03  0.25449749286E+03  0.50400001928E-02 0.  1.
    10030    2    1    2    0    0  0.00000000000E+00  0.00000000000E+00 -0.11534412543E+02  0.49746057318E+03  0.49732683338E+03 0.  0.
        5    1    3    3  502    0 -0.19345664888E+03  0.95945328809E+02  0.11747478877E+03  0.24587272543E+03  0.46999998093E+01 0. -1.
       -5    1    3    3    0  502  0.19345664888E+03 -0.95945328809E+02 -0.12900920131E+03  0.25158784775E+03  0.46999998093E+01 0.  1.
</event>
<event>
 5   0  0.7531632E-02  0.4999664E+03  0.7818609E-02  0.1013788E+00
       -1   -1    0    0    0  501  0.00000000000E+00  0.00000000000E+00  0.13959211742E+03  0.13959211751E+03  0.50400001928E-02 0. -1.
        1   -1    0    0  501    0  0.00000000000E+00  0.00000000000E+00 -0.44767289469E+03  0.44767289472E+03  0.50400001928E-02 0.  1.
    10030    2    1    2    0    0  0.00000000000E+00  0.00000000000E+00 -0.30808077727E+03  0.58726501223E+03  0.49996642814E+03 0.  0.
        3    1    3    3  502    0  0.54236872340E+00 -0.24808092086E+03 -0.19019010381E+03  0.31259674222E+03  0.10100000352E+00 0.  1.
       -3    1    3    3    0  502 -0.54236872340E+00  0.24808092086E+03 -0.11789067346E+03  0.27466827001E+03  0.10100000352E+00 0. -1.
</event>
<event>
 5   0  0.7812547E-02  0.5105998E+03  0.7818609E-02  0.1011049E+00
       -1   -1    0    0    0  501  0.00000000000E+00  0.00000000000E+00  0.19004498811E+03  0.19004498818E+03  0.50400001928E-02 0. -1.
        1   -1    0    0  501    0  0.00000000000E+00  0.00000000000E+00 -0.34296108699E+03  0.34296108703E+03  0.50400001928E-02 0.  1.
    10030    2    1    2    0    0  0.00000000000E+00  0.00000000000E+00 -0.15291609888E+03  0.53300607521E+03  0.51059978742E+03 0.  0.
        4    1    3    3  502    0  0.14759906147E+03 -0.97497171647E+02 -0.26861532007E+03  0.32163175295E+03  0.12699999809E+01 0.  1.
       -4    1    3    3    0  502 -0.14759906147E+03  0.97497171647E+02  0.11569922120E+03  0.21137432226E+03  0.12699999809E+01 0. -1.
</event>
<event>
 5   0  0.1211345E-01  0.5016731E+03  0.7818609E-02  0.1013343E+00
        2   -1    0    0  501    0  0.00000000000E+00  0.00000000000E+00  0.35431838500E+03  0.35431838501E+03  0.25500000920E-02 0. -1.
       -2   -1    0    0    0  501  0.00000000000E+00  0.00000000000E+00 -0.17757753836E+03  0.17757753838E+03  0.25500000920E-02 0.  1.
    10030    2    1    2    0    0  0.00000000000E+00  0.00000000000E+00  0.17674084664E+03  0.53189592338E+03  0.50167314702E+03 0.  0.
        5    1    3    3  502    0  0.15343533847E+03 -0.40180584545E+01  0.29865812260E+03  0.33582333463E+03  0.46999998093E+01 0. -1.
       -5    1    3    3    0  502 -0.15343533847E+03  0.40180584545E+01 -0.12191727597E+03  0.19607258876E+03  0.46999998093E+01 0.  1.
</event>
<event>
 5   0  0.1231822E-01  0.5025478E+03  0.7818609E-02  0.1013116E+00
       -2   -1    0    0    0  501  0.00000000000E+00  0.00000000000E+00  0.56832629849E+02  0.56832629907E+02  0.25500000920E-02 0.  1.
        2   -1    0    0  501    0  0.00000000000E+00  0.00000000000E+00 -0.11109563939E+04  0.11109563939E+04  0.25500000920E-02 0. -1.
    10030    2    1    2    0    0  0.00000000000E+00  0.00000000000E+00 -0.10541237640E+04  0.11677890238E+04  0.50254780288E+03 0.  0.
        1    1    3    3  502    0  0.55249316785E+02 -0.17017537230E+03 -0.93703148842E+03  0.95396024794E+03  0.50400001928E-02 0. -1.
       -1    1    3    3    0  502 -0.55249316785E+02  0.17017537230E+03 -0.11709227559E+03  0.21382877582E+03  0.50400001928E-02 0.  1.
</event>
<event>
 5   0  0.7781754E-02  0.5669512E+03  0.7818609E-02  0.9976448E-01
       -1   -1    0    0    0  501  0.00000000000E+00  0.00000000000E+00  0.79595227203E+02  0.79595227363E+02  0.50400001928E-02 0. -1.
        1   -1    0    0  501    0  0.00000000000E+00  0.00000000000E+00 -0.10095884863E+04  0.10095884863E+04  0.50400001928E-02 0.  1.
    10030    2    1    2    0    0  0.00000000000E+00  0.00000000000E+00 -0.92999325909E+03  0.10891837137E+04  0.56695123262E+03 0.  0.
        2    1    3    3  502    0 -0.22436830106E+03 -0.16987351064E+03 -0.39955757647E+03  0.48871709716E+03  0.25500000920E-02 0. -1.
       -2    1    3    3    0  502  0.22436830106E+03  0.16987351064E+03 -0.53043568262E+03  0.60046661651E+03  0.25500000920E-02 0.  1.
</event>
<event>
 5   0  0.7602288E-02  0.5028560E+03  0.7818609E-02  0.1013036E+00
        1   -1    0    0  501    0  0.00000000000E+00  0.00000000000E+00  0.40659266462E+03  0.40659266465E+03  0.50400001928E-02 0.  1.
       -1   -1    0    0    0  501  0.00000000000E+00  0.00000000000E+00 -0.15547756410E+03  0.15547756418E+03  0.50400001928E-02 0. -1.
    10030    2    1    2    0    0  0.00000000000E+00  0.00000000000E+00  0.25111510052E+03  0.56207022883E+03  0.50285599174E+03 0.  0.
        5    1    3    3  502    0 -0.39681119428E+02  0.22330377727E+02  0.40189589315E+03  0.40449429655E+03  0.46999998093E+01 0.  1.
       -5    1    3    3    0  502  0.39681119428E+02 -0.22330377727E+02 -0.15078079264E+03  0.15757593228E+03  0.46999998093E+01 0. -1.
</event>
<event>
 5   0  0.1191894E-01  0.5000880E+03  0.7818609E-02  0.1013756E+00
        2   -1    0    0  501    0  0.00000000000E+00  0.00000000000E+00  0.44312379767E+03  0.44312379768E+03  0.25500000920E-02 0. -1.
       -2   -1    0    0    0  501  0.00000000000E+00  0.00000000000E+00 -0.14109373741E+03  0.14109373743E+03  0.25500000920E-02 0.  1.
    10030    2    1    2    0    0  0.00000000000E+00  0.00000000000E+00  0.30203006026E+03  0.58421753511E+03  0.50008796329E+03 0.  0.
        3    1    3    3  502    0  0.24036192658E+03 -0.52035080745E+02  0.20378587622E+03  0.31939035509E+03  0.10100000352E+00 0. -1.
       -3    1    3    3    0  502 -0.24036192658E+03  0.52035080745E+02  0.98244184041E+02  0.26482718002E+03  0.10100000352E+00 0.  1.
</event>
<event>
 5   0  0.1231822E-01  0.4742239E+03  0.7818609E-02  0.1020735E+00
       -2   -1    0    0    0  501  0.00000000000E+00  0.00000000000E+00  0.16584552574E+03  0.16584552576E+03  0.25500000920E-02 0. -1.
        2   -1    0    0  501    0  0.00000000000E+00  0.00000000000E+00 -0.33900267007E+03  0.33900267008E+03  0.25500000920E-02 0.  1.
    10030    2    1    2    0    0  0.00000000000E+00  0.00000000000E+00 -0.17315714434E+03  0.50484819584E+03  0.47422389671E+03 0.  0.
        1    1    3    3  502    0 -0.23401836365E+03  0.34257049016E+02 -0.10451713627E+03  0.25857681979E+03  0.50400001928E-02 0.  1.
       -1    1    3    3    0  502  0.23401836365E+03 -0.34257049016E+02 -0.68640008067E+02  0.24627137606E+03  0.50400001928E-02 0. -1.
</event>
<event>
 5   0  0.5006750E-02  0.5002921E+03  0.7818609E-02  0.1013703E+00
       -3   -1    0    0    0  501  0.00000000000E+00  0.00000000000E+00  0.40395623876E+03  0.40395625139E+03  0.10100000352E+00 0. -1.
        3   -1    0    0  501    0  0.00000000000E+00  0.00000000000E+00 -0.15490054688E+03  0.15490057980E+03  0.10100000352E+00 0.  1.
    10030    2    1    2    0    0  0.00000000000E+00  0.00000000000E+00  0.24905569189E+03  0.55885683119E+03  0.50029213477E+03 0.  0.
        4    1    3    3  502    0 -0.17404806455E+03 -0.16702751281E+03  0.50594580731E+02  0.24647990447E+03  0.12699999809E+01 0. -1.
       -4    1    3    3    0  502  0.17404806455E+03  0.16702751281E+03  0.19846111116E+03  0.31237692672E+03  0.12699999809E+01 0.  1.
</event>
<event>
 5   0  0.7602288E-02  0.4646736E+03  0.7818609E-02  0.1023434E+00
       -1   -1    0    0    0  501  0.00000000000E+00  0.00000000000E+00  0.75721140157E+02  0.75721140325E+02  0.50400001928E-02 0. -1.
        1   -1    0    0  501    0  0.00000000000E+00  0.00000000000E+00 -0.71288391310E+03  0.71288391311E+03  0.50400001928E-02 0.  1.
    10030    2    1    2    0    0  0.00000000000E+00  0.00000000000E+00 -0.63716277294E+03  0.78860505344E+03  0.46467357477E+03 0.  0.
        5    1    3    3  502    0  0.19948911622E+03  0.32277373109E+02 -0.51297755796E+03  0.55136721092E+03  0.46999998093E+01 0.  1.
       -5    1    3    3    0  502 -0.19948911622E+03 -0.32277373109E+02 -0.12418521498E+03  0.23723784252E+03  0.46999998093E+01 0. -1.
</event>
<event>
 5   0  0.7781754E-02  0.5015364E+03  0.7818609E-02  0.1013379E+00
       -1   -1    0    0    0  501  0.00000000000E+00  0.00000000000E+00  0.10682103763E+03  0.10682103775E+03  0.50400001928E-02 0. -1.
        1   -1    0    0  501    0  0.00000000000E+00  0.00000000000E+00 -0.58869191173E+03  0.58869191175E+03  0.50400001928E-02 0.  1.
    10030    2    1    2    0    0  0.00000000000E+00  0.00000000000E+00 -0.48187087409E+03  0.69551294950E+03  0.50153636321E+03 0.  0.
        2    1    3    3  502    0  0.85786544540E+02 -0.22961545549E+03 -0.16752733254E+03  0.29689728153E+03  0.25500000920E-02 0. -1.
       -2    1    3    3    0  502 -0.85786544540E+02  0.22961545549E+03 -0.31434354156E+03  0.39861566797E+03  0.25500000920E-02 0.  1.
</event>
<event>
 5   0  0.7602288E-02  0.4985754E+03  0.7818609E-02  0.1014151E+00
        1   -1    0    0  501    0  0.00000000000E+00  0.00000000000E+00  0.53797365570E+03  0.53797365572E+03  0.50400001928E-02 0. -1.
       -1   -1    0    0    0  501  0.00000000000E+00  0.00000000000E+00 -0.11551559654E+03  0.11551559665E+03  0.50400001928E-02 0.  1.
    10030    2    1    2    0    0  0.00000000000E+00  0.00000000000E+00  0.42245805915E+03  0.65348925238E+03  0.49857536163E+03 0.  0.
        5    1    3    3  502    0 -0.21312570305E+03  0.90258332750E+02  0.90010205063E+02  0.24838087476E+03  0.46999998093E+01 0. -1.
       -5    1    3    3    0  502  0.21312570305E+03 -0.90258332750E+02  0.33244785409E+03  0.40510837762E+03  0.46999998093E+01 0.  1.
</event>
<event>
 5   0  0.7781754E-02  0.5008895E+03  0.7818609E-02  0.1013547E+00
        1   -1    0    0  501    0  0.00000000000E+00  0.00000000000E+00  0.91654418395E+03  0.91654418396E+03  0.50400001928E-02 0. -1.
       -1   -1    0    0    0  501  0.00000000000E+00  0.00000000000E+00 -0.68433761088E+02  0.68433761273E+02  0.50400001928E-02 0.  1.
    10030    2    1    2    0    0  0.00000000000E+00  0.00000000000E+00  0.84811042286E+03  0.98497794523E+03  0.50088947207E+03 0.  0.
        2    1    3    3  502    0  0.20480874307E+03  0.82910216562E+02  0.65591250078E+03  0.69212855304E+03  0.25500000920E-02 0. -1.
       -2    1    3    3    0  502 -0.20480874307E+03 -0.82910216562E+02  0.19219792208E+03  0.29284939219E+03  0.25500000920E-02 0.  1.
</event>
<event>
 5   0  0.7602288E-02  0.5054201E+03  0.7818609E-02  0.1012374E+00
        1   -1    0    0  501    0  0.00000000000E+00  0.00000000000E+00  0.10221667152E+03  0.10221667165E+03  0.50400001928E-02 0.  1.
       -1   -1    0    0    0  501  0.00000000000E+00  0.00000000000E+00 -0.62477437576E+03  0.62477437578E+03  0.50400001928E-02 0. -1.
    10030    2    1    2    0    0  0.00000000000E+00  0.00000000000E+00 -0.52255770424E+03  0.72699104743E+03  0.50542005182E+03 0.  0.
        5    1    3    3  502    0  0.52636348096E+02  0.68953941182E+02 -0.60262010487E+03  0.60884999132E+03  0.46999998093E+01 0. -1.
       -5    1    3    3    0  502 -0.52636348096E+02 -0.68953941182E+02  0.80062400628E+02  0.11814105611E+03  0.46999998093E+01 0.  1.
</event>
<event>
 5   0  0.5006750E-02  0.5024514E+03  0.7818609E-02  0.1013141E+00
       -4   -1    0    0    0  501  0.00000000000E+00  0.00000000000E+00  0.35568050340E+03  0.35568277074E+03  0.12699999809E+01 0.  1.
        4   -1    0    0  501    0  0.00000000000E+00  0.00000000000E+00 -0.17744167879E+03  0.17744622360E+03  0.12699999809E+01 0. -1.
    10030    2    1    2    0    0  0.00000000000E+00  0.00000000000E+00  0.17823882462E+03  0.53312899434E+03  0.50245143647E+03 0.  0.
        4    1    3    3  502    0  0.15712253969E+03  0.69352022731E+02 -0.10542033198E+03  0.20152482435E+03  0.12699999809E+01 0. -1.
       -4    1    3    3    0  502 -0.15712253969E+03 -0.69352022731E+02  0.28365915659E+03  0.33160416999E+03  0.12699999809E+01 0.  1.
</event>
<event>
 5   0  0.1191894E-01  0.5154376E+03  0.7818609E-02  0.1009826E+00
        2   -1    0    0  501    0  0.00000000000E+00  0.00000000000E+00  0.33721502815E+03  0.33721502816E+03  0.25500000920E-02 0.  1.
       -2   -1    0    0    0  501  0.00000000000E+00  0.00000000000E+00 -0.19696328027E+03  0.19696328029E+03  0.25500000920E-02 0. -1.
    10030    2    1    2    0    0  0.00000000000E+00  0.00000000000E+00  0.14025174787E+03  0.53417830845E+03  0.51543759315E+03 0.  0.
        3    1    3    3  502    0 -0.81922382444E+02  0.77601533542E+02 -0.17000026652E+03  0.20404258274E+03  0.10100000352E+00 0. -1.
       -3    1    3    3    0  502  0.81922382444E+02 -0.77601533542E+02  0.31025201439E+03  0.33013572571E+03  0.10100000352E+00 0.  1.
</event>
<event>
 5   0  0.1279188E-01  0.5082878E+03  0.7818609E-02  0.1011638E+00
        2   -1    0    0  501    0  0.00000000000E+00  0.00000000000E+00  0.49842151546E+03  0.49842151547E+03  0.25500000920E-02 0.  1.
       -2   -1    0    0    0  501  0.00000000000E+00  0.00000000000E+00 -0.12958735560E+03  0.12958735563E+03  0.25500000920E-02 0. -1.
    10030    2    1    2    0    0  0.00000000000E+00  0.00000000000E+00  0.36883415986E+03  0.62800887109E+03  0.50828781678E+03 0.  0.
        2    1    3    3  502    0  0.17970055954E+03  0.36226936392E+00  0.40645910463E+03  0.44441132533E+03  0.25500000920E-02 0.  1.
       -2    1    3    3    0  502 -0.17970055954E+03 -0.36226936392E+00 -0.37624944765E+02  0.18359754577E+03  0.25500000920E-02 0. -1.
</event>
<event>
 5   0  0.1231822E-01  0.5004687E+03  0.7818609E-02  0.1013657E+00
        2   -1    0    0  501    0  0.00000000000E+00  0.00000000000E+00  0.15159231850E+04  0.15159231850E+04  0.25500000920E-02 0.  1.
       -2   -1    0    0    0  501  0.00000000000E+00  0.00000000000E+00 -0.41306328969E+02  0.41306329048E+02  0.25500000920E-02 0. -1.
    10030    2    1    2    0    0  0.00000000000E+00  0.00000000000E+00  0.14746168560E+04  0.15572295140E+04  0.50046866768E+03 0.  0.
        1    1    3    3  502    0 -0.61506886850E+02 -0.95007361172E+02  0.14317314175E+04  0.14361978790E+04  0.50400001928E-02 0.  1.
       -1    1    3    3    0  502  0.61506886850E+02  0.95007361172E+02  0.42885438474E+02  0.12103163498E+03  0.50400001928E-02 0. -1.
</event>
<event>
 5   0  0.7781754E-02  0.5037001E+03  0.7818609E-02  0.1012818E+00
        1   -1    0    0  501    0  0.00000000000E+00  0.00000000000E+00  0.29227851472E+03  0.29227851476E+03  0.50400001928E-02 0.  1.
       -1   -1    0    0    0  501  0.00000000000E+00  0.00000000000E+00 -0.21701369667E+03  0.21701369673E+03  0.50400001928E-02 0. -1.
    10030    2    1    2    0    0  0.00000000000E+00  0.00000000000E+00  0.75264818050E+02  0.50929221149E+03  0.50370007331E+03 0.  0.
        2    1    3    3  502    0  0.15484075817E+03  0.19515083874E+03  0.75042240583E+02  0.26017464929E+03  0.25500000920E-02 0.  1.
       -2    1    3    3    0  502 -0.15484075817E+03 -0.19515083874E+03  0.22257746613E+00  0.24911756221E+03  0.25500000920E-02 0. -1.
</event>
<event>
 5   0  0.1243803E-01  0.4955227E+03  0.7818609E-02  0.1014954E+00
       -2   -1    0    0    0  501  0.00000000000E+00  0.00000000000E+00  0.36597637002E+03  0.36597637003E+03  0.25500000920E-02 0.  1.
        2   -1    0    0  501    0  0.00000000000E+00  0.00000000000E+00 -0.16773130998E+03  0.16773131000E+03  0.25500000920E-02 0. -1.
    10030    2    1    2    0    0  0.00000000000E+00  0.00000000000E+00  0.19824506004E+03  0.53370768003E+03  0.49552273802E+03 0.  0.
        4    1    3    3  502    0  0.20958387295E+03  0.55031774737E+02  0.22850512126E+03  0.31491284409E+03  0.12699999809E+01 0.  1.
       -4    1    3    3    0  502 -0.20958387295E+03 -0.55031774737E+02 -0.30260061220E+02  0.21879483594E+03  0.12699999809E+01 0. -1.
</event>
<event>
 5   0  0.7812547E-02  0.5038421E+03  0.7818609E-02  0.1012781E+00
       -1   -1    0    0    0  501  0.00000000000E+00  0.00000000000E+00  0.43353521403E+03  0.43353521406E+03  0.50400001928E-02 0.  1.
        1   -1    0    0  501    0  0.00000000000E+00  0.00000000000E+00 -0.14638769993E+03  0.14638770001E+03  0.50400001928E-02 0. -1.
    10030    2    1    2    0    0  0.00000000000E+00  0.00000000000E+00  0.28714751411E+03  0.57992291408E+03  0.50384212946E+03 0.  0.
        4    1    3    3  502    0 -0.66029051944E+02  0.24272052470E+03  0.12772830532E+03  0.28211561759E+03  0.12699999809E+01 0.  1.
       -4    1    3    3    0  502  0.66029051944E+02 -0.24272052470E+03  0.15941920878E+03  0.29780729648E+03  0.12699999809E+01 0. -1.
</event>
<event>
 5   0  0.7781754E-02  0.5021300E+03  0.7818609E-02  0.1013224E+00
        1   -1    0    0  501    0  0.00000000000E+00  0.00000000000E+00  0.26337295698E+03  0.26337295702E+03  0.50400001928E-02 0. -1.
       -1   -1    0    0    0  501  0.00000000000E+00  0.00000000000E+00 -0.23933220840E+03  0.23933220845E+03  0.50400001928E-02 0.  1.
    10030    2    1    2    0    0  0.00000000000E+00  0.00000000000E+00  0.24040748574E+02  0.50270516548E+03  0.50212998895E+03 0.  0.
        2    1    3    3  502    0 -0.57189907922E+02 -0.36197980079E+02  0.25406714812E+03  0.26292792756E+03  0.25500000920E-02 0. -1.
       -2    1    3    3    0  502  0.57189907922E+02  0.36197980079E+02 -0.23002639955E+03  0.23977723792E+03  0.25500000920E-02 0.  1.
</event>
<event>
 5   0  0.1191894E-01  0.4964428E+03  0.7818609E-02  0.1014712E+00
        2   -1    0    0  501    0  0.00000000000E+00  0.00000000000E+00  0.10579656269E+04  0.10579656269E+04  0.25500000920E-02 0. -1.
       -2   -1    0    0    0  501  0.00000000000E+00  0.00000000000E+00 -0.58238062565E+02  0.58238062620E+02  0.25500000920E-02 0.  1.
    10030    2    1    2    0    0  0.00000000000E+00  0.00000000000E+00  0.99972756430E+03  0.11162036895E+04  0.49644282008E+03 0.  0.
        3    1    3    3  502    0 -0.41039670503E+02  0.63752272058E+02  0.10312925968E+04  0.10340759340E+04  0.10100000352E+00 0. -1.
       -3    1    3    3    0  502  0.41039670503E+02 -0.63752272058E+02 -0.31565032524E+02  0.82127755520E+02  0.10100000352E+00 0.  1.
</event>
<event>
 5   0  0.7531632E-02  0.4974739E+03  0.7818609E-02  0.1014440E+00
        1   -1    0    0  501    0  0.00000000000E+00  0.00000000000E+00  0.33920414050E+03  0.33920414054E+03  0.50400001928E-02 0. -1.
       -1   -1    0    0    0  501  0.00000000000E+00  0.00000000000E+00 -0.18239777439E+03  0.18239777446E+03  0.50400001928E-02 0.  1.
    10030    2    1    2    0    0  0.00000000000E+00  0.00000000000E+00  0.15680636611E+03  0.52160191500E+03  0.49747394030E+03 0.  0.
        3    1    3    3  502    0  0.39348680464E+02  0.18548807491E+03  0.24719531681E+03  0.31154402489E+03  0.10100000352E+00 0. -1.
       -3    1    3    3    0  502 -0.39348680464E+02 -0.18548807491E+03 -0.90388950707E+02  0.21005789011E+03  0.10100000352E+00 0.  1.
</event>
<event>
 5   0  0.1191894E-01  0.4996473E+03  0.7818609E-02  0.1013871E+00
       -2   -1    0    0    0  501  0.00000000000E+00  0.00000000000E+00  0.34889977321E+03  0.34889977322E+03  0.25500000920E-02 0.  1.
        2   -1    0    0  501    0  0.00000000000E+00  0.00000000000E+00 -0.17888187380E+03  0.17888187382E+03  0.25500000920E-02 0. -1.
    10030    2    1    2    0    0  0.00000000000E+00  0.00000000000E+00  0.17001789941E+03  0.52778164704E+03  0.49964725641E+03 0.  0.
        3    1    3    3  502    0  0.12307247944E+03  0.75361499892E+02 -0.13039938018E+03  0.19449986996E+03  0.10100000352E+00 0. -1.
       -3    1    3    3    0  502 -0.12307247944E+03 -0.75361499892E+02  0.30041727959E+03  0.33328177709E+03  0.10100000352E+00 0.  1.
</event>
<event>
 5   0  0.5006750E-02  0.4951501E+03  0.7818609E-02  0.1015053E+00
       -3   -1    0    0    0  501  0.00000000000E+00  0.00000000000E+00  0.32625501235E+02  0.32625657569E+02  0.10100000352E+00 0. -1.
        3   -1    0    0  501    0  0.00000000000E+00  0.00000000000E+00 -0.18786914258E+04  0.18786914285E+04  0.10100000352E+00 0.  1.
    10030    2    1    2    0    0  0.00000000000E+00  0.00000000000E+00 -0.18460659245E+04  0.19113170861E+04  0.49515008403E+03 0.  0.
        4    1    3    3  502    0 -0.21331569513E+02  0.17164297702E+03 -0.16067726751E+04  0.16160558127E+04  0.12699999809E+01 0. -1.
       -4    1    3    3    0  502  0.21331569513E+02 -0.17164297702E+03 -0.23929324945E+03  0.29526127337E+03  0.12699999809E+01 0.  1.
</event>
<event>
 5   0  0.7812547E-02  0.4957245E+03  0.7818609E-02  0.1014901E+00
        1   -1    0    0  501    0  0.00000000000E+00  0.00000000000E+00  0.47278157862E+03  0.47278157864E+03  0.50400001928E-02 0. -1.
       -1   -1    0    0    0  501  0.00000000000E+00  0.00000000000E+00 -0.12994517376E+03  0.12994517386E+03  0.50400001928E-02 0.  1.
    10030    2    1    2    0    0  0.00000000000E+00  0.00000000000E+00  0.34283640486E+03  0.60272675250E+03  0.49572445742E+03 0.  0.
        4    1    3    3  502    0  0.19887159465E+03 -0.12934624842E+03  0.25870328815E+03  0.35101191908E+03  0.12699999809E+01 0. -1.
       -4    1    3    3    0  502 -0.19887159465E+03  0.12934624842E+03  0.84133116705E+02  0.25171483342E+03  0.12699999809E+01 0.  1.
</event>
<event>
 5   0  0.7602288E-02  0.4957938E+03  0.7818609E-02  0.1014883E+00
        1   -1    0    0  501    0  0.00000000000E+00  0.00000000000E+00  0.99000247625E+02  0.99000247753E+02  0.50400001928E-02 0.  1.
       -1   -1    0    0    0  501  0.00000000000E+00  0.00000000000E+00 -0.62073451760E+03  0.62073451762E+03  0.50400001928E-02 0. -1.
    10030    2    1    2    0    0  0.00000000000E+00  0.00000000000E+00 -0.52173426997E+03  0.71973476537E+03  0.49579379183E+03 0.  0.
        5    1    3    3  502    0 -0.37175368558E+01  0.24061526076E+03 -0.17472407960E+03  0.29742245676E+03  0.46999998093E+01 0.  1.
       -5    1    3    3    0  502  0.37175368558E+01 -0.24061526076E+03 -0.34701019037E+03  0.42231230861E+03  0.46999998093E+01 0. -1.
</event>
<event>
 5   0  0.1211345E-01  0.4988587E+03  0.7818609E-02  0.1014077E+00
       -2   -1    0    0    0  501  0.00000000000E+00  0.00000000000E+00  0.24307868145E+03  0.24307868147E+03  0.25500000920E-02 0. -1.
        2   -1    0    0  501    0  0.00000000000E+00  0.00000000000E+00 -0.25594594095E+03  0.25594594096E+03  0.25500000920E-02 0.  1.
    10030    2    1    2    0    0  0.00000000000E+00  0.00000000000E+00 -0.12867259496E+02  0.49902462243E+03  0.49885870487E+03 0.  0.
        5    1    3    3  502    0  0.16470564304E+03 -0.24097622244E+02  0.17932753403E+03  0.24472249325E+03  0.46999998093E+01 0. -1.
       -5    1    3    3    0  502 -0.16470564304E+03  0.24097622244E+02 -0.19219479352E+03  0.25430212917E+03  0.46999998093E+01 0.  1.
</event>
<event>
 5   0  0.7416638E-02  0.4826166E+03  0.7818609E-02  0.1018419E+00
        1   -1    0    0  501    0  0.00000000000E+00  0.00000000000E+00  0.28191526773E+03  0.28191526778E+03  0.50400001928E-02 0. -1.
       -1   -1    0    0    0  501  0.00000000000E+00  0.00000000000E+00 -0.20655032424E+03  0.20655032430E+03  0.50400001928E-02 0.  1.
    10030    2    1    2    0    0  0.00000000000E+00  0.00000000000E+00  0.75364943493E+02  0.48846559208E+03  0.48261657653E+03 0.  0.
        1    1    3    3  502    0 -0.70438870198E+02 -0.16472506227E+03  0.20130092059E+03  0.26947734827E+03  0.50400001928E-02 0. -1.
       -1    1    3    3    0  502  0.70438870198E+02  0.16472506227E+03 -0.12593597710E+03  0.21898824381E+03  0.50400001928E-02 0.  1.
</event>
<event>
 5   0  0.1211345E-01  0.5208523E+03  0.7818609E-02  0.1008475E+00
       -2   -1    0    0    0  501  0.00000000000E+00  0.00000000000E+00  0.53818068300E+02  0.53818068360E+02  0.25500000920E-02 0.  1.
        2   -1    0    0  501    0  0.00000000000E+00  0.00000000000E+00 -0.12602047715E+04  0.12602047715E+04  0.25500000920E-02 0. -1.
    10030    2    1    2    0    0  0.00000000000E+00  0.00000000000E+00 -0.12063867032E+04  0.13140228398E+04  0.52085232650E+03 0.  0.
        5    1    3    3  502    0  0.98303007627E+01  0.15113719923E+03 -0.68849413674E+02  0.16643743439E+03  0.46999998093E+01 0.  1.
       -5    1    3    3    0  502 -0.98303007627E+01 -0.15113719923E+03 -0.11375372895E+04  0.11475854055E+04  0.46999998093E+01 0. -1.
</event>
<event>
 5   0  0.7781754E-02  0.4957401E+03  0.7818609E-02  0.1014897E+00
        1   -1    0    0  501    0  0.00000000000E+00  0.00000000000E+00  0.58348558252E+03  0.58348558254E+03  0.50400001928E-02 0.  1.
       -1   -1    0    0    0  501  0.00000000000E+00  0.00000000000E+00 -0.10529746266E+03  0.10529746278E+03  0.50400001928E-02 0. -1.
    10030    2    1    2    0    0  0.00000000000E+00  0.00000000000E+00  0.47818811986E+03  0.68878304532E+03  0.49574005844E+03 0.  0.
        2    1    3    3  502    0  0.55069014565E+02 -0.15532972304E+03  0.49633880454E+03  0.52298386985E+03  0.25500000920E-02 0.  1.
       -2    1    3    3    0  502 -0.55069014565E+02  0.15532972304E+03 -0.18150684675E+02  0.16579917547E+03  0.25500000920E-02 0. -1.
</event>
<event>
 5   0  0.7416638E-02  0.4872819E+03  0.7818609E-02  0.1017153E+00
        1   -1    0    0  501    0  0.00000000000E+00  0.00000000000E+00  0.11531321310E+03  0.11531321321E+03  0.50400001928E-02 0.  1.
       -1   -1    0    0    0  501  0.00000000000E+00  0.00000000000E+00 -0.51477987295E+03  0.51477987298E+03  0.50400001928E-02 0. -1.
    10030    2    1    2    0    0  0.00000000000E+00  0.00000000000E+00 -0.39946665986E+03  0.63009308619E+03  0.48728193576E+03 0.  0.
        1    1    3    3  502    0  0.52453023552E+02 -0.49788535148E+02 -0.50058071246E+03  0.50577788369E+03  0.50400001928E-02 0. -1.
       -1    1    3    3    0  502 -0.52453023552E+02  0.49788535148E+02  0.10111405261E+03  0.12431520250E+03  0.50400001928E-02 0.  1.
</event>
<event>
 5   0  0.5006750E-02  0.4704055E+03  0.7818609E-02  0.1021806E+00
        3   -1    0    0  501    0  0.00000000000E+00  0.00000000000E+00  0.68679522383E+02  0.68679596648E+02  0.10100000352E+00 0. -1.
       -3   -1    0    0    0  501  0.00000000000E+00  0.00000000000E+00 -0.80548452269E+03  0.80548452903E+03  0.10100000352E+00 0.  1.
    10030    2    1    2    0    0  0.00000000000E+00  0.00000000000E+00 -0.73680500031E+03  0.87416412567E+03  0.47040547417E+03 0.  0.
        4    1    3    3  502    0 -0.33610608992E+02 -0.19245555658E+03 -0.61176374208E+03  0.64220347502E+03  0.12699999809E+01 0.  1.
       -4    1    3    3    0  502  0.33610608992E+02  0.19245555658E+03 -0.12504125823E+03  0.23196065066E+03  0.12699999809E+01 0. -1.
</event>
<event>
 5   0  0.7531632E-02  0.4966081E+03  0.7818609E-02  0.1014668E+00
        1   -1    0    0  501    0  0.00000000000E+00  0.00000000000E+00  0.11286701054E+04  0.11286701054E+04  0.50400001928E-02 0.  1.
       -1   -1    0    0    0  501  0.00000000000E+00  0.00000000000E+00 -0.54626139424E+02  0.54626139657E+02  0.50400001928E-02 0. -1.
    10030    2    1    2    0    0  0.00000000000E+00  0.00000000000E+00  0.10740439659E+04  0.11832962450E+04  0.49660805746E+03 0.  0.
        3    1    3    3  502    0  0.84928658559E+02 -0.77305254071E+02  0.12458721754E+02  0.11551713856E+03  0.10100000352E+00 0. -1.
       -3    1    3    3    0  502 -0.84928658559E+02  0.77305254071E+02  0.10615852442E+04  0.10677791065E+04  0.10100000352E+00 0.  1.
</event>
<event>
 5   0  0.1279188E-01  0.4971435E+03  0.7818609E-02  0.1014527E+00
        2   -1    0    0  501    0  0.00000000000E+00  0.00000000000E+00  0.11947099625E+04  0.11947099625E+04  0.25500000920E-02 0.  1.
       -2   -1    0    0    0  501  0.00000000000E+00  0.00000000000E+00 -0.51717912209E+02  0.51717912272E+02  0.25500000920E-02 0. -1.
    10030    2    1    2    0    0  0.00000000000E+00  0.00000000000E+00  0.11429920503E+04  0.12464278748E+04  0.49714346017E+03 0.  0.
        2    1    3    3  502    0  0.59320483010E+02 -0.59826361166E+02  0.11578212208E+04  0.11608824629E+04  0.25500000920E-02 0.  1.
       -2    1    3    3    0  502 -0.59320483010E+02  0.59826361166E+02 -0.14829170524E+02  0.85545411916E+02  0.25500000920E-02 0. -1.
</event>
<event>
 5   0  0.1231822E-01  0.4996196E+03  0.7818609E-02  0.1013878E+00
        2   -1    0    0  501    0  0.00000000000E+00  0.00000000000E+00  0.56848607563E+03  0.56848607564E+03  0.25500000920E-02 0. -1.
       -2   -1    0    0    0  501  0.00000000000E+00  0.00000000000E+00 -0.10977391010E+03  0.10977391013E+03  0.25500000920E-02 0.  1.
    10030    2    1    2    0    0  0.00000000000E+00  0.00000000000E+00  0.45871216552E+03  0.67825998577E+03  0.49961961280E+03 0.  0.
        1    1    3    3  502    0  0.14471489659E+03  0.85270373841E+02 -0.21668239860E+02  0.16936041625E+03  0.50400001928E-02 0.  1.
       -1    1    3    3    0  502 -0.14471489659E+03 -0.85270373841E+02  0.48038040538E+03  0.50889956952E+03  0.50400001928E-02 0. -1.
</event>
<event>
 5   0  0.7812547E-02  0.4976702E+03  0.7818609E-02  0.1014389E+00
        1   -1    0    0  501    0  0.00000000000E+00  0.00000000000E+00  0.36675912430E+03  0.36675912434E+03  0.50400001928E-02 0.  1.
       -1   -1    0    0    0  501  0.00000000000E+00  0.00000000000E+00 -0.16882718819E+03  0.16882718827E+03  0.50400001928E-02 0. -1.
    10030    2    1    2    0    0  0.00000000000E+00  0.00000000000E+00  0.19793193611E+03  0.53558631261E+03  0.49767021904E+03 0.  0.
        4    1    3    3  502    0 -0.81770417439E+02  0.85041249751E+02  0.33474402502E+03  0.35492758489E+03  0.12699999809E+01 0.  1.
       -4    1    3    3    0  502  0.81770417439E+02 -0.85041249751E+02 -0.13681208891E+03  0.18065872772E+03  0.12699999809E+01 0. -1.
</event>
<event>
 5   0  0.7531632E-02  0.4942719E+03  0.7818609E-02  0.1015285E+00
        1   -1    0    0  501    0  0.00000000000E+00  0.00000000000E+00  0.49728205322E+03  0.49728205325E+03  0.50400001928E-02 0. -1.
       -1   -1    0    0    0  501  0.00000000000E+00  0.00000000000E+00 -0.12282001485E+03  0.12282001495E+03  0.50400001928E-02 0.  1.
    10030    2    1    2    0    0  0.00000000000E+00  0.00000000000E+00  0.37446203837E+03  0.62010206820E+03  0.49427194621E+03 0.  0.
        3    1    3    3  502    0  0.71098212997E+02  0.35830115055E+02  0.48075217147E+03  0.48730012683E+03  0.10100000352E+00 0. -1.
       -3    1    3    3    0  502 -0.71098212997E+02 -0.35830115055E+02 -0.10629013310E+03  0.13280194137E+03  0.10100000352E+00 0.  1.
</event>
<event>
 5   0  0.7416638E-02  0.4997834E+03  0.7818609E-02  0.1013835E+00
        1   -1    0    0  501    0  0.00000000000E+00  0.00000000000E+00  0.16357881380E+04  0.16357881380E+04  0.50400001928E-02 0.  1.
       -1   -1    0    0    0  501  0.00000000000E+00  0.00000000000E+00 -0.38174787000E+02  0.38174787333E+02  0.50400001928E-02 0. -1.
    10030    2    1    2    0    0  0.00000000000E+00  0.00000000000E+00  0.15976133510E+04  0.16739629254E+04  0.49978340922E+03 0.  0.
        1    1    3    3  502    0 -0.13001370662E+03  0.55573442522E+02  0.10868962387E+03  0.17834070143E+03  0.50400001928E-02 0. -1.
       -1    1    3    3    0  502  0.13001370662E+03 -0.55573442522E+02  0.14889237272E+04  0.14956222239E+04  0.50400001928E-02 0.  1.
</event>
<event>
 5   0  0.7781754E-02  0.4937985E+03  0.7818609E-02  0.1015410E+00
       -1   -1    0    0    0  501  0.00000000000E+00  0.00000000000E+00  0.34999779498E+03  0.34999779502E+03  0.50400001928E-02 0.  1.
        1   -1    0    0  501    0  0.00000000000E+00  0.00000000000E+00 -0.17417038123E+03  0.17417038130E+03  0.50400001928E-02 0. -1.
    10030    2    1    2    0    0  0.00000000000E+00  0.00000000000E+00  0.17582741375E+03  0.52416817632E+03  0.49379853953E+03 0.  0.
        2    1    3    3  502    0  0.16420286972E+03 -0.13558307120E+03  0.22055431828E+03  0.30657716637E+03  0.25500000920E-02 0.  1.
       -2    1    3    3    0  502 -0.16420286972E+03  0.13558307120E+03 -0.44726904527E+02  0.21759100996E+03  0.25500000920E-02 0. -1.
</event>
<event>
 5   0  0.1231822E-01  0.4983836E+03  0.7818609E-02  0.1014202E+00
       -2   -1    0    0    0  501  0.00000000000E+00  0.00000000000E+00  0.96220025635E+02  0.96220025668E+02  0.25500000920E-02 0.  1.
        2   -1    0    0  501    0  0.00000000000E+00  0.00000000000E+00 -0.64536010255E+03  0.64536010255E+03  0.25500000920E-02 0. -1.
    10030    2    1    2    0    0  0.00000000000E+00  0.00000000000E+00 -0.54914007691E+03  0.74158012822E+03  0.49838364991E+03 0.  0.
        1    1    3    3  502    0  0.59382820322E+02 -0.21964994817E+02  0.84051778421E+02  0.10523061260E+03  0.50400001928E-02 0.  1.
       -1    1    3    3    0  502 -0.59382820322E+02  0.21964994817E+02 -0.63319185534E+03  0.63634951562E+03  0.50400001928E-02 0. -1.
</event>
<event>
 5   0  0.1191894E-01  0.4536501E+03  0.7818609E-02  0.1026639E+00
        2   -1    0    0  501    0  0.00000000000E+00  0.00000000000E+00  0.39173423851E+03  0.39173423852E+03  0.25500000920E-02 0.  1.
       -2   -1    0    0    0  501  0.00000000000E+00  0.00000000000E+00 -0.13133801502E+03  0.13133801504E+03  0.25500000920E-02 0. -1.
    10030    2    1    2    0    0  0.00000000000E+00  0.00000000000E+00  0.26039622349E+03  0.52307225356E+03  0.45365007356E+03 0.  0.
        3    1    3    3  502    0  0.12819260108E+03  0.44506268533E+02 -0.79372663815E+02  0.15720744535E+03  0.10100000352E+00 0. -1.
       -3    1    3    3    0  502 -0.12819260108E+03 -0.44506268533E+02  0.33976888731E+03  0.36586480822E+03  0.10100000352E+00 0.  1.
</event>
<event>
 5   0  0.7531632E-02  0.5190755E+03  0.7818609E-02  0.1008916E+00
        1   -1    0    0  501    0  0.00000000000E+00  0.00000000000E+00  0.76879556471E+03  0.76879556473E+03  0.50400001928E-02 0. -1.
       -1   -1    0    0    0  501  0.00000000000E+00  0.00000000000E+00 -0.87617383550E+02  0.87617383695E+02  0.50400001928E-02 0.  1.
    10030    2    1    2    0    0  0.00000000000E+00  0.00000000000E+00  0.68117818117E+03  0.85641294843E+03  0.51907554723E+03 0.  0.
        3    1    3    3  502    0 -0.97986436509E+02  0.16334832424E+01 -0.55917664600E+02  0.11283087088E+03  0.10100000352E+00 0.  1.
       -3    1    3    3    0  502  0.97986436509E+02 -0.16334832424E+01  0.73709584577E+03  0.74358207755E+03  0.10100000352E+00 0. -1.
</event>
<event>
 5   0  0.1243803E-01  0.5039868E+03  0.7818609E-02  0.1012744E+00
        2   -1    0    0  501    0  0.00000000000E+00  0.00000000000E+00  0.14608510259E+04  0.14608510259E+04  0.25500000920E-02 0. -1.
       -2   -1    0    0    0  501  0.00000000000E+00  0.00000000000E+00 -0.43468266368E+02  0.43468266443E+02  0.25500000920E-02 0.  1.
    10030    2    1    2    0    0  0.00000000000E+00  0.00000000000E+00  0.14173827595E+04  0.15043192923E+04  0.50398675211E+03 0.  0.
        4    1    3    3  502    0 -0.21910910924E+03 -0.98769563508E+02  0.48265371617E+03  0.53918498779E+03  0.12699999809E+01 0.  1.
       -4    1    3    3    0  502  0.21910910924E+03  0.98769563508E+02  0.93472904336E+03  0.96513430455E+03  0.12699999809E+01 0. -1.
</event>
<event>
 5   0  0.7531632E-02  0.5010434E+03  0.7818609E-02  0.1013507E+00
        1   -1    0    0  501    0  0.00000000000E+00  0.00000000000E+00  0.23774497937E+03  0.23774497942E+03  0.50400001928E-02 0.  1.
       -1   -1    0    0    0  501  0.00000000000E+00  0.00000000000E+00 -0.26398505068E+03  0.26398505073E+03  0.50400001928E-02 0. -1.
    10030    2    1    2    0    0  0.00000000000E+00  0.00000000000E+00 -0.26240071313E+02  0.50173003015E+03  0.50104339314E+03 0.  0.
        3    1    3    3  502    0 -0.73893243933E+02 -0.77307964043E+02 -0.23997934262E+03  0.26272957178E+03  0.10100000352E+00 0. -1.
       -3    1    3    3    0  502  0.73893243933E+02  0.77307964043E+02  0.21373927130E+03  0.23900045837E+03  0.10100000352E+00 0.  1.
</event>
<event>
 5   0  0.7531632E-02  0.4951258E+03  0.7818609E-02  0.1015059E+00
       -1   -1    0    0    0  501  0.00000000000E+00  0.00000000000E+00  0.87880332324E+02  0.87880332469E+02  0.50400001928E-02 0.  1.
        1   -1    0    0  501    0  0.00000000000E+00  0.00000000000E+00 -0.69739585528E+03  0.69739585530E+03  0.50400001928E-02 0. -1.
    10030    2    1    2    0    0  0.00000000000E+00  0.00000000000E+00 -0.60951552295E+03  0.78527618777E+03  0.49512576014E+03 0.  0.
        3    1    3    3  502    0  0.21027476641E+03 -0.41506038053E+02 -0.10826392090E+03  0.24012354186E+03  0.10100000352E+00 0. -1.
       -3    1    3    3    0  502 -0.21027476641E+03  0.41506038053E+02 -0.50125160205E+03  0.54515264591E+03  0.10100000352E+00 0.  1.
</event>
<event>
 5   0  0.1211345E-01  0.5115050E+03  0.7818609E-02  0.1010819E+00
       -2   -1    0    0    0  501  0.00000000000E+00  0.00000000000E+00  0.10279159166E+03  0.10279159169E+03  0.25500000920E-02 0. -1.
        2   -1    0    0  501    0  0.00000000000E+00  0.00000000000E+00 -0.63632964813E+03  0.63632964814E+03  0.25500000920E-02 0.  1.
    10030    2    1    2    0    0  0.00000000000E+00  0.00000000000E+00 -0.53353805647E+03  0.73912123983E+03  0.51150498478E+03 0.  0.
        5    1    3    3  502    0  0.22882929644E+03  0.11410233632E+03 -0.27001859438E+03  0.37190633414E+03  0.46999998093E+01 0.  1.
       -5    1    3    3    0  502 -0.22882929644E+03 -0.11410233632E+03 -0.26351946209E+03  0.36721490569E+03  0.46999998093E+01 0. -1.
</event>
<event>
 5   0  0.7812547E-02  0.5007652E+03  0.7818609E-02  0.1013579E+00
        1   -1    0    0  501    0  0.00000000000E+00  0.00000000000E+00  0.73018807173E+03  0.73018807174E+03  0.50400001928E-02 0.  1.
       -1   -1    0    0    0  501  0.00000000000E+00  0.00000000000E+00 -0.85856576503E+02  0.85856576651E+02  0.50400001928E-02 0. -1.
    10030    2    1    2    0    0  0.00000000000E+00  0.00000000000E+00  0.64433149522E+03  0.81604464840E+03  0.50076520690E+03 0.  0.
        4    1    3    3  502    0 -0.16294124172E+03 -0.11027331984E+03  0.57451521288E+03  0.60727209392E+03  0.12699999809E+01 0.  1.
       -4    1    3    3    0  502  0.16294124172E+03  0.11027331984E+03  0.69816282346E+02  0.20877255448E+03  0.12699999809E+01 0. -1.
</event>
<event>
 5   0  0.7531632E-02  0.5041330E+03  0.7818609E-02  0.1012706E+00
        1   -1    0    0  501    0  0.00000000000E+00  0.00000000000E+00  0.10277378800E+04  0.10277378800E+04  0.50400001928E-02 0.  1.
       -1   -1    0    0    0  501  0.00000000000E+00  0.00000000000E+00 -0.61822685773E+02  0.61822685978E+02  0.50400001928E-02 0. -1.
    10030    2    1    2    0    0  0.00000000000E+00  0.00000000000E+00  0.96591519419E+03  0.10895605660E+04  0.50413298297E+03 0.  0.
        3    1    3    3  502    0  0.28852377977E+02  0.82294733193E+01  0.10238649127E+04  0.10243044243E+04  0.10100000352E+00 0.  1.
       -3    1    3    3    0  502 -0.28852377977E+02 -0.82294733193E+01 -0.57949718523E+02  0.65256141657E+02  0.10100000352E+00 0. -1.
</event>
<event>
 5   0  0.1279188E-01  0.5047085E+03  0.7818609E-02  0.1012557E+00
        2   -1    0    0  501    0  0.00000000000E+00  0.00000000000E+00  0.62015697018E+03  0.62015697018E+03  0.25500000920E-02 0.  1.
       -2   -1    0    0    0  501  0.00000000000E+00  0.00000000000E+00 -0.10268797173E+03  0.10268797176E+03  0.25500000920E-02 0. -1.
    10030    2    1    2    0    0  0.00000000000E+00  0.00000000000E+00  0.51746899844E+03  0.72284494194E+03  0.50470847600E+03 0.  0.
        2    1    3    3  502    0 -0.27262016390E+02 -0.28817308080E+02  0.61566350299E+03  0.61694019459E+03  0.25500000920E-02 0.  1.
       -2    1    3    3    0  502  0.27262016390E+02  0.28817308080E+02 -0.98194504545E+02  0.10590474735E+03  0.25500000920E-02 0. -1.
</event>
<event>
 5   0  0.7812547E-02  0.4986028E+03  0.7818609E-02  0.1014144E+00
       -1   -1    0    0    0  501  0.00000000000E+00  0.00000000000E+00  0.82719654526E+02  0.82719654680E+02  0.50400001928E-02 0.  1.
        1   -1    0    0  501    0  0.00000000000E+00  0.00000000000E+00 -0.75134723759E+03  0.75134723761E+03  0.50400001928E-02 0. -1.
    10030    2    1    2    0    0  0.00000000000E+00  0.00000000000E+00 -0.66862758306E+03  0.83406689229E+03  0.49860278376E+03 0.  0.
        4    1    3    3  502    0  0.11566383807E+03  0.75112925540E+02 -0.68171664040E+03  0.69552804812E+03  0.12699999809E+01 0. -1.
       -4    1    3    3    0  502 -0.11566383807E+03 -0.75112925540E+02  0.13089057340E+02  0.13853884417E+03  0.12699999809E+01 0.  1.
</event>
<event>
 5   0  0.1231822E-01  0.5055915E+03  0.7818609E-02  0.1012330E+00
       -2   -1    0    0    0  501  0.00000000000E+00  0.00000000000E+00  0.12910497456E+03  0.12910497459E+03  0.25500000920E-02 0.  1.
        2   -1    0    0  501    0  0.00000000000E+00  0.00000000000E+00 -0.49499019533E+03  0.49499019533E+03  0.25500000920E-02 0. -1.
    10030    2    1    2    0    0  0.00000000000E+00  0.00000000000E+00 -0.36588522076E+03  0.62409516992E+03  0.50559152124E+03 0.  0.
        1    1    3    3  502    0 -0.16044415279E+03 -0.16835720829E+03 -0.30526037975E+03  0.38375822495E+03  0.50400001928E-02 0. -1.
       -1    1    3    3    0  502  0.16044415279E+03  0.16835720829E+03 -0.60624841016E+02  0.24033694497E+03  0.50400001928E-02 0.  1.
</event>
<event>
 5   0  0.5006750E-02  0.4991895E+03  0.7818609E-02  0.1013991E+00
       -4   -1    0    0    0  501  0.00000000000E+00  0.00000000000E+00  0.14060272673E+03  0.14060846227E+03  0.12699999809E+01 0. -1.
        4   -1    0    0  501    0  0.00000000000E+00  0.00000000000E+00 -0.44305929788E+03  0.44306111806E+03  0.12699999809E+01 0.  1.
    10030    2    1    2    0    0  0.00000000000E+00  0.00000000000E+00 -0.30245657115E+03  0.58366958033E+03  0.49918954474E+03 0.  0.
        1    1    3    3  502    0  0.16949557859E+03 -0.17352227288E+03 -0.21999298686E+03  0.32746853993E+03  0.50400001928E-02 0.  1.
       -1    1    3    3    0  502 -0.16949557859E+03  0.17352227288E+03 -0.82463584290E+02  0.25620104041E+03  0.50400001928E-02 0. -1.
</event>
<event>
 5   0  0.7812547E-02  0.4880407E+03  0.7818609E-02  0.1016948E+00
       -1   -1    0    0    0  501  0.00000000000E+00  0.00000000000E+00  0.38506762194E+03  0.38506762197E+03  0.50400001928E-02 0.  1.
        1   -1    0    0  501    0  0.00000000000E+00  0.00000000000E+00 -0.15463762659E+03  0.15463762667E+03  0.50400001928E-02 0. -1.
    10030    2    1    2    0    0  0.00000000000E+00  0.00000000000E+00  0.23042999535E+03  0.53970524864E+03  0.48804074897E+03 0.  0.
        4    1    3    3  502    0  0.14744834144E+03  0.18942669415E+03  0.16368205487E+03  0.29054588938E+03  0.12699999809E+01 0.  1.
       -4    1    3    3    0  502 -0.14744834144E+03 -0.18942669415E+03  0.66747940480E+02  0.24915935926E+03  0.12699999809E+01 0. -1.
</event>
<event>
 5   0  0.1191894E-01  0.5027280E+03  0.7818609E-02  0.1013069E+00
        2   -1    0    0  501    0  0.00000000000E+00  0.00000000000E+00  0.89143638925E+03  0.89143638925E+03  0.25500000920E-02 0.  1.
       -2   -1    0    0    0  501  0.00000000000E+00  0.00000000000E+00 -0.70878715695E+02  0.70878715741E+02  0.25500000920E-02 0. -1.
    10030    2    1    2    0    0  0.00000000000E+00  0.00000000000E+00  0.82055767355E+03  0.96231510499E+03  0.50272802356E+03 0.  0.
        3    1    3    3  502    0 -0.10533140499E+03 -0.15370683606E+03  0.87334784865E+02  0.20578598392E+03  0.10100000352E+00 0. -1.
       -3    1    3    3    0  502  0.10533140499E+03  0.15370683606E+03  0.73322288869E+03  0.75652912107E+03  0.10100000352E+00 0.  1.
</event>
<event>
 5   0  0.7531632E-02  0.5014596E+03  0.7818609E-02  0.1013399E+00
       -1   -1    0    0    0  501  0.00000000000E+00  0.00000000000E+00  0.99465294094E+02  0.99465294222E+02  0.50400001928E-02 0.  1.
        1   -1    0    0  501    0  0.00000000000E+00  0.00000000000E+00 -0.63203381543E+03  0.63203381545E+03  0.50400001928E-02 0. -1.
    10030    2    1    2    0    0  0.00000000000E+00  0.00000000000E+00 -0.53256852133E+03  0.73149910967E+03  0.50145958714E+03 0.  0.
        3    1    3    3  502    0  0.20158656681E+02  0.17468835245E+03 -0.52699918895E+03  0.55556327027E+03  0.10100000352E+00 0. -1.
       -3    1    3    3    0  502 -0.20158656681E+02 -0.17468835245E+03 -0.55693323847E+01  0.17593583940E+03  0.10100000352E+00 0.  1.
</event>
<event>
 5   0  0.1279188E-01  0.4997394E+03  0.7818609E-02  0.1013847E+00
       -2   -1    0    0    0  501  0.00000000000E+00  0.00000000000E+00  0.12740443415E+03  0.12740443417E+03  0.25500000920E-02 0. -1.
        2   -1    0    0  501    0  0.00000000000E+00  0.00000000000E+00 -0.49005248495E+03  0.49005248496E+03  0.25500000920E-02 0.  1.
    10030    2    1    2    0    0  0.00000000000E+00  0.00000000000E+00 -0.36264805080E+03  0.61745691913E+03  0.49973937030E+03 0.  0.
        2    1    3    3  502    0  0.21782979149E+02 -0.23531397451E+03 -0.28160760571E+03  0.36762754029E+03  0.25500000920E-02 0. -1.
       -2    1    3    3    0  502 -0.21782979149E+02  0.23531397451E+03 -0.81040445096E+02  0.24982937884E+03  0.25500000920E-02 0.  1.
</event>
<event>
 5   0  0.1191894E-01  0.4986831E+03  0.7818609E-02  0.1014123E+00
       -2   -1    0    0    0  501  0.00000000000E+00  0.00000000000E+00  0.52178209976E+02  0.52178210038E+02  0.25500000920E-02 0. -1.
        2   -1    0    0  501    0  0.00000000000E+00  0.00000000000E+00 -0.11915166736E+04  0.11915166736E+04  0.25500000920E-02 0.  1.
    10030    2    1    2    0    0  0.00000000000E+00  0.00000000000E+00 -0.11393384636E+04  0.12436948836E+04  0.49868309466E+03 0.  0.
        3    1    3    3  502    0  0.13725632123E+03 -0.23138024575E+02 -0.10856024446E+04  0.10944895358E+04  0.10100000352E+00 0.  1.
       -3    1    3    3    0  502 -0.13725632123E+03  0.23138024575E+02 -0.53736019000E+02  0.14920534789E+03  0.10100000352E+00 0. -1.
</event>
<event>
 5   0  0.1279188E-01  0.5008149E+03  0.7818609E-02  0.1013566E+00
       -2   -1    0    0    0  501  0.00000000000E+00  0.00000000000E+00  0.14898095253E+03  0.14898095255E+03  0.25500000920E-02 0.  1.
        2   -1    0    0  501    0  0.00000000000E+00  0.00000000000E+00 -0.42088524987E+03  0.42088524988E+03  0.25500000920E-02 0. -1.
    10030    2    1    2    0    0  0.00000000000E+00  0.00000000000E+00 -0.27190429734E+03  0.56986620243E+03  0.50081487773E+03 0.  0.
        2    1    3    3  502    0 -0.65982416930E+02 -0.14267290842E+03  0.85845474201E+02  0.17910523049E+03  0.25500000920E-02 0.  1.
       -2    1    3    3    0  502  0.65982416930E+02  0.14267290842E+03 -0.35774977154E+03  0.39076097194E+03  0.25500000920E-02 0. -1.
</event>
<event>
 5   0  0.1243803E-01  0.4996365E+03  0.7818609E-02  0.1013874E+00
        2   -1    0    0  501    0  0.00000000000E+00  0.00000000000E+00  0.12547720638E+04  0.12547720638E+04  0.25500000920E-02 0. -1.
       -2   -1    0    0    0  501  0.00000000000E+00  0.00000000000E+00 -0.49737437640E+02  0.49737437705E+02  0.25500000920E-02 0.  1.
    10030    2    1    2    0    0  0.00000000000E+00  0.00000000000E+00  0.12050346261E+04  0.13045095015E+04  0.49963645711E+03 0.  0.
        4    1    3    3  502    0  0.16354883505E+03  0.11303505744E+03  0.99746884837E+03  0.10170894071E+04  0.12699999809E+01 0. -1.
       -4    1    3    3    0  502 -0.16354883505E+03 -0.11303505744E+03  0.20756577775E+03  0.28742009437E+03  0.12699999809E+01 0.  1.
</event>
<event>
 5   0  0.7602288E-02  0.4984724E+03  0.7818609E-02  0.1014178E+00
       -1   -1    0    0    0  501  0.00000000000E+00  0.00000000000E+00  0.71974706658E+03  0.71974706660E+03  0.50400001928E-02 0.  1.
        1   -1    0    0  501    0  0.00000000000E+00  0.00000000000E+00 -0.86306268542E+02  0.86306268689E+02  0.50400001928E-02 0. -1.
    10030    2    1    2    0    0  0.00000000000E+00  0.00000000000E+00  0.63344079804E+03  0.80605333529E+03  0.49847240115E+03 0.  0.
        5    1    3    3  502    0  0.14565954121E+03  0.17505025464E+03  0.15310831427E+03  0.27445134267E+03  0.46999998093E+01 0. -1.
       -5    1    3    3    0  502 -0.14565954121E+03 -0.17505025464E+03  0.48033248377E+03  0.53160199262E+03  0.46999998093E+01 0.  1.
</event>
<event>
 5   0  0.7812547E-02  0.4999018E+03  0.7818609E-02  0.1013805E+00
       -1   -1    0    0    0  501  0.00000000000E+00  0.00000000000E+00  0.51520631923E+02  0.51520632169E+02  0.50400001928E-02 0.  1.
        1   -1    0    0  501    0  0.00000000000E+00  0.00000000000E+00 -0.12126296333E+04  0.12126296334E+04  0.50400001928E-02 0. -1.
    10030    2    1    2    0    0  0.00000000000E+00  0.00000000000E+00 -0.11611090014E+04  0.12641502655E+04  0.49990177099E+03 0.  0.
        4    1    3    3  502    0  0.10667752305E+03 -0.20708996913E+03 -0.35145770157E+03  0.42165208185E+03  0.12699999809E+01 0.  1.
       -4    1    3    3    0  502 -0.10667752305E+03  0.20708996913E+03 -0.80965129985E+03  0.84249818367E+03  0.12699999809E+01 0. -1.
</event>
<event>
 5   0  0.1279188E-01  0.4955043E+03  0.7818609E-02  0.1014959E+00
       -2   -1    0    0    0  501  0.00000000000E+00  0.00000000000E+00  0.12273027186E+03  0.12273027188E+03  0.25500000920E-02 0. -1.
        2   -1    0    0  501    0  0.00000000000E+00  0.00000000000E+00 -0.50013025532E+03  0.50013025533E+03  0.25500000920E-02 0.  1.
    10030    2    1    2    0    0  0.00000000000E+00  0.00000000000E+00 -0.37739998346E+03  0.62286052721E+03  0.49550427732E+03 0.  0.
        2    1    3    3  502    0  0.13667715558E+03  0.18821787262E+03 -0.81487530230E+02  0.24646872016E+03  0.25500000920E-02 0.  1.
       -2    1    3    3    0  502 -0.13667715558E+03 -0.18821787262E+03 -0.29591245323E+03  0.37639180705E+03  0.25500000920E-02 0. -1.
</event>
<event>
 5   0  0.1279188E-01  0.4659901E+03  0.7818609E-02  0.1023058E+00
       -2   -1    0    0    0  501  0.00000000000E+00  0.00000000000E+00  0.10385739934E+03  0.10385739938E+03  0.25500000920E-02 0.  1.
        2   -1    0    0  501    0  0.00000000000E+00  0.00000000000E+00 -0.52270414352E+03  0.52270414353E+03  0.25500000920E-02 0. -1.
    10030    2    1    2    0    0  0.00000000000E+00  0.00000000000E+00 -0.41884674418E+03  0.62656154290E+03  0.46599009854E+03 0.  0.
        2    1    3    3  502    0  0.16366506060E+03  0.11809842736E+03 -0.36595712875E+03  0.41792117761E+03  0.25500000920E-02 0. -1.
       -2    1    3    3    0  502 -0.16366506060E+03 -0.11809842736E+03 -0.52889615428E+02  0.20864036530E+03  0.25500000920E-02 0.  1.
</event>
<event>
 5   0  0.7602288E-02  0.5018708E+03  0.7818609E-02  0.1013292E+00
       -1   -1    0    0    0  501  0.00000000000E+00  0.00000000000E+00  0.14463757060E+03  0.14463757068E+03  0.50400001928E-02 0. -1.
        1   -1    0    0  501    0  0.00000000000E+00  0.00000000000E+00 -0.43535422416E+03  0.43535422419E+03  0.50400001928E-02 0.  1.
    10030    2    1    2    0    0  0.00000000000E+00  0.00000000000E+00 -0.29071665357E+03  0.57999179488E+03  0.50187080953E+03 0.  0.
        5    1    3    3  502    0 -0.14425221297E+03 -0.18552856344E+02 -0.38161532928E+03  0.40841799539E+03  0.46999998093E+01 0.  1.
       -5    1    3    3    0  502  0.14425221297E+03  0.18552856344E+02  0.90898675708E+02  0.17157379948E+03  0.46999998093E+01 0. -1.
</event>
<event>
 5   0  0.1191894E-01  0.5008980E+03  0.7818609E-02  0.1013545E+00
       -2   -1    0    0    0  501  0.00000000000E+00  0.00000000000E+00  0.56383606228E+02  0.56383606286E+02  0.25500000920E-02 0. -1.
        2   -1    0    0  501    0  0.00000000000E+00  0.00000000000E+00 -0.11124634847E+04  0.11124634847E+04  0.25500000920E-02 0.  1.
    10030    2    1    2    0    0  0.00000000000E+00  0.00000000000E+00 -0.10560798785E+04  0.11688470910E+04  0.50089800599E+03 0.  0.
        3    1    3    3  502    0 -0.12501122538E+03  0.10771818046E+03 -0.96766648913E+03  0.98163611244E+03  0.10100000352E+00 0.  1.
       -3    1    3    3    0  502  0.12501122538E+03 -0.10771818046E+03 -0.88413389354E+02  0.18721097855E+03  0.10100000352E+00 0. -1.
</event>
<event>
 5   0  0.5006750E-02  0.5023431E+03  0.7818609E-02  0.1013169E+00
       -4   -1    0    0    0  501  0.00000000000E+00  0.00000000000E+00  0.20903117658E+03  0.20903503458E+03  0.12699999809E+01 0. -1.
        4   -1    0    0  501    0  0.00000000000E+00  0.00000000000E+00 -0.30179940193E+03  0.30180207406E+03  0.12699999809E+01 0.  1.
    10030    2    1    2    0    0  0.00000000000E+00  0.00000000000E+00 -0.92768225348E+02  0.51083710864E+03  0.50234311773E+03 0.  0.
        4    1    3    3  502    0 -0.23504361614E+03  0.38116069912E+02 -0.12765543662E+03  0.27017745959E+03  0.12699999809E+01 0.  1.
       -4    1    3    3    0  502  0.23504361614E+03 -0.38116069912E+02  0.34887211272E+02  0.24065964905E+03  0.12699999809E+01 0. -1.
</event>
<event>
 5   0  0.7812547E-02  0.5004040E+03  0.7818609E-02  0.1013674E+00
        1   -1    0    0  501    0  0.00000000000E+00  0.00000000000E+00  0.14085533399E+03  0.14085533408E+03  0.50400001928E-02 0. -1.
       -1   -1    0    0    0  501  0.00000000000E+00  0.00000000000E+00 -0.44443492247E+03  0.44443492250E+03  0.50400001928E-02 0.  1.
    10030    2    1    2    0    0  0.00000000000E+00  0.00000000000E+00 -0.30357958848E+03  0.58529025658E+03  0.50040395473E+03 0.  0.
        4    1    3    3  502    0  0.18076010332E+03  0.16579121892E+02  0.49612938303E+02  0.18818113290E+03  0.12699999809E+01 0. -1.
       -4    1    3    3    0  502 -0.18076010332E+03 -0.16579121892E+02 -0.35319252678E+03  0.39710912368E+03  0.12699999809E+01 0.  1.
</event>
<event>
 5   0  0.1279188E-01  0.4955854E+03  0.7818609E-02  0.1014938E+00
        2   -1    0    0  501    0  0.00000000000E+00  0.00000000000E+00  0.15072868713E+04  0.15072868713E+04  0.25500000920E-02 0.  1.
       -2   -1    0    0    0  501  0.00000000000E+00  0.00000000000E+00 -0.40736248598E+02  0.40736248678E+02  0.25500000920E-02 0. -1.
    10030    2    1    2    0    0  0.00000000000E+00  0.00000000000E+00  0.14665506227E+04  0.15480231200E+04  0.49558536202E+03 0.  0.
        2    1    3    3  502    0 -0.11347188842E+03 -0.11296712287E+03  0.13239938952E+04  0.13336406094E+04  0.25500000920E-02 0.  1.
       -2    1    3    3    0  502  0.11347188842E+03  0.11296712287E+03  0.14255672749E+03  0.21438251064E+03  0.25500000920E-02 0. -1.
</event>
<event>
 5   0  0.1211345E-01  0.5014997E+03  0.7818609E-02  0.1013388E+00
       -2   -1    0    0    0  501  0.00000000000E+00  0.00000000000E+00  0.99661157865E+02  0.99661157898E+02  0.25500000920E-02 0.  1.
        2   -1    0    0  501    0  0.00000000000E+00  0.00000000000E+00 -0.63089261805E+03  0.63089261805E+03  0.25500000920E-02 0. -1.
    10030    2    1    2    0    0  0.00000000000E+00  0.00000000000E+00 -0.53123146018E+03  0.73055377595E+03  0.50149970615E+03 0.  0.
        5    1    3    3  502    0  0.24112865779E+03  0.15748048350E+02 -0.16830422109E+03  0.29451558782E+03  0.46999998093E+01 0.  1.
       -5    1    3    3    0  502 -0.24112865779E+03 -0.15748048350E+02 -0.36292723909E+03  0.43603818813E+03  0.46999998093E+01 0. -1.
</event>
<event>
 5   0  0.5006750E-02  0.5073532E+03  0.7818609E-02  0.1011877E+00
        4   -1    0    0  501    0  0.00000000000E+00  0.00000000000E+00  0.12799601331E+03  0.12800231375E+03  0.12699999809E+01 0.  1.
       -4   -1    0    0    0  501  0.00000000000E+00  0.00000000000E+00 -0.50274469092E+03  0.50274629501E+03  0.12699999809E+01 0. -1.
    10030    2    1    2    0    0  0.00000000000E+00  0.00000000000E+00 -0.37474867760E+03  0.63074860875E+03  0.50735316702E+03 0.  0.
        4    1    3    3  502    0  0.10228126642E+03  0.19152519715E+03 -0.35045274353E+03  0.41226459580E+03  0.12699999809E+01 0. -1.
       -4    1    3    3    0  502 -0.10228126642E+03 -0.19152519715E+03 -0.24295934073E+02  0.21848401295E+03  0.12699999809E+01 0.  1.
</event>
<event>
 5   0  0.7602288E-02  0.5032272E+03  0.7818609E-02  0.1012940E+00
        1   -1    0    0  501    0  0.00000000000E+00  0.00000000000E+00  0.29516286039E+03  0.29516286044E+03  0.50400001928E-02 0.  1.
       -1   -1    0    0    0  501  0.00000000000E+00  0.00000000000E+00 -0.21448972269E+03  0.21448972275E+03  0.50400001928E-02 0. -1.
    10030    2    1    2    0    0  0.00000000000E+00  0.00000000000E+00  0.80673137701E+02  0.50965258319E+03  0.50322718568E+03 0.  0.
        5    1    3    3  502    0  0.21715338039E+03  0.64982577014E+01  0.16880052812E+03  0.27516090976E+03  0.46999998093E+01 0.  1.
       -5    1    3    3    0  502 -0.21715338039E+03 -0.64982577014E+01 -0.88127390423E+02  0.23449167343E+03  0.46999998093E+01 0. -1.
</event>
<event>
 5   0  0.1243803E-01  0.4981036E+03  0.7818609E-02  0.1014275E+00
       -2   -1    0    0    0  501  0.00000000000E+00  0.00000000000E+00  0.48631079475E+02  0.48631079542E+02  0.25500000920E-02 0.  1.
        2   -1    0    0  501    0  0.00000000000E+00  0.00000000000E+00 -0.12754559115E+04  0.12754559115E+04  0.25500000920E-02 0. -1.
    10030    2    1    2    0    0  0.00000000000E+00  0.00000000000E+00 -0.12268248321E+04  0.13240869911E+04  0.49810359504E+03 0.  0.
        4    1    3    3  502    0  0.23357674414E+03 -0.40314045167E+02 -0.41023628478E+03  0.47379187403E+03  0.12699999809E+01 0.  1.
       -4    1    3    3    0  502 -0.23357674414E+03  0.40314045167E+02 -0.81658854728E+03  0.85029511706E+03  0.12699999809E+01 0. -1.
</event>
<event>
 5   0  0.7531632E-02  0.4951368E+03  0.7818609E-02  0.1015056E+00
        1   -1    0    0  501    0  0.00000000000E+00  0.00000000000E+00  0.89506979057E+02  0.89506979198E+02  0.50400001928E-02 0.  1.
       -1   -1    0    0    0  501  0.00000000000E+00  0.00000000000E+00 -0.68475228853E+03  0.68475228855E+03  0.50400001928E-02 0. -1.
    10030    2    1    2    0    0  0.00000000000E+00  0.00000000000E+00 -0.59524530948E+03  0.77425926775E+03  0.49513678438E+03 0.  0.
        3    1    3    3  502    0  0.79711097714E+02 -0.53698745714E+02  0.59142791905E+02  0.11285076174E+03  0.10100000352E+00 0.  1.
       -3    1    3    3    0  502 -0.79711097714E+02  0.53698745714E+02 -0.65438810138E+03  0.66140850601E+03  0.10100000352E+00 0. -1.
</event>
<event>
 5   0  0.7781754E-02  0.5017624E+03  0.7818609E-02  0.1013320E+00
        1   -1    0    0  501    0  0.00000000000E+00  0.00000000000E+00  0.80853464109E+03  0.80853464110E+03  0.50400001928E-02 0.  1.
       -1   -1    0    0    0  501  0.00000000000E+00  0.00000000000E+00 -0.77846237392E+02  0.77846237555E+02  0.50400001928E-02 0. -1.
    10030    2    1    2    0    0  0.00000000000E+00  0.00000000000E+00  0.73068840369E+03  0.88638087866E+03  0.50176241266E+03 0.  0.
        2    1    3    3  502    0  0.18074045406E+03 -0.48976046441E+02  0.70403654903E+02  0.20005609086E+03  0.25500000920E-02 0. -1.
       -2    1    3    3    0  502 -0.18074045406E+03  0.48976046441E+02  0.66028474879E+03  0.68632478780E+03  0.25500000920E-02 0.  1.
</event>
<event>
 5   0  0.1279188E-01  0.4955394E+03  0.7818609E-02  0.1014950E+00
       -2   -1    0    0    0  501  0.00000000000E+00  0.00000000000E+00  0.62583131451E+02  0.62583131503E+02  0.25500000920E-02 0. -1.
        2   -1    0    0  501    0  0.00000000000E+00  0.00000000000E+00 -0.98093228574E+03  0.98093228574E+03  0.25500000920E-02 0.  1.
    10030    2    1    2    0    0  0.00000000000E+00  0.00000000000E+00 -0.91834915429E+03  0.10435154172E+04  0.49553935953E+03 0.  0.
        2    1    3    3  502    0 -0.10270559883E+03  0.17383369162E+03 -0.15676261133E+03  0.25561906950E+03  0.25500000920E-02 0. -1.
       -2    1    3    3    0  502  0.10270559883E+03 -0.17383369162E+03 -0.76158654295E+03  0.78789634774E+03  0.25500000920E-02 0.  1.
</event>
<event>
 5   0  0.1211345E-01  0.5093245E+03  0.7818609E-02  0.1011373E+00
        2   -1    0    0  501    0  0.00000000000E+00  0.00000000000E+00  0.12640282741E+03  0.12640282744E+03  0.25500000920E-02 0. -1.
       -2   -1    0    0    0  501  0.00000000000E+00  0.00000000000E+00 -0.51306497566E+03  0.51306497567E+03  0.25500000920E-02 0.  1.
    10030    2    1    2    0    0  0.00000000000E+00  0.00000000000E+00 -0.38666214825E+03  0.63946780311E+03  0.50932450787E+03 0.  0.
        5    1    3    3  502    0 -0.27402121844E+02 -0.19413119383E+03  0.10639865853E+02  0.19640033972E+03  0.46999998093E+01 0. -1.
       -5    1    3    3    0  502  0.27402121844E+02  0.19413119383E+03 -0.39730201411E+03  0.44306746339E+03  0.46999998093E+01 0.  1.
</event>
<event>
 5   0  0.7812547E-02  0.5100632E+03  0.7818609E-02  0.1011185E+00
        1   -1    0    0  501    0  0.00000000000E+00  0.00000000000E+00  0.34000388555E+03  0.34000388559E+03  0.50400001928E-02 0.  1.
       -1   -1    0    0    0  501  0.00000000000E+00  0.00000000000E+00 -0.19129518337E+03  0.19129518344E+03  0.50400001928E-02 0. -1.
    10030    2    1    2    0    0  0.00000000000E+00  0.00000000000E+00  0.14870870218E+03  0.53129906902E+03  0.51006315554E+03 0.  0.
        4    1    3    3  502    0 -0.96988693828E+02  0.10168718467E+03  0.29603499824E+03  0.32769715187E+03  0.12699999809E+01 0.  1.
       -4    1    3    3    0  502  0.96988693828E+02 -0.10168718467E+03 -0.14732629606E+03  0.20360191715E+03  0.12699999809E+01 0. -1.
</event>
<event>
 5   0  0.1211345E-01  0.4996362E+03  0.7818609E-02  0.1013874E+00
       -2   -1    0    0    0  501  0.00000000000E+00  0.00000000000E+00  0.12021270025E+03  0.12021270028E+03  0.25500000920E-02 0. -1.
        2   -1    0    0  501    0  0.00000000000E+00  0.00000000000E+00 -0.51915549676E+03  0.51915549677E+03  0.25500000920E-02 0.  1.
    10030    2    1    2    0    0  0.00000000000E+00  0.00000000000E+00 -0.39894279651E+03  0.63936819705E+03  0.49963620416E+03 0.  0.
        5    1    3    3  502    0 -0.38983197817E+02 -0.24406567916E+03 -0.24559713016E+03  0.34846489895E+03  0.46999998093E+01 0. -1.
       -5    1    3    3    0  502  0.38983197817E+02  0.24406567916E+03 -0.15334566635E+03  0.29090329810E+03  0.46999998093E+01 0.  1.
</event>
<event>
 5   0  0.5006750E-02  0.4981552E+03  0.7818609E-02  0.1014262E+00
       -3   -1    0    0    0  501  0.00000000000E+00  0.00000000000E+00  0.63269591703E+03  0.63269592509E+03  0.10100000352E+00 0.  1.
        3   -1    0    0  501    0  0.00000000000E+00  0.00000000000E+00 -0.98055983136E+02  0.98056035152E+02  0.10100000352E+00 0. -1.
    10030    2    1    2    0    0  0.00000000000E+00  0.00000000000E+00  0.53463993389E+03  0.73075196024E+03  0.49815516507E+03 0.  0.
        4    1    3    3  502    0  0.20467036105E+03 -0.93276887171E+02  0.42426969943E+03  0.48020508653E+03  0.12699999809E+01 0.  1.
       -4    1    3    3    0  502 -0.20467036105E+03  0.93276887171E+02  0.11037023445E+03  0.25054687371E+03  0.12699999809E+01 0. -1.
</event>
<event>
 5   0  0.7416638E-02  0.5045646E+03  0.7818609E-02  0.1012594E+00
       -1   -1    0    0    0  501  0.00000000000E+00  0.00000000000E+00  0.33524801702E+03  0.33524801706E+03  0.50400001928E-02 0.  1.
        1   -1    0    0  501    0  0.00000000000E+00  0.00000000000E+00 -0.18984857616E+03  0.18984857623E+03  0.50400001928E-02 0. -1.
    10030    2    1    2    0    0  0.00000000000E+00  0.00000000000E+00  0.14539944086E+03  0.52509659329E+03  0.50456459931E+03 0.  0.
        1    1    3    3  502    0 -0.26536763914E+01  0.23312257256E+03 -0.27624239309E+02  0.23476855509E+03  0.50400001928E-02 0. -1.
       -1    1    3    3    0  502  0.26536763914E+01 -0.23312257256E+03  0.17302368017E+03  0.29032803819E+03  0.50400001928E-02 0.  1.
</event>
<event>
 5   0  0.1279188E-01  0.4958309E+03  0.7818609E-02  0.1014873E+00
       -2   -1    0    0    0  501  0.00000000000E+00  0.00000000000E+00  0.13705013481E+03  0.13705013483E+03  0.25500000920E-02 0.  1.
        2   -1    0    0  501    0  0.00000000000E+00  0.00000000000E+00 -0.44846410553E+03  0.44846410554E+03  0.25500000920E-02 0. -1.
    10030    2    1    2    0    0  0.00000000000E+00  0.00000000000E+00 -0.31141397072E+03  0.58551424037E+03  0.49583088298E+03 0.  0.
        2    1    3    3  502    0 -0.44220930776E+02  0.22158284498E+03 -0.27617716692E+03  0.35683087793E+03  0.25500000920E-02 0. -1.
       -2    1    3    3    0  502  0.44220930776E+02 -0.22158284498E+03 -0.35236803800E+02  0.22868336244E+03  0.25500000920E-02 0.  1.
</event>
<event>
 5   0  0.1191894E-01  0.5006542E+03  0.7818609E-02  0.1013608E+00
        2   -1    0    0  501    0  0.00000000000E+00  0.00000000000E+00  0.49285826447E+03  0.49285826448E+03  0.25500000920E-02 0.  1.
       -2   -1    0    0    0  501  0.00000000000E+00  0.00000000000E+00 -0.12714334905E+03  0.12714334908E+03  0.25500000920E-02 0. -1.
    10030    2    1    2    0    0  0.00000000000E+00  0.00000000000E+00  0.36571491542E+03  0.62000161355E+03  0.50065417350E+03 0.  0.
        3    1    3    3  502    0 -0.38119975142E+00  0.18235605038E+03  0.39523117142E+03  0.43527182713E+03  0.10100000352E+00 0.  1.
       -3    1    3    3    0  502  0.38119975142E+00 -0.18235605038E+03 -0.29516256003E+02  0.18472978643E+03  0.10100000352E+00 0. -1.
</event>
<event>
 5   0  0.1231822E-01  0.4877727E+03  0.7818609E-02  0.1017021E+00
        2   -1    0    0  501    0  0.00000000000E+00  0.00000000000E+00  0.55408641648E+03  0.55408641649E+03  0.25500000920E-02 0. -1.
       -2   -1    0    0    0  501  0.00000000000E+00  0.00000000000E+00 -0.10734888334E+03  0.10734888337E+03  0.25500000920E-02 0.  1.
    10030    2    1    2    0    0  0.00000000000E+00  0.00000000000E+00  0.44673753315E+03  0.66143529986E+03  0.48777272615E+03 0.  0.
        1    1    3    3  502    0  0.18232596053E+03 -0.10833394829E+03  0.60072150438E+02  0.22042609537E+03  0.50400001928E-02 0.  1.
       -1    1    3    3    0  502 -0.18232596053E+03  0.10833394829E+03  0.38666538271E+03  0.44100920449E+03  0.50400001928E-02 0. -1.
</event>
<event>
 5   0  0.7812547E-02  0.5113189E+03  0.7818609E-02  0.1010866E+00
       -1   -1    0    0    0  501  0.00000000000E+00  0.00000000000E+00  0.14912331405E+03  0.14912331414E+03  0.50400001928E-02 0.  1.
        1   -1    0    0  501    0  0.00000000000E+00  0.00000000000E+00 -0.43830672084E+03  0.43830672087E+03  0.50400001928E-02 0. -1.
    10030    2    1    2    0    0  0.00000000000E+00  0.00000000000E+00 -0.28918340679E+03  0.58743003501E+03  0.51131888609E+03 0.  0.
        4    1    3    3  502    0 -0.14831634326E+02  0.19198019355E+03  0.48619777988E+02  0.19859976788E+03  0.12699999809E+01 0.  1.
       -4    1    3    3    0  502  0.14831634326E+02 -0.19198019355E+03 -0.33780318478E+03  0.38883026713E+03  0.12699999809E+01 0. -1.
</event>
<event>
 5   0  0.1191894E-01  0.5060561E+03  0.7818609E-02  0.1012210E+00
       -2   -1    0    0    0  501  0.00000000000E+00  0.00000000000E+00  0.73415048310E+02  0.73415048355E+02  0.25500000920E-02 0. -1.
        2   -1    0    0  501    0  0.00000000000E+00  0.00000000000E+00 -0.87207176220E+03  0.87207176221E+03  0.25500000920E-02 0.  1.
    10030    2    1    2    0    0  0.00000000000E+00  0.00000000000E+00 -0.79865671389E+03  0.94548681056E+03  0.50605608612E+03 0.  0.
        3    1    3    3  502    0  0.75878298660E+02  0.23160400729E+03 -0.27226382727E+03  0.36541145883E+03  0.10100000352E+00 0. -1.
       -3    1    3    3    0  502 -0.75878298660E+02 -0.23160400729E+03 -0.52639288662E+03  0.58007535173E+03  0.10100000352E+00 0.  1.
</event>
<event>
 5   0  0.7812547E-02  0.5027574E+03  0.7818609E-02  0.1013062E+00
        1   -1    0    0  501    0  0.00000000000E+00  0.00000000000E+00  0.26977148004E+03  0.26977148009E+03  0.50400001928E-02 0.  1.
       -1   -1    0    0    0  501  0.00000000000E+00  0.00000000000E+00 -0.23423991017E+03  0.23423991022E+03  0.50400001928E-02 0. -1.
    10030    2    1    2    0    0  0.00000000000E+00  0.00000000000E+00  0.35531569871E+02  0.50401139031E+03  0.50275738592E+03 0.  0.
        4    1    3    3  502    0  0.40977256138E+02  0.59292554409E+02 -0.22365617052E+03  0.23498603797E+03  0.12699999809E+01 0. -1.
       -4    1    3    3    0  502 -0.40977256138E+02 -0.59292554409E+02  0.25918774039E+03  0.26902535234E+03  0.12699999809E+01 0.  1.
</event>
<event>
 5   0  0.1211345E-01  0.4747170E+03  0.7818609E-02  0.1020597E+00
       -2   -1    0    0    0  501  0.00000000000E+00  0.00000000000E+00  0.37573184619E+02  0.37573184705E+02  0.25500000920E-02 0.  1.
        2   -1    0    0  501    0  0.00000000000E+00  0.00000000000E+00 -0.14994486160E+04  0.14994486160E+04  0.25500000920E-02 0. -1.
    10030    2    1    2    0    0  0.00000000000E+00  0.00000000000E+00 -0.14618754314E+04  0.15370218007E+04  0.47471700936E+03 0.  0.
        5    1    3    3  502    0  0.11603811455E+03  0.18735400581E+03 -0.10159824081E+04  0.10396195031E+04  0.46999998093E+01 0.  1.
       -5    1    3    3    0  502 -0.11603811455E+03 -0.18735400581E+03 -0.44589302327E+03  0.49740229766E+03  0.46999998093E+01 0. -1.
</event>
<event>
 5   0  0.7812547E-02  0.4993527E+03  0.7818609E-02  0.1013948E+00
       -1   -1    0    0    0  501  0.00000000000E+00  0.00000000000E+00  0.15460559168E+03  0.15460559176E+03  0.50400001928E-02 0. -1.
        1   -1    0    0  501    0  0.00000000000E+00  0.00000000000E+00 -0.40320847579E+03  0.40320847582E+03  0.50400001928E-02 0.  1.
    10030    2    1    2    0    0  0.00000000000E+00  0.00000000000E+00 -0.24860288411E+03  0.55781406758E+03  0.49935272103E+03 0.  0.
        4    1    3    3  502    0  0.57786066294E+02 -0.59485344239E+02  0.13876642907E+03  0.16166468499E+03  0.12699999809E+01 0. -1.
       -4    1    3    3    0  502 -0.57786066294E+02  0.59485344239E+02 -0.38736931318E+03  0.39614938259E+03  0.12699999809E+01 0.  1.
</event>
<event>
 5   0  0.7531632E-02  0.5196111E+03  0.7818609E-02  0.1008783E+00
        1   -1    0    0  501    0  0.00000000000E+00  0.00000000000E+00  0.17257127360E+03  0.17257127368E+03  0.50400001928E-02 0.  1.
       -1   -1    0    0    0  501  0.00000000000E+00  0.00000000000E+00 -0.39113653618E+03  0.39113653621E+03  0.50400001928E-02 0. -1.
    10030    2    1    2    0    0  0.00000000000E+00  0.00000000000E+00 -0.21856526257E+03  0.56370780988E+03  0.51961112471E+03 0.  0.
        3    1    3    3  502    0 -0.25311793049E+02 -0.55707795580E+02  0.16464277178E+03  0.17564537528E+03  0.10100000352E+00 0.  1.
       -3    1    3    3    0  502  0.25311793049E+02  0.55707795580E+02 -0.38320803436E+03  0.38806243460E+03  0.10100000352E+00 0. -1.
</event>
<event>
 5   0  0.1231822E-01  0.5321833E+03  0.7818609E-02  0.1005704E+00
       -2   -1    0    0    0  501  0.00000000000E+00  0.00000000000E+00  0.59617335624E+02  0.59617335679E+02  0.25500000920E-02 0.  1.
        2   -1    0    0  501    0  0.00000000000E+00  0.00000000000E+00 -0.11876539180E+04  0.11876539180E+04  0.25500000920E-02 0. -1.
    10030    2    1    2    0    0  0.00000000000E+00  0.00000000000E+00 -0.11280365824E+04  0.12472712537E+04  0.53218328524E+03 0.  0.
        1    1    3    3  502    0 -0.99752718715E+02  0.50757864623E+02  0.17664678892E+01  0.11193786735E+03  0.50400001928E-02 0.  1.
       -1    1    3    3    0  502  0.99752718715E+02 -0.50757864623E+02 -0.11298030503E+04  0.11353333863E+04  0.50400001928E-02 0. -1.
</event>
<event>
 5   0  0.1243803E-01  0.5010163E+03  0.7818609E-02  0.1013514E+00
       -2   -1    0    0    0  501  0.00000000000E+00  0.00000000000E+00  0.44404819530E+02  0.44404819603E+02  0.25500000920E-02 0. -1.
        2   -1    0    0  501    0  0.00000000000E+00  0.00000000000E+00 -0.14132325353E+04  0.14132325353E+04  0.25500000920E-02 0.  1.
    10030    2    1    2    0    0  0.00000000000E+00  0.00000000000E+00 -0.13688277158E+04  0.14576373549E+04  0.50101631007E+03 0.  0.
        4    1    3    3  502    0  0.20663745663E+03  0.95905580044E+02 -0.38128406442E+03  0.44415770786E+03  0.12699999809E+01 0. -1.
       -4    1    3    3    0  502 -0.20663745663E+03 -0.95905580044E+02 -0.98754365136E+03  0.10134796471E+04  0.12699999809E+01 0.  1.
</event>
<event>
 5   0  0.1191894E-01  0.5033837E+03  0.7818609E-02  0.1012899E+00
        2   -1    0    0  501    0  0.00000000000E+00  0.00000000000E+00  0.81842975180E+03  0.81842975181E+03  0.25500000920E-02 0.  1.
       -2   -1    0    0    0  501  0.00000000000E+00  0.00000000000E+00 -0.77402830953E+02  0.77402830995E+02  0.25500000920E-02 0. -1.
    10030    2    1    2    0    0  0.00000000000E+00  0.00000000000E+00  0.74102692085E+03  0.89583258280E+03  0.50338366977E+03 0.  0.
        3    1    3    3  502    0  0.22413592471E+03 -0.45668265775E+02  0.18364243427E+03  0.29333778671E+03  0.10100000352E+00 0. -1.
       -3    1    3    3    0  502 -0.22413592471E+03  0.45668265775E+02  0.55738448658E+03  0.60249479610E+03  0.10100000352E+00 0.  1.
</event>
<event>
 5   0  0.7781754E-02  0.5019246E+03  0.7818609E-02  0.1013278E+00
        1   -1    0    0  501    0  0.00000000000E+00  0.00000000000E+00  0.29591882922E+03  0.29591882926E+03  0.50400001928E-02 0. -1.
       -1   -1    0    0    0  501  0.00000000000E+00  0.00000000000E+00 -0.21283569028E+03  0.21283569034E+03  0.50400001928E-02 0.  1.
    10030    2    1    2    0    0  0.00000000000E+00  0.00000000000E+00  0.83083138931E+02  0.50875451960E+03  0.50192464897E+03 0.  0.
        2    1    3    3  502    0 -0.10936445334E+03  0.22412052993E+03  0.70057872221E+02  0.25903416967E+03  0.25500000920E-02 0. -1.
       -2    1    3    3    0  502  0.10936445334E+03 -0.22412052993E+03  0.13025266710E+02  0.24972034993E+03  0.25500000920E-02 0.  1.
</event>
<event>
 5   0  0.7781754E-02  0.5338300E+03  0.7818609E-02  0.1005307E+00
       -1   -1    0    0    0  501  0.00000000000E+00  0.00000000000E+00  0.50345597443E+03  0.50345597445E+03  0.50400001928E-02 0.  1.
        1   -1    0    0  501    0  0.00000000000E+00  0.00000000000E+00 -0.14150913945E+03  0.14150913954E+03  0.50400001928E-02 0. -1.
    10030    2    1    2    0    0  0.00000000000E+00  0.00000000000E+00  0.36194683498E+03  0.64496511399E+03  0.53383001687E+03 0.  0.
        2    1    3    3  502    0  0.15589507871E+02 -0.10526177117E+03  0.47672094615E+03  0.48845259108E+03  0.25500000920E-02 0.  1.
       -2    1    3    3    0  502 -0.15589507871E+02  0.10526177117E+03 -0.11477411117E+03  0.15651252291E+03  0.25500000920E-02 0. -1.
</event>
<event>
 5   0  0.1211345E-01  0.4962157E+03  0.7818609E-02  0.1014771E+00
       -2   -1    0    0    0  501  0.00000000000E+00  0.00000000000E+00  0.30822714716E+02  0.30822714821E+02  0.25500000920E-02 0.  1.
        2   -1    0    0  501    0  0.00000000000E+00  0.00000000000E+00 -0.19971473782E+04  0.19971473782E+04  0.25500000920E-02 0. -1.
    10030    2    1    2    0    0  0.00000000000E+00  0.00000000000E+00 -0.19663246635E+04  0.20279700930E+04  0.49621569500E+03 0.  0.
        5    1    3    3  502    0  0.14546998069E+03  0.13692330474E+03 -0.38215714744E+03  0.43124897913E+03  0.46999998093E+01 0.  1.
       -5    1    3    3    0  502 -0.14546998069E+03 -0.13692330474E+03 -0.15841675160E+04  0.15967211139E+04  0.46999998093E+01 0. -1.
</event>
<event>
 5   0  0.7416638E-02  0.4998243E+03  0.7818609E-02  0.1013825E+00
       -1   -1    0    0    0  501  0.00000000000E+00  0.00000000000E+00  0.71154071328E+02  0.71154071506E+02  0.50400001928E-02 0. -1.
        1   -1    0    0  501    0  0.00000000000E+00  0.00000000000E+00 -0.87775835310E+03  0.87775835311E+03  0.50400001928E-02 0.  1.
    10030    2    1    2    0    0  0.00000000000E+00  0.00000000000E+00 -0.80660428177E+03  0.94891242462E+03  0.49982429135E+03 0.  0.
        1    1    3    3  502    0 -0.11907697255E+03 -0.21605234480E+03 -0.32740662635E+03  0.40994272782E+03  0.50400001928E-02 0. -1.
       -1    1    3    3    0  502  0.11907697255E+03  0.21605234480E+03 -0.47919765542E+03  0.53896969680E+03  0.50400001928E-02 0.  1.
</event>
<event>
 5   0  0.1191894E-01  0.5035407E+03  0.7818609E-02  0.1012859E+00
        2   -1    0    0  501    0  0.00000000000E+00  0.00000000000E+00  0.28536688524E+03  0.28536688525E+03  0.25500000920E-02 0.  1.
       -2   -1    0    0    0  501  0.00000000000E+00  0.00000000000E+00 -0.22212914714E+03  0.22212914715E+03  0.25500000920E-02 0. -1.
    10030    2    1    2    0    0  0.00000000000E+00  0.00000000000E+00  0.63237738107E+02  0.50749603240E+03  0.50354067501E+03 0.  0.
        3    1    3    3  502    0  0.63337703321E+02  0.24162363209E+03 -0.16691201982E+00  0.24978727411E+03  0.10100000352E+00 0.  1.
       -3    1    3    3    0  502 -0.63337703321E+02 -0.24162363209E+03  0.63404650126E+02  0.25770875830E+03  0.10100000352E+00 0. -1.
</event>
<event>
 5   0  0.5006750E-02  0.5165014E+03  0.7818609E-02  0.1009559E+00
        4   -1    0    0  501    0  0.00000000000E+00  0.00000000000E+00  0.63782507304E+03  0.63782633742E+03  0.12699999809E+01 0. -1.
       -4   -1    0    0    0  501  0.00000000000E+00  0.00000000000E+00 -0.10455858708E+03  0.10456629969E+03  0.12699999809E+01 0.  1.
    10030    2    1    2    0    0  0.00000000000E+00  0.00000000000E+00  0.53326648597E+03  0.74239263711E+03  0.51650138682E+03 0.  0.
        1    1    3    3  502    0 -0.18889908322E+03  0.17281712466E+03  0.31526575151E+03  0.40612943296E+03  0.50400001928E-02 0. -1.
       -1    1    3    3    0  502  0.18889908322E+03 -0.17281712466E+03  0.21800073445E+03  0.33626320415E+03  0.50400001928E-02 0.  1.
</event>
<event>
 5   0  0.7812547E-02  0.4939416E+03  0.7818609E-02  0.1015372E+00
       -1   -1    0    0    0  501  0.00000000000E+00  0.00000000000E+00  0.71952903592E+02  0.71952903769E+02  0.50400001928E-02 0.  1.
        1   -1    0    0  501    0  0.00000000000E+00  0.00000000000E+00 -0.84770136690E+03  0.84770136692E+03  0.50400001928E-02 0. -1.
    10030    2    1    2    0    0  0.00000000000E+00  0.00000000000E+00 -0.77574846331E+03  0.91965427068E+03  0.49394159499E+03 0.  0.
        4    1    3    3  502    0  0.81626680977E+02  0.70856829580E+02 -0.80131534353E+03  0.80857374309E+03  0.12699999809E+01 0. -1.
       -4    1    3    3    0  502 -0.81626680977E+02 -0.70856829580E+02  0.25566880221E+02  0.11108052759E+03  0.12699999809E+01 0.  1.
</event>
<event>
 5   0  0.7602288E-02  0.4934571E+03  0.7818609E-02  0.1015501E+00
       -1   -1    0    0    0  501  0.00000000000E+00  0.00000000000E+00  0.61713266685E+02  0.61713266891E+02  0.50400001928E-02 0.  1.
        1   -1    0    0  501    0  0.00000000000E+00  0.00000000000E+00 -0.98641632535E+03  0.98641632536E+03  0.50400001928E-02 0. -1.
    10030    2    1    2    0    0  0.00000000000E+00  0.00000000000E+00 -0.92470305867E+03  0.10481295923E+04  0.49345708573E+03 0.  0.
        5    1    3    3  502    0 -0.14043913658E+03 -0.19237705346E+03 -0.59870194661E+03  0.64435874531E+03  0.46999998093E+01 0. -1.
       -5    1    3    3    0  502  0.14043913658E+03  0.19237705346E+03 -0.32600111206E+03  0.40377084695E+03  0.46999998093E+01 0.  1.
</event>
<event>
 5   0  0.1243803E-01  0.4995148E+03  0.7818609E-02  0.1013906E+00
       -2   -1    0    0    0  501  0.00000000000E+00  0.00000000000E+00  0.36362749318E+02  0.36362749407E+02  0.25500000920E-02 0.  1.
        2   -1    0    0  501    0  0.00000000000E+00  0.00000000000E+00 -0.17154575593E+04  0.17154575593E+04  0.25500000920E-02 0. -1.
    10030    2    1    2    0    0  0.00000000000E+00  0.00000000000E+00 -0.16790948100E+04  0.17518203087E+04  0.49951477766E+03 0.  0.
        4    1    3    3  502    0  0.91823291457E+02 -0.23013604640E+03 -0.72959032389E+03  0.77051785853E+03  0.12699999809E+01 0.  1.
       -4    1    3    3    0  502 -0.91823291457E+02  0.23013604640E+03 -0.94950448609E+03  0.98130245017E+03  0.12699999809E+01 0. -1.
</event>
<event>
 5   0  0.7602288E-02  0.4975322E+03  0.7818609E-02  0.1014425E+00
       -1   -1    0    0    0  501  0.00000000000E+00  0.00000000000E+00  0.10510761775E+03  0.10510761787E+03  0.50400001928E-02 0. -1.
        1   -1    0    0  501    0  0.00000000000E+00  0.00000000000E+00 -0.58877342012E+03  0.58877342014E+03  0.50400001928E-02 0.  1.
    10030    2    1    2    0    0  0.00000000000E+00  0.00000000000E+00 -0.48366580238E+03  0.69388103801E+03  0.49753219647E+03 0.  0.
        5    1    3    3  502    0  0.18377861974E+02 -0.10679790846E+03 -0.55405581974E+03  0.56457371569E+03  0.46999998093E+01 0.  1.
       -5    1    3    3    0  502 -0.18377861974E+02  0.10679790846E+03  0.70390017367E+02  0.12930732232E+03  0.46999998093E+01 0. -1.
</event>
<event>
 5   0  0.1279188E-01  0.5328869E+03  0.7818609E-02  0.1005534E+00
        2   -1    0    0  501    0  0.00000000000E+00  0.00000000000E+00  0.24734026058E+03  0.24734026059E+03  0.25500000920E-02 0.  1.
       -2   -1    0    0    0  501  0.00000000000E+00  0.00000000000E+00 -0.28702205858E+03  0.28702205859E+03  0.25500000920E-02 0. -1.
    10030    2    1    2    0    0  0.00000000000E+00  0.00000000000E+00 -0.39681798001E+02  0.53436231918E+03  0.53288689519E+03 0.  0.
        2    1    3    3  502    0  0.23279850482E+03 -0.44279641048E+02  0.10230061552E+03  0.25811091879E+03  0.25500000920E-02 0.  1.
       -2    1    3    3    0  502 -0.23279850482E+03  0.44279641048E+02 -0.14198241352E+03  0.27625140038E+03  0.25500000920E-02 0. -1.
</event>
<event>
 5   0  0.7781754E-02  0.5003107E+03  0.7818609E-02  0.1013698E+00
        1   -1    0    0  501    0  0.00000000000E+00  0.00000000000E+00  0.32479069112E+03  0.32479069116E+03  0.50400001928E-02 0. -1.
       -1   -1    0    0    0  501  0.00000000000E+00  0.00000000000E+00 -0.19267087376E+03  0.19267087382E+03  0.50400001928E-02 0.  1.
    10030    2    1    2    0    0  0.00000000000E+00  0.00000000000E+00  0.13211981736E+03  0.51746156498E+03  0.50031072854E+03 0.  0.
        2    1    3    3  502    0 -0.23142477055E+03  0.47864195063E+02  0.15090432153E+03  0.28039350894E+03  0.25500000920E-02 0. -1.
       -2    1    3    3    0  502  0.23142477055E+03 -0.47864195063E+02 -0.18784504171E+02  0.23706805604E+03  0.25500000920E-02 0.  1.
</event>
<event>
 5   0  0.7812547E-02  0.5002190E+03  0.7818609E-02  0.1013722E+00
       -1   -1    0    0    0  501  0.00000000000E+00  0.00000000000E+00  0.81971392180E+03  0.81971392181E+03  0.50400001928E-02 0. -1.
        1   -1    0    0  501    0  0.00000000000E+00  0.00000000000E+00 -0.76312932689E+02  0.76312932855E+02  0.50400001928E-02 0.  1.
    10030    2    1    2    0    0  0.00000000000E+00  0.00000000000E+00  0.74340098911E+03  0.89602685467E+03  0.50021904570E+03 0.  0.
        4    1    3    3  502    0 -0.67170377757E+02  0.12196632916E+03 -0.45914136861E+00  0.13924607286E+03  0.12699999809E+01 0.  1.
       -4    1    3    3    0  502  0.67170377757E+02 -0.12196632916E+03  0.74386013048E+03  0.75678078181E+03  0.12699999809E+01 0. -1.
</event>
<event>
 5   0  0.1279188E-01  0.4994511E+03  0.7818609E-02  0.1013922E+00
       -2   -1    0    0    0  501  0.00000000000E+00  0.00000000000E+00  0.45106788063E+02  0.45106788135E+02  0.25500000920E-02 0.  1.
        2   -1    0    0  501    0  0.00000000000E+00  0.00000000000E+00 -0.13825603541E+04  0.13825603541E+04  0.25500000920E-02 0. -1.
    10030    2    1    2    0    0  0.00000000000E+00  0.00000000000E+00 -0.13374535660E+04  0.14276671422E+04  0.49945112645E+03 0.  0.
        2    1    3    3  502    0  0.11972459136E+03 -0.21104047195E+03 -0.83761383234E+03  0.87204873184E+03  0.25500000920E-02 0. -1.
       -2    1    3    3    0  502 -0.11972459136E+03  0.21104047195E+03 -0.49983973366E+03  0.55561841036E+03  0.25500000920E-02 0.  1.
</event>
<event>
 5   0  0.1231822E-01  0.4986703E+03  0.7818609E-02  0.1014127E+00
       -2   -1    0    0    0  501  0.00000000000E+00  0.00000000000E+00  0.48386361631E+02  0.48386361698E+02  0.25500000920E-02 0.  1.
        2   -1    0    0  501    0  0.00000000000E+00  0.00000000000E+00 -0.12848250715E+04  0.12848250715E+04  0.25500000920E-02 0. -1.
    10030    2    1    2    0    0  0.00000000000E+00  0.00000000000E+00 -0.12364387099E+04  0.13332114332E+04  0.49867027419E+03 0.  0.
        1    1    3    3  502    0  0.82795045680E+02 -0.86670228571E+02 -0.33691472611E+02  0.12450647960E+03  0.50400001928E-02 0.  1.
       -1    1    3    3    0  502 -0.82795045680E+02  0.86670228571E+02 -0.12027472373E+04  0.12087049537E+04  0.50400001928E-02 0. -1.
</event>
<event>
 5   0  0.5006750E-02  0.5043836E+03  0.7818609E-02  0.1012641E+00
       -3   -1    0    0    0  501  0.00000000000E+00  0.00000000000E+00  0.98993107404E+02  0.98993158928E+02  0.10100000352E+00 0. -1.
        3   -1    0    0  501    0  0.00000000000E+00  0.00000000000E+00 -0.64247594087E+03  0.64247594881E+03  0.10100000352E+00 0.  1.
    10030    2    1    2    0    0  0.00000000000E+00  0.00000000000E+00 -0.54348283347E+03  0.74146910774E+03  0.50438363123E+03 0.  0.
        3    1    3    3  502    0 -0.22770039509E+03 -0.67794419373E+02 -0.14737529543E+03  0.27957653894E+03  0.10100000352E+00 0. -1.
       -3    1    3    3    0  502  0.22770039509E+03  0.67794419373E+02 -0.39610753804E+03  0.46189256880E+03  0.10100000352E+00 0.  1.
</event>
<event>
 5   0  0.7781754E-02  0.5170071E+03  0.7818609E-02  0.1009433E+00
       -1   -1    0    0    0  501  0.00000000000E+00  0.00000000000E+00  0.66970511403E+02  0.66970511593E+02  0.50400001928E-02 0.  1.
        1   -1    0    0  501    0  0.00000000000E+00  0.00000000000E+00 -0.99781364058E+03  0.99781364059E+03  0.50400001928E-02 0. -1.
    10030    2    1    2    0    0  0.00000000000E+00  0.00000000000E+00 -0.93084312917E+03  0.10647841522E+04  0.51700711756E+03 0.  0.
        2    1    3    3  502    0  0.12588772028E+03  0.21433343142E+03 -0.61159714459E+03  0.66017997941E+03  0.25500000920E-02 0. -1.
       -2    1    3    3    0  502 -0.12588772028E+03 -0.21433343142E+03 -0.31924598459E+03  0.40460417277E+03  0.25500000920E-02 0.  1.
</event>
<event>
 5   0  0.7416638E-02  0.4997383E+03  0.7818609E-02  0.1013847E+00
       -1   -1    0    0    0  501  0.00000000000E+00  0.00000000000E+00  0.72422022353E+02  0.72422022528E+02  0.50400001928E-02 0. -1.
        1   -1    0    0  501    0  0.00000000000E+00  0.00000000000E+00 -0.86209396428E+03  0.86209396429E+03  0.50400001928E-02 0.  1.
    10030    2    1    2    0    0  0.00000000000E+00  0.00000000000E+00 -0.78967194192E+03  0.93451598682E+03  0.49973828526E+03 0.  0.
        1    1    3    3  502    0  0.20904718505E+03  0.13195460582E+03 -0.46282429768E+03  0.52470856113E+03  0.50400001928E-02 0. -1.
       -1    1    3    3    0  502 -0.20904718505E+03 -0.13195460582E+03 -0.32684764425E+03  0.40980742569E+03  0.50400001928E-02 0.  1.
</event>
<event>
 5   0  0.7812547E-02  0.5032328E+03  0.7818609E-02  0.1012939E+00
       -1   -1    0    0    0  501  0.00000000000E+00  0.00000000000E+00  0.37250313214E+03  0.37250313217E+03  0.50400001928E-02 0.  1.
        1   -1    0    0  501    0  0.00000000000E+00  0.00000000000E+00 -0.16996047166E+03  0.16996047173E+03  0.50400001928E-02 0. -1.
    10030    2    1    2    0    0  0.00000000000E+00  0.00000000000E+00  0.20254266048E+03  0.54246360391E+03  0.50323278137E+03 0.  0.
        4    1    3    3  502    0 -0.13166083512E+02 -0.25111541942E+03  0.91818709139E+02  0.26770242411E+03  0.12699999809E+01 0.  1.
       -4    1    3    3    0  502  0.13166083512E+02  0.25111541942E+03  0.11072395134E+03  0.27476117980E+03  0.12699999809E+01 0. -1.
</event>
<event>
 5   0  0.1243803E-01  0.4954552E+03  0.7818609E-02  0.1014972E+00
       -2   -1    0    0    0  501  0.00000000000E+00  0.00000000000E+00  0.36574568096E+02  0.36574568185E+02  0.25500000920E-02 0.  1.
        2   -1    0    0  501    0  0.00000000000E+00  0.00000000000E+00 -0.16779137190E+04  0.16779137190E+04  0.25500000920E-02 0. -1.
    10030    2    1    2    0    0  0.00000000000E+00  0.00000000000E+00 -0.16413391509E+04  0.17144882872E+04  0.49545522362E+03 0.  0.
        4    1    3    3  502    0 -0.17698920258E+03 -0.12456661942E+03 -0.12377244564E+04  0.12565052580E+04  0.12699999809E+01 0. -1.
       -4    1    3    3    0  502  0.17698920258E+03  0.12456661942E+03 -0.40361469451E+03  0.45798302920E+03  0.12699999809E+01 0.  1.
</event>
<event>
 5   0  0.7531632E-02  0.4784910E+03  0.7818609E-02  0.1019551E+00
       -1   -1    0    0    0  501  0.00000000000E+00  0.00000000000E+00  0.89896261042E+02  0.89896261183E+02  0.50400001928E-02 0. -1.
        1   -1    0    0  501    0  0.00000000000E+00  0.00000000000E+00 -0.63671619929E+03  0.63671619931E+03  0.50400001928E-02 0.  1.
    10030    2    1    2    0    0  0.00000000000E+00  0.00000000000E+00 -0.54681993824E+03  0.72661246049E+03  0.47849098516E+03 0.  0.
        3    1    3    3  502    0  0.15504592308E+03 -0.18138635531E+03 -0.29963068637E+03  0.38303890999E+03  0.10100000352E+00 0.  1.
       -3    1    3    3    0  502 -0.15504592308E+03  0.18138635531E+03 -0.24718925188E+03  0.34357355049E+03  0.10100000352E+00 0. -1.
</event>
<event>
 5   0  0.7416638E-02  0.5019358E+03  0.7818609E-02  0.1013275E+00
        1   -1    0    0  501    0  0.00000000000E+00  0.00000000000E+00  0.58552989950E+02  0.58552990166E+02  0.50400001928E-02 0.  1.
       -1   -1    0    0    0  501  0.00000000000E+00  0.00000000000E+00 -0.10756904085E+04  0.10756904085E+04  0.50400001928E-02 0. -1.
    10030    2    1    2    0    0  0.00000000000E+00  0.00000000000E+00 -0.10171374185E+04  0.11342433987E+04  0.50193581186E+03 0.  0.
        1    1    3    3  502    0 -0.12896462951E+03 -0.70006860441E+02 -0.96864632430E+03  0.97969818709E+03  0.50400001928E-02 0. -1.
       -1    1    3    3    0  502  0.12896462951E+03  0.70006860441E+02 -0.48491094229E+02  0.15454521157E+03  0.50400001928E-02 0.  1.
</event>
<event>
 5   0  0.7416638E-02  0.5062453E+03  0.7818609E-02  0.1012162E+00
        1   -1    0    0  501    0  0.00000000000E+00  0.00000000000E+00  0.44235330894E+03  0.44235330897E+03  0.50400001928E-02 0. -1.
       -1   -1    0    0    0  501  0.00000000000E+00  0.00000000000E+00 -0.14484140748E+03  0.14484140757E+03  0.50400001928E-02 0.  1.
    10030    2    1    2    0    0  0.00000000000E+00  0.00000000000E+00  0.29751190146E+03  0.58719471654E+03  0.50624529985E+03 0.  0.
        1    1    3    3  502    0 -0.56651040516E+02 -0.24345139571E+03  0.19505263996E+03  0.31705434052E+03  0.50400001928E-02 0.  1.
       -1    1    3    3    0  502  0.56651040516E+02  0.24345139571E+03  0.10245926151E+03  0.27014037602E+03  0.50400001928E-02 0. -1.
</event>
<event>
 5   0  0.1243803E-01  0.5054887E+03  0.7818609E-02  0.1012356E+00
       -2   -1    0    0    0  501  0.00000000000E+00  0.00000000000E+00  0.57677894364E+02  0.57677894421E+02  0.25500000920E-02 0. -1.
        2   -1    0    0  501    0  0.00000000000E+00  0.00000000000E+00 -0.11075249330E+04  0.11075249330E+04  0.25500000920E-02 0.  1.
    10030    2    1    2    0    0  0.00000000000E+00  0.00000000000E+00 -0.10498470386E+04  0.11652028274E+04  0.50548869869E+03 0.  0.
        4    1    3    3  502    0 -0.21745781030E+02  0.23940245767E+03 -0.70483485620E+03  0.74470141879E+03  0.12699999809E+01 0.  1.
       -4    1    3    3    0  502  0.21745781030E+02 -0.23940245767E+03 -0.34501218242E+03  0.42050140862E+03  0.12699999809E+01 0. -1.
</event>
<event>
 5   0  0.1191894E-01  0.4982213E+03  0.7818609E-02  0.1014244E+00
       -2   -1    0    0    0  501  0.00000000000E+00  0.00000000000E+00  0.26912742015E+03  0.26912742016E+03  0.25500000920E-02 0. -1.
        2   -1    0    0  501    0  0.00000000000E+00  0.00000000000E+00 -0.23058261941E+03  0.23058261942E+03  0.25500000920E-02 0.  1.
    10030    2    1    2    0    0  0.00000000000E+00  0.00000000000E+00  0.38544800745E+02  0.49971003958E+03  0.49822125807E+03 0.  0.
        3    1    3    3  502    0  0.23682914054E+03  0.75749375458E+02  0.40585007071E+01  0.24868150578E+03  0.10100000352E+00 0. -1.
       -3    1    3    3    0  502 -0.23682914054E+03 -0.75749375458E+02  0.34486300038E+02  0.25102853380E+03  0.10100000352E+00 0.  1.
</event>
<event>
 5   0  0.5006750E-02  0.5035284E+03  0.7818609E-02  0.1012862E+00
        3   -1    0    0  501    0  0.00000000000E+00  0.00000000000E+00  0.11121275807E+03  0.11121280393E+03  0.10100000352E+00 0. -1.
       -3   -1    0    0    0  501  0.00000000000E+00  0.00000000000E+00 -0.56994543696E+03  0.56994544591E+03  0.10100000352E+00 0.  1.
    10030    2    1    2    0    0  0.00000000000E+00  0.00000000000E+00 -0.45873267889E+03  0.68115824984E+03  0.50352844074E+03 0.  0.
        4    1    3    3  502    0  0.89480965993E+02 -0.69038214020E+02  0.74963328802E+02  0.13562533626E+03  0.12699999809E+01 0. -1.
       -4    1    3    3    0  502 -0.89480965993E+02  0.69038214020E+02 -0.53369600769E+03  0.54553291358E+03  0.12699999809E+01 0.  1.
</event>
<event>
 5   0  0.1211345E-01  0.5019484E+03  0.7818609E-02  0.1013272E+00
       -2   -1    0    0    0  501  0.00000000000E+00  0.00000000000E+00  0.10724807195E+03  0.10724807198E+03  0.25500000920E-02 0. -1.
        2   -1    0    0  501    0  0.00000000000E+00  0.00000000000E+00 -0.58731161268E+03  0.58731161268E+03  0.25500000920E-02 0.  1.
    10030    2    1    2    0    0  0.00000000000E+00  0.00000000000E+00 -0.48006354073E+03  0.69455968466E+03  0.50194835632E+03 0.  0.
        5    1    3    3  502    0  0.12317248679E+03 -0.18897783515E+03 -0.87935867969E+02  0.24215468311E+03  0.46999998093E+01 0. -1.
       -5    1    3    3    0  502 -0.12317248679E+03  0.18897783515E+03 -0.39212767276E+03  0.45240500154E+03  0.46999998093E+01 0.  1.
</event>
<event>
 5   0  0.1191894E-01  0.5036628E+03  0.7818609E-02  0.1012827E+00
        2   -1    0    0  501    0  0.00000000000E+00  0.00000000000E+00  0.70140553782E+03  0.70140553782E+03  0.25500000920E-02 0. -1.
       -2   -1    0    0    0  501  0.00000000000E+00  0.00000000000E+00 -0.90417095582E+02  0.90417095618E+02  0.25500000920E-02 0.  1.
    10030    2    1    2    0    0  0.00000000000E+00  0.00000000000E+00  0.61098844224E+03  0.79182263344E+03  0.50366279025E+03 0.  0.
        3    1    3    3  502    0 -0.20333588966E+03  0.14855831709E+03  0.30235635010E+03  0.39349006372E+03  0.10100000352E+00 0.  1.
       -3    1    3    3    0  502  0.20333588966E+03 -0.14855831709E+03  0.30863209213E+03  0.39833256972E+03  0.10100000352E+00 0. -1.
</event>
<event>
 5   0  0.7531632E-02  0.4975240E+03  0.7818609E-02  0.1014427E+00
        1   -1    0    0  501    0  0.00000000000E+00  0.00000000000E+00  0.50849427987E+03  0.50849427990E+03  0.50400001928E-02 0.  1.
       -1   -1    0    0    0  501  0.00000000000E+00  0.00000000000E+00 -0.12169757619E+03  0.12169757630E+03  0.50400001928E-02 0. -1.
    10030    2    1    2    0    0  0.00000000000E+00  0.00000000000E+00  0.38679670368E+03  0.63019185619E+03  0.49752395484E+03 0.  0.
        3    1    3    3  502    0  0.12255570441E+02  0.19111051069E+03  0.39451004904E+03  0.43853348252E+03  0.10100000352E+00 0.  1.
       -3    1    3    3    0  502 -0.12255570441E+02 -0.19111051069E+03 -0.77133453587E+01  0.19165837367E+03  0.10100000352E+00 0. -1.
</event>
<event>
 5   0  0.1211345E-01  0.4988896E+03  0.7818609E-02  0.1014069E+00
        2   -1    0    0  501    0  0.00000000000E+00  0.00000000000E+00  0.49269318643E+03  0.49269318643E+03  0.25500000920E-02 0.  1.
       -2   -1    0    0    0  501  0.00000000000E+00  0.00000000000E+00 -0.12629100520E+03  0.12629100523E+03  0.25500000920E-02 0. -1.
    10030    2    1    2    0    0  0.00000000000E+00  0.00000000000E+00  0.36640218123E+03  0.61898419166E+03  0.49888963822E+03 0.  0.
        5    1    3    3  502    0 -0.15643779697E+03 -0.80664272892E+02  0.40243074686E+03  0.43926313897E+03  0.46999998093E+01 0.  1.
       -5    1    3    3    0  502  0.15643779697E+03  0.80664272892E+02 -0.36028565630E+02  0.17972105269E+03  0.46999998093E+01 0. -1.
</event>
<event>
 5   0  0.1279188E-01  0.4385263E+03  0.7818609E-02  0.1031200E+00
        2   -1    0    0  501    0  0.00000000000E+00  0.00000000000E+00  0.54011795245E+03  0.54011795245E+03  0.25500000920E-02 0.  1.
       -2   -1    0    0    0  501  0.00000000000E+00  0.00000000000E+00 -0.89010805623E+02  0.89010805660E+02  0.25500000920E-02 0. -1.
    10030    2    1    2    0    0  0.00000000000E+00  0.00000000000E+00  0.45110714682E+03  0.62912875811E+03  0.43852632346E+03 0.  0.
        2    1    3    3  502    0  0.18874873616E+03 -0.63305099869E+02  0.35737465881E+03  0.40908467074E+03  0.25500000920E-02 0.  1.
       -2    1    3    3    0  502 -0.18874873616E+03  0.63305099869E+02  0.93732488014E+02  0.22004408737E+03  0.25500000920E-02 0. -1.
</event>
<event>
 5   0  0.1211345E-01  0.5253332E+03  0.7818609E-02  0.1007370E+00
        2   -1    0    0  501    0  0.00000000000E+00  0.00000000000E+00  0.57096926562E+03  0.57096926563E+03  0.25500000920E-02 0.  1.
       -2   -1    0    0    0  501  0.00000000000E+00  0.00000000000E+00 -0.12083617966E+03  0.12083617969E+03  0.25500000920E-02 0. -1.
    10030    2    1    2    0    0  0.00000000000E+00  0.00000000000E+00  0.45013308596E+03  0.69180544532E+03  0.52533320769E+03 0.  0.
        5    1    3    3  502    0  0.12385165379E+03 -0.14869145911E+03  0.45887745204E+03  0.49803512743E+03  0.46999998093E+01 0.  1.
       -5    1    3    3    0  502 -0.12385165379E+03  0.14869145911E+03 -0.87443660867E+01  0.19377031789E+03  0.46999998093E+01 0. -1.
</event>
<event>
 5   0  0.7416638E-02  0.5246838E+03  0.7818609E-02  0.1007530E+00
       -1   -1    0    0    0  501  0.00000000000E+00  0.00000000000E+00  0.77328783017E+02  0.77328783181E+02  0.50400001928E-02 0. -1.
        1   -1    0    0  501    0  0.00000000000E+00  0.00000000000E+00 -0.89000859462E+03  0.89000859463E+03  0.50400001928E-02 0.  1.
    10030    2    1    2    0    0  0.00000000000E+00  0.00000000000E+00 -0.81267981160E+03  0.96733737781E+03  0.52468383464E+03 0.  0.
        1    1    3    3  502    0 -0.30883367217E+02  0.25532526462E+03 -0.50175713356E+03  0.56383064321E+03  0.50400001928E-02 0.  1.
       -1    1    3    3    0  502  0.30883367217E+02 -0.25532526462E+03 -0.31092267805E+03  0.40350673461E+03  0.50400001928E-02 0. -1.
</event>
<event>
 5   0  0.5006750E-02  0.5026150E+03  0.7818609E-02  0.1013099E+00
       -3   -1    0    0    0  501  0.00000000000E+00  0.00000000000E+00  0.50150396498E+03  0.50150397515E+03  0.10100000352E+00 0.  1.
        3   -1    0    0  501    0  0.00000000000E+00  0.00000000000E+00 -0.12593209580E+03  0.12593213631E+03  0.10100000352E+00 0. -1.
    10030    2    1    2    0    0  0.00000000000E+00  0.00000000000E+00  0.37557186918E+03  0.62743611146E+03  0.50261500679E+03 0.  0.
        1    1    3    3  502    0  0.22025992561E+03 -0.81625032519E+02  0.29929018710E+03  0.38046247763E+03  0.50400001928E-02 0.  1.
       -1    1    3    3    0  502 -0.22025992561E+03  0.81625032519E+02  0.76281682078E+02  0.24697363383E+03  0.50400001928E-02 0. -1.
</event>
<event>
 5   0  0.1279188E-01  0.5796951E+03  0.7818609E-02  0.9948451E-01
       -2   -1    0    0    0  501  0.00000000000E+00  0.00000000000E+00  0.64312272740E+02  0.64312272790E+02  0.25500000920E-02 0. -1.
        2   -1    0    0  501    0  0.00000000000E+00  0.00000000000E+00 -0.13063075629E+04  0.13063075629E+04  0.25500000920E-02 0.  1.
    10030    2    1    2    0    0  0.00000000000E+00  0.00000000000E+00 -0.12419952901E+04  0.13706198356E+04  0.57969512091E+03 0.  0.
        2    1    3    3  502    0 -0.58786030540E+02  0.24657632603E+03 -0.28867030861E+03  0.38416953162E+03  0.25500000920E-02 0. -1.
       -2    1    3    3    0  502  0.58786030540E+02 -0.24657632603E+03 -0.95332498151E+03  0.98645030403E+03  0.25500000920E-02 0.  1.
</event>
<event>
 5   0  0.7602288E-02  0.4760850E+03  0.7818609E-02  0.1020217E+00
        1   -1    0    0  501    0  0.00000000000E+00  0.00000000000E+00  0.63654990659E+02  0.63654990859E+02  0.50400001928E-02 0. -1.
       -1   -1    0    0    0  501  0.00000000000E+00  0.00000000000E+00 -0.89017724258E+03  0.89017724259E+03  0.50400001928E-02 0.  1.
    10030    2    1    2    0    0  0.00000000000E+00  0.00000000000E+00 -0.82652225192E+03  0.95383223345E+03  0.47608496789E+03 0.  0.
        5    1    3    3  502    0 -0.14296554952E+02  0.11045165874E+03  0.81307132733E+01  0.11176832691E+03  0.46999998093E+01 0. -1.
       -5    1    3    3    0  502  0.14296554952E+02 -0.11045165874E+03 -0.83465296519E+03  0.84206390655E+03  0.46999998093E+01 0.  1.
</event>
<event>
 5   0  0.7531632E-02  0.5033607E+03  0.7818609E-02  0.1012905E+00
        1   -1    0    0  501    0  0.00000000000E+00  0.00000000000E+00  0.15705626351E+04  0.15705626351E+04  0.50400001928E-02 0. -1.
       -1   -1    0    0    0  501  0.00000000000E+00  0.00000000000E+00 -0.40331408136E+02  0.40331408451E+02  0.50400001928E-02 0.  1.
    10030    2    1    2    0    0  0.00000000000E+00  0.00000000000E+00  0.15302312269E+04  0.16108940435E+04  0.50336071717E+03 0.  0.
        3    1    3    3  502    0  0.11873069549E+02  0.10586580913E+03  0.14948522730E+04  0.14986433424E+04  0.10100000352E+00 0. -1.
       -3    1    3    3    0  502 -0.11873069549E+02 -0.10586580913E+03  0.35378953901E+02  0.11225070113E+03  0.10100000352E+00 0.  1.
</event>
<event>
 5   0  0.1243803E-01  0.4863967E+03  0.7818609E-02  0.1017392E+00
        2   -1    0    0  501    0  0.00000000000E+00  0.00000000000E+00  0.71035624352E+03  0.71035624352E+03  0.25500000920E-02 0.  1.
       -2   -1    0    0    0  501  0.00000000000E+00  0.00000000000E+00 -0.83261671139E+02  0.83261671178E+02  0.25500000920E-02 0. -1.
    10030    2    1    2    0    0  0.00000000000E+00  0.00000000000E+00  0.62709457238E+03  0.79361791470E+03  0.48639674323E+03 0.  0.
        4    1    3    3  502    0 -0.10323205169E+03 -0.10630724162E+03  0.62818376334E+03  0.64542585906E+03  0.12699999809E+01 0.  1.
       -4    1    3    3    0  502  0.10323205169E+03  0.10630724162E+03 -0.10891909640E+01  0.14819205564E+03  0.12699999809E+01 0. -1.
</event>
<event>
 5   0  0.7531632E-02  0.4919966E+03  0.7818609E-02  0.1015889E+00
        1   -1    0    0  501    0  0.00000000000E+00  0.00000000000E+00  0.87865019920E+03  0.87865019921E+03  0.50400001928E-02 0.  1.
       -1   -1    0    0    0  501  0.00000000000E+00  0.00000000000E+00 -0.68872873385E+02  0.68872873570E+02  0.50400001928E-02 0. -1.
    10030    2    1    2    0    0  0.00000000000E+00  0.00000000000E+00  0.80977732581E+03  0.94752307278E+03  0.49199660167E+03 0.  0.
        3    1    3    3  502    0  0.18188542425E+03  0.94432165740E+02  0.14283249550E+03  0.24980166824E+03  0.10100000352E+00 0. -1.
       -3    1    3    3    0  502 -0.18188542425E+03 -0.94432165740E+02  0.66694483031E+03  0.69772140455E+03  0.10100000352E+00 0.  1.
</event>
<event>
 5   0  0.7812547E-02  0.4991687E+03  0.7818609E-02  0.1013996E+00
        1   -1    0    0  501    0  0.00000000000E+00  0.00000000000E+00  0.24309000515E+03  0.24309000520E+03  0.50400001928E-02 0.  1.
       -1   -1    0    0    0  501  0.00000000000E+00  0.00000000000E+00 -0.25625215607E+03  0.25625215612E+03  0.50400001928E-02 0. -1.
    10030    2    1    2    0    0  0.00000000000E+00  0.00000000000E+00 -0.13162150922E+02  0.49934216133E+03  0.49916866074E+03 0.  0.
        4    1    3    3  502    0  0.97661772941E+02  0.34155746874E+02 -0.23378617001E+03  0.25565997561E+03  0.12699999809E+01 0. -1.
       -4    1    3    3    0  502 -0.97661772941E+02 -0.34155746874E+02  0.22062401909E+03  0.24368218572E+03  0.12699999809E+01 0.  1.
</event>
<event>
 5   0  0.7531632E-02  0.4972596E+03  0.7818609E-02  0.1014497E+00
       -1   -1    0    0    0  501  0.00000000000E+00  0.00000000000E+00  0.33459653901E+03  0.33459653905E+03  0.50400001928E-02 0. -1.
        1   -1    0    0  501    0  0.00000000000E+00  0.00000000000E+00 -0.18475020165E+03  0.18475020171E+03  0.50400001928E-02 0.  1.
    10030    2    1    2    0    0  0.00000000000E+00  0.00000000000E+00  0.14984633737E+03  0.51934674077E+03  0.49725960254E+03 0.  0.
        3    1    3    3  502    0  0.21116596668E+03  0.34113162478E+02  0.20728841404E+03  0.29786451640E+03  0.10100000352E+00 0. -1.
       -3    1    3    3    0  502 -0.21116596668E+03 -0.34113162478E+02 -0.57442076667E+02  0.22148222437E+03  0.10100000352E+00 0.  1.
</event>
<event>
 5   0  0.1211345E-01  0.4866697E+03  0.7818609E-02  0.1017318E+00
        2   -1    0    0  501    0  0.00000000000E+00  0.00000000000E+00  0.46758674472E+03  0.46758674473E+03  0.25500000920E-02 0. -1.
       -2   -1    0    0    0  501  0.00000000000E+00  0.00000000000E+00 -0.12663286623E+03  0.12663286626E+03  0.25500000920E-02 0.  1.
    10030    2    1    2    0    0  0.00000000000E+00  0.00000000000E+00  0.34095387849E+03  0.59421961099E+03  0.48666970198E+03 0.  0.
        5    1    3    3  502    0  0.20217698342E+01  0.19273147740E+03 -0.10790970562E+02  0.19310112629E+03  0.46999998093E+01 0.  1.
       -5    1    3    3    0  502 -0.20217698342E+01 -0.19273147740E+03  0.35174484905E+03  0.40111848470E+03  0.46999998093E+01 0. -1.
</event>
<event>
 5   0  0.7812547E-02  0.4929188E+03  0.7818609E-02  0.1015644E+00
       -1   -1    0    0    0  501  0.00000000000E+00  0.00000000000E+00  0.34081042613E+02  0.34081042986E+02  0.50400001928E-02 0.  1.
        1   -1    0    0  501    0  0.00000000000E+00  0.00000000000E+00 -0.17822879354E+04  0.17822879354E+04  0.50400001928E-02 0. -1.
    10030    2    1    2    0    0  0.00000000000E+00  0.00000000000E+00 -0.17482068927E+04  0.18163689784E+04  0.49291878203E+03 0.  0.
        4    1    3    3  502    0  0.14648159715E+03  0.69100739947E+02 -0.15586357377E+04  0.15670286360E+04  0.12699999809E+01 0. -1.
       -4    1    3    3    0  502 -0.14648159715E+03 -0.69100739947E+02 -0.18957115509E+03  0.24934034232E+03  0.12699999809E+01 0.  1.
</event>
<event>
 5   0  0.7602288E-02  0.5150476E+03  0.7818609E-02  0.1009924E+00
        1   -1    0    0  501    0  0.00000000000E+00  0.00000000000E+00  0.11088004494E+03  0.11088004506E+03  0.50400001928E-02 0.  1.
       -1   -1    0    0    0  501  0.00000000000E+00  0.00000000000E+00 -0.59811038910E+03  0.59811038912E+03  0.50400001928E-02 0. -1.
    10030    2    1    2    0    0  0.00000000000E+00  0.00000000000E+00 -0.48723034415E+03  0.70899043418E+03  0.51504759731E+03 0.  0.
        5    1    3    3  502    0  0.52437509968E+02 -0.14571240091E+03 -0.52677930078E+03  0.54909044606E+03  0.46999998093E+01 0. -1.
       -5    1    3    3    0  502 -0.52437509968E+02  0.14571240091E+03  0.39548956626E+02  0.15989998811E+03  0.46999998093E+01 0.  1.
</event>
<event>
 5   0  0.1211345E-01  0.4975739E+03  0.7818609E-02  0.1014414E+00
       -2   -1    0    0    0  501  0.00000000000E+00  0.00000000000E+00  0.31770666028E+03  0.31770666029E+03  0.25500000920E-02 0.  1.
        2   -1    0    0  501    0  0.00000000000E+00  0.00000000000E+00 -0.19481787025E+03  0.19481787026E+03  0.25500000920E-02 0. -1.
    10030    2    1    2    0    0  0.00000000000E+00  0.00000000000E+00  0.12288879004E+03  0.51252453055E+03  0.49757385351E+03 0.  0.
        5    1    3    3  502    0 -0.75365559342E+02  0.72686278505E+01  0.30550263866E+03  0.31478048337E+03  0.46999998093E+01 0.  1.
       -5    1    3    3    0  502  0.75365559342E+02 -0.72686278505E+01 -0.18261384863E+03  0.19774404718E+03  0.46999998093E+01 0. -1.
</event>
<event>
 5   0  0.7602288E-02  0.5054786E+03  0.7818609E-02  0.1012359E+00
       -1   -1    0    0    0  501  0.00000000000E+00  0.00000000000E+00  0.11547643972E+03  0.11547643983E+03  0.50400001928E-02 0. -1.
        1   -1    0    0  501    0  0.00000000000E+00  0.00000000000E+00 -0.55316179877E+03  0.55316179880E+03  0.50400001928E-02 0.  1.
    10030    2    1    2    0    0  0.00000000000E+00  0.00000000000E+00 -0.43768535906E+03  0.66863823862E+03  0.50547860550E+03 0.  0.
        5    1    3    3  502    0 -0.23019856411E+03  0.52293184792E+02 -0.99578532584E+02  0.25624974194E+03  0.46999998093E+01 0. -1.
       -5    1    3    3    0  502  0.23019856411E+03 -0.52293184792E+02 -0.33810682647E+03  0.41238849669E+03  0.46999998093E+01 0.  1.
</event>
<event>
 5   0  0.1243803E-01  0.4913086E+03  0.7818609E-02  0.1016073E+00
       -2   -1    0    0    0  501  0.00000000000E+00  0.00000000000E+00  0.17176303818E+03  0.17176303820E+03  0.25500000920E-02 0.  1.
        2   -1    0    0  501    0  0.00000000000E+00  0.00000000000E+00 -0.35133302381E+03  0.35133302382E+03  0.25500000920E-02 0. -1.
    10030    2    1    2    0    0  0.00000000000E+00  0.00000000000E+00 -0.17956998563E+03  0.52309606202E+03  0.49130856939E+03 0.  0.
        4    1    3    3  502    0 -0.15922409919E+03  0.30291406760E+02  0.10675098271E+03  0.19408057166E+03  0.12699999809E+01 0.  1.
       -4    1    3    3    0  502  0.15922409919E+03 -0.30291406760E+02 -0.28632096834E+03  0.32901549036E+03  0.12699999809E+01 0. -1.
</event>
<event>
 5   0  0.7781754E-02  0.4991778E+03  0.7818609E-02  0.1013994E+00
        1   -1    0    0  501    0  0.00000000000E+00  0.00000000000E+00  0.90324062571E+03  0.90324062572E+03  0.50400001928E-02 0. -1.
       -1   -1    0    0    0  501  0.00000000000E+00  0.00000000000E+00 -0.68967903328E+02  0.68967903512E+02  0.50400001928E-02 0.  1.
    10030    2    1    2    0    0  0.00000000000E+00  0.00000000000E+00  0.83427272238E+03  0.97220852923E+03  0.49917777295E+03 0.  0.
        2    1    3    3  502    0 -0.14132117578E+03 -0.20430996760E+03  0.46405640496E+03  0.52636734756E+03  0.25500000920E-02 0. -1.
       -2    1    3    3    0  502  0.14132117578E+03  0.20430996760E+03  0.37021631742E+03  0.44584118168E+03  0.25500000920E-02 0.  1.
</event>
<event>
 5   0  0.7781754E-02  0.4995317E+03  0.7818609E-02  0.1013901E+00
       -1   -1    0    0    0  501  0.00000000000E+00  0.00000000000E+00  0.60670353145E+02  0.60670353355E+02  0.50400001928E-02 0.  1.
        1   -1    0    0  501    0  0.00000000000E+00  0.00000000000E+00 -0.10282284088E+04  0.10282284088E+04  0.50400001928E-02 0. -1.
    10030    2    1    2    0    0  0.00000000000E+00  0.00000000000E+00 -0.96755805569E+03  0.10888987622E+04  0.49953170389E+03 0.  0.
        2    1    3    3  502    0 -0.14355212433E+03  0.14948309060E+02 -0.39432217432E+02  0.14961806082E+03  0.25500000920E-02 0.  1.
       -2    1    3    3    0  502  0.14355212433E+03 -0.14948309060E+02 -0.92812583826E+03  0.93928070139E+03  0.25500000920E-02 0. -1.
</event>
<event>
 5   0  0.7416638E-02  0.5097932E+03  0.7818609E-02  0.1011254E+00
       -1   -1    0    0    0  501  0.00000000000E+00  0.00000000000E+00  0.80606988696E+02  0.80606988854E+02  0.50400001928E-02 0. -1.
        1   -1    0    0  501    0  0.00000000000E+00  0.00000000000E+00 -0.80603788343E+03  0.80603788344E+03  0.50400001928E-02 0.  1.
    10030    2    1    2    0    0  0.00000000000E+00  0.00000000000E+00 -0.72543089473E+03  0.88664487230E+03  0.50979323901E+03 0.  0.
        1    1    3    3  502    0  0.13599051605E+03 -0.20555716932E+03 -0.47576659336E+03  0.53581808638E+03  0.50400001928E-02 0.  1.
       -1    1    3    3    0  502 -0.13599051605E+03  0.20555716932E+03 -0.24966430137E+03  0.35082678592E+03  0.50400001928E-02 0. -1.
</event>
<event>
 5   0  0.1191894E-01  0.4928739E+03  0.7818609E-02  0.1015656E+00
        2   -1    0    0  501    0  0.00000000000E+00  0.00000000000E+00  0.24367988462E+03  0.24367988464E+03  0.25500000920E-02 0.  1.
       -2   -1    0    0    0  501  0.00000000000E+00  0.00000000000E+00 -0.24922524008E+03  0.24922524010E+03  0.25500000920E-02 0. -1.
    10030    2    1    2    0    0  0.00000000000E+00  0.00000000000E+00 -0.55453554614E+01  0.49290512473E+03  0.49287393015E+03 0.  0.
        3    1    3    3  502    0  0.13073598342E+03 -0.37024417695E+02 -0.20837864384E+03  0.24876570157E+03  0.10100000352E+00 0. -1.
       -3    1    3    3    0  502 -0.13073598342E+03  0.37024417695E+02  0.20283328838E+03  0.24413942316E+03  0.10100000352E+00 0.  1.
</event>
<event>
 5   0  0.7781754E-02  0.5019387E+03  0.7818609E-02  0.1013274E+00
       -1   -1    0    0    0  501  0.00000000000E+00  0.00000000000E+00  0.12671570826E+03  0.12671570836E+03  0.50400001928E-02 0. -1.
        1   -1    0    0  501    0  0.00000000000E+00  0.00000000000E+00 -0.49706236939E+03  0.49706236941E+03  0.50400001928E-02 0.  1.
    10030    2    1    2    0    0  0.00000000000E+00  0.00000000000E+00 -0.37034666113E+03  0.62377807777E+03  0.50193868241E+03 0.  0.
        2    1    3    3  502    0  0.45524410887E+02  0.24178250064E+03 -0.24674042074E+03  0.34844236946E+03  0.25500000920E-02 0.  1.
       -2    1    3    3    0  502 -0.45524410887E+02 -0.24178250064E+03 -0.12360624039E+03  0.27533570831E+03  0.25500000920E-02 0. -1.
</event>
<event>
 5   0  0.5006750E-02  0.5065409E+03  0.7818609E-02  0.1012086E+00
        3   -1    0    0  501    0  0.00000000000E+00  0.00000000000E+00  0.14149660018E+03  0.14149663622E+03  0.10100000352E+00 0.  1.
       -3   -1    0    0    0  501  0.00000000000E+00  0.00000000000E+00 -0.45333879598E+03  0.45333880724E+03  0.10100000352E+00 0. -1.
    10030    2    1    2    0    0  0.00000000000E+00  0.00000000000E+00 -0.31184219581E+03  0.59483544346E+03  0.50654086677E+03 0.  0.
        2    1    3    3  502    0  0.30141428027E+02  0.14372385910E+03 -0.39824126429E+03  0.42445395268E+03  0.25500000920E-02 0. -1.
       -2    1    3    3    0  502 -0.30141428027E+02 -0.14372385910E+03  0.86399068482E+02  0.17038149077E+03  0.25500000920E-02 0.  1.
</event>
<event>
 5   0  0.7781754E-02  0.4799955E+03  0.7818609E-02  0.1019136E+00
       -1   -1    0    0    0  501  0.00000000000E+00  0.00000000000E+00  0.17585518594E+03  0.17585518602E+03  0.50400001928E-02 0. -1.
        1   -1    0    0  501    0  0.00000000000E+00  0.00000000000E+00 -0.32753609489E+03  0.32753609492E+03  0.50400001928E-02 0.  1.
    10030    2    1    2    0    0  0.00000000000E+00  0.00000000000E+00 -0.15168090894E+03  0.50339128094E+03  0.47999550372E+03 0.  0.
        2    1    3    3  502    0  0.17707295486E+03 -0.70363902398E+02  0.77193237868E+02  0.20558381766E+03  0.25500000920E-02 0. -1.
       -2    1    3    3    0  502 -0.17707295486E+03  0.70363902398E+02 -0.22887414681E+03  0.29780746328E+03  0.25500000920E-02 0.  1.
</event>
<event>
 5   0  0.1211345E-01  0.5019710E+03  0.7818609E-02  0.1013266E+00
       -2   -1    0    0    0  501  0.00000000000E+00  0.00000000000E+00  0.12103313520E+03  0.12103313523E+03  0.25500000920E-02 0. -1.
        2   -1    0    0  501    0  0.00000000000E+00  0.00000000000E+00 -0.52046674883E+03  0.52046674884E+03  0.25500000920E-02 0.  1.
    10030    2    1    2    0    0  0.00000000000E+00  0.00000000000E+00 -0.39943361363E+03  0.64149988407E+03  0.50197100470E+03 0.  0.
        5    1    3    3  502    0 -0.15934942571E+03  0.19300799465E+03 -0.17659639614E+03  0.30635388459E+03  0.46999998093E+01 0. -1.
       -5    1    3    3    0  502  0.15934942571E+03 -0.19300799465E+03 -0.22283721749E+03  0.33514599948E+03  0.46999998093E+01 0.  1.
</event>
<event>
 5   0  0.1243803E-01  0.4878259E+03  0.7818609E-02  0.1017006E+00
        2   -1    0    0  501    0  0.00000000000E+00  0.00000000000E+00  0.11877747801E+03  0.11877747804E+03  0.25500000920E-02 0. -1.
       -2   -1    0    0    0  501  0.00000000000E+00  0.00000000000E+00 -0.50088224940E+03  0.50088224940E+03  0.25500000920E-02 0.  1.
    10030    2    1    2    0    0  0.00000000000E+00  0.00000000000E+00 -0.38210477139E+03  0.61965972744E+03  0.48782591311E+03 0.  0.
        4    1    3    3  502    0 -0.32981903733E+02  0.18711786372E+03 -0.38532561259E+03  0.42962581570E+03  0.12699999809E+01 0. -1.
       -4    1    3    3    0  502  0.32981903733E+02 -0.18711786372E+03  0.32208412034E+01  0.19003391175E+03  0.12699999809E+01 0.  1.
</event>
<event>
 5   0  0.7781754E-02  0.4895778E+03  0.7818609E-02  0.1016536E+00
        1   -1    0    0  501    0  0.00000000000E+00  0.00000000000E+00  0.88622788518E+03  0.88622788519E+03  0.50400001928E-02 0. -1.
       -1   -1    0    0    0  501  0.00000000000E+00  0.00000000000E+00 -0.67614209554E+02  0.67614209742E+02  0.50400001928E-02 0.  1.
    10030    2    1    2    0    0  0.00000000000E+00  0.00000000000E+00  0.81861367562E+03  0.95384209494E+03  0.48957776926E+03 0.  0.
        2    1    3    3  502    0 -0.18540379729E+03 -0.15642764366E+03  0.47325790149E+03  0.53180561964E+03  0.25500000920E-02 0. -1.
       -2    1    3    3    0  502  0.18540379729E+03  0.15642764366E+03  0.34535577413E+03  0.42203647530E+03  0.25500000920E-02 0.  1.
</event>
<event>
 5   0  0.7416638E-02  0.5052211E+03  0.7818609E-02  0.1012425E+00
       -1   -1    0    0    0  501  0.00000000000E+00  0.00000000000E+00  0.44473440305E+03  0.44473440307E+03  0.50400001928E-02 0. -1.
        1   -1    0    0  501    0  0.00000000000E+00  0.00000000000E+00 -0.14348356572E+03  0.14348356581E+03  0.50400001928E-02 0.  1.
    10030    2    1    2    0    0  0.00000000000E+00  0.00000000000E+00  0.30125083733E+03  0.58821796888E+03  0.50522105253E+03 0.  0.
        1    1    3    3  502    0  0.27759446833E+02 -0.15092537206E+03 -0.82994591355E+02  0.17446248032E+03  0.50400001928E-02 0.  1.
       -1    1    3    3    0  502 -0.27759446833E+02  0.15092537206E+03  0.38424542868E+03  0.41375548856E+03  0.50400001928E-02 0. -1.
</event>
<event>
 5   0  0.7531632E-02  0.5058780E+03  0.7818609E-02  0.1012256E+00
       -1   -1    0    0    0  501  0.00000000000E+00  0.00000000000E+00  0.13501151924E+03  0.13501151933E+03  0.50400001928E-02 0. -1.
        1   -1    0    0  501    0  0.00000000000E+00  0.00000000000E+00 -0.47387164619E+03  0.47387164622E+03  0.50400001928E-02 0.  1.
    10030    2    1    2    0    0  0.00000000000E+00  0.00000000000E+00 -0.33886012695E+03  0.60888316555E+03  0.50587797309E+03 0.  0.
        3    1    3    3  502    0  0.31448040725E+02 -0.72933127875E+02 -0.45847329055E+03  0.46530204035E+03  0.10100000352E+00 0.  1.
       -3    1    3    3    0  502 -0.31448040725E+02  0.72933127875E+02  0.11961316360E+03  0.14358112520E+03  0.10100000352E+00 0. -1.
</event>
<event>
 5   0  0.1279188E-01  0.5155192E+03  0.7818609E-02  0.1009806E+00
        2   -1    0    0  501    0  0.00000000000E+00  0.00000000000E+00  0.86184418211E+03  0.86184418211E+03  0.25500000920E-02 0.  1.
       -2   -1    0    0    0  501  0.00000000000E+00  0.00000000000E+00 -0.77090513598E+02  0.77090513640E+02  0.25500000920E-02 0. -1.
    10030    2    1    2    0    0  0.00000000000E+00  0.00000000000E+00  0.78475366851E+03  0.93893469575E+03  0.51551919716E+03 0.  0.
        2    1    3    3  502    0  0.37709237378E+02  0.14585622855E+03  0.77331081530E+03  0.78784874377E+03  0.25500000920E-02 0.  1.
       -2    1    3    3    0  502 -0.37709237378E+02 -0.14585622855E+03  0.11442853207E+02  0.15108595198E+03  0.25500000920E-02 0. -1.
</event>
<event>
 5   0  0.7416638E-02  0.4990176E+03  0.7818609E-02  0.1014036E+00
        1   -1    0    0  501    0  0.00000000000E+00  0.00000000000E+00  0.58136383946E+03  0.58136383949E+03  0.50400001928E-02 0. -1.
       -1   -1    0    0    0  501  0.00000000000E+00  0.00000000000E+00 -0.10708377489E+03  0.10708377500E+03  0.50400001928E-02 0.  1.
    10030    2    1    2    0    0  0.00000000000E+00  0.00000000000E+00  0.47428006458E+03  0.68844761449E+03  0.49901757308E+03 0.  0.
        1    1    3    3  502    0 -0.16947025159E+03  0.13827061550E+02  0.48905804645E+03  0.51777323862E+03  0.50400001928E-02 0. -1.
       -1    1    3    3    0  502  0.16947025159E+03 -0.13827061550E+02 -0.14777981873E+02  0.17067437587E+03  0.50400001928E-02 0.  1.
</event>
<event>
 5   0  0.1211345E-01  0.4987182E+03  0.7818609E-02  0.1014114E+00
        2   -1    0    0  501    0  0.00000000000E+00  0.00000000000E+00  0.96785020083E+03  0.96785020084E+03  0.25500000920E-02 0. -1.
       -2   -1    0    0    0  501  0.00000000000E+00  0.00000000000E+00 -0.64245438068E+02  0.64245438118E+02  0.25500000920E-02 0.  1.
    10030    2    1    2    0    0  0.00000000000E+00  0.00000000000E+00  0.90360476276E+03  0.10320956390E+04  0.49871819764E+03 0.  0.
        5    1    3    3  502    0  0.23734337132E+03  0.55528917990E+02  0.56018027347E+03  0.61093319228E+03  0.46999998093E+01 0. -1.
       -5    1    3    3    0  502 -0.23734337132E+03 -0.55528917990E+02  0.34342448929E+03  0.42116244667E+03  0.46999998093E+01 0.  1.
</event>
<event>
 5   0  0.7416638E-02  0.4975401E+03  0.7818609E-02  0.1014423E+00
       -1   -1    0    0    0  501  0.00000000000E+00  0.00000000000E+00  0.12950145105E+03  0.12950145115E+03  0.50400001928E-02 0.  1.
        1   -1    0    0  501    0  0.00000000000E+00  0.00000000000E+00 -0.47788297983E+03  0.47788297986E+03  0.50400001928E-02 0. -1.
    10030    2    1    2    0    0  0.00000000000E+00  0.00000000000E+00 -0.34838152877E+03  0.60738443101E+03  0.49754010636E+03 0.  0.
        1    1    3    3  502    0 -0.14317210996E+03 -0.73605348954E+02 -0.40572170325E+03  0.43649295639E+03  0.50400001928E-02 0. -1.
       -1    1    3    3    0  502  0.14317210996E+03  0.73605348954E+02  0.57340174473E+02  0.17089147462E+03  0.50400001928E-02 0.  1.
</event>
<event>
 5   0  0.1279188E-01  0.4956199E+03  0.7818609E-02  0.1014929E+00
        2   -1    0    0  501    0  0.00000000000E+00  0.00000000000E+00  0.42138557254E+03  0.42138557254E+03  0.25500000920E-02 0. -1.
       -2   -1    0    0    0  501  0.00000000000E+00  0.00000000000E+00 -0.14573299231E+03  0.14573299234E+03  0.25500000920E-02 0.  1.
    10030    2    1    2    0    0  0.00000000000E+00  0.00000000000E+00  0.27565258022E+03  0.56711856488E+03  0.49561993669E+03 0.  0.
        2    1    3    3  502    0  0.16927328321E+03 -0.17408340939E+03  0.19447937420E+03  0.31109597366E+03  0.25500000920E-02 0. -1.
       -2    1    3    3    0  502 -0.16927328321E+03  0.17408340939E+03  0.81173206018E+02  0.25602259122E+03  0.25500000920E-02 0.  1.
</event>
<event>
 5   0  0.7602288E-02  0.4868647E+03  0.7818609E-02  0.1017265E+00
        1   -1    0    0  501    0  0.00000000000E+00  0.00000000000E+00  0.85180729395E+02  0.85180729544E+02  0.50400001928E-02 0.  1.
       -1   -1    0    0    0  501  0.00000000000E+00  0.00000000000E+00 -0.69568922630E+03  0.69568922632E+03  0.50400001928E-02 0. -1.
    10030    2    1    2    0    0  0.00000000000E+00  0.00000000000E+00 -0.61050849690E+03  0.78086995586E+03  0.48686472780E+03 0.  0.
        5    1    3    3  502    0 -0.56170369495E+02 -0.19447466932E+02  0.73287032375E+02  0.94479592992E+02  0.46999998093E+01 0.  1.
       -5    1    3    3    0  502  0.56170369495E+02  0.19447466932E+02 -0.68379552928E+03  0.68639036287E+03  0.46999998093E+01 0. -1.
</event>
<event>
 5   0  0.1211345E-01  0.5554622E+03  0.7818609E-02  0.1000237E+00
       -2   -1    0    0    0  501  0.00000000000E+00  0.00000000000E+00  0.73668185878E+03  0.73668185879E+03  0.25500000920E-02 0. -1.
        2   -1    0    0  501    0  0.00000000000E+00  0.00000000000E+00 -0.10470540757E+03  0.10470540760E+03  0.25500000920E-02 0.  1.
    10030    2    1    2    0    0  0.00000000000E+00  0.00000000000E+00  0.63197645121E+03  0.84138726639E+03  0.55546223738E+03 0.  0.
        5    1    3    3  502    0 -0.11585336818E+03  0.58356545485E+02  0.68790520884E+03  0.70004510974E+03  0.46999998093E+01 0. -1.
       -5    1    3    3    0  502  0.11585336818E+03 -0.58356545485E+02 -0.55928757629E+02  0.14134215665E+03  0.46999998093E+01 0.  1.
</event>
<event>
 5   0  0.7416638E-02  0.4975958E+03  0.7818609E-02  0.1014408E+00
       -1   -1    0    0    0  501  0.00000000000E+00  0.00000000000E+00  0.57097881941E+02  0.57097882164E+02  0.50400001928E-02 0.  1.
        1   -1    0    0  501    0  0.00000000000E+00  0.00000000000E+00 -0.10841099672E+04  0.10841099672E+04  0.50400001928E-02 0. -1.
    10030    2    1    2    0    0  0.00000000000E+00  0.00000000000E+00 -0.10270120853E+04  0.11412078494E+04  0.49759575181E+03 0.  0.
        1    1    3    3  502    0  0.86715689934E+02  0.20361932997E+03 -0.77419242479E+03  0.80520454112E+03  0.50400001928E-02 0. -1.
       -1    1    3    3    0  502 -0.86715689934E+02 -0.20361932997E+03 -0.25281966051E+03  0.33600330829E+03  0.50400001928E-02 0.  1.
</event>
<event>
 5   0  0.7781754E-02  0.4987566E+03  0.7818609E-02  0.1014104E+00
       -1   -1    0    0    0  501  0.00000000000E+00  0.00000000000E+00  0.31420971734E+03  0.31420971738E+03  0.50400001928E-02 0.  1.
        1   -1    0    0  501    0  0.00000000000E+00  0.00000000000E+00 -0.19792363338E+03  0.19792363344E+03  0.50400001928E-02 0. -1.
    10030    2    1    2    0    0  0.00000000000E+00  0.00000000000E+00  0.11628608396E+03  0.51213335083E+03  0.49875656959E+03 0.  0.
        2    1    3    3  502    0 -0.17401364916E+02 -0.19040292177E+02  0.31283625789E+03  0.31389785677E+03  0.25500000920E-02 0.  1.
       -2    1    3    3    0  502  0.17401364916E+02  0.19040292177E+02 -0.19655017393E+03  0.19823549406E+03  0.25500000920E-02 0. -1.
</event>
<event>
 5   0  0.1191894E-01  0.5114899E+03  0.7818609E-02  0.1010823E+00
        2   -1    0    0  501    0  0.00000000000E+00  0.00000000000E+00  0.19918689671E+04  0.19918689671E+04  0.25500000920E-02 0.  1.
       -2   -1    0    0    0  501  0.00000000000E+00  0.00000000000E+00 -0.32836240555E+02  0.32836240654E+02  0.25500000920E-02 0. -1.
    10030    2    1    2    0    0  0.00000000000E+00  0.00000000000E+00  0.19590327265E+04  0.20247052078E+04  0.51148993601E+03 0.  0.
        3    1    3    3  502    0  0.15253792825E+03 -0.18375857691E+03  0.13416750968E+04  0.13627645100E+04  0.10100000352E+00 0.  1.
       -3    1    3    3    0  502 -0.15253792825E+03  0.18375857691E+03  0.61735762973E+03  0.66194069774E+03  0.10100000352E+00 0. -1.
</event>
<event>
 5   0  0.7531632E-02  0.5006648E+03  0.7818609E-02  0.1013606E+00
       -1   -1    0    0    0  501  0.00000000000E+00  0.00000000000E+00  0.28972448678E+03  0.28972448682E+03  0.50400001928E-02 0.  1.
        1   -1    0    0  501    0  0.00000000000E+00  0.00000000000E+00 -0.21629617530E+03  0.21629617536E+03  0.50400001928E-02 0. -1.
    10030    2    1    2    0    0  0.00000000000E+00  0.00000000000E+00  0.73428311473E+02  0.50602066218E+03  0.50066475173E+03 0.  0.
        3    1    3    3  502    0 -0.16913532907E+03 -0.91335113403E+02 -0.12536791662E+03  0.22949071266E+03  0.10100000352E+00 0. -1.
       -3    1    3    3    0  502  0.16913532907E+03  0.91335113403E+02  0.19879622809E+03  0.27652994952E+03  0.10100000352E+00 0.  1.
</event>
<event>
 5   0  0.5006750E-02  0.5013370E+03  0.7818609E-02  0.1013431E+00
       -3   -1    0    0    0  501  0.00000000000E+00  0.00000000000E+00  0.32408336239E+03  0.32408337813E+03  0.10100000352E+00 0. -1.
        3   -1    0    0  501    0  0.00000000000E+00  0.00000000000E+00 -0.19388436868E+03  0.19388439498E+03  0.10100000352E+00 0.  1.
    10030    2    1    2    0    0  0.00000000000E+00  0.00000000000E+00  0.13019899371E+03  0.51796777311E+03  0.50133704832E+03 0.  0.
        5    1    3    3  502    0 -0.35500601130E+02 -0.69934556392E+02 -0.18083356281E+03  0.19716491142E+03  0.46999998093E+01 0.  1.
       -5    1    3    3    0  502  0.35500601130E+02  0.69934556392E+02  0.31103255652E+03  0.32080286169E+03  0.46999998093E+01 0. -1.
</event>
<event>
 5   0  0.1231822E-01  0.4898953E+03  0.7818609E-02  0.1016451E+00
        2   -1    0    0  501    0  0.00000000000E+00  0.00000000000E+00  0.26405924257E+03  0.26405924258E+03  0.25500000920E-02 0. -1.
       -2   -1    0    0    0  501  0.00000000000E+00  0.00000000000E+00 -0.22721932216E+03  0.22721932218E+03  0.25500000920E-02 0.  1.
    10030    2    1    2    0    0  0.00000000000E+00  0.00000000000E+00  0.36839920407E+02  0.49127856476E+03  0.48989534440E+03 0.  0.
        1    1    3    3  502    0 -0.34086460818E+02 -0.17458806069E+03 -0.15044933710E+03  0.23297613785E+03  0.50400001928E-02 0.  1.
       -1    1    3    3    0  502  0.34086460818E+02  0.17458806069E+03  0.18728925751E+03  0.25830242692E+03  0.50400001928E-02 0. -1.
</event>
<event>
 5   0  0.7416638E-02  0.5043081E+03  0.7818609E-02  0.1012661E+00
        1   -1    0    0  501    0  0.00000000000E+00  0.00000000000E+00  0.30696539914E+03  0.30696539918E+03  0.50400001928E-02 0.  1.
       -1   -1    0    0    0  501  0.00000000000E+00  0.00000000000E+00 -0.20712977859E+03  0.20712977865E+03  0.50400001928E-02 0. -1.
    10030    2    1    2    0    0  0.00000000000E+00  0.00000000000E+00  0.99835620550E+02  0.51409517783E+03  0.50430814066E+03 0.  0.
        1    1    3    3  502    0 -0.16076518861E+03 -0.19395601713E+03  0.38877454708E+02  0.25490358758E+03  0.50400001928E-02 0.  1.
       -1    1    3    3    0  502  0.16076518861E+03  0.19395601713E+03  0.60958165842E+02  0.25919159025E+03  0.50400001928E-02 0. -1.
</event>
<event>
 5   0  0.1279188E-01  0.5049316E+03  0.7818609E-02  0.1012500E+00
        2   -1    0    0  501    0  0.00000000000E+00  0.00000000000E+00  0.90926887521E+03  0.90926887522E+03  0.25500000920E-02 0. -1.
       -2   -1    0    0    0  501  0.00000000000E+00  0.00000000000E+00 -0.70099141797E+02  0.70099141843E+02  0.25500000920E-02 0.  1.
    10030    2    1    2    0    0  0.00000000000E+00  0.00000000000E+00  0.83916973342E+03  0.97936801706E+03  0.50493155116E+03 0.  0.
        2    1    3    3  502    0 -0.21172660773E+03 -0.13239607930E+03  0.34747718929E+03  0.42789867412E+03  0.25500000920E-02 0. -1.
       -2    1    3    3    0  502  0.21172660773E+03  0.13239607930E+03  0.49169254413E+03  0.55146934294E+03  0.25500000920E-02 0.  1.
</event>
<event>
 5   0  0.7531632E-02  0.4975742E+03  0.7818609E-02  0.1014414E+00
        1   -1    0    0  501    0  0.00000000000E+00  0.00000000000E+00  0.55742158679E+03  0.55742158681E+03  0.50400001928E-02 0.  1.
       -1   -1    0    0    0  501  0.00000000000E+00  0.00000000000E+00 -0.11103809104E+03  0.11103809116E+03  0.50400001928E-02 0. -1.
    10030    2    1    2    0    0  0.00000000000E+00  0.00000000000E+00  0.44638349575E+03  0.66845967797E+03  0.49757423145E+03 0.  0.
        3    1    3    3  502    0 -0.15444276685E+02  0.14895960787E+03 -0.43701323183E+02  0.15600418683E+03  0.10100000352E+00 0. -1.
       -3    1    3    3    0  502  0.15444276685E+02 -0.14895960787E+03  0.49008481893E+03  0.51245549115E+03  0.10100000352E+00 0.  1.
</event>
<event>
 5   0  0.1243803E-01  0.5125408E+03  0.7818609E-02  0.1010556E+00
        2   -1    0    0  501    0  0.00000000000E+00  0.00000000000E+00  0.11498907926E+04  0.11498907926E+04  0.25500000920E-02 0. -1.
       -2   -1    0    0    0  501  0.00000000000E+00  0.00000000000E+00 -0.57113709146E+02  0.57113709203E+02  0.25500000920E-02 0.  1.
    10030    2    1    2    0    0  0.00000000000E+00  0.00000000000E+00  0.10927770835E+04  0.12070045018E+04  0.51254084058E+03 0.  0.
        4    1    3    3  502    0 -0.25838780661E+02 -0.10021550008E+03 -0.57043762996E+01  0.10365781134E+03  0.12699999809E+01 0.  1.
       -4    1    3    3    0  502  0.25838780661E+02  0.10021550008E+03  0.10984814598E+04  0.11033466905E+04  0.12699999809E+01 0. -1.
</event>
<event>
 5   0  0.1231822E-01  0.5044135E+03  0.7818609E-02  0.1012633E+00
        2   -1    0    0  501    0  0.00000000000E+00  0.00000000000E+00  0.73740988465E+03  0.73740988465E+03  0.25500000920E-02 0.  1.
       -2   -1    0    0    0  501  0.00000000000E+00  0.00000000000E+00 -0.86259004201E+02  0.86259004239E+02  0.25500000920E-02 0. -1.
    10030    2    1    2    0    0  0.00000000000E+00  0.00000000000E+00  0.65115088044E+03  0.82366888889E+03  0.50441349052E+03 0.  0.
        1    1    3    3  502    0 -0.36813871752E+02  0.75917021859E+02  0.71368127218E+03  0.71865124619E+03  0.50400001928E-02 0.  1.
       -1    1    3    3    0  502  0.36813871752E+02 -0.75917021859E+02 -0.62530391739E+02  0.10501764270E+03  0.50400001928E-02 0. -1.
</event>
<event>
 5   0  0.7531632E-02  0.4454496E+03  0.7818609E-02  0.1029088E+00
        1   -1    0    0  501    0  0.00000000000E+00  0.00000000000E+00  0.13960083987E+03  0.13960083996E+03  0.50400001928E-02 0.  1.
       -1   -1    0    0    0  501  0.00000000000E+00  0.00000000000E+00 -0.35534413710E+03  0.35534413714E+03  0.50400001928E-02 0. -1.
    10030    2    1    2    0    0  0.00000000000E+00  0.00000000000E+00 -0.21574329724E+03  0.49494497710E+03  0.44544961562E+03 0.  0.
        3    1    3    3  502    0 -0.15976405322E+03 -0.10236215390E+03  0.21723253542E+02  0.19098291336E+03  0.10100000352E+00 0. -1.
       -3    1    3    3    0  502  0.15976405322E+03  0.10236215390E+03 -0.23746655078E+03  0.30396206374E+03  0.10100000352E+00 0.  1.
</event>
<event>
 5   0  0.7602288E-02  0.5485379E+03  0.7818609E-02  0.1001833E+00
       -1   -1    0    0    0  501  0.00000000000E+00  0.00000000000E+00  0.59775208973E+02  0.59775209186E+02  0.50400001928E-02 0. -1.
        1   -1    0    0  501    0  0.00000000000E+00  0.00000000000E+00 -0.12584391717E+04  0.12584391717E+04  0.50400001928E-02 0.  1.
    10030    2    1    2    0    0  0.00000000000E+00  0.00000000000E+00 -0.11986639627E+04  0.13182143809E+04  0.54853792800E+03 0.  0.
        5    1    3    3  502    0 -0.15719026050E+03  0.22172970640E+03 -0.51173972630E+03  0.57945878039E+03  0.46999998093E+01 0.  1.
       -5    1    3    3    0  502  0.15719026050E+03 -0.22172970640E+03 -0.68692423641E+03  0.73875560050E+03  0.46999998093E+01 0. -1.
</event>
<event>
 5   0  0.7531632E-02  0.4916967E+03  0.7818609E-02  0.1015969E+00
       -1   -1    0    0    0  501  0.00000000000E+00  0.00000000000E+00  0.50522567387E+03  0.50522567390E+03  0.50400001928E-02 0. -1.
        1   -1    0    0  501    0  0.00000000000E+00  0.00000000000E+00 -0.11963251449E+03  0.11963251460E+03  0.50400001928E-02 0.  1.
    10030    2    1    2    0    0  0.00000000000E+00  0.00000000000E+00  0.38559315938E+03  0.62485818849E+03  0.49169672682E+03 0.  0.
        3    1    3    3  502    0 -0.24170501491E+03  0.38067993824E+02  0.16243165320E+03  0.29369122995E+03  0.10100000352E+00 0.  1.
       -3    1    3    3    0  502  0.24170501491E+03 -0.38067993824E+02  0.22316150618E+03  0.33116695854E+03  0.10100000352E+00 0. -1.
</event>
<event>
 5   0  0.7602288E-02  0.4997249E+03  0.7818609E-02  0.1013851E+00
       -1   -1    0    0    0  501  0.00000000000E+00  0.00000000000E+00  0.29123033735E+03  0.29123033740E+03  0.50400001928E-02 0. -1.
        1   -1    0    0  501    0  0.00000000000E+00  0.00000000000E+00 -0.21437065674E+03  0.21437065680E+03  0.50400001928E-02 0.  1.
    10030    2    1    2    0    0  0.00000000000E+00  0.00000000000E+00  0.76859680617E+02  0.50560099419E+03  0.49972487913E+03 0.  0.
        5    1    3    3  502    0 -0.14809772433E+03  0.20118592385E+03  0.37761158698E+02  0.25269884648E+03  0.46999998093E+01 0. -1.
       -5    1    3    3    0  502  0.14809772433E+03 -0.20118592385E+03  0.39098521920E+02  0.25290214772E+03  0.46999998093E+01 0.  1.
</event>
<event>
 5   0  0.1279188E-01  0.5065666E+03  0.7818609E-02  0.1012079E+00
        2   -1    0    0  501    0  0.00000000000E+00  0.00000000000E+00  0.10483789809E+04  0.10483789809E+04  0.25500000920E-02 0.  1.
       -2   -1    0    0    0  501  0.00000000000E+00  0.00000000000E+00 -0.61192026669E+02  0.61192026722E+02  0.25500000920E-02 0. -1.
    10030    2    1    2    0    0  0.00000000000E+00  0.00000000000E+00  0.98718695422E+03  0.11095710076E+04  0.50656661789E+03 0.  0.
        2    1    3    3  502    0 -0.31978095958E+02 -0.94775929823E+02  0.10032847216E+04  0.10082585522E+04  0.25500000920E-02 0.  1.
       -2    1    3    3    0  502  0.31978095958E+02  0.94775929823E+02 -0.16097767401E+02  0.10131245539E+03  0.25500000920E-02 0. -1.
</event>
<event>
 5   0  0.7416638E-02  0.5030532E+03  0.7818609E-02  0.1012985E+00
        1   -1    0    0  501    0  0.00000000000E+00  0.00000000000E+00  0.49290601940E+03  0.49290601942E+03  0.50400001928E-02 0.  1.
       -1   -1    0    0    0  501  0.00000000000E+00  0.00000000000E+00 -0.12835233912E+03  0.12835233922E+03  0.50400001928E-02 0. -1.
    10030    2    1    2    0    0  0.00000000000E+00  0.00000000000E+00  0.36455368028E+03  0.62125835864E+03  0.50305324010E+03 0.  0.
        1    1    3    3  502    0  0.62518194496E+02  0.23737009361E+03  0.11449306436E+03  0.27085373875E+03  0.50400001928E-02 0.  1.
       -1    1    3    3    0  502 -0.62518194496E+02 -0.23737009361E+03  0.25006061591E+03  0.35040461989E+03  0.50400001928E-02 0. -1.
</event>
<event>
 5   0  0.1231822E-01  0.5009075E+03  0.7818609E-02  0.1013542E+00
        2   -1    0    0  501    0  0.00000000000E+00  0.00000000000E+00  0.48245390948E+03  0.48245390948E+03  0.25500000920E-02 0. -1.
       -2   -1    0    0    0  501  0.00000000000E+00  0.00000000000E+00 -0.13001675735E+03  0.13001675737E+03  0.25500000920E-02 0.  1.
    10030    2    1    2    0    0  0.00000000000E+00  0.00000000000E+00  0.35243715213E+03  0.61247066686E+03  0.50090754791E+03 0.  0.
        1    1    3    3  502    0 -0.41180589660E+02  0.16307157737E+03  0.40312794749E+03  0.43680696238E+03  0.50400001928E-02 0. -1.
       -1    1    3    3    0  502  0.41180589660E+02 -0.16307157737E+03 -0.50690795362E+02  0.17566370447E+03  0.50400001928E-02 0.  1.
</event>
<event>
 5   0  0.1243803E-01  0.4985851E+03  0.7818609E-02  0.1014149E+00
       -2   -1    0    0    0  501  0.00000000000E+00  0.00000000000E+00  0.11248644209E+04  0.11248644209E+04  0.25500000920E-02 0. -1.
        2   -1    0    0  501    0  0.00000000000E+00  0.00000000000E+00 -0.55248227973E+02  0.55248228032E+02  0.25500000920E-02 0.  1.
    10030    2    1    2    0    0  0.00000000000E+00  0.00000000000E+00  0.10696161929E+04  0.11801126489E+04  0.49858506195E+03 0.  0.
        4    1    3    3  502    0  0.12499538991E+03  0.18954324123E+03  0.77843644622E+03  0.81087323393E+03  0.12699999809E+01 0. -1.
       -4    1    3    3    0  502 -0.12499538991E+03 -0.18954324123E+03  0.29117974666E+03  0.36923941496E+03  0.12699999809E+01 0.  1.
</event>
<event>
 5   0  0.7531632E-02  0.4952648E+03  0.7818609E-02  0.1015022E+00
       -1   -1    0    0    0  501  0.00000000000E+00  0.00000000000E+00  0.54028238663E+03  0.54028238666E+03  0.50400001928E-02 0. -1.
        1   -1    0    0  501    0  0.00000000000E+00  0.00000000000E+00 -0.11349956243E+03  0.11349956254E+03  0.50400001928E-02 0.  1.
    10030    2    1    2    0    0  0.00000000000E+00  0.00000000000E+00  0.42678282420E+03  0.65378194920E+03  0.49526483629E+03 0.  0.
        3    1    3    3  502    0  0.17292703404E+02  0.31918489704E+02 -0.10996795667E+03  0.11580496220E+03  0.10100000352E+00 0.  1.
       -3    1    3    3    0  502 -0.17292703404E+02 -0.31918489704E+02  0.53675078087E+03  0.53797698700E+03  0.10100000352E+00 0. -1.
</event>
<event>
 5   0  0.1191894E-01  0.4986434E+03  0.7818609E-02  0.1014134E+00
        2   -1    0    0  501    0  0.00000000000E+00  0.00000000000E+00  0.58214765627E+03  0.58214765627E+03  0.25500000920E-02 0. -1.
       -2   -1    0    0    0  501  0.00000000000E+00  0.00000000000E+00 -0.10677929831E+03  0.10677929834E+03  0.25500000920E-02 0.  1.
    10030    2    1    2    0    0  0.00000000000E+00  0.00000000000E+00  0.47536835796E+03  0.68892695461E+03  0.49864343276E+03 0.  0.
        3    1    3    3  502    0 -0.18325449575E+03 -0.16865266229E+03  0.22160899033E+03  0.33337139275E+03  0.10100000352E+00 0. -1.
       -3    1    3    3    0  502  0.18325449575E+03  0.16865266229E+03  0.25375936763E+03  0.35555556186E+03  0.10100000352E+00 0.  1.
</event>
<event>
 5   0  0.1191894E-01  0.5362058E+03  0.7818609E-02  0.1004738E+00
       -2   -1    0    0    0  501  0.00000000000E+00  0.00000000000E+00  0.19411908798E+03  0.19411908800E+03  0.25500000920E-02 0.  1.
        2   -1    0    0  501    0  0.00000000000E+00  0.00000000000E+00 -0.37028386455E+03  0.37028386456E+03  0.25500000920E-02 0. -1.
    10030    2    1    2    0    0  0.00000000000E+00  0.00000000000E+00 -0.17616477656E+03  0.56440295256E+03  0.53620580410E+03 0.  0.
        3    1    3    3  502    0  0.91917937561E+02  0.24753185270E+03 -0.13698214327E+03  0.29746435606E+03  0.10100000352E+00 0. -1.
       -3    1    3    3    0  502 -0.91917937561E+02 -0.24753185270E+03 -0.39182633298E+02  0.26693859650E+03  0.10100000352E+00 0.  1.
</event>
<event>
 5   0  0.7781754E-02  0.4991524E+03  0.7818609E-02  0.1014000E+00
       -1   -1    0    0    0  501  0.00000000000E+00  0.00000000000E+00  0.12152417268E+03  0.12152417278E+03  0.50400001928E-02 0.  1.
        1   -1    0    0  501    0  0.00000000000E+00  0.00000000000E+00 -0.51255870310E+03  0.51255870312E+03  0.50400001928E-02 0. -1.
    10030    2    1    2    0    0  0.00000000000E+00  0.00000000000E+00 -0.39103453042E+03  0.63408287590E+03  0.49915237106E+03 0.  0.
        2    1    3    3  502    0 -0.82827010351E+02  0.29992306655E+02 -0.49215359861E+03  0.49997501611E+03  0.25500000920E-02 0. -1.
       -2    1    3    3    0  502  0.82827010351E+02 -0.29992306655E+02  0.10111906819E+03  0.13410785980E+03  0.25500000920E-02 0.  1.
</event>
<event>
 5   0  0.7531632E-02  0.4733629E+03  0.7818609E-02  0.1020975E+00
        1   -1    0    0  501    0  0.00000000000E+00  0.00000000000E+00  0.14568378350E+04  0.14568378350E+04  0.50400001928E-02 0. -1.
       -1   -1    0    0    0  501  0.00000000000E+00  0.00000000000E+00 -0.38451845685E+02  0.38451846016E+02  0.50400001928E-02 0.  1.
    10030    2    1    2    0    0  0.00000000000E+00  0.00000000000E+00  0.14183859893E+04  0.14952896810E+04  0.47336287929E+03 0.  0.
        3    1    3    3  502    0  0.83792080002E+02 -0.12890945338E+03  0.12776074226E+04  0.12868253558E+04  0.10100000352E+00 0. -1.
       -3    1    3    3    0  502 -0.83792080002E+02  0.12890945338E+03  0.14077856669E+03  0.20846432520E+03  0.10100000352E+00 0.  1.
</event>
<event>
 5   0  0.7416638E-02  0.4998566E+03  0.7818609E-02  0.1013816E+00
       -1   -1    0    0    0  501  0.00000000000E+00  0.00000000000E+00  0.45002934893E+02  0.45002935175E+02  0.50400001928E-02 0.  1.
        1   -1    0    0  501    0  0.00000000000E+00  0.00000000000E+00 -0.13880015682E+04  0.13880015682E+04  0.50400001928E-02 0. -1.
    10030    2    1    2    0    0  0.00000000000E+00  0.00000000000E+00 -0.13429986333E+04  0.14330045034E+04  0.49985655708E+03 0.  0.
        1    1    3    3  502    0  0.14173717704E+03 -0.18425047066E+03 -0.93466259444E+03  0.96313645387E+03  0.50400001928E-02 0. -1.
       -1    1    3    3    0  502 -0.14173717704E+03  0.18425047066E+03 -0.40833603887E+03  0.46986804952E+03  0.50400001928E-02 0.  1.
</event>
<event>
 5   0  0.1211345E-01  0.4975496E+03  0.7818609E-02  0.1014420E+00
        2   -1    0    0  501    0  0.00000000000E+00  0.00000000000E+00  0.15506796184E+03  0.15506796186E+03  0.25500000920E-02 0. -1.
       -2   -1    0    0    0  501  0.00000000000E+00  0.00000000000E+00 -0.39910819751E+03  0.39910819752E+03  0.25500000920E-02 0.  1.
    10030    2    1    2    0    0  0.00000000000E+00  0.00000000000E+00 -0.24404023567E+03  0.55417615938E+03  0.49754957441E+03 0.  0.
        5    1    3    3  502    0  0.14149671871E+03  0.86568647617E+02  0.84414914928E+02  0.18618114839E+03  0.46999998093E+01 0. -1.
       -5    1    3    3    0  502 -0.14149671871E+03 -0.86568647617E+02 -0.32845515060E+03  0.36799501098E+03  0.46999998093E+01 0.  1.
</event>
<event>
 5   0  0.1191894E-01  0.5032414E+03  0.7818609E-02  0.1012936E+00
       -2   -1    0    0    0  501  0.00000000000E+00  0.00000000000E+00  0.17457719269E+03  0.17457719271E+03  0.25500000920E-02 0.  1.
        2   -1    0    0  501    0  0.00000000000E+00  0.00000000000E+00 -0.36266459591E+03  0.36266459592E+03  0.25500000920E-02 0. -1.
    10030    2    1    2    0    0  0.00000000000E+00  0.00000000000E+00 -0.18808740322E+03  0.53724178863E+03  0.50324136177E+03 0.  0.
        3    1    3    3  502    0 -0.48494555945E+02 -0.20324586578E+03  0.55614573320E+02  0.21622579606E+03  0.10100000352E+00 0.  1.
       -3    1    3    3    0  502  0.48494555945E+02  0.20324586578E+03 -0.24370197654E+03  0.32101599257E+03  0.10100000352E+00 0. -1.
</event>
<event>
 5   0  0.1243803E-01  0.4968597E+03  0.7818609E-02  0.1014602E+00
        2   -1    0    0  501    0  0.00000000000E+00  0.00000000000E+00  0.97832148717E+03  0.97832148717E+03  0.25500000920E-02 0. -1.
       -2   -1    0    0    0  501  0.00000000000E+00  0.00000000000E+00 -0.63084975739E+02  0.63084975790E+02  0.25500000920E-02 0.  1.
    10030    2    1    2    0    0  0.00000000000E+00  0.00000000000E+00  0.91523651143E+03  0.10414064630E+04  0.49685968768E+03 0.  0.
        4    1    3    3  502    0 -0.35735822569E+02  0.55211119238E+02 -0.44500392249E+02  0.79417973485E+02  0.12699999809E+01 0.  1.
       -4    1    3    3    0  502  0.35735822569E+02 -0.55211119238E+02  0.95973690368E+03  0.96198848947E+03  0.12699999809E+01 0. -1.
</event>
<event>
 5   0  0.1191894E-01  0.5014950E+03  0.7818609E-02  0.1013389E+00
        2   -1    0    0  501    0  0.00000000000E+00  0.00000000000E+00  0.70635321016E+03  0.70635321017E+03  0.25500000920E-02 0.  1.
       -2   -1    0    0    0  501  0.00000000000E+00  0.00000000000E+00 -0.89012552389E+02  0.89012552426E+02  0.25500000920E-02 0. -1.
    10030    2    1    2    0    0  0.00000000000E+00  0.00000000000E+00  0.61734065778E+03  0.79536576259E+03  0.50149497362E+03 0.  0.
        3    1    3    3  502    0 -0.15230650180E+03  0.18503998730E+03  0.19172336744E+03  0.30691192094E+03  0.10100000352E+00 0. -1.
       -3    1    3    3    0  502  0.15230650180E+03 -0.18503998730E+03  0.42561729034E+03  0.48845384165E+03  0.10100000352E+00 0.  1.
</event>
<event>
 5   0  0.7602288E-02  0.5004870E+03  0.7818609E-02  0.1013652E+00
        1   -1    0    0  501    0  0.00000000000E+00  0.00000000000E+00  0.25850747780E+03  0.25850747785E+03  0.50400001928E-02 0.  1.
       -1   -1    0    0    0  501  0.00000000000E+00  0.00000000000E+00 -0.24224371756E+03  0.24224371761E+03  0.50400001928E-02 0. -1.
    10030    2    1    2    0    0  0.00000000000E+00  0.00000000000E+00  0.16263760242E+02  0.50075119546E+03  0.50048701268E+03 0.  0.
        5    1    3    3  502    0  0.15703343244E+02 -0.26033742755E+02 -0.24034447643E+03  0.24230540254E+03  0.46999998093E+01 0. -1.
       -5    1    3    3    0  502 -0.15703343244E+02  0.26033742755E+02  0.25660823667E+03  0.25844579292E+03  0.46999998093E+01 0.  1.
</event>
<event>
 5   0  0.7812547E-02  0.4968816E+03  0.7818609E-02  0.1014596E+00
       -1   -1    0    0    0  501  0.00000000000E+00  0.00000000000E+00  0.10691155359E+03  0.10691155371E+03  0.50400001928E-02 0. -1.
        1   -1    0    0  501    0  0.00000000000E+00  0.00000000000E+00 -0.57732608910E+03  0.57732608913E+03  0.50400001928E-02 0.  1.
    10030    2    1    2    0    0  0.00000000000E+00  0.00000000000E+00 -0.47041453551E+03  0.68423764284E+03  0.49688159218E+03 0.  0.
        4    1    3    3  502    0  0.19449966144E+03 -0.12143672201E+03 -0.10352496873E+03  0.25158701836E+03  0.12699999809E+01 0. -1.
       -4    1    3    3    0  502 -0.19449966144E+03  0.12143672201E+03 -0.36688956678E+03  0.43265062448E+03  0.12699999809E+01 0.  1.
</event>
<event>
 5   0  0.7602288E-02  0.4939438E+03  0.7818609E-02  0.1015372E+00
        1   -1    0    0  501    0  0.00000000000E+00  0.00000000000E+00  0.70334240655E+03  0.70334240657E+03  0.50400001928E-02 0.  1.
       -1   -1    0    0    0  501  0.00000000000E+00  0.00000000000E+00 -0.86721816833E+02  0.86721816979E+02  0.50400001928E-02 0. -1.
    10030    2    1    2    0    0  0.00000000000E+00  0.00000000000E+00  0.61662058972E+03  0.79006422355E+03  0.49394384870E+03 0.  0.
        5    1    3    3  502    0  0.22721267293E+03  0.48532157261E+02  0.17456214820E+03  0.29064583708E+03  0.46999998093E+01 0. -1.
       -5    1    3    3    0  502 -0.22721267293E+03 -0.48532157261E+02  0.44205844152E+03  0.49941838647E+03  0.46999998093E+01 0.  1.
</event>
<event>
 5   0  0.7812547E-02  0.5019493E+03  0.7818609E-02  0.1013271E+00
        1   -1    0    0  501    0  0.00000000000E+00  0.00000000000E+00  0.43027078133E+03  0.43027078136E+03  0.50400001928E-02 0.  1.
       -1   -1    0    0    0  501  0.00000000000E+00  0.00000000000E+00 -0.14639217980E+03  0.14639217989E+03  0.50400001928E-02 0. -1.
    10030    2    1    2    0    0  0.00000000000E+00  0.00000000000E+00  0.28387860152E+03  0.57666296125E+03  0.50194931066E+03 0.  0.
        4    1    3    3  502    0  0.46193123856E+02  0.21975974446E+03  0.13194015010E+02  0.22495298378E+03  0.12699999809E+01 0. -1.
       -4    1    3    3    0  502 -0.46193123856E+02 -0.21975974446E+03  0.27068458651E+03  0.35170997747E+03  0.12699999809E+01 0.  1.
</event>
<event>
 5   0  0.1191894E-01  0.5006987E+03  0.7818609E-02  0.1013597E+00
       -2   -1    0    0    0  501  0.00000000000E+00  0.00000000000E+00  0.51826732133E+02  0.51826732196E+02  0.25500000920E-02 0.  1.
        2   -1    0    0  501    0  0.00000000000E+00  0.00000000000E+00 -0.12093141342E+04  0.12093141343E+04  0.25500000920E-02 0. -1.
    10030    2    1    2    0    0  0.00000000000E+00  0.00000000000E+00 -0.11574874021E+04  0.12611408664E+04  0.50069871077E+03 0.  0.
        3    1    3    3  502    0 -0.15021230593E+02  0.10497178745E+03 -0.75338233807E+01  0.10630842970E+03  0.10100000352E+00 0.  1.
       -3    1    3    3    0  502  0.15021230593E+02 -0.10497178745E+03 -0.11499535787E+04  0.11548324368E+04  0.10100000352E+00 0. -1.
</event>
<event>
 5   0  0.7531632E-02  0.5074069E+03  0.7818609E-02  0.1011863E+00
       -1   -1    0    0    0  501  0.00000000000E+00  0.00000000000E+00  0.12152654445E+03  0.12152654456E+03  0.50400001928E-02 0.  1.
        1   -1    0    0  501    0  0.00000000000E+00  0.00000000000E+00 -0.52964097881E+03  0.52964097884E+03  0.50400001928E-02 0. -1.
    10030    2    1    2    0    0  0.00000000000E+00  0.00000000000E+00 -0.40811443436E+03  0.65116752339E+03  0.50740688997E+03 0.  0.
        3    1    3    3  502    0 -0.24062056052E+03  0.36998622134E+02 -0.11242503549E+03  0.26815396882E+03  0.10100000352E+00 0.  1.
       -3    1    3    3    0  502  0.24062056052E+03 -0.36998622134E+02 -0.29568939887E+03  0.38301355458E+03  0.10100000352E+00 0. -1.
</event>
<event>
 5   0  0.1211345E-01  0.4803625E+03  0.7818609E-02  0.1019036E+00
       -2   -1    0    0    0  501  0.00000000000E+00  0.00000000000E+00  0.46416741857E+02  0.46416741927E+02  0.25500000920E-02 0.  1.
        2   -1    0    0  501    0  0.00000000000E+00  0.00000000000E+00 -0.12428065415E+04  0.12428065415E+04  0.25500000920E-02 0. -1.
    10030    2    1    2    0    0  0.00000000000E+00  0.00000000000E+00 -0.11963897997E+04  0.12892232834E+04  0.48036249005E+03 0.  0.
        5    1    3    3  502    0  0.31058848790E+02 -0.20107098041E+03 -0.94053898478E+03  0.96230445449E+03  0.46999998093E+01 0. -1.
       -5    1    3    3    0  502 -0.31058848790E+02  0.20107098041E+03 -0.25585081487E+03  0.32691882895E+03  0.46999998093E+01 0.  1.
</event>
<event>
 5   0  0.1191894E-01  0.4995487E+03  0.7818609E-02  0.1013897E+00
        2   -1    0    0  501    0  0.00000000000E+00  0.00000000000E+00  0.42878738390E+03  0.42878738390E+03  0.25500000920E-02 0. -1.
       -2   -1    0    0    0  501  0.00000000000E+00  0.00000000000E+00 -0.14549684948E+03  0.14549684950E+03  0.25500000920E-02 0.  1.
    10030    2    1    2    0    0  0.00000000000E+00  0.00000000000E+00  0.28329053441E+03  0.57428423341E+03  0.49954865013E+03 0.  0.
        3    1    3    3  502    0 -0.69971512885E+02  0.23962919307E+03  0.15119741418E+03  0.29185412630E+03  0.10100000352E+00 0. -1.
       -3    1    3    3    0  502  0.69971512885E+02 -0.23962919307E+03  0.13209312023E+03  0.28243010710E+03  0.10100000352E+00 0.  1.
</event>
<event>
 5   0  0.7531632E-02  0.4962549E+03  0.7818609E-02  0.1014761E+00
       -1   -1    0    0    0  501  0.00000000000E+00  0.00000000000E+00  0.85281346135E+03  0.85281346137E+03  0.50400001928E-02 0. -1.
        1   -1    0    0  501    0  0.00000000000E+00  0.00000000000E+00 -0.72193072675E+02  0.72193072851E+02  0.50400001928E-02 0.  1.
    10030    2    1    2    0    0  0.00000000000E+00  0.00000000000E+00  0.78062038868E+03  0.92500653422E+03  0.49625487114E+03 0.  0.
        3    1    3    3  502    0 -0.88649117030E+02 -0.75065707964E+02  0.79899993561E+03  0.80739979798E+03  0.10100000352E+00 0. -1.
       -3    1    3    3    0  502  0.88649117030E+02  0.75065707964E+02 -0.18379546937E+02  0.11760673624E+03  0.10100000352E+00 0.  1.
</event>
<event>
 5   0  0.1243803E-01  0.4970869E+03  0.7818609E-02  0.1014542E+00
       -2   -1    0    0    0  501  0.00000000000E+00  0.00000000000E+00  0.68783977748E+02  0.68783977795E+02  0.25500000920E-02 0.  1.
        2   -1    0    0  501    0  0.00000000000E+00  0.00000000000E+00 -0.89808499180E+03  0.89808499181E+03  0.25500000920E-02 0. -1.
    10030    2    1    2    0    0  0.00000000000E+00  0.00000000000E+00 -0.82930101405E+03  0.96686896960E+03  0.49708694659E+03 0.  0.
        4    1    3    3  502    0  0.23667686948E+03  0.30368749038E+02 -0.54988595747E+03  0.59942837820E+03  0.12699999809E+01 0. -1.
       -4    1    3    3    0  502 -0.23667686948E+03 -0.30368749038E+02 -0.27941505658E+03  0.36744059140E+03  0.12699999809E+01 0.  1.
</event>
<event>
 5   0  0.5006750E-02  0.5017574E+03  0.7818609E-02  0.1013321E+00
       -4   -1    0    0    0  501  0.00000000000E+00  0.00000000000E+00  0.17598396893E+03  0.17598855139E+03  0.12699999809E+01 0. -1.
        4   -1    0    0  501    0  0.00000000000E+00  0.00000000000E+00 -0.35763647263E+03  0.35763872756E+03  0.12699999809E+01 0.  1.
    10030    2    1    2    0    0  0.00000000000E+00  0.00000000000E+00 -0.18165250370E+03  0.53362727895E+03  0.50175735245E+03 0.  0.
        2    1    3    3  502    0 -0.67603266823E+02  0.15606919275E+03 -0.28696453856E+03  0.33358123599E+03  0.25500000920E-02 0.  1.
       -2    1    3    3    0  502  0.67603266823E+02 -0.15606919275E+03  0.10531203486E+03  0.20004604296E+03  0.25500000920E-02 0. -1.
</event>
<event>
 5   0  0.7781754E-02  0.5074772E+03  0.7818609E-02  0.1011845E+00
       -1   -1    0    0    0  501  0.00000000000E+00  0.00000000000E+00  0.68644154920E+02  0.68644155105E+02  0.50400001928E-02 0.  1.
        1   -1    0    0  501    0  0.00000000000E+00  0.00000000000E+00 -0.93792796613E+03  0.93792796615E+03  0.50400001928E-02 0. -1.
    10030    2    1    2    0    0  0.00000000000E+00  0.00000000000E+00 -0.86928381121E+03  0.10065721213E+04  0.50747718258E+03 0.  0.
        2    1    3    3  502    0 -0.11007310377E+03  0.13939596024E+03 -0.79406268015E+03  0.81368474357E+03  0.25500000920E-02 0.  1.
       -2    1    3    3    0  502  0.11007310377E+03 -0.13939596024E+03 -0.75221131065E+02  0.19288737768E+03  0.25500000920E-02 0. -1.
</event>
<event>
 5   0  0.7812547E-02  0.5012764E+03  0.7818609E-02  0.1013446E+00
        1   -1    0    0  501    0  0.00000000000E+00  0.00000000000E+00  0.21255254891E+03  0.21255254897E+03  0.50400001928E-02 0. -1.
       -1   -1    0    0    0  501  0.00000000000E+00  0.00000000000E+00 -0.29554816256E+03  0.29554816260E+03  0.50400001928E-02 0.  1.
    10030    2    1    2    0    0  0.00000000000E+00  0.00000000000E+00 -0.82995613652E+02  0.50810071157E+03  0.50127643193E+03 0.  0.
        4    1    3    3  502    0  0.21530131069E+03  0.32891299713E+02  0.84212416266E+02  0.23351624341E+03  0.12699999809E+01 0. -1.
       -4    1    3    3    0  502 -0.21530131069E+03 -0.32891299713E+02 -0.16720802992E+03  0.27458446816E+03  0.12699999809E+01 0.  1.
</event>
<event>
 5   0  0.7531632E-02  0.4974986E+03  0.7818609E-02  0.1014434E+00
       -1   -1    0    0    0  501  0.00000000000E+00  0.00000000000E+00  0.10554052996E+03  0.10554053008E+03  0.50400001928E-02 0. -1.
        1   -1    0    0  501    0  0.00000000000E+00  0.00000000000E+00 -0.58627907293E+03  0.58627907295E+03  0.50400001928E-02 0.  1.
    10030    2    1    2    0    0  0.00000000000E+00  0.00000000000E+00 -0.48073854297E+03  0.69181960303E+03  0.49749855924E+03 0.  0.
        3    1    3    3  502    0 -0.19711397863E+03  0.89905246671E+02 -0.41033699230E+03  0.46401867571E+03  0.10100000352E+00 0.  1.
       -3    1    3    3    0  502  0.19711397863E+03 -0.89905246671E+02 -0.70401550666E+02  0.22780092732E+03  0.10100000352E+00 0. -1.
</event>
<event>
 5   0  0.7602288E-02  0.4984846E+03  0.7818609E-02  0.1014175E+00
       -1   -1    0    0    0  501  0.00000000000E+00  0.00000000000E+00  0.42134499237E+03  0.42134499240E+03  0.50400001928E-02 0. -1.
        1   -1    0    0  501    0  0.00000000000E+00  0.00000000000E+00 -0.14743671050E+03  0.14743671058E+03  0.50400001928E-02 0.  1.
    10030    2    1    2    0    0  0.00000000000E+00  0.00000000000E+00  0.27390828188E+03  0.56878170298E+03  0.49848458228E+03 0.  0.
        5    1    3    3  502    0 -0.16882572213E+03  0.16820785893E+03  0.53858135825E+02  0.24437429704E+03  0.46999998093E+01 0. -1.
       -5    1    3    3    0  502  0.16882572213E+03 -0.16820785893E+03  0.22005014605E+03  0.32440740595E+03  0.46999998093E+01 0.  1.
</event>
<event>
 5   0  0.1191894E-01  0.4950195E+03  0.7818609E-02  0.1015087E+00
       -2   -1    0    0    0  501  0.00000000000E+00  0.00000000000E+00  0.30543567001E+03  0.30543567002E+03  0.25500000920E-02 0.  1.
        2   -1    0    0  501    0  0.00000000000E+00  0.00000000000E+00 -0.20056952171E+03  0.20056952173E+03  0.25500000920E-02 0. -1.
    10030    2    1    2    0    0  0.00000000000E+00  0.00000000000E+00  0.10486614830E+03  0.50600519175E+03  0.49501954003E+03 0.  0.
        3    1    3    3  502    0  0.79135488997E+02  0.11639784176E+03 -0.15567834386E+03  0.20987291424E+03  0.10100000352E+00 0. -1.
       -3    1    3    3    0  502 -0.79135488997E+02 -0.11639784176E+03  0.26054449215E+03  0.29613227750E+03  0.10100000352E+00 0.  1.
</event>
<event>
 5   0  0.7416638E-02  0.4978039E+03  0.7818609E-02  0.1014354E+00
       -1   -1    0    0    0  501  0.00000000000E+00  0.00000000000E+00  0.24075802795E+02  0.24075803322E+02  0.50400001928E-02 0.  1.
        1   -1    0    0  501    0  0.00000000000E+00  0.00000000000E+00 -0.25732131848E+04  0.25732131848E+04  0.50400001928E-02 0. -1.
    10030    2    1    2    0    0  0.00000000000E+00  0.00000000000E+00 -0.25491373820E+04  0.25972889881E+04  0.49780387254E+03 0.  0.
        1    1    3    3  502    0 -0.20973767232E+02 -0.22452255261E+03 -0.18243128528E+04  0.18381968503E+04  0.50400001928E-02 0. -1.
       -1    1    3    3    0  502  0.20973767232E+02  0.22452255261E+03 -0.72482452920E+03  0.75909213782E+03  0.50400001928E-02 0.  1.
</event>
<event>
 5   0  0.1231822E-01  0.4112230E+03  0.7818609E-02  0.1039961E+00
        2   -1    0    0  501    0  0.00000000000E+00  0.00000000000E+00  0.76428147983E+03  0.76428147983E+03  0.25500000920E-02 0. -1.
       -2   -1    0    0    0  501  0.00000000000E+00  0.00000000000E+00 -0.55314814171E+02  0.55314814230E+02  0.25500000920E-02 0.  1.
    10030    2    1    2    0    0  0.00000000000E+00  0.00000000000E+00  0.70896666566E+03  0.81959629406E+03  0.41122299574E+03 0.  0.
        1    1    3    3  502    0  0.14444296729E+03 -0.12305104416E+03  0.51231080679E+03  0.54632196830E+03  0.50400001928E-02 0. -1.
       -1    1    3    3    0  502 -0.14444296729E+03  0.12305104416E+03  0.19665585887E+03  0.27327432576E+03  0.50400001928E-02 0.  1.
</event>
<event>
 5   0  0.7531632E-02  0.5002875E+03  0.7818609E-02  0.1013704E+00
       -1   -1    0    0    0  501  0.00000000000E+00  0.00000000000E+00  0.68700796535E+02  0.68700796720E+02  0.50400001928E-02 0.  1.
        1   -1    0    0  501    0  0.00000000000E+00  0.00000000000E+00 -0.91078859960E+03  0.91078859961E+03  0.50400001928E-02 0. -1.
    10030    2    1    2    0    0  0.00000000000E+00  0.00000000000E+00 -0.84208780306E+03  0.97948939633E+03  0.50028752679E+03 0.  0.
        3    1    3    3  502    0  0.13439644199E+03 -0.20124944776E+03 -0.29709235329E+03  0.38318092388E+03  0.10100000352E+00 0.  1.
       -3    1    3    3    0  502 -0.13439644199E+03  0.20124944776E+03 -0.54499544977E+03  0.59630847245E+03  0.10100000352E+00 0. -1.
</event>
<event>
 5   0  0.7781754E-02  0.4987289E+03  0.7818609E-02  0.1014111E+00
       -1   -1    0    0    0  501  0.00000000000E+00  0.00000000000E+00  0.10106566210E+03  0.10106566223E+03  0.50400001928E-02 0. -1.
        1   -1    0    0  501    0  0.00000000000E+00  0.00000000000E+00 -0.61526959511E+03  0.61526959513E+03  0.50400001928E-02 0.  1.
    10030    2    1    2    0    0  0.00000000000E+00  0.00000000000E+00 -0.51420393301E+03  0.71633525736E+03  0.49872890052E+03 0.  0.
        2    1    3    3  502    0 -0.36376652974E+02  0.23782441145E+03 -0.35127603782E+03  0.42576820726E+03  0.25500000920E-02 0.  1.
       -2    1    3    3    0  502  0.36376652974E+02 -0.23782441145E+03 -0.16292789519E+03  0.29056705009E+03  0.25500000920E-02 0. -1.
</event>
<event>
 5   0  0.7602288E-02  0.5035237E+03  0.7818609E-02  0.1012863E+00
       -1   -1    0    0    0  501  0.00000000000E+00  0.00000000000E+00  0.50156078402E+02  0.50156078655E+02  0.50400001928E-02 0. -1.
        1   -1    0    0  501    0  0.00000000000E+00  0.00000000000E+00 -0.12637358127E+04  0.12637358128E+04  0.50400001928E-02 0.  1.
    10030    2    1    2    0    0  0.00000000000E+00  0.00000000000E+00 -0.12135797343E+04  0.13138918914E+04  0.50352371415E+03 0.  0.
        5    1    3    3  502    0 -0.98818937708E+02  0.19015473358E+03 -0.95136764192E+03  0.97521612233E+03  0.46999998093E+01 0.  1.
       -5    1    3    3    0  502  0.98818937708E+02 -0.19015473358E+03 -0.26221209242E+03  0.33867576908E+03  0.46999998093E+01 0. -1.
</event>
<event>
 5   0  0.1211345E-01  0.4994860E+03  0.7818609E-02  0.1013913E+00
       -2   -1    0    0    0  501  0.00000000000E+00  0.00000000000E+00  0.10461616164E+03  0.10461616167E+03  0.25500000920E-02 0.  1.
        2   -1    0    0  501    0  0.00000000000E+00  0.00000000000E+00 -0.59619438519E+03  0.59619438519E+03  0.25500000920E-02 0. -1.
    10030    2    1    2    0    0  0.00000000000E+00  0.00000000000E+00 -0.49157822355E+03  0.70081054686E+03  0.49948600853E+03 0.  0.
        5    1    3    3  502    0 -0.11522260098E+03  0.21099909699E+03 -0.15112015399E+03  0.28400045360E+03  0.46999998093E+01 0.  1.
       -5    1    3    3    0  502  0.11522260098E+03 -0.21099909699E+03 -0.34045806956E+03  0.41681009325E+03  0.46999998093E+01 0. -1.
</event>
<event>
 5   0  0.1211345E-01  0.5125399E+03  0.7818609E-02  0.1010557E+00
       -2   -1    0    0    0  501  0.00000000000E+00  0.00000000000E+00  0.41054004906E+02  0.41054004986E+02  0.25500000920E-02 0. -1.
        2   -1    0    0  501    0  0.00000000000E+00  0.00000000000E+00 -0.15997048682E+04  0.15997048682E+04  0.25500000920E-02 0.  1.
    10030    2    1    2    0    0  0.00000000000E+00  0.00000000000E+00 -0.15586508633E+04  0.16407588732E+04  0.51253991678E+03 0.  0.
        5    1    3    3  502    0 -0.41075061742E+02  0.65703609566E+02  0.25098943640E+01  0.77669264030E+02  0.46999998093E+01 0. -1.
       -5    1    3    3    0  502  0.41075061742E+02 -0.65703609566E+02 -0.15611607576E+04  0.15630896091E+04  0.46999998093E+01 0.  1.
</event>
<event>
 5   0  0.1211345E-01  0.5017758E+03  0.7818609E-02  0.1013316E+00
        2   -1    0    0  501    0  0.00000000000E+00  0.00000000000E+00  0.19779948124E+03  0.19779948126E+03  0.25500000920E-02 0. -1.
       -2   -1    0    0    0  501  0.00000000000E+00  0.00000000000E+00 -0.31822502838E+03  0.31822502839E+03  0.25500000920E-02 0.  1.
    10030    2    1    2    0    0  0.00000000000E+00  0.00000000000E+00 -0.12042554713E+03  0.51602450965E+03  0.50177582859E+03 0.  0.
        5    1    3    3  502    0  0.26354226532E+02 -0.19607643205E+03 -0.21880653035E+03  0.29502355870E+03  0.46999998093E+01 0.  1.
       -5    1    3    3    0  502 -0.26354226532E+02  0.19607643205E+03  0.98380983223E+02  0.22100095095E+03  0.46999998093E+01 0. -1.
</event>
<event>
 5   0  0.7812547E-02  0.5030620E+03  0.7818609E-02  0.1012983E+00
       -1   -1    0    0    0  501  0.00000000000E+00  0.00000000000E+00  0.12370173465E+03  0.12370173476E+03  0.50400001928E-02 0.  1.
        1   -1    0    0  501    0  0.00000000000E+00  0.00000000000E+00 -0.51145477527E+03  0.51145477529E+03  0.50400001928E-02 0. -1.
    10030    2    1    2    0    0  0.00000000000E+00  0.00000000000E+00 -0.38775304061E+03  0.63515651005E+03  0.50306199593E+03 0.  0.
        4    1    3    3  502    0  0.11947727415E+03  0.14874615142E+03 -0.40082426429E+03  0.44391659165E+03  0.12699999809E+01 0. -1.
       -4    1    3    3    0  502 -0.11947727415E+03 -0.14874615142E+03  0.13071223679E+02  0.19123991839E+03  0.12699999809E+01 0.  1.
</event>
<event>
 5   0  0.1279188E-01  0.5027250E+03  0.7818609E-02  0.1013070E+00
        2   -1    0    0  501    0  0.00000000000E+00  0.00000000000E+00  0.17357746520E+04  0.17357746520E+04  0.25500000920E-02 0.  1.
       -2   -1    0    0    0  501  0.00000000000E+00  0.00000000000E+00 -0.36400519218E+02  0.36400519307E+02  0.25500000920E-02 0. -1.
    10030    2    1    2    0    0  0.00000000000E+00  0.00000000000E+00  0.16993741327E+04  0.17721751713E+04  0.50272496917E+03 0.  0.
        2    1    3    3  502    0  0.18644965691E+03 -0.16760083021E+03  0.78568994520E+03  0.82471946918E+03  0.25500000920E-02 0.  1.
       -2    1    3    3    0  502 -0.18644965691E+03  0.16760083021E+03  0.91368418754E+03  0.94745570209E+03  0.25500000920E-02 0. -1.
</event>
<event>
 5   0  0.1191894E-01  0.4969486E+03  0.7818609E-02  0.1014578E+00
       -2   -1    0    0    0  501  0.00000000000E+00  0.00000000000E+00  0.56103621429E+02  0.56103621487E+02  0.25500000920E-02 0. -1.
        2   -1    0    0  501    0  0.00000000000E+00  0.00000000000E+00 -0.11004544359E+04  0.11004544359E+04  0.25500000920E-02 0.  1.
    10030    2    1    2    0    0  0.00000000000E+00  0.00000000000E+00 -0.10443508144E+04  0.11565580574E+04  0.49694860541E+03 0.  0.
        3    1    3    3  502    0 -0.23383357500E+03  0.76617426032E+02 -0.60249652326E+03  0.65080753031E+03  0.10100000352E+00 0. -1.
       -3    1    3    3    0  502  0.23383357500E+03 -0.76617426032E+02 -0.44185429117E+03  0.50575052704E+03  0.10100000352E+00 0.  1.
</event>
<event>
 5   0  0.7416638E-02  0.5000835E+03  0.7818609E-02  0.1013757E+00
        1   -1    0    0  501    0  0.00000000000E+00  0.00000000000E+00  0.10298887879E+04  0.10298887879E+04  0.50400001928E-02 0.  1.
       -1   -1    0    0    0  501  0.00000000000E+00  0.00000000000E+00 -0.60706426582E+02  0.60706426792E+02  0.50400001928E-02 0. -1.
    10030    2    1    2    0    0  0.00000000000E+00  0.00000000000E+00  0.96918236135E+03  0.10905952147E+04  0.50008346589E+03 0.  0.
        1    1    3    3  502    0  0.20185578323E+03  0.75862720766E+02  0.76061832102E+03  0.79059543379E+03  0.50400001928E-02 0.  1.
       -1    1    3    3    0  502 -0.20185578323E+03 -0.75862720766E+02  0.20856404032E+03  0.29999978094E+03  0.50400001928E-02 0. -1.
</event>
<event>
 5   0  0.1191894E-01  0.5029789E+03  0.7818609E-02  0.1013004E+00
        2   -1    0    0  501    0  0.00000000000E+00  0.00000000000E+00  0.88597015851E+03  0.88597015851E+03  0.25500000920E-02 0. -1.
       -2   -1    0    0    0  501  0.00000000000E+00  0.00000000000E+00 -0.71387210202E+02  0.71387210247E+02  0.25500000920E-02 0.  1.
    10030    2    1    2    0    0  0.00000000000E+00  0.00000000000E+00  0.81458294831E+03  0.95735736876E+03  0.50297887813E+03 0.  0.
        3    1    3    3  502    0  0.16158642928E+03  0.13329798642E+03  0.67218492094E+03  0.70406754324E+03  0.10100000352E+00 0. -1.
       -3    1    3    3    0  502 -0.16158642928E+03 -0.13329798642E+03  0.14239802737E+03  0.25328982552E+03  0.10100000352E+00 0.  1.
</event>
<event>
 5   0  0.7812547E-02  0.4941857E+03  0.7818609E-02  0.1015308E+00
       -1   -1    0    0    0  501  0.00000000000E+00  0.00000000000E+00  0.44869401942E+02  0.44869402225E+02  0.50400001928E-02 0. -1.
        1   -1    0    0  501    0  0.00000000000E+00  0.00000000000E+00 -0.13607243320E+04  0.13607243320E+04  0.50400001928E-02 0.  1.
    10030    2    1    2    0    0  0.00000000000E+00  0.00000000000E+00 -0.13158549301E+04  0.14055937342E+04  0.49418574318E+03 0.  0.
        4    1    3    3  502    0 -0.13653747722E+03 -0.19842133777E+03 -0.50111175927E+03  0.55599291196E+03  0.12699999809E+01 0. -1.
       -4    1    3    3    0  502  0.13653747722E+03  0.19842133777E+03 -0.81474317079E+03  0.84960082228E+03  0.12699999809E+01 0.  1.
</event>
<event>
 5   0  0.1211345E-01  0.4950817E+03  0.7818609E-02  0.1015071E+00
        2   -1    0    0  501    0  0.00000000000E+00  0.00000000000E+00  0.52291906478E+03  0.52291906478E+03  0.25500000920E-02 0. -1.
       -2   -1    0    0    0  501  0.00000000000E+00  0.00000000000E+00 -0.11718156350E+03  0.11718156353E+03  0.25500000920E-02 0.  1.
    10030    2    1    2    0    0  0.00000000000E+00  0.00000000000E+00  0.40573750128E+03  0.64010062831E+03  0.49508170480E+03 0.  0.
        5    1    3    3  502    0 -0.28339333406E+01 -0.24737072920E+03  0.21237630231E+03  0.32607682013E+03  0.46999998093E+01 0. -1.
       -5    1    3    3    0  502  0.28339333406E+01  0.24737072920E+03  0.19336119897E+03  0.31402380819E+03  0.46999998093E+01 0.  1.
</event>
<event>
 5   0  0.7531632E-02  0.5011833E+03  0.7818609E-02  0.1013471E+00
        1   -1    0    0  501    0  0.00000000000E+00  0.00000000000E+00  0.48544750709E+03  0.48544750712E+03  0.50400001928E-02 0. -1.
       -1   -1    0    0    0  501  0.00000000000E+00  0.00000000000E+00 -0.12935731791E+03  0.12935731801E+03  0.50400001928E-02 0.  1.
    10030    2    1    2    0    0  0.00000000000E+00  0.00000000000E+00  0.35609018918E+03  0.61480482513E+03  0.50118334985E+03 0.  0.
        3    1    3    3  502    0  0.47851828794E+02 -0.33381795653E+02 -0.12090915949E+03  0.13425042588E+03  0.10100000352E+00 0.  1.
       -3    1    3    3    0  502 -0.47851828794E+02  0.33381795653E+02  0.47699934867E+03  0.48055439924E+03  0.10100000352E+00 0. -1.
</event>
<event>
 5   0  0.1279188E-01  0.4994141E+03  0.7818609E-02  0.1013932E+00
        2   -1    0    0  501    0  0.00000000000E+00  0.00000000000E+00  0.14897354411E+04  0.14897354411E+04  0.25500000920E-02 0.  1.
       -2   -1    0    0    0  501  0.00000000000E+00  0.00000000000E+00 -0.41855497710E+02  0.41855497788E+02  0.25500000920E-02 0. -1.
    10030    2    1    2    0    0  0.00000000000E+00  0.00000000000E+00  0.14478799434E+04  0.15315909389E+04  0.49941413038E+03 0.  0.
        2    1    3    3  502    0 -0.68060902235E+02 -0.24006153355E+03  0.75332219194E+03  0.79357176813E+03  0.25500000920E-02 0.  1.
       -2    1    3    3    0  502  0.68060902235E+02  0.24006153355E+03  0.69455775147E+03  0.73801917078E+03  0.25500000920E-02 0. -1.
</event>
<event>
 5   0  0.7602288E-02  0.4968087E+03  0.7818609E-02  0.1014615E+00
        1   -1    0    0  501    0  0.00000000000E+00  0.00000000000E+00  0.30987163801E+03  0.30987163805E+03  0.50400001928E-02 0.  1.
       -1   -1    0    0    0  501  0.00000000000E+00  0.00000000000E+00 -0.19912992589E+03  0.19912992595E+03  0.50400001928E-02 0. -1.
    10030    2    1    2    0    0  0.00000000000E+00  0.00000000000E+00  0.11074171212E+03  0.50900156401E+03  0.49680868084E+03 0.  0.
        5    1    3    3  502    0 -0.48692171505E+02 -0.21373915305E+03  0.17497174921E+03  0.28052193521E+03  0.46999998093E+01 0.  1.
       -5    1    3    3    0  502  0.48692171505E+02  0.21373915305E+03 -0.64230037089E+02  0.22847962880E+03  0.46999998093E+01 0. -1.
</event>
<event>
 5   0  0.7781754E-02  0.4964483E+03  0.7818609E-02  0.1014710E+00
        1   -1    0    0  501    0  0.00000000000E+00  0.00000000000E+00  0.77641354693E+03  0.77641354694E+03  0.50400001928E-02 0. -1.
       -1   -1    0    0    0  501  0.00000000000E+00  0.00000000000E+00 -0.79358785247E+02  0.79358785407E+02  0.50400001928E-02 0.  1.
    10030    2    1    2    0    0  0.00000000000E+00  0.00000000000E+00  0.69705476168E+03  0.85577233235E+03  0.49644832968E+03 0.  0.
        2    1    3    3  502    0 -0.68551162654E+02  0.37418480505E+02 -0.57628374498E+02  0.97058920962E+02  0.25500000920E-02 0.  1.
       -2    1    3    3    0  502  0.68551162654E+02 -0.37418480505E+02  0.75468313618E+03  0.75871341139E+03  0.25500000920E-02 0. -1.
</event>
<event>
 5   0  0.7602288E-02  0.4721535E+03  0.7818609E-02  0.1021314E+00
        1   -1    0    0  501    0  0.00000000000E+00  0.00000000000E+00  0.17144603695E+03  0.17144603703E+03  0.50400001928E-02 0. -1.
       -1   -1    0    0    0  501  0.00000000000E+00  0.00000000000E+00 -0.32507162975E+03  0.32507162979E+03  0.50400001928E-02 0.  1.
    10030    2    1    2    0    0  0.00000000000E+00  0.00000000000E+00 -0.15362559280E+03  0.49651766682E+03  0.47215354568E+03 0.  0.
        5    1    3    3  502    0 -0.74451811666E+02 -0.16633774008E+03  0.80923442698E+02  0.19945427950E+03  0.46999998093E+01 0. -1.
       -5    1    3    3    0  502  0.74451811666E+02  0.16633774008E+03 -0.23454903550E+03  0.29706338732E+03  0.46999998093E+01 0.  1.
</event>
<event>
 5   0  0.1211345E-01  0.4906369E+03  0.7818609E-02  0.1016252E+00
       -2   -1    0    0    0  501  0.00000000000E+00  0.00000000000E+00  0.23651354560E+03  0.23651354562E+03  0.25500000920E-02 0.  1.
        2   -1    0    0  501    0  0.00000000000E+00  0.00000000000E+00 -0.25445118569E+03  0.25445118571E+03  0.25500000920E-02 0. -1.
    10030    2    1    2    0    0  0.00000000000E+00  0.00000000000E+00 -0.17937640091E+02  0.49096473133E+03  0.49063694161E+03 0.  0.
        5    1    3    3  502    0  0.13845407693E+03  0.13364779629E+03  0.14321104222E+03  0.23992239888E+03  0.46999998093E+01 0.  1.
       -5    1    3    3    0  502 -0.13845407693E+03 -0.13364779629E+03 -0.16114868231E+03  0.25104233245E+03  0.46999998093E+01 0. -1.
</event>
<event>
 5   0  0.7602288E-02  0.4984075E+03  0.7818609E-02  0.1014195E+00
        1   -1    0    0  501    0  0.00000000000E+00  0.00000000000E+00  0.77842359286E+02  0.77842359449E+02  0.50400001928E-02 0. -1.
       -1   -1    0    0    0  501  0.00000000000E+00  0.00000000000E+00 -0.79779845621E+03  0.79779845622E+03  0.50400001928E-02 0.  1.
    10030    2    1    2    0    0  0.00000000000E+00  0.00000000000E+00 -0.71995609692E+03  0.87564081567E+03  0.49840752059E+03 0.  0.
        5    1    3    3  502    0 -0.11194076090E+03 -0.12459110498E+03 -0.68405759642E+03  0.70428017338E+03  0.46999998093E+01 0.  1.
       -5    1    3    3    0  502  0.11194076090E+03  0.12459110498E+03 -0.35898500500E+02  0.17136064230E+03  0.46999998093E+01 0. -1.
</event>
<event>
 5   0  0.1231822E-01  0.5038301E+03  0.7818609E-02  0.1012784E+00
       -2   -1    0    0    0  501  0.00000000000E+00  0.00000000000E+00  0.34685503007E+02  0.34685503100E+02  0.25500000920E-02 0. -1.
        2   -1    0    0  501    0  0.00000000000E+00  0.00000000000E+00 -0.18296175373E+04  0.18296175373E+04  0.25500000920E-02 0.  1.
    10030    2    1    2    0    0  0.00000000000E+00  0.00000000000E+00 -0.17949320343E+04  0.18643030404E+04  0.50383014869E+03 0.  0.
        1    1    3    3  502    0  0.17990554543E+03  0.15817710693E+03 -0.11858776183E+04  0.12098312808E+04  0.50400001928E-02 0.  1.
       -1    1    3    3    0  502 -0.17990554543E+03 -0.15817710693E+03 -0.60905441605E+03  0.65447175964E+03  0.50400001928E-02 0. -1.
</event>
<event>
 5   0  0.1211345E-01  0.5036783E+03  0.7818609E-02  0.1012823E+00
        2   -1    0    0  501    0  0.00000000000E+00  0.00000000000E+00  0.10887462257E+04  0.10887462257E+04  0.25500000920E-02 0.  1.
       -2   -1    0    0    0  501  0.00000000000E+00  0.00000000000E+00 -0.58253207629E+02  0.58253207685E+02  0.25500000920E-02 0. -1.
    10030    2    1    2    0    0  0.00000000000E+00  0.00000000000E+00  0.10304930181E+04  0.11469994334E+04  0.50367830994E+03 0.  0.
        5    1    3    3  502    0  0.23362893488E+03  0.48903079789E+02  0.69780836180E+03  0.73751785756E+03  0.46999998093E+01 0.  1.
       -5    1    3    3    0  502 -0.23362893488E+03 -0.48903079789E+02  0.33268465627E+03  0.40948157583E+03  0.46999998093E+01 0. -1.
</event>
<event>
 5   0  0.1211345E-01  0.4975263E+03  0.7818609E-02  0.1014427E+00
        2   -1    0    0  501    0  0.00000000000E+00  0.00000000000E+00  0.50831269088E+03  0.50831269088E+03  0.25500000920E-02 0. -1.
       -2   -1    0    0    0  501  0.00000000000E+00  0.00000000000E+00 -0.12174220728E+03  0.12174220730E+03  0.25500000920E-02 0.  1.
    10030    2    1    2    0    0  0.00000000000E+00  0.00000000000E+00  0.38657048360E+03  0.63005489819E+03  0.49752631683E+03 0.  0.
        5    1    3    3  502    0  0.23004368520E+03  0.60260336376E+02  0.10100817126E+03  0.25841080841E+03  0.46999998093E+01 0.  1.
       -5    1    3    3    0  502 -0.23004368520E+03 -0.60260336376E+02  0.28556231234E+03  0.37164408978E+03  0.46999998093E+01 0. -1.
</event>
<event>
 5   0  0.7531632E-02  0.5055496E+03  0.7818609E-02  0.1012340E+00
        1   -1    0    0  501    0  0.00000000000E+00  0.00000000000E+00  0.13027079806E+04  0.13027079806E+04  0.50400001928E-02 0. -1.
       -1   -1    0    0    0  501  0.00000000000E+00  0.00000000000E+00 -0.49047901690E+02  0.49047901949E+02  0.50400001928E-02 0.  1.
    10030    2    1    2    0    0  0.00000000000E+00  0.00000000000E+00  0.12536600789E+04  0.13517558826E+04  0.50554957481E+03 0.  0.
        3    1    3    3  502    0 -0.43648736749E+02  0.24256980856E+03  0.47676719959E+03  0.53670503728E+03  0.10100000352E+00 0.  1.
       -3    1    3    3    0  502  0.43648736749E+02 -0.24256980856E+03  0.77689287935E+03  0.81505084530E+03  0.10100000352E+00 0. -1.
</event>
<event>
 5   0  0.7602288E-02  0.4987544E+03  0.7818609E-02  0.1014105E+00
       -1   -1    0    0    0  501  0.00000000000E+00  0.00000000000E+00  0.20791441685E+03  0.20791441691E+03  0.50400001928E-02 0. -1.
        1   -1    0    0  501    0  0.00000000000E+00  0.00000000000E+00 -0.29910856716E+03  0.29910856720E+03  0.50400001928E-02 0.  1.
    10030    2    1    2    0    0  0.00000000000E+00  0.00000000000E+00 -0.91194150309E+02  0.50702298412E+03  0.49875438181E+03 0.  0.
        5    1    3    3  502    0  0.12976017675E+03 -0.20085643730E+02  0.16987382384E+03  0.21475647273E+03  0.46999998093E+01 0. -1.
       -5    1    3    3    0  502 -0.12976017675E+03  0.20085643730E+02 -0.26106797415E+03  0.29226651139E+03  0.46999998093E+01 0.  1.
</event>
<event>
 5   0  0.1211345E-01  0.5072745E+03  0.7818609E-02  0.1011897E+00
       -2   -1    0    0    0  501  0.00000000000E+00  0.00000000000E+00  0.20824824916E+03  0.20824824918E+03  0.25500000920E-02 0. -1.
        2   -1    0    0  501    0  0.00000000000E+00  0.00000000000E+00 -0.30891908753E+03  0.30891908754E+03  0.25500000920E-02 0.  1.
    10030    2    1    2    0    0  0.00000000000E+00  0.00000000000E+00 -0.10067083837E+03  0.51716733672E+03  0.50727451786E+03 0.  0.
        5    1    3    3  502    0 -0.10936703846E+03 -0.20438457172E+03 -0.15517852283E+03  0.27899223323E+03  0.46999998093E+01 0. -1.
       -5    1    3    3    0  502  0.10936703846E+03  0.20438457172E+03  0.54507684463E+02  0.23817510349E+03  0.46999998093E+01 0.  1.
</event>
<event>
 5   0  0.7781754E-02  0.5063389E+03  0.7818609E-02  0.1012137E+00
        1   -1    0    0  501    0  0.00000000000E+00  0.00000000000E+00  0.10739075292E+04  0.10739075292E+04  0.50400001928E-02 0.  1.
       -1   -1    0    0    0  501  0.00000000000E+00  0.00000000000E+00 -0.59683699670E+02  0.59683699882E+02  0.50400001928E-02 0. -1.
    10030    2    1    2    0    0  0.00000000000E+00  0.00000000000E+00  0.10142238296E+04  0.11335912291E+04  0.50633891644E+03 0.  0.
        2    1    3    3  502    0 -0.16227058205E+03 -0.12974108667E+03  0.18321805016E+03  0.27700784336E+03  0.25500000920E-02 0.  1.
       -2    1    3    3    0  502  0.16227058205E+03  0.12974108667E+03  0.83100577940E+03  0.85658338577E+03  0.25500000920E-02 0. -1.
</event>
<event>
 5   0  0.1231822E-01  0.5061286E+03  0.7818609E-02  0.1012192E+00
        2   -1    0    0  501    0  0.00000000000E+00  0.00000000000E+00  0.19717422348E+03  0.19717422350E+03  0.25500000920E-02 0. -1.
       -2   -1    0    0    0  501  0.00000000000E+00  0.00000000000E+00 -0.32479674710E+03  0.32479674711E+03  0.25500000920E-02 0.  1.
    10030    2    1    2    0    0  0.00000000000E+00  0.00000000000E+00 -0.12762252362E+03  0.52197097062E+03  0.50612862558E+03 0.  0.
        1    1    3    3  502    0 -0.24513548472E+03  0.62835484135E+02 -0.62411407673E+02  0.26064321930E+03  0.50400001928E-02 0.  1.
       -1    1    3    3    0  502  0.24513548472E+03 -0.62835484135E+02 -0.65211115947E+02  0.26132775131E+03  0.50400001928E-02 0. -1.
</event>
<event>
 5   0  0.7602288E-02  0.5022484E+03  0.7818609E-02  0.1013194E+00
        1   -1    0    0  501    0  0.00000000000E+00  0.00000000000E+00  0.73984692515E+02  0.73984692687E+02  0.50400001928E-02 0.  1.
       -1   -1    0    0    0  501  0.00000000000E+00  0.00000000000E+00 -0.85238388686E+03  0.85238388687E+03  0.50400001928E-02 0. -1.
    10030    2    1    2    0    0  0.00000000000E+00  0.00000000000E+00 -0.77839919434E+03  0.92636857956E+03  0.50224838421E+03 0.  0.
        5    1    3    3  502    0 -0.11970512593E+03  0.65184174739E+02 -0.27578670646E+00  0.13638350291E+03  0.46999998093E+01 0.  1.
       -5    1    3    3    0  502  0.11970512593E+03 -0.65184174739E+02 -0.77812340763E+03  0.78998507664E+03  0.46999998093E+01 0. -1.
</event>
<event>
 5   0  0.7416638E-02  0.4999243E+03  0.7818609E-02  0.1013799E+00
        1   -1    0    0  501    0  0.00000000000E+00  0.00000000000E+00  0.65823434169E+03  0.65823434171E+03  0.50400001928E-02 0. -1.
       -1   -1    0    0    0  501  0.00000000000E+00  0.00000000000E+00 -0.94922241194E+02  0.94922241328E+02  0.50400001928E-02 0.  1.
    10030    2    1    2    0    0  0.00000000000E+00  0.00000000000E+00  0.56331210050E+03  0.75315658304E+03  0.49992431028E+03 0.  0.
        1    1    3    3  502    0  0.14555574543E+03  0.35346045139E+02  0.58313471620E+03  0.60206471015E+03  0.50400001928E-02 0. -1.
       -1    1    3    3    0  502 -0.14555574543E+03 -0.35346045139E+02 -0.19822615708E+02  0.15109187289E+03  0.50400001928E-02 0.  1.
</event>
<event>
 5   0  0.7416638E-02  0.5015941E+03  0.7818609E-02  0.1013364E+00
        1   -1    0    0  501    0  0.00000000000E+00  0.00000000000E+00  0.93016542846E+03  0.93016542847E+03  0.50400001928E-02 0. -1.
       -1   -1    0    0    0  501  0.00000000000E+00  0.00000000000E+00 -0.67621470382E+02  0.67621470570E+02  0.50400001928E-02 0.  1.
    10030    2    1    2    0    0  0.00000000000E+00  0.00000000000E+00  0.86254395808E+03  0.99778689904E+03  0.50159407521E+03 0.  0.
        1    1    3    3  502    0 -0.17955497687E+03 -0.17322229105E+03  0.48211240993E+03  0.54284282040E+03  0.50400001928E-02 0.  1.
       -1    1    3    3    0  502  0.17955497687E+03  0.17322229105E+03  0.38043154815E+03  0.45494407864E+03  0.50400001928E-02 0. -1.
</event>
<event>
 5   0  0.7781754E-02  0.5000353E+03  0.7818609E-02  0.1013770E+00
       -1   -1    0    0    0  501  0.00000000000E+00  0.00000000000E+00  0.42563366220E+03  0.42563366223E+03  0.50400001928E-02 0.  1.
        1   -1    0    0  501    0  0.00000000000E+00  0.00000000000E+00 -0.14686063110E+03  0.14686063119E+03  0.50400001928E-02 0. -1.
    10030    2    1    2    0    0  0.00000000000E+00  0.00000000000E+00  0.27877303110E+03  0.57249429343E+03  0.50003531189E+03 0.  0.
        2    1    3    3  502    0 -0.13582328450E+03  0.28862214405E+02  0.37742777317E+03  0.40216006266E+03  0.25500000920E-02 0.  1.
       -2    1    3    3    0  502  0.13582328450E+03 -0.28862214405E+02 -0.98654742068E+02  0.17033423077E+03  0.25500000920E-02 0. -1.
</event>
<event>
 5   0  0.1243803E-01  0.5011624E+03  0.7818609E-02  0.1013476E+00
       -2   -1    0    0    0  501  0.00000000000E+00  0.00000000000E+00  0.42393042056E+03  0.42393042056E+03  0.25500000920E-02 0.  1.
        2   -1    0    0  501    0  0.00000000000E+00  0.00000000000E+00 -0.14811612640E+03  0.14811612642E+03  0.25500000920E-02 0. -1.
    10030    2    1    2    0    0  0.00000000000E+00  0.00000000000E+00  0.27581429415E+03  0.57204654699E+03  0.50116237594E+03 0.  0.
        4    1    3    3  502    0 -0.18675553801E+02 -0.24931510957E+03  0.11872149760E+03  0.27677284379E+03  0.12699999809E+01 0. -1.
       -4    1    3    3    0  502  0.18675553801E+02  0.24931510957E+03  0.15709279655E+03  0.29527370319E+03  0.12699999809E+01 0.  1.
</event>
<event>
 5   0  0.1191894E-01  0.5010814E+03  0.7818609E-02  0.1013497E+00
       -2   -1    0    0    0  501  0.00000000000E+00  0.00000000000E+00  0.75999811407E+02  0.75999811449E+02  0.25500000920E-02 0. -1.
        2   -1    0    0  501    0  0.00000000000E+00  0.00000000000E+00 -0.82593153044E+03  0.82593153044E+03  0.25500000920E-02 0.  1.
    10030    2    1    2    0    0  0.00000000000E+00  0.00000000000E+00 -0.74993171903E+03  0.90193134189E+03  0.50108139287E+03 0.  0.
        3    1    3    3  502    0  0.13614462182E+02 -0.15314645908E+03 -0.18901822578E+02  0.15490797464E+03  0.10100000352E+00 0. -1.
       -3    1    3    3    0  502 -0.13614462182E+02  0.15314645908E+03 -0.73102989646E+03  0.74702336725E+03  0.10100000352E+00 0.  1.
</event>
<event>
 5   0  0.7812547E-02  0.4995680E+03  0.7818609E-02  0.1013892E+00
        1   -1    0    0  501    0  0.00000000000E+00  0.00000000000E+00  0.87262880541E+03  0.87262880542E+03  0.50400001928E-02 0.  1.
       -1   -1    0    0    0  501  0.00000000000E+00  0.00000000000E+00 -0.71498958823E+02  0.71498959001E+02  0.50400001928E-02 0. -1.
    10030    2    1    2    0    0  0.00000000000E+00  0.00000000000E+00  0.80112984659E+03  0.94412776442E+03  0.49956801786E+03 0.  0.
        4    1    3    3  502    0  0.18343777324E+03 -0.13917814606E+03  0.21762153485E+03  0.31682916268E+03  0.12699999809E+01 0. -1.
       -4    1    3    3    0  502 -0.18343777324E+03  0.13917814606E+03  0.58350831173E+03  0.62729860175E+03  0.12699999809E+01 0.  1.
</event>
<event>
 5   0  0.1211345E-01  0.5108556E+03  0.7818609E-02  0.1010984E+00
       -2   -1    0    0    0  501  0.00000000000E+00  0.00000000000E+00  0.59461945335E+02  0.59461945390E+02  0.25500000920E-02 0. -1.
        2   -1    0    0  501    0  0.00000000000E+00  0.00000000000E+00 -0.10972289185E+04  0.10972289186E+04  0.25500000920E-02 0.  1.
    10030    2    1    2    0    0  0.00000000000E+00  0.00000000000E+00 -0.10377669732E+04  0.11566908639E+04  0.51085561956E+03 0.  0.
        5    1    3    3  502    0  0.56527374754E+02 -0.19489912390E+03 -0.86994946257E+03  0.89331694824E+03  0.46999998093E+01 0.  1.
       -5    1    3    3    0  502 -0.56527374754E+02  0.19489912390E+03 -0.16781751065E+03  0.26337391570E+03  0.46999998093E+01 0. -1.
</event>
<event>
 5   0  0.1191894E-01  0.5214556E+03  0.7818609E-02  0.1008326E+00
        2   -1    0    0  501    0  0.00000000000E+00  0.00000000000E+00  0.13575772900E+04  0.13575772900E+04  0.25500000920E-02 0.  1.
       -2   -1    0    0    0  501  0.00000000000E+00  0.00000000000E+00 -0.50073757823E+02  0.50073757888E+02  0.25500000920E-02 0. -1.
    10030    2    1    2    0    0  0.00000000000E+00  0.00000000000E+00  0.13075035322E+04  0.14076510479E+04  0.52145564142E+03 0.  0.
        3    1    3    3  502    0  0.45177355768E+02  0.23689493552E+02 -0.36471301802E+02  0.62708465418E+02  0.10100000352E+00 0. -1.
       -3    1    3    3    0  502 -0.45177355768E+02 -0.23689493552E+02  0.13439748340E+04  0.13449425824E+04  0.10100000352E+00 0.  1.
</event>
<event>
 5   0  0.1243803E-01  0.5010062E+03  0.7818609E-02  0.1013517E+00
        2   -1    0    0  501    0  0.00000000000E+00  0.00000000000E+00  0.36247799189E+03  0.36247799189E+03  0.25500000920E-02 0.  1.
       -2   -1    0    0    0  501  0.00000000000E+00  0.00000000000E+00 -0.17311894936E+03  0.17311894937E+03  0.25500000920E-02 0. -1.
    10030    2    1    2    0    0  0.00000000000E+00  0.00000000000E+00  0.18935904253E+03  0.53559694127E+03  0.50100622402E+03 0.  0.
        4    1    3    3  502    0  0.15988103471E+03 -0.18865522743E+03  0.13740721353E+03  0.28290474603E+03  0.12699999809E+01 0.  1.
       -4    1    3    3    0  502 -0.15988103471E+03  0.18865522743E+03  0.51951829003E+02  0.25269219524E+03  0.12699999809E+01 0. -1.
</event>
<event>
 5   0  0.1279188E-01  0.5018676E+03  0.7818609E-02  0.1013293E+00
       -2   -1    0    0    0  501  0.00000000000E+00  0.00000000000E+00  0.15826488139E+03  0.15826488141E+03  0.25500000920E-02 0. -1.
        2   -1    0    0  501    0  0.00000000000E+00  0.00000000000E+00 -0.39786315952E+03  0.39786315952E+03  0.25500000920E-02 0.  1.
    10030    2    1    2    0    0  0.00000000000E+00  0.00000000000E+00 -0.23959827812E+03  0.55612804094E+03  0.50186757520E+03 0.  0.
        2    1    3    3  502    0  0.16061512336E+03  0.19171250418E+03 -0.14242383052E+03  0.28781148277E+03  0.25500000920E-02 0.  1.
       -2    1    3    3    0  502 -0.16061512336E+03 -0.19171250418E+03 -0.97174447607E+02  0.26831655816E+03  0.25500000920E-02 0. -1.
</event>
<event>
 5   0  0.1279188E-01  0.4999095E+03  0.7818609E-02  0.1013803E+00
       -2   -1    0    0    0  501  0.00000000000E+00  0.00000000000E+00  0.16539308365E+03  0.16539308367E+03  0.25500000920E-02 0. -1.
        2   -1    0    0  501    0  0.00000000000E+00  0.00000000000E+00 -0.37775085388E+03  0.37775085388E+03  0.25500000920E-02 0.  1.
    10030    2    1    2    0    0  0.00000000000E+00  0.00000000000E+00 -0.21235777022E+03  0.54314393756E+03  0.49990950614E+03 0.  0.
        2    1    3    3  502    0 -0.15936439140E+03  0.11682056565E+03 -0.27249736116E+03  0.33659896858E+03  0.25500000920E-02 0.  1.
       -2    1    3    3    0  502  0.15936439140E+03 -0.11682056565E+03  0.60139590935E+02  0.20654496898E+03  0.25500000920E-02 0. -1.
</event>
<event>
 5   0  0.1279188E-01  0.5016161E+03  0.7818609E-02  0.1013358E+00
        2   -1    0    0  501    0  0.00000000000E+00  0.00000000000E+00  0.95825741668E+03  0.95825741669E+03  0.25500000920E-02 0. -1.
       -2   -1    0    0    0  501  0.00000000000E+00  0.00000000000E+00 -0.65644854836E+02  0.65644854886E+02  0.25500000920E-02 0.  1.
    10030    2    1    2    0    0  0.00000000000E+00  0.00000000000E+00  0.89261256185E+03  0.10239022716E+04  0.50161606450E+03 0.  0.
        2    1    3    3  502    0 -0.11274503467E+03 -0.11558484490E+03  0.83805519089E+03  0.85346810262E+03  0.25500000920E-02 0. -1.
       -2    1    3    3    0  502  0.11274503467E+03  0.11558484490E+03  0.54557370960E+02  0.17043416895E+03  0.25500000920E-02 0.  1.
</event>
<event>
 5   0  0.1191894E-01  0.4998268E+03  0.7818609E-02  0.1013824E+00
        2   -1    0    0  501    0  0.00000000000E+00  0.00000000000E+00  0.80085997551E+03  0.80085997551E+03  0.25500000920E-02 0. -1.
       -2   -1    0    0    0  501  0.00000000000E+00  0.00000000000E+00 -0.77987049162E+02  0.77987049204E+02  0.25500000920E-02 0.  1.
    10030    2    1    2    0    0  0.00000000000E+00  0.00000000000E+00  0.72287292635E+03  0.87884702472E+03  0.49982679521E+03 0.  0.
        3    1    3    3  502    0 -0.13277443464E+03  0.14642293006E+03  0.92536943108E+02  0.21824715573E+03  0.10100000352E+00 0.  1.
       -3    1    3    3    0  502  0.13277443464E+03 -0.14642293006E+03  0.63033598324E+03  0.66059986899E+03  0.10100000352E+00 0. -1.
</event>
<event>
 5   0  0.1243803E-01  0.4970165E+03  0.7818609E-02  0.1014561E+00
       -2   -1    0    0    0  501  0.00000000000E+00  0.00000000000E+00  0.45957993503E+03  0.45957993504E+03  0.25500000920E-02 0. -1.
        2   -1    0    0  501    0  0.00000000000E+00  0.00000000000E+00 -0.13437565681E+03  0.13437565683E+03  0.25500000920E-02 0.  1.
    10030    2    1    2    0    0  0.00000000000E+00  0.00000000000E+00  0.32520427822E+03  0.59395559187E+03  0.49701652139E+03 0.  0.
        4    1    3    3  502    0  0.14145660927E+03  0.17934780789E+03  0.45639736863E+02  0.23293820421E+03  0.12699999809E+01 0.  1.
       -4    1    3    3    0  502 -0.14145660927E+03 -0.17934780789E+03  0.27956454136E+03  0.36101738765E+03  0.12699999809E+01 0. -1.
</event>
<event>
 5   0  0.1231822E-01  0.4994877E+03  0.7818609E-02  0.1013913E+00
       -2   -1    0    0    0  501  0.00000000000E+00  0.00000000000E+00  0.35059789477E+02  0.35059789570E+02  0.25500000920E-02 0.  1.
        2   -1    0    0  501    0  0.00000000000E+00  0.00000000000E+00 -0.17790175748E+04  0.17790175748E+04  0.25500000920E-02 0. -1.
    10030    2    1    2    0    0  0.00000000000E+00  0.00000000000E+00 -0.17439577853E+04  0.18140773644E+04  0.49948766445E+03 0.  0.
        1    1    3    3  502    0 -0.18339451327E+03 -0.89471294005E+02 -0.34902249433E+03  0.40429613098E+03  0.50400001928E-02 0.  1.
       -1    1    3    3    0  502  0.18339451327E+03  0.89471294005E+02 -0.13949352910E+04  0.14097812334E+04  0.50400001928E-02 0. -1.
</event>
<event>
 5   0  0.7812547E-02  0.5162793E+03  0.7818609E-02  0.1009615E+00
        1   -1    0    0  501    0  0.00000000000E+00  0.00000000000E+00  0.19335149359E+03  0.19335149366E+03  0.50400001928E-02 0. -1.
       -1   -1    0    0    0  501  0.00000000000E+00  0.00000000000E+00 -0.34463695327E+03  0.34463695331E+03  0.50400001928E-02 0.  1.
    10030    2    1    2    0    0  0.00000000000E+00  0.00000000000E+00 -0.15128545968E+03  0.53798844697E+03  0.51627926431E+03 0.  0.
        4    1    3    3  502    0  0.10154920219E+03 -0.23634927169E+03 -0.53263205528E+02  0.26270097194E+03  0.12699999809E+01 0. -1.
       -4    1    3    3    0  502 -0.10154920219E+03  0.23634927169E+03 -0.98022254151E+02  0.27528747502E+03  0.12699999809E+01 0.  1.
</event>
<event>
 5   0  0.7531632E-02  0.4974357E+03  0.7818609E-02  0.1014450E+00
       -1   -1    0    0    0  501  0.00000000000E+00  0.00000000000E+00  0.95984363984E+02  0.95984364116E+02  0.50400001928E-02 0. -1.
        1   -1    0    0  501    0  0.00000000000E+00  0.00000000000E+00 -0.64448585116E+03  0.64448585118E+03  0.50400001928E-02 0.  1.
    10030    2    1    2    0    0  0.00000000000E+00  0.00000000000E+00 -0.54850148718E+03  0.74047021530E+03  0.49743568258E+03 0.  0.
        3    1    3    3  502    0  0.90139727698E+02  0.22183420882E+03 -0.17411747364E+03  0.29606163470E+03  0.10100000352E+00 0. -1.
       -3    1    3    3    0  502 -0.90139727698E+02 -0.22183420882E+03 -0.37438401354E+03  0.44440858060E+03  0.10100000352E+00 0.  1.
</event>
<event>
 5   0  0.7812547E-02  0.5041267E+03  0.7818609E-02  0.1012707E+00
        1   -1    0    0  501    0  0.00000000000E+00  0.00000000000E+00  0.27185479615E+03  0.27185479620E+03  0.50400001928E-02 0.  1.
       -1   -1    0    0    0  501  0.00000000000E+00  0.00000000000E+00 -0.23371278211E+03  0.23371278217E+03  0.50400001928E-02 0. -1.
    10030    2    1    2    0    0  0.00000000000E+00  0.00000000000E+00  0.38142014037E+02  0.50556757837E+03  0.50412673313E+03 0.  0.
        4    1    3    3  502    0 -0.89569163954E+02  0.13598719327E+03  0.21202459601E+03  0.26734096970E+03  0.12699999809E+01 0.  1.
       -4    1    3    3    0  502  0.89569163954E+02 -0.13598719327E+03 -0.17388258197E+03  0.23822660867E+03  0.12699999809E+01 0. -1.
</event>
<event>
 5   0  0.1243803E-01  0.5011611E+03  0.7818609E-02  0.1013476E+00
       -2   -1    0    0    0  501  0.00000000000E+00  0.00000000000E+00  0.76591847157E+02  0.76591847199E+02  0.25500000920E-02 0.  1.
        2   -1    0    0  501    0  0.00000000000E+00  0.00000000000E+00 -0.81980808844E+03  0.81980808845E+03  0.25500000920E-02 0. -1.
    10030    2    1    2    0    0  0.00000000000E+00  0.00000000000E+00 -0.74321624129E+03  0.89639993565E+03  0.50116111513E+03 0.  0.
        4    1    3    3  502    0  0.45913487998E+02 -0.21371960022E+03 -0.59070733224E+03  0.62985782615E+03  0.12699999809E+01 0. -1.
       -4    1    3    3    0  502 -0.45913487998E+02  0.21371960022E+03 -0.15250890904E+03  0.26654210950E+03  0.12699999809E+01 0.  1.
</event>
<event>
 5   0  0.1279188E-01  0.4880203E+03  0.7818609E-02  0.1016954E+00
        2   -1    0    0  501    0  0.00000000000E+00  0.00000000000E+00  0.58413012638E+03  0.58413012638E+03  0.25500000920E-02 0. -1.
       -2   -1    0    0    0  501  0.00000000000E+00  0.00000000000E+00 -0.10193097557E+03  0.10193097560E+03  0.25500000920E-02 0.  1.
    10030    2    1    2    0    0  0.00000000000E+00  0.00000000000E+00  0.48219915081E+03  0.68606110198E+03  0.48802030143E+03 0.  0.
        2    1    3    3  502    0  0.25848329866E+02 -0.39492143063E+02  0.57765158754E+03  0.57957667493E+03  0.25500000920E-02 0. -1.
       -2    1    3    3    0  502 -0.25848329866E+02  0.39492143063E+02 -0.95452436731E+02  0.10648442705E+03  0.25500000920E-02 0.  1.
</event>
<event>
 5   0  0.1279188E-01  0.5003893E+03  0.7818609E-02  0.1013677E+00
        2   -1    0    0  501    0  0.00000000000E+00  0.00000000000E+00  0.53048328203E+03  0.53048328203E+03  0.25500000920E-02 0. -1.
       -2   -1    0    0    0  501  0.00000000000E+00  0.00000000000E+00 -0.11800064386E+03  0.11800064389E+03  0.25500000920E-02 0.  1.
    10030    2    1    2    0    0  0.00000000000E+00  0.00000000000E+00  0.41248263817E+03  0.64848392592E+03  0.50038932381E+03 0.  0.
        2    1    3    3  502    0  0.11365103657E+03 -0.22098782665E+03  0.24391765527E+03  0.34820683537E+03  0.25500000920E-02 0.  1.
       -2    1    3    3    0  502 -0.11365103657E+03  0.22098782665E+03  0.16856498290E+03  0.30027709055E+03  0.25500000920E-02 0. -1.
</event>
<event>
 5   0  0.1231822E-01  0.5010283E+03  0.7818609E-02  0.1013511E+00
        2   -1    0    0  501    0  0.00000000000E+00  0.00000000000E+00  0.48742058138E+02  0.48742058204E+02  0.25500000920E-02 0.  1.
       -2   -1    0    0    0  501  0.00000000000E+00  0.00000000000E+00 -0.12875397067E+04  0.12875397067E+04  0.25500000920E-02 0. -1.
    10030    2    1    2    0    0  0.00000000000E+00  0.00000000000E+00 -0.12387976486E+04  0.13362817649E+04  0.50102828377E+03 0.  0.
        1    1    3    3  502    0  0.17038443438E+03 -0.12833446633E+03 -0.26903824651E+03  0.34333972802E+03  0.50400001928E-02 0.  1.
       -1    1    3    3    0  502 -0.17038443438E+03  0.12833446633E+03 -0.96975940205E+03  0.99294203688E+03  0.50400001928E-02 0. -1.
</event>
<event>
 5   0  0.1211345E-01  0.5068520E+03  0.7818609E-02  0.1012006E+00
        2   -1    0    0  501    0  0.00000000000E+00  0.00000000000E+00  0.36185391150E+03  0.36185391151E+03  0.25500000920E-02 0.  1.
       -2   -1    0    0    0  501  0.00000000000E+00  0.00000000000E+00 -0.17748804857E+03  0.17748804859E+03  0.25500000920E-02 0. -1.
    10030    2    1    2    0    0  0.00000000000E+00  0.00000000000E+00  0.18436586293E+03  0.53934196010E+03  0.50685202822E+03 0.  0.
        5    1    3    3  502    0  0.29591650720E+02  0.75958653599E+02  0.34747253009E+03  0.35693785456E+03  0.46999998093E+01 0.  1.
       -5    1    3    3    0  502 -0.29591650720E+02 -0.75958653599E+02 -0.16310666716E+03  0.18240410554E+03  0.46999998093E+01 0. -1.
</event>
<event>
 5   0  0.7781754E-02  0.5094439E+03  0.7818609E-02  0.1011343E+00
        1   -1    0    0  501    0  0.00000000000E+00  0.00000000000E+00  0.46284738700E+03  0.46284738703E+03  0.50400001928E-02 0. -1.
       -1   -1    0    0    0  501  0.00000000000E+00  0.00000000000E+00 -0.14018285125E+03  0.14018285134E+03  0.50400001928E-02 0.  1.
    10030    2    1    2    0    0  0.00000000000E+00  0.00000000000E+00  0.32266453575E+03  0.60303023836E+03  0.50944387890E+03 0.  0.
        2    1    3    3  502    0  0.72661271324E+02 -0.23885640121E+03  0.22112070215E+03  0.33350623034E+03  0.25500000920E-02 0. -1.
       -2    1    3    3    0  502 -0.72661271324E+02  0.23885640121E+03  0.10154383360E+03  0.26952400802E+03  0.25500000920E-02 0.  1.
</event>
<event>
 5   0  0.7531632E-02  0.5125247E+03  0.7818609E-02  0.1010561E+00
        1   -1    0    0  501    0  0.00000000000E+00  0.00000000000E+00  0.19359795247E+04  0.19359795247E+04  0.50400001928E-02 0.  1.
       -1   -1    0    0    0  501  0.00000000000E+00  0.00000000000E+00 -0.33921020361E+02  0.33921020736E+02  0.50400001928E-02 0. -1.
    10030    2    1    2    0    0  0.00000000000E+00  0.00000000000E+00  0.19020585044E+04  0.19699005455E+04  0.51252473600E+03 0.  0.
        3    1    3    3  502    0  0.51061563974E+02  0.79509590031E+02  0.18665732849E+04  0.18689635888E+04  0.10100000352E+00 0.  1.
       -3    1    3    3    0  502 -0.51061563974E+02 -0.79509590031E+02  0.35485219510E+02  0.10093695670E+03  0.10100000352E+00 0. -1.
</event>
<event>
 5   0  0.7416638E-02  0.5038770E+03  0.7818609E-02  0.1012772E+00
        1   -1    0    0  501    0  0.00000000000E+00  0.00000000000E+00  0.28180679016E+03  0.28180679021E+03  0.50400001928E-02 0.  1.
       -1   -1    0    0    0  501  0.00000000000E+00  0.00000000000E+00 -0.22523588059E+03  0.22523588065E+03  0.50400001928E-02 0. -1.
    10030    2    1    2    0    0  0.00000000000E+00  0.00000000000E+00  0.56570909569E+02  0.50704267085E+03  0.50387697135E+03 0.  0.
        1    1    3    3  502    0  0.84352279642E+02  0.23041594936E+03 -0.29224139693E+02  0.24710497196E+03  0.50400001928E-02 0. -1.
       -1    1    3    3    0  502 -0.84352279642E+02 -0.23041594936E+03  0.85795049262E+02  0.25993769889E+03  0.50400001928E-02 0.  1.
</event>
<event>
 5   0  0.7781754E-02  0.5042266E+03  0.7818609E-02  0.1012682E+00
       -1   -1    0    0    0  501  0.00000000000E+00  0.00000000000E+00  0.70828187536E+02  0.70828187715E+02  0.50400001928E-02 0.  1.
        1   -1    0    0  501    0  0.00000000000E+00  0.00000000000E+00 -0.89739866995E+03  0.89739866997E+03  0.50400001928E-02 0. -1.
    10030    2    1    2    0    0  0.00000000000E+00  0.00000000000E+00 -0.82657048242E+03  0.96822685768E+03  0.50422662121E+03 0.  0.
        2    1    3    3  502    0 -0.61531593283E+02  0.17681725449E+03 -0.89053999298E+02  0.20731882031E+03  0.25500000920E-02 0.  1.
       -2    1    3    3    0  502  0.61531593283E+02 -0.17681725449E+03 -0.73751648312E+03  0.76090803737E+03  0.25500000920E-02 0. -1.
</event>
<event>
 5   0  0.1191894E-01  0.4998653E+03  0.7818609E-02  0.1013814E+00
        2   -1    0    0  501    0  0.00000000000E+00  0.00000000000E+00  0.10742205211E+04  0.10742205211E+04  0.25500000920E-02 0. -1.
       -2   -1    0    0    0  501  0.00000000000E+00  0.00000000000E+00 -0.58150381584E+02  0.58150381640E+02  0.25500000920E-02 0.  1.
    10030    2    1    2    0    0  0.00000000000E+00  0.00000000000E+00  0.10160701395E+04  0.11323709027E+04  0.49986531482E+03 0.  0.
        3    1    3    3  502    0  0.10587741705E+03 -0.17145335042E+02 -0.33644899246E+01  0.10730945880E+03  0.10100000352E+00 0.  1.
       -3    1    3    3    0  502 -0.10587741705E+03  0.17145335042E+02  0.10194346294E+04  0.10250614439E+04  0.10100000352E+00 0. -1.
</event>
<event>
 5   0  0.7781754E-02  0.5051929E+03  0.7818609E-02  0.1012432E+00
        1   -1    0    0  501    0  0.00000000000E+00  0.00000000000E+00  0.28425844582E+03  0.28425844587E+03  0.50400001928E-02 0. -1.
       -1   -1    0    0    0  501  0.00000000000E+00  0.00000000000E+00 -0.22446111554E+03  0.22446111560E+03  0.50400001928E-02 0.  1.
    10030    2    1    2    0    0  0.00000000000E+00  0.00000000000E+00  0.59797330279E+02  0.50871956147E+03  0.50519290524E+03 0.  0.
        2    1    3    3  502    0 -0.18301767576E+03  0.13553096329E+03 -0.80138382449E+02  0.24142549989E+03  0.25500000920E-02 0.  1.
       -2    1    3    3    0  502  0.18301767576E+03 -0.13553096329E+03  0.13993571273E+03  0.26729406157E+03  0.25500000920E-02 0. -1.
</event>
<event>
 5   0  0.1211345E-01  0.5049973E+03  0.7818609E-02  0.1012483E+00
       -2   -1    0    0    0  501  0.00000000000E+00  0.00000000000E+00  0.16262077708E+03  0.16262077710E+03  0.25500000920E-02 0.  1.
        2   -1    0    0  501    0  0.00000000000E+00  0.00000000000E+00 -0.39205052077E+03  0.39205052077E+03  0.25500000920E-02 0. -1.
    10030    2    1    2    0    0  0.00000000000E+00  0.00000000000E+00 -0.22942974368E+03  0.55467129788E+03  0.50499726871E+03 0.  0.
        5    1    3    3  502    0 -0.10526761086E+03 -0.21669142300E+03 -0.19761798281E+03  0.31162702037E+03  0.46999998093E+01 0. -1.
       -5    1    3    3    0  502  0.10526761086E+03  0.21669142300E+03 -0.31811760873E+02  0.24304427750E+03  0.46999998093E+01 0.  1.
</event>
<event>
 5   0  0.1231822E-01  0.5013646E+03  0.7818609E-02  0.1013423E+00
       -2   -1    0    0    0  501  0.00000000000E+00  0.00000000000E+00  0.61171509563E+03  0.61171509564E+03  0.25500000920E-02 0.  1.
        2   -1    0    0  501    0  0.00000000000E+00  0.00000000000E+00 -0.10273021072E+03  0.10273021075E+03  0.25500000920E-02 0. -1.
    10030    2    1    2    0    0  0.00000000000E+00  0.00000000000E+00  0.50898488492E+03  0.71444530639E+03  0.50136462055E+03 0.  0.
        1    1    3    3  502    0  0.22861851291E+03 -0.26993388024E+01  0.40098307421E+03  0.46158545980E+03  0.50400001928E-02 0.  1.
       -1    1    3    3    0  502 -0.22861851291E+03  0.26993388024E+01  0.10800181071E+03  0.25285984659E+03  0.50400001928E-02 0. -1.
</event>
<event>
 5   0  0.7602288E-02  0.4972983E+03  0.7818609E-02  0.1014487E+00
       -1   -1    0    0    0  501  0.00000000000E+00  0.00000000000E+00  0.83024916112E+02  0.83024916265E+02  0.50400001928E-02 0.  1.
        1   -1    0    0  501    0  0.00000000000E+00  0.00000000000E+00 -0.74467288655E+03  0.74467288657E+03  0.50400001928E-02 0. -1.
    10030    2    1    2    0    0  0.00000000000E+00  0.00000000000E+00 -0.66164797044E+03  0.82769780284E+03  0.49729831694E+03 0.  0.
        5    1    3    3  502    0  0.93323062991E+01 -0.19139222251E+03 -0.59444048706E+03  0.62457958455E+03  0.46999998093E+01 0. -1.
       -5    1    3    3    0  502 -0.93323062991E+01  0.19139222251E+03 -0.67207483379E+02  0.20311821829E+03  0.46999998093E+01 0.  1.
</event>
<event>
 5   0  0.7531632E-02  0.5025127E+03  0.7818609E-02  0.1013125E+00
       -1   -1    0    0    0  501  0.00000000000E+00  0.00000000000E+00  0.17058288677E+03  0.17058288684E+03  0.50400001928E-02 0. -1.
        1   -1    0    0  501    0  0.00000000000E+00  0.00000000000E+00 -0.37008257012E+03  0.37008257015E+03  0.50400001928E-02 0.  1.
    10030    2    1    2    0    0  0.00000000000E+00  0.00000000000E+00 -0.19949968335E+03  0.54066545700E+03  0.50251269908E+03 0.  0.
        3    1    3    3  502    0  0.13836359653E+03  0.11057864053E+03  0.91987001367E+02  0.19958391520E+03  0.10100000352E+00 0. -1.
       -3    1    3    3    0  502 -0.13836359653E+03 -0.11057864053E+03 -0.29148668472E+03  0.34108154180E+03  0.10100000352E+00 0.  1.
</event>
<event>
 5   0  0.7812547E-02  0.5077313E+03  0.7818609E-02  0.1011780E+00
       -1   -1    0    0    0  501  0.00000000000E+00  0.00000000000E+00  0.15090588154E+03  0.15090588162E+03  0.50400001928E-02 0.  1.
        1   -1    0    0  501    0  0.00000000000E+00  0.00000000000E+00 -0.42707259893E+03  0.42707259896E+03  0.50400001928E-02 0. -1.
    10030    2    1    2    0    0  0.00000000000E+00  0.00000000000E+00 -0.27616671739E+03  0.57797848058E+03  0.50773129529E+03 0.  0.
        4    1    3    3  502    0  0.13709547116E+03  0.17615371052E+03 -0.43718638708E+00  0.22321985121E+03  0.12699999809E+01 0.  1.
       -4    1    3    3    0  502 -0.13709547116E+03 -0.17615371052E+03 -0.27572953100E+03  0.35475862937E+03  0.12699999809E+01 0. -1.
</event>
<event>
 5   0  0.7602288E-02  0.5005170E+03  0.7818609E-02  0.1013644E+00
        1   -1    0    0  501    0  0.00000000000E+00  0.00000000000E+00  0.21889650381E+03  0.21889650387E+03  0.50400001928E-02 0.  1.
       -1   -1    0    0    0  501  0.00000000000E+00  0.00000000000E+00 -0.28611384450E+03  0.28611384454E+03  0.50400001928E-02 0. -1.
    10030    2    1    2    0    0  0.00000000000E+00  0.00000000000E+00 -0.67217340684E+02  0.50501034841E+03  0.50051701381E+03 0.  0.
        5    1    3    3  502    0 -0.13528956206E+03  0.56162464082E+02  0.17106642090E+03  0.22526273179E+03  0.46999998093E+01 0.  1.
       -5    1    3    3    0  502  0.13528956206E+03 -0.56162464082E+02 -0.23828376159E+03  0.27974761662E+03  0.46999998093E+01 0. -1.
</event>
<event>
 5   0  0.1279188E-01  0.4984215E+03  0.7818609E-02  0.1014192E+00
       -2   -1    0    0    0  501  0.00000000000E+00  0.00000000000E+00  0.68926132407E+02  0.68926132454E+02  0.25500000920E-02 0.  1.
        2   -1    0    0  501    0  0.00000000000E+00  0.00000000000E+00 -0.90105161067E+03  0.90105161067E+03  0.25500000920E-02 0. -1.
    10030    2    1    2    0    0  0.00000000000E+00  0.00000000000E+00 -0.83212547826E+03  0.96997774312E+03  0.49842151898E+03 0.  0.
        2    1    3    3  502    0  0.13163398555E+03  0.17803220917E+02 -0.82641539084E+03  0.83702261561E+03  0.25500000920E-02 0. -1.
       -2    1    3    3    0  502 -0.13163398555E+03 -0.17803220917E+02 -0.57100874204E+01  0.13295512751E+03  0.25500000920E-02 0.  1.
</event>
<event>
 5   0  0.7781754E-02  0.4907178E+03  0.7818609E-02  0.1016231E+00
       -1   -1    0    0    0  501  0.00000000000E+00  0.00000000000E+00  0.56001781717E+02  0.56001781943E+02  0.50400001928E-02 0.  1.
        1   -1    0    0  501    0  0.00000000000E+00  0.00000000000E+00 -0.10749833384E+04  0.10749833384E+04  0.50400001928E-02 0. -1.
    10030    2    1    2    0    0  0.00000000000E+00  0.00000000000E+00 -0.10189815567E+04  0.11309851204E+04  0.49071776981E+03 0.  0.
        2    1    3    3  502    0 -0.39498034753E+02 -0.25910973529E+02 -0.10644038020E+04  0.10654515132E+04  0.25500000920E-02 0. -1.
       -2    1    3    3    0  502  0.39498034753E+02  0.25910973529E+02  0.45422245271E+02  0.65533607184E+02  0.25500000920E-02 0.  1.
</event>
<event>
 5   0  0.1211345E-01  0.5038047E+03  0.7818609E-02  0.1012791E+00
       -2   -1    0    0    0  501  0.00000000000E+00  0.00000000000E+00  0.92417531084E+02  0.92417531119E+02  0.25500000920E-02 0.  1.
        2   -1    0    0  501    0  0.00000000000E+00  0.00000000000E+00 -0.68660994173E+03  0.68660994173E+03  0.25500000920E-02 0. -1.
    10030    2    1    2    0    0  0.00000000000E+00  0.00000000000E+00 -0.59419241064E+03  0.77902747285E+03  0.50380470680E+03 0.  0.
        5    1    3    3  502    0  0.25173454170E+03 -0.78187706447E+01 -0.29885448590E+03  0.39085484058E+03  0.46999998093E+01 0. -1.
       -5    1    3    3    0  502 -0.25173454170E+03  0.78187706447E+01 -0.29533792474E+03  0.38817263227E+03  0.46999998093E+01 0.  1.
</event>
<event>
 5   0  0.7416638E-02  0.5004718E+03  0.7818609E-02  0.1013656E+00
        1   -1    0    0  501    0  0.00000000000E+00  0.00000000000E+00  0.19311223357E+03  0.19311223364E+03  0.50400001928E-02 0.  1.
       -1   -1    0    0    0  501  0.00000000000E+00  0.00000000000E+00 -0.32425704563E+03  0.32425704567E+03  0.50400001928E-02 0. -1.
    10030    2    1    2    0    0  0.00000000000E+00  0.00000000000E+00 -0.13114481206E+03  0.51736927930E+03  0.50047178686E+03 0.  0.
        1    1    3    3  502    0 -0.16655424462E+03 -0.14918347037E+03 -0.18171318873E+03  0.28812446480E+03  0.50400001928E-02 0.  1.
       -1    1    3    3    0  502  0.16655424462E+03  0.14918347037E+03  0.50568376670E+02  0.22924481450E+03  0.50400001928E-02 0. -1.
</event>
<event>
 5   0  0.1191894E-01  0.4982142E+03  0.7818609E-02  0.1014246E+00
       -2   -1    0    0    0  501  0.00000000000E+00  0.00000000000E+00  0.12993186750E+03  0.12993186752E+03  0.25500000920E-02 0. -1.
        2   -1    0    0  501    0  0.00000000000E+00  0.00000000000E+00 -0.47759142794E+03  0.47759142794E+03  0.25500000920E-02 0.  1.
    10030    2    1    2    0    0  0.00000000000E+00  0.00000000000E+00 -0.34765956044E+03  0.60752329547E+03  0.49821419547E+03 0.  0.
        3    1    3    3  502    0  0.24907468665E+03 -0.97189266184E+00 -0.16907695374E+03  0.30104180871E+03  0.10100000352E+00 0. -1.
       -3    1    3    3    0  502 -0.24907468665E+03  0.97189266184E+00 -0.17858260670E+03  0.30648148675E+03  0.10100000352E+00 0.  1.
</event>
<event>
 5   0  0.1211345E-01  0.4936020E+03  0.7818609E-02  0.1015463E+00
        2   -1    0    0  501    0  0.00000000000E+00  0.00000000000E+00  0.18419818762E+03  0.18419818764E+03  0.25500000920E-02 0.  1.
       -2   -1    0    0    0  501  0.00000000000E+00  0.00000000000E+00 -0.33068036142E+03  0.33068036143E+03  0.25500000920E-02 0. -1.
    10030    2    1    2    0    0  0.00000000000E+00  0.00000000000E+00 -0.14648217380E+03  0.51487854907E+03  0.49360195811E+03 0.  0.
        5    1    3    3  502    0 -0.97029525772E+02 -0.16563383989E+03  0.88488379559E+02  0.21142748426E+03  0.46999998093E+01 0.  1.
       -5    1    3    3    0  502  0.97029525772E+02  0.16563383989E+03 -0.23497055336E+03  0.30345106480E+03  0.46999998093E+01 0. -1.
</event>
<event>
 5   0  0.1211345E-01  0.4546056E+03  0.7818609E-02  0.1026357E+00
        2   -1    0    0  501    0  0.00000000000E+00  0.00000000000E+00  0.19327223943E+04  0.19327223943E+04  0.25500000920E-02 0. -1.
       -2   -1    0    0    0  501  0.00000000000E+00  0.00000000000E+00 -0.26732529816E+02  0.26732529938E+02  0.25500000920E-02 0.  1.
    10030    2    1    2    0    0  0.00000000000E+00  0.00000000000E+00  0.19059898645E+04  0.19594549243E+04  0.45460558357E+03 0.  0.
        5    1    3    3  502    0  0.74969001789E+02 -0.10454827717E+03  0.14554507967E+03  0.19430942773E+03  0.46999998093E+01 0.  1.
       -5    1    3    3    0  502 -0.74969001789E+02  0.10454827717E+03  0.17604447849E+04  0.17651454966E+04  0.46999998093E+01 0. -1.
</event>
<event>
 5   0  0.1191894E-01  0.4969223E+03  0.7818609E-02  0.1014585E+00
        2   -1    0    0  501    0  0.00000000000E+00  0.00000000000E+00  0.86243083984E+03  0.86243083984E+03  0.25500000920E-02 0. -1.
       -2   -1    0    0    0  501  0.00000000000E+00  0.00000000000E+00 -0.71580163797E+02  0.71580163843E+02  0.25500000920E-02 0.  1.
    10030    2    1    2    0    0  0.00000000000E+00  0.00000000000E+00  0.79085067604E+03  0.93401100368E+03  0.49692229092E+03 0.  0.
        3    1    3    3  502    0 -0.39904994079E+02  0.24483662482E+03  0.42170934228E+03  0.48926083123E+03  0.10100000352E+00 0. -1.
       -3    1    3    3    0  502  0.39904994079E+02 -0.24483662482E+03  0.36914133377E+03  0.44475017246E+03  0.10100000352E+00 0.  1.
</event>
<event>
 5   0  0.7416638E-02  0.4941104E+03  0.7818609E-02  0.1015328E+00
       -1   -1    0    0    0  501  0.00000000000E+00  0.00000000000E+00  0.10735019959E+03  0.10735019971E+03  0.50400001928E-02 0.  1.
        1   -1    0    0  501    0  0.00000000000E+00  0.00000000000E+00 -0.56857158901E+03  0.56857158903E+03  0.50400001928E-02 0. -1.
    10030    2    1    2    0    0  0.00000000000E+00  0.00000000000E+00 -0.46122138941E+03  0.67592178874E+03  0.49411040713E+03 0.  0.
        1    1    3    3  502    0  0.13007217754E+03  0.85446558055E+02  0.31867381251E+02  0.15885658837E+03  0.50400001928E-02 0.  1.
       -1    1    3    3    0  502 -0.13007217754E+03 -0.85446558055E+02 -0.49308877067E+03  0.51706520037E+03  0.50400001928E-02 0. -1.
</event>
<event>
 5   0  0.7781754E-02  0.5299968E+03  0.7818609E-02  0.1006233E+00
       -1   -1    0    0    0  501  0.00000000000E+00  0.00000000000E+00  0.10920848686E+03  0.10920848698E+03  0.50400001928E-02 0. -1.
        1   -1    0    0  501    0  0.00000000000E+00  0.00000000000E+00 -0.64302822480E+03  0.64302822482E+03  0.50400001928E-02 0.  1.
    10030    2    1    2    0    0  0.00000000000E+00  0.00000000000E+00 -0.53381973794E+03  0.75223671180E+03  0.52999675278E+03 0.  0.
        2    1    3    3  502    0 -0.22225237997E+03 -0.15071619037E+02 -0.47062535670E+03  0.52068368563E+03  0.25500000920E-02 0. -1.
       -2    1    3    3    0  502  0.22225237997E+03  0.15071619037E+02 -0.63194381241E+02  0.23155302617E+03  0.25500000920E-02 0.  1.
</event>
<event>
 5   0  0.7602288E-02  0.5017944E+03  0.7818609E-02  0.1013312E+00
        1   -1    0    0  501    0  0.00000000000E+00  0.00000000000E+00  0.15328850308E+03  0.15328850316E+03  0.50400001928E-02 0.  1.
       -1   -1    0    0    0  501  0.00000000000E+00  0.00000000000E+00 -0.41065973615E+03  0.41065973619E+03  0.50400001928E-02 0. -1.
    10030    2    1    2    0    0  0.00000000000E+00  0.00000000000E+00 -0.25737123308E+03  0.56394823935E+03  0.50179444502E+03 0.  0.
        5    1    3    3  502    0 -0.62564948713E+02 -0.39846564536E+01  0.14429300705E+03  0.15739381238E+03  0.46999998093E+01 0.  1.
       -5    1    3    3    0  502  0.62564948713E+02  0.39846564536E+01 -0.40166424012E+03  0.40655442697E+03  0.46999998093E+01 0. -1.
</event>
<event>
 5   0  0.1279188E-01  0.4938525E+03  0.7818609E-02  0.1015396E+00
        2   -1    0    0  501    0  0.00000000000E+00  0.00000000000E+00  0.89765874163E+03  0.89765874163E+03  0.25500000920E-02 0. -1.
       -2   -1    0    0    0  501  0.00000000000E+00  0.00000000000E+00 -0.67923988197E+02  0.67923988245E+02  0.25500000920E-02 0.  1.
    10030    2    1    2    0    0  0.00000000000E+00  0.00000000000E+00  0.82973475343E+03  0.96558272988E+03  0.49385245487E+03 0.  0.
        2    1    3    3  502    0  0.15013015847E+02 -0.24518892757E+03  0.36580922734E+03  0.44063521382E+03  0.25500000920E-02 0.  1.
       -2    1    3    3    0  502 -0.15013015847E+02  0.24518892757E+03  0.46392552609E+03  0.52494751606E+03  0.25500000920E-02 0. -1.
</event>
<event>
 5   0  0.7531632E-02  0.5025009E+03  0.7818609E-02  0.1013128E+00
       -1   -1    0    0    0  501  0.00000000000E+00  0.00000000000E+00  0.13164056307E+03  0.13164056316E+03  0.50400001928E-02 0. -1.
        1   -1    0    0  501    0  0.00000000000E+00  0.00000000000E+00 -0.47953904440E+03  0.47953904443E+03  0.50400001928E-02 0.  1.
    10030    2    1    2    0    0  0.00000000000E+00  0.00000000000E+00 -0.34789848134E+03  0.61117960760E+03  0.50250090490E+03 0.  0.
        3    1    3    3  502    0  0.85029938030E+02  0.13545112845E+03 -0.40963597213E+03  0.43974849452E+03  0.10100000352E+00 0.  1.
       -3    1    3    3    0  502 -0.85029938030E+02 -0.13545112845E+03  0.61737490797E+02  0.17143111308E+03  0.10100000352E+00 0. -1.
</event>
<event>
 5   0  0.7812547E-02  0.4909891E+03  0.7818609E-02  0.1016158E+00
        1   -1    0    0  501    0  0.00000000000E+00  0.00000000000E+00  0.23116140275E+03  0.23116140281E+03  0.50400001928E-02 0. -1.
       -1   -1    0    0    0  501  0.00000000000E+00  0.00000000000E+00 -0.26071638497E+03  0.26071638502E+03  0.50400001928E-02 0.  1.
    10030    2    1    2    0    0  0.00000000000E+00  0.00000000000E+00 -0.29554982218E+02  0.49187778783E+03  0.49098906422E+03 0.  0.
        4    1    3    3  502    0  0.13722293637E+03  0.12675852990E+03 -0.17433942984E+03  0.25552633693E+03  0.12699999809E+01 0.  1.
       -4    1    3    3    0  502 -0.13722293637E+03 -0.12675852990E+03  0.14478444762E+03  0.23635145090E+03  0.12699999809E+01 0. -1.
</event>
<event>
 5   0  0.1243803E-01  0.4998429E+03  0.7818609E-02  0.1013820E+00
       -2   -1    0    0    0  501  0.00000000000E+00  0.00000000000E+00  0.21672059387E+03  0.21672059389E+03  0.25500000920E-02 0.  1.
        2   -1    0    0  501    0  0.00000000000E+00  0.00000000000E+00 -0.28820857726E+03  0.28820857727E+03  0.25500000920E-02 0. -1.
    10030    2    1    2    0    0  0.00000000000E+00  0.00000000000E+00 -0.71487983387E+02  0.50492917115E+03  0.49984291144E+03 0.  0.
        4    1    3    3  502    0  0.24512326453E+03  0.13563552668E+02 -0.83014779322E+02  0.25915719411E+03  0.12699999809E+01 0.  1.
       -4    1    3    3    0  502 -0.24512326453E+03 -0.13563552668E+02  0.11526795935E+02  0.24577197704E+03  0.12699999809E+01 0. -1.
</event>
<event>
 5   0  0.5006750E-02  0.4985791E+03  0.7818609E-02  0.1014150E+00
       -3   -1    0    0    0  501  0.00000000000E+00  0.00000000000E+00  0.13612609125E+03  0.13612612872E+03  0.10100000352E+00 0. -1.
        3   -1    0    0  501    0  0.00000000000E+00  0.00000000000E+00 -0.45652721379E+03  0.45652722496E+03  0.10100000352E+00 0.  1.
    10030    2    1    2    0    0  0.00000000000E+00  0.00000000000E+00 -0.32040112254E+03  0.59265335369E+03  0.49857909935E+03 0.  0.
        4    1    3    3  502    0  0.57936876125E+01  0.21434400645E+02  0.13494453028E+03  0.13676490595E+03  0.12699999809E+01 0. -1.
       -4    1    3    3    0  502 -0.57936876125E+01 -0.21434400645E+02 -0.45534565281E+03  0.45588844774E+03  0.12699999809E+01 0.  1.
</event>
<event>
 5   0  0.7812547E-02  0.5016810E+03  0.7818609E-02  0.1013341E+00
        1   -1    0    0  501    0  0.00000000000E+00  0.00000000000E+00  0.18185374876E+03  0.18185374883E+03  0.50400001928E-02 0. -1.
       -1   -1    0    0    0  501  0.00000000000E+00  0.00000000000E+00 -0.34599763594E+03  0.34599763597E+03  0.50400001928E-02 0.  1.
    10030    2    1    2    0    0  0.00000000000E+00  0.00000000000E+00 -0.16414388718E+03  0.52785138480E+03  0.50168104284E+03 0.  0.
        4    1    3    3  502    0  0.20121266980E+03 -0.72162285922E+02  0.56020173653E+02  0.22098372509E+03  0.12699999809E+01 0. -1.
       -4    1    3    3    0  502 -0.20121266980E+03  0.72162285922E+02 -0.22016406083E+03  0.30686765971E+03  0.12699999809E+01 0.  1.
</event>
<event>
 5   0  0.5006750E-02  0.4919355E+03  0.7818609E-02  0.1015906E+00
       -3   -1    0    0    0  501  0.00000000000E+00  0.00000000000E+00  0.25454654255E+03  0.25454656259E+03  0.10100000352E+00 0.  1.
        3   -1    0    0  501    0  0.00000000000E+00  0.00000000000E+00 -0.23767806439E+03  0.23767808584E+03  0.10100000352E+00 0. -1.
    10030    2    1    2    0    0  0.00000000000E+00  0.00000000000E+00  0.16868478164E+02  0.49222464843E+03  0.49193552318E+03 0.  0.
        3    1    3    3  502    0  0.16283410131E+03  0.91809538518E+02 -0.15152276369E+03  0.24063061740E+03  0.10100000352E+00 0. -1.
       -3    1    3    3    0  502 -0.16283410131E+03 -0.91809538518E+02  0.16839124186E+03  0.25159403103E+03  0.10100000352E+00 0.  1.
</event>
<event>
 5   0  0.7812547E-02  0.4980160E+03  0.7818609E-02  0.1014298E+00
        1   -1    0    0  501    0  0.00000000000E+00  0.00000000000E+00  0.28031775516E+03  0.28031775521E+03  0.50400001928E-02 0.  1.
       -1   -1    0    0    0  501  0.00000000000E+00  0.00000000000E+00 -0.22119531508E+03  0.22119531514E+03  0.50400001928E-02 0. -1.
    10030    2    1    2    0    0  0.00000000000E+00  0.00000000000E+00  0.59122440080E+02  0.50151307035E+03  0.49801596039E+03 0.  0.
        4    1    3    3  502    0  0.60070039743E+01 -0.11187534077E+03 -0.19437654926E+03  0.22435692940E+03  0.12699999809E+01 0. -1.
       -4    1    3    3    0  502 -0.60070039743E+01  0.11187534077E+03  0.25349898934E+03  0.27715614095E+03  0.12699999809E+01 0.  1.
</event>
<event>
 5   0  0.7416638E-02  0.4991081E+03  0.7818609E-02  0.1014012E+00
        1   -1    0    0  501    0  0.00000000000E+00  0.00000000000E+00  0.29266337049E+03  0.29266337054E+03  0.50400001928E-02 0. -1.
       -1   -1    0    0    0  501  0.00000000000E+00  0.00000000000E+00 -0.21279469428E+03  0.21279469434E+03  0.50400001928E-02 0.  1.
    10030    2    1    2    0    0  0.00000000000E+00  0.00000000000E+00  0.79868676209E+02  0.50545806488E+03  0.49910805435E+03 0.  0.
        1    1    3    3  502    0  0.16260142607E+03  0.35624114239E+02  0.22822700315E+03  0.28248162112E+03  0.50400001928E-02 0. -1.
       -1    1    3    3    0  502 -0.16260142607E+03 -0.35624114239E+02 -0.14835832694E+03  0.22297644377E+03  0.50400001928E-02 0.  1.
</event>
<event>
 5   0  0.1231822E-01  0.4950806E+03  0.7818609E-02  0.1015071E+00
        2   -1    0    0  501    0  0.00000000000E+00  0.00000000000E+00  0.90171776480E+02  0.90171776516E+02  0.25500000920E-02 0. -1.
       -2   -1    0    0    0  501  0.00000000000E+00  0.00000000000E+00 -0.67954953266E+03  0.67954953266E+03  0.25500000920E-02 0.  1.
    10030    2    1    2    0    0  0.00000000000E+00  0.00000000000E+00 -0.58937775618E+03  0.76972130918E+03  0.49508055337E+03 0.  0.
        1    1    3    3  502    0 -0.56239518764E+02 -0.90993311278E+02 -0.64175996425E+03  0.65061395459E+03  0.50400001928E-02 0.  1.
       -1    1    3    3    0  502  0.56239518764E+02  0.90993311278E+02  0.52382208075E+02  0.11910735459E+03  0.50400001928E-02 0. -1.
</event>
<event>
 5   0  0.7531632E-02  0.4984851E+03  0.7818609E-02  0.1014175E+00
       -1   -1    0    0    0  501  0.00000000000E+00  0.00000000000E+00  0.55608078410E+02  0.55608078638E+02  0.50400001928E-02 0.  1.
        1   -1    0    0  501    0  0.00000000000E+00  0.00000000000E+00 -0.11171370960E+04  0.11171370960E+04  0.50400001928E-02 0. -1.
    10030    2    1    2    0    0  0.00000000000E+00  0.00000000000E+00 -0.10615290175E+04  0.11727451746E+04  0.49848509453E+03 0.  0.
        3    1    3    3  502    0 -0.96550123799E+02 -0.89194867148E+02 -0.10289654602E+04  0.10373271322E+04  0.10100000352E+00 0. -1.
       -3    1    3    3    0  502  0.96550123799E+02  0.89194867148E+02 -0.32563557310E+02  0.13541804236E+03  0.10100000352E+00 0.  1.
</event>
<event>
 5   0  0.1279188E-01  0.4975578E+03  0.7818609E-02  0.1014418E+00
        2   -1    0    0  501    0  0.00000000000E+00  0.00000000000E+00  0.20611738348E+04  0.20611738348E+04  0.25500000920E-02 0.  1.
       -2   -1    0    0    0  501  0.00000000000E+00  0.00000000000E+00 -0.30027035975E+02  0.30027036083E+02  0.25500000920E-02 0. -1.
    10030    2    1    2    0    0  0.00000000000E+00  0.00000000000E+00  0.20311467988E+04  0.20912008709E+04  0.49755779967E+03 0.  0.
        2    1    3    3  502    0  0.27842543016E+02  0.12575349780E+03  0.19101342778E+04  0.19144717571E+04  0.25500000920E-02 0.  1.
       -2    1    3    3    0  502 -0.27842543016E+02 -0.12575349780E+03  0.12101252098E+03  0.17672911376E+03  0.25500000920E-02 0. -1.
</event>
<event>
 5   0  0.1191894E-01  0.5073457E+03  0.7818609E-02  0.1011879E+00
       -2   -1    0    0    0  501  0.00000000000E+00  0.00000000000E+00  0.72535135410E+02  0.72535135455E+02  0.25500000920E-02 0. -1.
        2   -1    0    0  501    0  0.00000000000E+00  0.00000000000E+00 -0.88715506781E+03  0.88715506781E+03  0.25500000920E-02 0.  1.
    10030    2    1    2    0    0  0.00000000000E+00  0.00000000000E+00 -0.81461993240E+03  0.95969020327E+03  0.50734569278E+03 0.  0.
        3    1    3    3  502    0 -0.22853974709E+03 -0.87185688094E+02 -0.53445723919E+03  0.58777232917E+03  0.10100000352E+00 0.  1.
       -3    1    3    3    0  502  0.22853974709E+03  0.87185688094E+02 -0.28016269321E+03  0.37191787410E+03  0.10100000352E+00 0. -1.
</event>
<event>
 5   0  0.7602288E-02  0.4939104E+03  0.7818609E-02  0.1015381E+00
       -1   -1    0    0    0  501  0.00000000000E+00  0.00000000000E+00  0.33608610509E+02  0.33608610886E+02  0.50400001928E-02 0. -1.
        1   -1    0    0  501    0  0.00000000000E+00  0.00000000000E+00 -0.18146203070E+04  0.18146203070E+04  0.50400001928E-02 0.  1.
    10030    2    1    2    0    0  0.00000000000E+00  0.00000000000E+00 -0.17810116965E+04  0.18482289179E+04  0.49391038650E+03 0.  0.
        5    1    3    3  502    0  0.10244523661E+02  0.47406089938E+02  0.15440934882E+02  0.51115556306E+02  0.46999998093E+01 0. -1.
       -5    1    3    3    0  502 -0.10244523661E+02 -0.47406089938E+02 -0.17964526313E+04  0.17971133616E+04  0.46999998093E+01 0.  1.
</event>
<event>
 5   0  0.7602288E-02  0.4996608E+03  0.7818609E-02  0.1013867E+00
        1   -1    0    0  501    0  0.00000000000E+00  0.00000000000E+00  0.26870100452E+03  0.26870100456E+03  0.50400001928E-02 0. -1.
       -1   -1    0    0    0  501  0.00000000000E+00  0.00000000000E+00 -0.23228502427E+03  0.23228502433E+03  0.50400001928E-02 0.  1.
    10030    2    1    2    0    0  0.00000000000E+00  0.00000000000E+00  0.36415980246E+02  0.50098602889E+03  0.49966076244E+03 0.  0.
        5    1    3    3  502    0 -0.28013790320E+02  0.56411371312E+02 -0.22414806220E+03  0.23287648882E+03  0.46999998093E+01 0.  1.
       -5    1    3    3    0  502  0.28013790320E+02 -0.56411371312E+02  0.26056404244E+03  0.26810954007E+03  0.46999998093E+01 0. -1.
</event>
<event>
 5   0  0.1243803E-01  0.5017302E+03  0.7818609E-02  0.1013328E+00
       -2   -1    0    0    0  501  0.00000000000E+00  0.00000000000E+00  0.46963839014E+02  0.46963839083E+02  0.25500000920E-02 0.  1.
        2   -1    0    0  501    0  0.00000000000E+00  0.00000000000E+00 -0.13400374449E+04  0.13400374449E+04  0.25500000920E-02 0. -1.
    10030    2    1    2    0    0  0.00000000000E+00  0.00000000000E+00 -0.12930736059E+04  0.13870012840E+04  0.50173021789E+03 0.  0.
        4    1    3    3  502    0 -0.22986475881E+03 -0.10016121041E+03 -0.62483737295E+03  0.67327069663E+03  0.12699999809E+01 0. -1.
       -4    1    3    3    0  502  0.22986475881E+03  0.10016121041E+03 -0.66823623296E+03  0.71373058737E+03  0.12699999809E+01 0.  1.
</event>
<event>
 5   0  0.1243803E-01  0.4595452E+03  0.7818609E-02  0.1024913E+00
        2   -1    0    0  501    0  0.00000000000E+00  0.00000000000E+00  0.11452385755E+04  0.11452385755E+04  0.25500000920E-02 0.  1.
       -2   -1    0    0    0  501  0.00000000000E+00  0.00000000000E+00 -0.46099962840E+02  0.46099962911E+02  0.25500000920E-02 0. -1.
    10030    2    1    2    0    0  0.00000000000E+00  0.00000000000E+00  0.10991386126E+04  0.11913385384E+04  0.45954523527E+03 0.  0.
        4    1    3    3  502    0 -0.12697370944E+03  0.18803586375E+03  0.45559476395E+03  0.50896759306E+03  0.12699999809E+01 0. -1.
       -4    1    3    3    0  502  0.12697370944E+03 -0.18803586375E+03  0.64354384866E+03  0.68237094531E+03  0.12699999809E+01 0.  1.
</event>
<event>
 5   0  0.1279188E-01  0.5003318E+03  0.7818609E-02  0.1013692E+00
       -2   -1    0    0    0  501  0.00000000000E+00  0.00000000000E+00  0.67967744542E+02  0.67967744590E+02  0.25500000920E-02 0. -1.
        2   -1    0    0  501    0  0.00000000000E+00  0.00000000000E+00 -0.92077479389E+03  0.92077479390E+03  0.25500000920E-02 0.  1.
    10030    2    1    2    0    0  0.00000000000E+00  0.00000000000E+00 -0.85280704935E+03  0.98874253849E+03  0.50033183388E+03 0.  0.
        2    1    3    3  502    0  0.74592465247E+02  0.19209153228E+03 -0.14609465445E+03  0.25260015976E+03  0.25500000920E-02 0. -1.
       -2    1    3    3    0  502 -0.74592465247E+02 -0.19209153228E+03 -0.70671239490E+03  0.73614237873E+03  0.25500000920E-02 0.  1.
</event>
<event>
 5   0  0.7531632E-02  0.5005668E+03  0.7818609E-02  0.1013631E+00
        1   -1    0    0  501    0  0.00000000000E+00  0.00000000000E+00  0.97846645752E+03  0.97846645753E+03  0.50400001928E-02 0. -1.
       -1   -1    0    0    0  501  0.00000000000E+00  0.00000000000E+00 -0.64020373687E+02  0.64020373885E+02  0.50400001928E-02 0.  1.
    10030    2    1    2    0    0  0.00000000000E+00  0.00000000000E+00  0.91444608383E+03  0.10424868314E+04  0.50056683214E+03 0.  0.
        3    1    3    3  502    0 -0.66439520063E+02  0.17552683669E+03  0.80206935397E+03  0.82373487179E+03  0.10100000352E+00 0. -1.
       -3    1    3    3    0  502  0.66439520063E+02 -0.17552683669E+03  0.11237672986E+03  0.21875195962E+03  0.10100000352E+00 0.  1.
</event>
<event>
 5   0  0.1191894E-01  0.4993286E+03  0.7818609E-02  0.1013954E+00
       -2   -1    0    0    0  501  0.00000000000E+00  0.00000000000E+00  0.89895435594E+02  0.89895435630E+02  0.25500000920E-02 0. -1.
        2   -1    0    0  501    0  0.00000000000E+00  0.00000000000E+00 -0.69338623752E+03  0.69338623753E+03  0.25500000920E-02 0.  1.
    10030    2    1    2    0    0  0.00000000000E+00  0.00000000000E+00 -0.60349080193E+03  0.78328167316E+03  0.49932858069E+03 0.  0.
        3    1    3    3  502    0  0.77532170232E+02  0.16298200391E+03 -0.31142461499E+02  0.18315085074E+03  0.10100000352E+00 0. -1.
       -3    1    3    3    0  502 -0.77532170232E+02 -0.16298200391E+03 -0.57234834043E+03  0.60013082242E+03  0.10100000352E+00 0.  1.
</event>
<event>
 5   0  0.7602288E-02  0.4993794E+03  0.7818609E-02  0.1013941E+00
       -1   -1    0    0    0  501  0.00000000000E+00  0.00000000000E+00  0.65720697584E+03  0.65720697586E+03  0.50400001928E-02 0. -1.
        1   -1    0    0  501    0  0.00000000000E+00  0.00000000000E+00 -0.94863496377E+02  0.94863496511E+02  0.50400001928E-02 0.  1.
    10030    2    1    2    0    0  0.00000000000E+00  0.00000000000E+00  0.56234347947E+03  0.75207047237E+03  0.49937942140E+03 0.  0.
        5    1    3    3  502    0 -0.74701190421E+02  0.22902110875E+03  0.18250881514E+03  0.30226229289E+03  0.46999998093E+01 0.  1.
       -5    1    3    3    0  502  0.74701190421E+02 -0.22902110875E+03  0.37983466433E+03  0.44980817948E+03  0.46999998093E+01 0. -1.
</event>
<event>
 5   0  0.7531632E-02  0.5018716E+03  0.7818609E-02  0.1013292E+00
       -1   -1    0    0    0  501  0.00000000000E+00  0.00000000000E+00  0.33913697108E+03  0.33913697112E+03  0.50400001928E-02 0. -1.
        1   -1    0    0  501    0  0.00000000000E+00  0.00000000000E+00 -0.18567354876E+03  0.18567354883E+03  0.50400001928E-02 0.  1.
    10030    2    1    2    0    0  0.00000000000E+00  0.00000000000E+00  0.15346342232E+03  0.52481051995E+03  0.50187155713E+03 0.  0.
        3    1    3    3  502    0 -0.12191094780E+03 -0.21097936163E+03  0.13942342379E+03  0.28073737110E+03  0.10100000352E+00 0. -1.
       -3    1    3    3    0  502  0.12191094780E+03  0.21097936163E+03  0.14039998527E+02  0.24407314885E+03  0.10100000352E+00 0.  1.
</event>
<event>
 5   0  0.7602288E-02  0.4801793E+03  0.7818609E-02  0.1019086E+00
        1   -1    0    0  501    0  0.00000000000E+00  0.00000000000E+00  0.62833439409E+03  0.62833439411E+03  0.50400001928E-02 0.  1.
       -1   -1    0    0    0  501  0.00000000000E+00  0.00000000000E+00 -0.91739446708E+02  0.91739446846E+02  0.50400001928E-02 0. -1.
    10030    2    1    2    0    0  0.00000000000E+00  0.00000000000E+00  0.53659494738E+03  0.72007384096E+03  0.48017934032E+03 0.  0.
        5    1    3    3  502    0 -0.11006258224E+02  0.12170795198E+03  0.57812597214E+03  0.59091936248E+03  0.46999998093E+01 0.  1.
       -5    1    3    3    0  502  0.11006258224E+02 -0.12170795198E+03 -0.41531024754E+02  0.12915447848E+03  0.46999998093E+01 0. -1.
</event>
<event>
 5   0  0.1243803E-01  0.4983771E+03  0.7818609E-02  0.1014203E+00
       -2   -1    0    0    0  501  0.00000000000E+00  0.00000000000E+00  0.11922281391E+03  0.11922281393E+03  0.25500000920E-02 0.  1.
        2   -1    0    0  501    0  0.00000000000E+00  0.00000000000E+00 -0.52083102809E+03  0.52083102809E+03  0.25500000920E-02 0. -1.
    10030    2    1    2    0    0  0.00000000000E+00  0.00000000000E+00 -0.40160821418E+03  0.64005384203E+03  0.49837712929E+03 0.  0.
        4    1    3    3  502    0 -0.66916750807E+02 -0.28167142157E+02  0.10533372360E+03  0.12793766320E+03  0.12699999809E+01 0.  1.
       -4    1    3    3    0  502  0.66916750807E+02  0.28167142157E+02 -0.50694193778E+03  0.51211617883E+03  0.12699999809E+01 0. -1.
</event>
<event>
 5   0  0.7781754E-02  0.5001440E+03  0.7818609E-02  0.1013741E+00
       -1   -1    0    0    0  501  0.00000000000E+00  0.00000000000E+00  0.67938379262E+02  0.67938379449E+02  0.50400001928E-02 0. -1.
        1   -1    0    0  501    0  0.00000000000E+00  0.00000000000E+00 -0.92048128736E+03  0.92048128737E+03  0.50400001928E-02 0.  1.
    10030    2    1    2    0    0  0.00000000000E+00  0.00000000000E+00 -0.85254290810E+03  0.98841966682E+03  0.50014400688E+03 0.  0.
        2    1    3    3  502    0 -0.12115880665E+03  0.19814259781E+03 -0.24304167264E+03  0.33616841038E+03  0.25500000920E-02 0. -1.
       -2    1    3    3    0  502  0.12115880665E+03 -0.19814259781E+03 -0.60950123546E+03  0.65225125644E+03  0.25500000920E-02 0.  1.
</event>
<event>
 5   0  0.7531632E-02  0.5072950E+03  0.7818609E-02  0.1011892E+00
       -1   -1    0    0    0  501  0.00000000000E+00  0.00000000000E+00  0.69027167751E+03  0.69027167753E+03  0.50400001928E-02 0. -1.
        1   -1    0    0  501    0  0.00000000000E+00  0.00000000000E+00 -0.93205419149E+02  0.93205419286E+02  0.50400001928E-02 0.  1.
    10030    2    1    2    0    0  0.00000000000E+00  0.00000000000E+00  0.59706625836E+03  0.78347709682E+03  0.50729502694E+03 0.  0.
        3    1    3    3  502    0 -0.25348142502E+03 -0.72142674019E+01  0.30729319688E+03  0.39841435407E+03  0.10100000352E+00 0.  1.
       -3    1    3    3    0  502  0.25348142502E+03  0.72142674019E+01  0.28977306149E+03  0.38506274274E+03  0.10100000352E+00 0. -1.
</event>
<event>
 5   0  0.1279188E-01  0.5022438E+03  0.7818609E-02  0.1013195E+00
       -2   -1    0    0    0  501  0.00000000000E+00  0.00000000000E+00  0.27321654143E+02  0.27321654262E+02  0.25500000920E-02 0. -1.
        2   -1    0    0  501    0  0.00000000000E+00  0.00000000000E+00 -0.23081403091E+04  0.23081403091E+04  0.25500000920E-02 0.  1.
    10030    2    1    2    0    0  0.00000000000E+00  0.00000000000E+00 -0.22808186550E+04  0.23354619634E+04  0.50224381083E+03 0.  0.
        2    1    3    3  502    0 -0.28517748825E+02 -0.16568238976E+03 -0.27297383451E+03  0.32059106445E+03  0.25500000920E-02 0. -1.
       -2    1    3    3    0  502  0.28517748825E+02  0.16568238976E+03 -0.20078448205E+04  0.20148708990E+04  0.25500000920E-02 0.  1.
</event>
<event>
 5   0  0.7531632E-02  0.4979238E+03  0.7818609E-02  0.1014322E+00
       -1   -1    0    0    0  501  0.00000000000E+00  0.00000000000E+00  0.81953019124E+02  0.81953019279E+02  0.50400001928E-02 0.  1.
        1   -1    0    0  501    0  0.00000000000E+00  0.00000000000E+00 -0.75631167343E+03  0.75631167344E+03  0.50400001928E-02 0. -1.
    10030    2    1    2    0    0  0.00000000000E+00  0.00000000000E+00 -0.67435865430E+03  0.83826469272E+03  0.49792378978E+03 0.  0.
        3    1    3    3  502    0 -0.12511862778E+03 -0.68274985017E+02  0.64644838282E+01  0.14268126839E+03  0.10100000352E+00 0.  1.
       -3    1    3    3    0  502  0.12511862778E+03  0.68274985017E+02 -0.68082313813E+03  0.69558342434E+03  0.10100000352E+00 0. -1.
</event>
<event>
 5   0  0.1231822E-01  0.4992028E+03  0.7818609E-02  0.1013987E+00
        2   -1    0    0  501    0  0.00000000000E+00  0.00000000000E+00  0.24375260988E+03  0.24375260989E+03  0.25500000920E-02 0.  1.
       -2   -1    0    0    0  501  0.00000000000E+00  0.00000000000E+00 -0.25559057225E+03  0.25559057226E+03  0.25500000920E-02 0. -1.
    10030    2    1    2    0    0  0.00000000000E+00  0.00000000000E+00 -0.11837962365E+02  0.49934318215E+03  0.49920284075E+03 0.  0.
        1    1    3    3  502    0 -0.12837027332E+02  0.22498466159E+03 -0.11327101350E+03  0.25221659292E+03  0.50400001928E-02 0. -1.
       -1    1    3    3    0  502  0.12837027332E+02 -0.22498466159E+03  0.10143305113E+03  0.24712658923E+03  0.50400001928E-02 0.  1.
</event>
<event>
 5   0  0.1231822E-01  0.4958211E+03  0.7818609E-02  0.1014875E+00
        2   -1    0    0  501    0  0.00000000000E+00  0.00000000000E+00  0.28014574304E+03  0.28014574305E+03  0.25500000920E-02 0. -1.
       -2   -1    0    0    0  501  0.00000000000E+00  0.00000000000E+00 -0.21938452968E+03  0.21938452970E+03  0.25500000920E-02 0.  1.
    10030    2    1    2    0    0  0.00000000000E+00  0.00000000000E+00  0.60761213358E+02  0.49953027275E+03  0.49582110519E+03 0.  0.
        1    1    3    3  502    0 -0.11243178369E+02  0.21742421403E+03  0.14984228213E+03  0.26429606022E+03  0.50400001928E-02 0. -1.
       -1    1    3    3    0  502  0.11243178369E+02 -0.21742421403E+03 -0.89081068771E+02  0.23523421253E+03  0.50400001928E-02 0.  1.
</event>
<event>
 5   0  0.1191894E-01  0.4985064E+03  0.7818609E-02  0.1014170E+00
        2   -1    0    0  501    0  0.00000000000E+00  0.00000000000E+00  0.19888145843E+04  0.19888145843E+04  0.25500000920E-02 0.  1.
       -2   -1    0    0    0  501  0.00000000000E+00  0.00000000000E+00 -0.31238285859E+02  0.31238285963E+02  0.25500000920E-02 0. -1.
    10030    2    1    2    0    0  0.00000000000E+00  0.00000000000E+00  0.19575762984E+04  0.20200528702E+04  0.49850640361E+03 0.  0.
        3    1    3    3  502    0  0.10692504170E+03 -0.16805696343E+02  0.18886132039E+04  0.18917122508E+04  0.10100000352E+00 0.  1.
       -3    1    3    3    0  502 -0.10692504170E+03  0.16805696343E+02  0.68963094521E+02  0.12834061937E+03  0.10100000352E+00 0. -1.
</event>
<event>
 5   0  0.1191894E-01  0.5150700E+03  0.7818609E-02  0.1009919E+00
        2   -1    0    0  501    0  0.00000000000E+00  0.00000000000E+00  0.13456747186E+04  0.13456747186E+04  0.25500000920E-02 0.  1.
       -2   -1    0    0    0  501  0.00000000000E+00  0.00000000000E+00 -0.49287010198E+02  0.49287010264E+02  0.25500000920E-02 0. -1.
    10030    2    1    2    0    0  0.00000000000E+00  0.00000000000E+00  0.12963877084E+04  0.13949617288E+04  0.51507002873E+03 0.  0.
        3    1    3    3  502    0  0.24950246076E+03 -0.34995521352E+02  0.50365842540E+03  0.56315893326E+03  0.10100000352E+00 0.  1.
       -3    1    3    3    0  502 -0.24950246076E+03  0.34995521352E+02  0.79272928298E+03  0.83180279558E+03  0.10100000352E+00 0. -1.
</event>
<event>
 5   0  0.1211345E-01  0.4961086E+03  0.7818609E-02  0.1014800E+00
        2   -1    0    0  501    0  0.00000000000E+00  0.00000000000E+00  0.62502344477E+03  0.62502344477E+03  0.25500000920E-02 0.  1.
       -2   -1    0    0    0  501  0.00000000000E+00  0.00000000000E+00 -0.98445810957E+02  0.98445810990E+02  0.25500000920E-02 0. -1.
    10030    2    1    2    0    0  0.00000000000E+00  0.00000000000E+00  0.52657763381E+03  0.72346925576E+03  0.49610861674E+03 0.  0.
        5    1    3    3  502    0  0.41260775668E+02 -0.87016339269E+02  0.59657879871E+03  0.60431998806E+03  0.46999998093E+01 0.  1.
       -5    1    3    3    0  502 -0.41260775668E+02  0.87016339269E+02 -0.70001164895E+02  0.11914926770E+03  0.46999998093E+01 0. -1.
</event>
<event>
 5   0  0.5006750E-02  0.5063083E+03  0.7818609E-02  0.1012145E+00
        3   -1    0    0  501    0  0.00000000000E+00  0.00000000000E+00  0.26712261072E+04  0.26712261091E+04  0.10100000352E+00 0.  1.
       -3   -1    0    0    0  501  0.00000000000E+00  0.00000000000E+00 -0.23991506321E+02  0.23991718916E+02  0.10100000352E+00 0. -1.
    10030    2    1    2    0    0  0.00000000000E+00  0.00000000000E+00  0.26472346008E+04  0.26952178280E+04  0.50630831359E+03 0.  0.
        5    1    3    3  502    0  0.17533613752E+03 -0.54150318443E+02  0.22516079138E+04  0.22590784196E+04  0.46999998093E+01 0.  1.
       -5    1    3    3    0  502 -0.17533613752E+03  0.54150318443E+02  0.39562668701E+03  0.43613940843E+03  0.46999998093E+01 0. -1.
</event>
<event>
 5   0  0.7531632E-02  0.4952379E+03  0.7818609E-02  0.1015029E+00
       -1   -1    0    0    0  501  0.00000000000E+00  0.00000000000E+00  0.35927661890E+03  0.35927661894E+03  0.50400001928E-02 0.  1.
        1   -1    0    0  501    0  0.00000000000E+00  0.00000000000E+00 -0.17066277490E+03  0.17066277497E+03  0.50400001928E-02 0. -1.
    10030    2    1    2    0    0  0.00000000000E+00  0.00000000000E+00  0.18861384400E+03  0.52993939391E+03  0.49523790149E+03 0.  0.
        3    1    3    3  502    0  0.17003794998E+02 -0.74794147088E+02  0.34624393830E+03  0.35463808099E+03  0.10100000352E+00 0.  1.
       -3    1    3    3    0  502 -0.17003794998E+02  0.74794147088E+02 -0.15763009429E+03  0.17530131292E+03  0.10100000352E+00 0. -1.
</event>
<event>
 5   0  0.7812547E-02  0.4987755E+03  0.7818609E-02  0.1014099E+00
        1   -1    0    0  501    0  0.00000000000E+00  0.00000000000E+00  0.38753399585E+03  0.38753399589E+03  0.50400001928E-02 0. -1.
       -1   -1    0    0    0  501  0.00000000000E+00  0.00000000000E+00 -0.16048720133E+03  0.16048720141E+03  0.50400001928E-02 0.  1.
    10030    2    1    2    0    0  0.00000000000E+00  0.00000000000E+00  0.22704679452E+03  0.54802119729E+03  0.49877548635E+03 0.  0.
        4    1    3    3  502    0  0.48593486948E+01  0.22294007579E+03 -0.91551876158E+01  0.22318449997E+03  0.12699999809E+01 0.  1.
       -4    1    3    3    0  502 -0.48593486948E+01 -0.22294007579E+03  0.23620198214E+03  0.32483669733E+03  0.12699999809E+01 0. -1.
</event>
<event>
 5   0  0.1243803E-01  0.5026641E+03  0.7818609E-02  0.1013086E+00
       -2   -1    0    0    0  501  0.00000000000E+00  0.00000000000E+00  0.83329553277E+02  0.83329553316E+02  0.25500000920E-02 0.  1.
        2   -1    0    0  501    0  0.00000000000E+00  0.00000000000E+00 -0.75804795020E+03  0.75804795021E+03  0.25500000920E-02 0. -1.
    10030    2    1    2    0    0  0.00000000000E+00  0.00000000000E+00 -0.67471839693E+03  0.84137750352E+03  0.50266409091E+03 0.  0.
        4    1    3    3  502    0 -0.22325870961E+03 -0.69078354431E+02 -0.18258666197E+03  0.29657338468E+03  0.12699999809E+01 0. -1.
       -4    1    3    3    0  502  0.22325870961E+03  0.69078354431E+02 -0.49213173495E+03  0.54480411885E+03  0.12699999809E+01 0.  1.
</event>
<event>
 5   0  0.7531632E-02  0.5010561E+03  0.7818609E-02  0.1013504E+00
       -1   -1    0    0    0  501  0.00000000000E+00  0.00000000000E+00  0.51172574195E+03  0.51172574198E+03  0.50400001928E-02 0. -1.
        1   -1    0    0  501    0  0.00000000000E+00  0.00000000000E+00 -0.12265221095E+03  0.12265221105E+03  0.50400001928E-02 0.  1.
    10030    2    1    2    0    0  0.00000000000E+00  0.00000000000E+00  0.38907353100E+03  0.63437795303E+03  0.50105605950E+03 0.  0.
        3    1    3    3  502    0 -0.20473906143E+03  0.98338827506E+02  0.32838068580E+03  0.39927746402E+03  0.10100000352E+00 0. -1.
       -3    1    3    3    0  502  0.20473906143E+03 -0.98338827506E+02  0.60692845202E+02  0.23510048901E+03  0.10100000352E+00 0.  1.
</event>
<event>
 5   0  0.7781754E-02  0.5035929E+03  0.7818609E-02  0.1012845E+00
       -1   -1    0    0    0  501  0.00000000000E+00  0.00000000000E+00  0.26084661496E+03  0.26084661501E+03  0.50400001928E-02 0. -1.
        1   -1    0    0  501    0  0.00000000000E+00  0.00000000000E+00 -0.24306026361E+03  0.24306026366E+03  0.50400001928E-02 0.  1.
    10030    2    1    2    0    0  0.00000000000E+00  0.00000000000E+00  0.17786351354E+02  0.50390687867E+03  0.50359287929E+03 0.  0.
        2    1    3    3  502    0  0.22804076560E+03 -0.19801122123E+02  0.11387175410E+03  0.25565885785E+03  0.25500000920E-02 0. -1.
       -2    1    3    3    0  502 -0.22804076560E+03  0.19801122123E+02 -0.96085402745E+02  0.24824802081E+03  0.25500000920E-02 0.  1.
</event>
<event>
 5   0  0.7531632E-02  0.5202655E+03  0.7818609E-02  0.1008621E+00
        1   -1    0    0  501    0  0.00000000000E+00  0.00000000000E+00  0.63367395066E+03  0.63367395068E+03  0.50400001928E-02 0. -1.
       -1   -1    0    0    0  501  0.00000000000E+00  0.00000000000E+00 -0.10678841507E+03  0.10678841519E+03  0.50400001928E-02 0.  1.
    10030    2    1    2    0    0  0.00000000000E+00  0.00000000000E+00  0.52688553558E+03  0.74046236587E+03  0.52026545884E+03 0.  0.
        3    1    3    3  502    0 -0.97357362055E+02 -0.82208120791E+02  0.58621515457E+03  0.59990403292E+03  0.10100000352E+00 0. -1.
       -3    1    3    3    0  502  0.97357362055E+02  0.82208120791E+02 -0.59329618987E+02  0.14055833295E+03  0.10100000352E+00 0.  1.
</event>
<event>
 5   0  0.7416638E-02  0.5428700E+03  0.7818609E-02  0.1003158E+00
        1   -1    0    0  501    0  0.00000000000E+00  0.00000000000E+00  0.13041205734E+03  0.13041205744E+03  0.50400001928E-02 0. -1.
       -1   -1    0    0    0  501  0.00000000000E+00  0.00000000000E+00 -0.56495508872E+03  0.56495508874E+03  0.50400001928E-02 0.  1.
    10030    2    1    2    0    0  0.00000000000E+00  0.00000000000E+00 -0.43454303138E+03  0.69536714618E+03  0.54286998615E+03 0.  0.
        1    1    3    3  502    0 -0.28543804714E+02  0.11876176980E+03  0.93221102691E+02  0.15365311831E+03  0.50400001928E-02 0. -1.
       -1    1    3    3    0  502  0.28543804714E+02 -0.11876176980E+03 -0.52776413407E+03  0.54171402787E+03  0.50400001928E-02 0.  1.
</event>
<event>
 5   0  0.7602288E-02  0.4922035E+03  0.7818609E-02  0.1015834E+00
       -1   -1    0    0    0  501  0.00000000000E+00  0.00000000000E+00  0.65108241292E+02  0.65108241487E+02  0.50400001928E-02 0. -1.
        1   -1    0    0  501    0  0.00000000000E+00  0.00000000000E+00 -0.93023664152E+03  0.93023664153E+03  0.50400001928E-02 0.  1.
    10030    2    1    2    0    0  0.00000000000E+00  0.00000000000E+00 -0.86512840023E+03  0.99534488302E+03  0.49220350189E+03 0.  0.
        5    1    3    3  502    0 -0.73459364073E+02  0.23391031384E+03 -0.39045199885E+03  0.46106958964E+03  0.46999998093E+01 0. -1.
       -5    1    3    3    0  502  0.73459364073E+02 -0.23391031384E+03 -0.47467640138E+03  0.53427529338E+03  0.46999998093E+01 0.  1.
</event>
<event>
 5   0  0.5006750E-02  0.4994263E+03  0.7818609E-02  0.1013929E+00
       -4   -1    0    0    0  501  0.00000000000E+00  0.00000000000E+00  0.17062218160E+03  0.17062690806E+03  0.12699999809E+01 0.  1.
        4   -1    0    0  501    0  0.00000000000E+00  0.00000000000E+00 -0.36545533599E+03  0.36545754268E+03  0.12699999809E+01 0. -1.
    10030    2    1    2    0    0  0.00000000000E+00  0.00000000000E+00 -0.19483315439E+03  0.53608445074E+03  0.49942625109E+03 0.  0.
        3    1    3    3  502    0 -0.12695127598E+02  0.12239104393E+03 -0.33065816273E+03  0.35281094750E+03  0.10100000352E+00 0. -1.
       -3    1    3    3    0  502  0.12695127598E+02 -0.12239104393E+03  0.13582500834E+03  0.18327350324E+03  0.10100000352E+00 0.  1.
</event>
<event>
 5   0  0.7602288E-02  0.4807090E+03  0.7818609E-02  0.1018940E+00
       -1   -1    0    0    0  501  0.00000000000E+00  0.00000000000E+00  0.37965011880E+03  0.37965011884E+03  0.50400001928E-02 0. -1.
        1   -1    0    0  501    0  0.00000000000E+00  0.00000000000E+00 -0.15216717862E+03  0.15216717871E+03  0.50400001928E-02 0.  1.
    10030    2    1    2    0    0  0.00000000000E+00  0.00000000000E+00  0.22748294018E+03  0.53181729754E+03  0.48070900750E+03 0.  0.
        5    1    3    3  502    0 -0.27545917019E+02 -0.19554588814E+03  0.26523532886E+03  0.33070960311E+03  0.46999998093E+01 0. -1.
       -5    1    3    3    0  502  0.27545917019E+02  0.19554588814E+03 -0.37752388682E+02  0.20110769444E+03  0.46999998093E+01 0.  1.
</event>
<event>
 5   0  0.5006750E-02  0.4981406E+03  0.7818609E-02  0.1014265E+00
        4   -1    0    0  501    0  0.00000000000E+00  0.00000000000E+00  0.77023238999E+03  0.77023343701E+03  0.12699999809E+01 0. -1.
       -4   -1    0    0    0  501  0.00000000000E+00  0.00000000000E+00 -0.80535849032E+02  0.80545861963E+02  0.12699999809E+01 0.  1.
    10030    2    1    2    0    0  0.00000000000E+00  0.00000000000E+00  0.68969654095E+03  0.85077929897E+03  0.49814063973E+03 0.  0.
        4    1    3    3  502    0 -0.13786871823E+03  0.29578182787E+02  0.69549742102E+03  0.70964845375E+03  0.12699999809E+01 0. -1.
       -4    1    3    3    0  502  0.13786871823E+03 -0.29578182787E+02 -0.58008800660E+01  0.14113084522E+03  0.12699999809E+01 0.  1.
</event>
<event>
 5   0  0.1211345E-01  0.4999705E+03  0.7818609E-02  0.1013787E+00
        2   -1    0    0  501    0  0.00000000000E+00  0.00000000000E+00  0.13775652692E+04  0.13775652692E+04  0.25500000920E-02 0. -1.
       -2   -1    0    0    0  501  0.00000000000E+00  0.00000000000E+00 -0.45364551546E+02  0.45364551617E+02  0.25500000920E-02 0.  1.
    10030    2    1    2    0    0  0.00000000000E+00  0.00000000000E+00  0.13322007177E+04  0.14229298208E+04  0.49997052199E+03 0.  0.
        5    1    3    3  502    0 -0.10790590847E+03 -0.72165620918E+02  0.12739719699E+04  0.12805773042E+04  0.46999998093E+01 0. -1.
       -5    1    3    3    0  502  0.10790590847E+03  0.72165620918E+02  0.58228747740E+02  0.14235251661E+03  0.46999998093E+01 0.  1.
</event>
<event>
 5   0  0.7416638E-02  0.4977037E+03  0.7818609E-02  0.1014380E+00
       -1   -1    0    0    0  501  0.00000000000E+00  0.00000000000E+00  0.43303223096E+02  0.43303223389E+02  0.50400001928E-02 0.  1.
        1   -1    0    0  501    0  0.00000000000E+00  0.00000000000E+00 -0.14300836531E+04  0.14300836531E+04  0.50400001928E-02 0. -1.
    10030    2    1    2    0    0  0.00000000000E+00  0.00000000000E+00 -0.13867804300E+04  0.14733868765E+04  0.49770365359E+03 0.  0.
        1    1    3    3  502    0 -0.19864920388E+03 -0.14382683521E+03 -0.56850726952E+03  0.61915117722E+03  0.50400001928E-02 0. -1.
       -1    1    3    3    0  502  0.19864920388E+03  0.14382683521E+03 -0.81827316048E+03  0.85423569928E+03  0.50400001928E-02 0.  1.
</event>
<event>
 5   0  0.1211345E-01  0.4992410E+03  0.7818609E-02  0.1013977E+00
       -2   -1    0    0    0  501  0.00000000000E+00  0.00000000000E+00  0.78789944975E+02  0.78789945016E+02  0.25500000920E-02 0. -1.
        2   -1    0    0  501    0  0.00000000000E+00  0.00000000000E+00 -0.79084205784E+03  0.79084205784E+03  0.25500000920E-02 0.  1.
    10030    2    1    2    0    0  0.00000000000E+00  0.00000000000E+00 -0.71205211286E+03  0.86963200286E+03  0.49924103293E+03 0.  0.
        5    1    3    3  502    0  0.68423241677E+01 -0.20760226862E+03 -0.11502003629E+03  0.23748098468E+03  0.46999998093E+01 0. -1.
       -5    1    3    3    0  502 -0.68423241677E+01  0.20760226862E+03 -0.59703207657E+03  0.63215101818E+03  0.46999998093E+01 0.  1.
</event>
<event>
 5   0  0.7531632E-02  0.4995176E+03  0.7818609E-02  0.1013905E+00
        1   -1    0    0  501    0  0.00000000000E+00  0.00000000000E+00  0.19980300621E+04  0.19980300621E+04  0.50400001928E-02 0.  1.
       -1   -1    0    0    0  501  0.00000000000E+00  0.00000000000E+00 -0.31220485189E+02  0.31220485596E+02  0.50400001928E-02 0. -1.
    10030    2    1    2    0    0  0.00000000000E+00  0.00000000000E+00  0.19668095769E+04  0.20292505477E+04  0.49951764085E+03 0.  0.
        3    1    3    3  502    0  0.78537828986E+02  0.33270641646E+02  0.19370299744E+04  0.19389069751E+04  0.10100000352E+00 0.  1.
       -3    1    3    3    0  502 -0.78537828986E+02 -0.33270641646E+02  0.29779602461E+02  0.90343572550E+02  0.10100000352E+00 0. -1.
</event>
<event>
 5   0  0.1243803E-01  0.4885861E+03  0.7818609E-02  0.1016802E+00
       -2   -1    0    0    0  501  0.00000000000E+00  0.00000000000E+00  0.80146600613E+02  0.80146600654E+02  0.25500000920E-02 0.  1.
        2   -1    0    0  501    0  0.00000000000E+00  0.00000000000E+00 -0.74462401799E+03  0.74462401800E+03  0.25500000920E-02 0. -1.
    10030    2    1    2    0    0  0.00000000000E+00  0.00000000000E+00 -0.66447741738E+03  0.82477061865E+03  0.48858605709E+03 0.  0.
        4    1    3    3  502    0 -0.82052948547E+02  0.53214128108E+02 -0.71013052900E+03  0.71683429809E+03  0.12699999809E+01 0. -1.
       -4    1    3    3    0  502  0.82052948547E+02 -0.53214128108E+02  0.45653111623E+02  0.10793632056E+03  0.12699999809E+01 0.  1.
</event>
<event>
 5   0  0.7812547E-02  0.4910911E+03  0.7818609E-02  0.1016131E+00
        1   -1    0    0  501    0  0.00000000000E+00  0.00000000000E+00  0.83526763332E+03  0.83526763333E+03  0.50400001928E-02 0.  1.
       -1   -1    0    0    0  501  0.00000000000E+00  0.00000000000E+00 -0.72183580013E+02  0.72183580189E+02  0.50400001928E-02 0. -1.
    10030    2    1    2    0    0  0.00000000000E+00  0.00000000000E+00  0.76308405331E+03  0.90745121352E+03  0.49109106336E+03 0.  0.
        4    1    3    3  502    0 -0.18470780482E+03  0.13365182479E+03  0.55000072068E+03  0.59538406855E+03  0.12699999809E+01 0.  1.
       -4    1    3    3    0  502  0.18470780482E+03 -0.13365182479E+03  0.21308333262E+03  0.31206714497E+03  0.12699999809E+01 0. -1.
</event>
<event>
 5   0  0.1243803E-01  0.5018824E+03  0.7818609E-02  0.1013289E+00
        2   -1    0    0  501    0  0.00000000000E+00  0.00000000000E+00  0.77305936654E+03  0.77305936655E+03  0.25500000920E-02 0.  1.
       -2   -1    0    0    0  501  0.00000000000E+00  0.00000000000E+00 -0.81457513038E+02  0.81457513078E+02  0.25500000920E-02 0. -1.
    10030    2    1    2    0    0  0.00000000000E+00  0.00000000000E+00  0.69160185351E+03  0.85451687963E+03  0.50188243025E+03 0.  0.
        4    1    3    3  502    0 -0.86906284367E+02  0.10272084668E+03  0.70644219567E+03  0.71914286712E+03  0.12699999809E+01 0.  1.
       -4    1    3    3    0  502  0.86906284367E+02 -0.10272084668E+03 -0.14840342165E+02  0.13537401250E+03  0.12699999809E+01 0. -1.
</event>
<event>
 5   0  0.1279188E-01  0.5114620E+03  0.7818609E-02  0.1010830E+00
       -2   -1    0    0    0  501  0.00000000000E+00  0.00000000000E+00  0.80664642144E+02  0.80664642184E+02  0.25500000920E-02 0.  1.
        2   -1    0    0  501    0  0.00000000000E+00  0.00000000000E+00 -0.81074358878E+03  0.81074358879E+03  0.25500000920E-02 0. -1.
    10030    2    1    2    0    0  0.00000000000E+00  0.00000000000E+00 -0.73007894664E+03  0.89140823097E+03  0.51146198873E+03 0.  0.
        2    1    3    3  502    0  0.15377699041E+03  0.12595961141E+03 -0.64544635111E+03  0.67536225735E+03  0.25500000920E-02 0. -1.
       -2    1    3    3    0  502 -0.15377699041E+03 -0.12595961141E+03 -0.84632595524E+02  0.21604597362E+03  0.25500000920E-02 0.  1.
</event>
<event>
 5   0  0.7416638E-02  0.4970449E+03  0.7818609E-02  0.1014553E+00
       -1   -1    0    0    0  501  0.00000000000E+00  0.00000000000E+00  0.51377816522E+02  0.51377816769E+02  0.50400001928E-02 0. -1.
        1   -1    0    0  501    0  0.00000000000E+00  0.00000000000E+00 -0.12021414302E+04  0.12021414302E+04  0.50400001928E-02 0.  1.
    10030    2    1    2    0    0  0.00000000000E+00  0.00000000000E+00 -0.11507636137E+04  0.12535192470E+04  0.49704487523E+03 0.  0.
        1    1    3    3  502    0  0.71946840912E+02  0.12856833383E+03 -0.70632298627E+02  0.16338630914E+03  0.50400001928E-02 0. -1.
       -1    1    3    3    0  502 -0.71946840912E+02 -0.12856833383E+03 -0.10801313151E+04  0.10901329379E+04  0.50400001928E-02 0.  1.
</event>
<event>
 5   0  0.7602288E-02  0.4984150E+03  0.7818609E-02  0.1014193E+00
       -1   -1    0    0    0  501  0.00000000000E+00  0.00000000000E+00  0.16334142348E+03  0.16334142356E+03  0.50400001928E-02 0. -1.
        1   -1    0    0  501    0  0.00000000000E+00  0.00000000000E+00 -0.38021207782E+03  0.38021207786E+03  0.50400001928E-02 0.  1.
    10030    2    1    2    0    0  0.00000000000E+00  0.00000000000E+00 -0.21687065434E+03  0.54355350142E+03  0.49841501601E+03 0.  0.
        5    1    3    3  502    0 -0.11573168640E+03  0.15633904880E+03  0.61379786654E+02  0.20402276742E+03  0.46999998093E+01 0. -1.
       -5    1    3    3    0  502  0.11573168640E+03 -0.15633904880E+03 -0.27825044100E+03  0.33953073400E+03  0.46999998093E+01 0.  1.
</event>
<event>
 5   0  0.7416638E-02  0.5091705E+03  0.7818609E-02  0.1011413E+00
       -1   -1    0    0    0  501  0.00000000000E+00  0.00000000000E+00  0.24475422015E+03  0.24475422020E+03  0.50400001928E-02 0. -1.
        1   -1    0    0  501    0  0.00000000000E+00  0.00000000000E+00 -0.26481120031E+03  0.26481120036E+03  0.50400001928E-02 0.  1.
    10030    2    1    2    0    0  0.00000000000E+00  0.00000000000E+00 -0.20056980169E+02  0.50956542056E+03  0.50917053663E+03 0.  0.
        1    1    3    3  502    0  0.14787419343E+03 -0.20698344082E+03  0.21355470711E+00  0.25437957364E+03  0.50400001928E-02 0. -1.
       -1    1    3    3    0  502 -0.14787419343E+03  0.20698344082E+03 -0.20270534876E+02  0.25518584692E+03  0.50400001928E-02 0.  1.
</event>
<event>
 5   0  0.1211345E-01  0.4982816E+03  0.7818609E-02  0.1014228E+00
        2   -1    0    0  501    0  0.00000000000E+00  0.00000000000E+00  0.11981379633E+04  0.11981379633E+04  0.25500000920E-02 0.  1.
       -2   -1    0    0    0  501  0.00000000000E+00  0.00000000000E+00 -0.51806327020E+02  0.51806327083E+02  0.25500000920E-02 0. -1.
    10030    2    1    2    0    0  0.00000000000E+00  0.00000000000E+00  0.11463316363E+04  0.12499442904E+04  0.49828155568E+03 0.  0.
        5    1    3    3  502    0  0.12915236418E+03 -0.86726654312E+02  0.10611802595E+04  0.10725332064E+04  0.46999998093E+01 0.  1.
       -5    1    3    3    0  502 -0.12915236418E+03  0.86726654312E+02  0.85151376758E+02  0.17741108394E+03  0.46999998093E+01 0. -1.
</event>
<event>
 5   0  0.1191894E-01  0.5004120E+03  0.7818609E-02  0.1013671E+00
        2   -1    0    0  501    0  0.00000000000E+00  0.00000000000E+00  0.28437349781E+03  0.28437349782E+03  0.25500000920E-02 0.  1.
       -2   -1    0    0    0  501  0.00000000000E+00  0.00000000000E+00 -0.22014368635E+03  0.22014368636E+03  0.25500000920E-02 0. -1.
    10030    2    1    2    0    0  0.00000000000E+00  0.00000000000E+00  0.64229811459E+02  0.50451718418E+03  0.50041195075E+03 0.  0.
        3    1    3    3  502    0 -0.13117454239E+03 -0.20309972354E+03  0.97038540590E+02  0.26052398514E+03  0.10100000352E+00 0.  1.
       -3    1    3    3    0  502  0.13117454239E+03  0.20309972354E+03 -0.32808729131E+02  0.24399319904E+03  0.10100000352E+00 0. -1.
</event>
<event>
 5   0  0.1211345E-01  0.5011563E+03  0.7818609E-02  0.1013478E+00
        2   -1    0    0  501    0  0.00000000000E+00  0.00000000000E+00  0.30382103267E+03  0.30382103269E+03  0.25500000920E-02 0. -1.
       -2   -1    0    0    0  501  0.00000000000E+00  0.00000000000E+00 -0.20666576309E+03  0.20666576310E+03  0.25500000920E-02 0.  1.
    10030    2    1    2    0    0  0.00000000000E+00  0.00000000000E+00  0.97155269588E+02  0.51048679579E+03  0.50115628527E+03 0.  0.
        5    1    3    3  502    0 -0.14523478205E+03  0.18838915070E+03 -0.31522932514E+02  0.23999874852E+03  0.46999998093E+01 0.  1.
       -5    1    3    3    0  502  0.14523478205E+03 -0.18838915070E+03  0.12867820210E+03  0.27048804727E+03  0.46999998093E+01 0. -1.
</event>
<event>
 5   0  0.7781754E-02  0.4939913E+03  0.7818609E-02  0.1015359E+00
        1   -1    0    0  501    0  0.00000000000E+00  0.00000000000E+00  0.39527312163E+03  0.39527312166E+03  0.50400001928E-02 0. -1.
       -1   -1    0    0    0  501  0.00000000000E+00  0.00000000000E+00 -0.15434102128E+03  0.15434102136E+03  0.50400001928E-02 0.  1.
    10030    2    1    2    0    0  0.00000000000E+00  0.00000000000E+00  0.24093210035E+03  0.54961414302E+03  0.49399132505E+03 0.  0.
        2    1    3    3  502    0  0.24086769294E+03  0.49321468753E+02  0.14672443062E+03  0.28631785017E+03  0.25500000920E-02 0. -1.
       -2    1    3    3    0  502 -0.24086769294E+03 -0.49321468753E+02  0.94207669730E+02  0.26329629284E+03  0.25500000920E-02 0.  1.
</event>
<event>
 5   0  0.1243803E-01  0.5047018E+03  0.7818609E-02  0.1012559E+00
       -2   -1    0    0    0  501  0.00000000000E+00  0.00000000000E+00  0.11474658941E+03  0.11474658944E+03  0.25500000920E-02 0.  1.
        2   -1    0    0  501    0  0.00000000000E+00  0.00000000000E+00 -0.55497044573E+03  0.55497044574E+03  0.25500000920E-02 0. -1.
    10030    2    1    2    0    0  0.00000000000E+00  0.00000000000E+00 -0.44022385632E+03  0.66971703518E+03  0.50470175701E+03 0.  0.
        4    1    3    3  502    0  0.20114120850E+02  0.16853575089E+03 -0.46790289255E+03  0.49773849253E+03  0.12699999809E+01 0. -1.
       -4    1    3    3    0  502 -0.20114120850E+02 -0.16853575089E+03  0.27679036223E+02  0.17197854265E+03  0.12699999809E+01 0.  1.
</event>
<event>
 5   0  0.7416638E-02  0.5000028E+03  0.7818609E-02  0.1013778E+00
       -1   -1    0    0    0  501  0.00000000000E+00  0.00000000000E+00  0.90282133489E+02  0.90282133629E+02  0.50400001928E-02 0.  1.
        1   -1    0    0  501    0  0.00000000000E+00  0.00000000000E+00 -0.69228207944E+03  0.69228207946E+03  0.50400001928E-02 0. -1.
    10030    2    1    2    0    0  0.00000000000E+00  0.00000000000E+00 -0.60199994596E+03  0.78256421309E+03  0.50000281267E+03 0.  0.
        1    1    3    3  502    0  0.65952604022E+02  0.23357942536E+03 -0.20720229767E+03  0.31912675556E+03  0.50400001928E-02 0.  1.
       -1    1    3    3    0  502 -0.65952604022E+02 -0.23357942536E+03 -0.39479764829E+03  0.46343745753E+03  0.50400001928E-02 0. -1.
</event>
<event>
 5   0  0.1191894E-01  0.5055054E+03  0.7818609E-02  0.1012352E+00
       -2   -1    0    0    0  501  0.00000000000E+00  0.00000000000E+00  0.55539622521E+02  0.55539622580E+02  0.25500000920E-02 0.  1.
        2   -1    0    0  501    0  0.00000000000E+00  0.00000000000E+00 -0.11502405429E+04  0.11502405429E+04  0.25500000920E-02 0. -1.
    10030    2    1    2    0    0  0.00000000000E+00  0.00000000000E+00 -0.10947009203E+04  0.12057801654E+04  0.50550539303E+03 0.  0.
        3    1    3    3  502    0  0.22139693461E+03  0.34923679976E+02 -0.82600830225E+03  0.85587732279E+03  0.10100000352E+00 0. -1.
       -3    1    3    3    0  502 -0.22139693461E+03 -0.34923679976E+02 -0.26869261808E+03  0.34990284265E+03  0.10100000352E+00 0.  1.
</event>
<event>
 5   0  0.7416638E-02  0.5016677E+03  0.7818609E-02  0.1013345E+00
       -1   -1    0    0    0  501  0.00000000000E+00  0.00000000000E+00  0.10664822724E+03  0.10664822736E+03  0.50400001928E-02 0. -1.
        1   -1    0    0  501    0  0.00000000000E+00  0.00000000000E+00 -0.58995466263E+03  0.58995466265E+03  0.50400001928E-02 0.  1.
    10030    2    1    2    0    0  0.00000000000E+00  0.00000000000E+00 -0.48330643539E+03  0.69660289001E+03  0.50166769467E+03 0.  0.
        1    1    3    3  502    0 -0.83137444298E+02 -0.40144890038E+02  0.82197841833E+02  0.12361202234E+03  0.50400001928E-02 0. -1.
       -1    1    3    3    0  502  0.83137444298E+02  0.40144890038E+02 -0.56550427723E+03  0.57299086766E+03  0.50400001928E-02 0.  1.
</event>
<event>
 5   0  0.5006750E-02  0.5056216E+03  0.7818609E-02  0.1012322E+00
        3   -1    0    0  501    0  0.00000000000E+00  0.00000000000E+00  0.36883529549E+03  0.36883530932E+03  0.10100000352E+00 0.  1.
       -3   -1    0    0    0  501  0.00000000000E+00  0.00000000000E+00 -0.17328411718E+03  0.17328414662E+03  0.10100000352E+00 0. -1.
    10030    2    1    2    0    0  0.00000000000E+00  0.00000000000E+00  0.19555117831E+03  0.54211945593E+03  0.50562163835E+03 0.  0.
        3    1    3    3  502    0 -0.17283223882E+03  0.15059545053E+02  0.29493950044E+03  0.34217991144E+03  0.10100000352E+00 0.  1.
       -3    1    3    3    0  502  0.17283223882E+03 -0.15059545053E+02 -0.99388322133E+02  0.19993954449E+03  0.10100000352E+00 0. -1.
</event>
<event>
 5   0  0.1211345E-01  0.5026819E+03  0.7818609E-02  0.1013081E+00
        2   -1    0    0  501    0  0.00000000000E+00  0.00000000000E+00  0.45590362638E+03  0.45590362639E+03  0.25500000920E-02 0. -1.
       -2   -1    0    0    0  501  0.00000000000E+00  0.00000000000E+00 -0.13856495642E+03  0.13856495645E+03  0.25500000920E-02 0.  1.
    10030    2    1    2    0    0  0.00000000000E+00  0.00000000000E+00  0.31733866995E+03  0.59446858283E+03  0.50268187209E+03 0.  0.
        5    1    3    3  502    0  0.68359368424E+02 -0.19781325405E+03  0.32316085087E+03  0.38504300054E+03  0.46999998093E+01 0. -1.
       -5    1    3    3    0  502 -0.68359368424E+02  0.19781325405E+03 -0.58221809176E+01  0.20942558229E+03  0.46999998093E+01 0.  1.
</event>
<event>
 5   0  0.7602288E-02  0.4983886E+03  0.7818609E-02  0.1014200E+00
       -1   -1    0    0    0  501  0.00000000000E+00  0.00000000000E+00  0.19010702216E+03  0.19010702222E+03  0.50400001928E-02 0. -1.
        1   -1    0    0  501    0  0.00000000000E+00  0.00000000000E+00 -0.32664648945E+03  0.32664648949E+03  0.50400001928E-02 0.  1.
    10030    2    1    2    0    0  0.00000000000E+00  0.00000000000E+00 -0.13653946729E+03  0.51675351171E+03  0.49838856903E+03 0.  0.
        5    1    3    3  502    0 -0.20030115737E+03  0.14616254502E+03 -0.43049400622E+02  0.25171290015E+03  0.46999998093E+01 0. -1.
       -5    1    3    3    0  502  0.20030115737E+03 -0.14616254502E+03 -0.93490066669E+02  0.26504061156E+03  0.46999998093E+01 0.  1.
</event>
<event>
 5   0  0.7781754E-02  0.5082004E+03  0.7818609E-02  0.1011660E+00
        1   -1    0    0  501    0  0.00000000000E+00  0.00000000000E+00  0.77487837953E+03  0.77487837955E+03  0.50400001928E-02 0. -1.
       -1   -1    0    0    0  501  0.00000000000E+00  0.00000000000E+00 -0.83325228613E+02  0.83325228765E+02  0.50400001928E-02 0.  1.
    10030    2    1    2    0    0  0.00000000000E+00  0.00000000000E+00  0.69155315092E+03  0.85820360831E+03  0.50820042579E+03 0.  0.
        2    1    3    3  502    0 -0.21470399341E+03 -0.12341360278E+03  0.24968022800E+03  0.35166594717E+03  0.25500000920E-02 0.  1.
       -2    1    3    3    0  502  0.21470399341E+03  0.12341360278E+03  0.44187292292E+03  0.50653766114E+03  0.25500000920E-02 0. -1.
</event>
<event>
 5   0  0.1279188E-01  0.4985656E+03  0.7818609E-02  0.1014154E+00
       -2   -1    0    0    0  501  0.00000000000E+00  0.00000000000E+00  0.69058108675E+02  0.69058108722E+02  0.25500000920E-02 0.  1.
        2   -1    0    0  501    0  0.00000000000E+00  0.00000000000E+00 -0.89984952857E+03  0.89984952858E+03  0.25500000920E-02 0. -1.
    10030    2    1    2    0    0  0.00000000000E+00  0.00000000000E+00 -0.83079141990E+03  0.96890763730E+03  0.49856556865E+03 0.  0.
        2    1    3    3  502    0 -0.23385031045E+03 -0.86115942404E+02 -0.42768422856E+03  0.49499062880E+03  0.25500000920E-02 0.  1.
       -2    1    3    3    0  502  0.23385031045E+03  0.86115942404E+02 -0.40310719133E+03  0.47391700850E+03  0.25500000920E-02 0. -1.
</event>
<event>
 5   0  0.1191894E-01  0.5070583E+03  0.7818609E-02  0.1011953E+00
        2   -1    0    0  501    0  0.00000000000E+00  0.00000000000E+00  0.27215980430E+03  0.27215980431E+03  0.25500000920E-02 0.  1.
       -2   -1    0    0    0  501  0.00000000000E+00  0.00000000000E+00 -0.23617383455E+03  0.23617383456E+03  0.25500000920E-02 0. -1.
    10030    2    1    2    0    0  0.00000000000E+00  0.00000000000E+00  0.35985969752E+02  0.50833363888E+03  0.50705827909E+03 0.  0.
        3    1    3    3  502    0 -0.90001750838E+02  0.33377706831E+02  0.25323746365E+03  0.27082025342E+03  0.10100000352E+00 0.  1.
       -3    1    3    3    0  502  0.90001750838E+02 -0.33377706831E+02 -0.21725149390E+03  0.23751338545E+03  0.10100000352E+00 0. -1.
</event>
<event>
 5   0  0.7531632E-02  0.5056339E+03  0.7818609E-02  0.1012319E+00
        1   -1    0    0  501    0  0.00000000000E+00  0.00000000000E+00  0.46619937466E+03  0.46619937469E+03  0.50400001928E-02 0.  1.
       -1   -1    0    0    0  501  0.00000000000E+00  0.00000000000E+00 -0.13710101973E+03  0.13710101982E+03  0.50400001928E-02 0. -1.
    10030    2    1    2    0    0  0.00000000000E+00  0.00000000000E+00  0.32909835493E+03  0.60330039451E+03  0.50563389799E+03 0.  0.
        3    1    3    3  502    0 -0.75146103414E+02 -0.39963071775E+02 -0.11949329847E+03  0.14670597310E+03  0.10100000352E+00 0. -1.
       -3    1    3    3    0  502  0.75146103414E+02  0.39963071775E+02  0.44859165340E+03  0.45659442141E+03  0.10100000352E+00 0.  1.
</event>
<event>
 5   0  0.5006750E-02  0.4988797E+03  0.7818609E-02  0.1014072E+00
       -4   -1    0    0    0  501  0.00000000000E+00  0.00000000000E+00  0.23340440287E+03  0.23340785800E+03  0.12699999809E+01 0.  1.
        4   -1    0    0  501    0  0.00000000000E+00  0.00000000000E+00 -0.26656998035E+03  0.26657300562E+03  0.12699999809E+01 0. -1.
    10030    2    1    2    0    0  0.00000000000E+00  0.00000000000E+00 -0.33165577481E+02  0.49998086362E+03  0.49887965328E+03 0.  0.
        2    1    3    3  502    0 -0.15984752610E+03  0.91566016076E+02  0.15196888659E+03  0.23880977660E+03  0.25500000920E-02 0.  1.
       -2    1    3    3    0  502  0.15984752610E+03 -0.91566016076E+02 -0.18513446408E+03  0.26117108702E+03  0.25500000920E-02 0. -1.
</event>
<event>
 5   0  0.1231822E-01  0.5052423E+03  0.7818609E-02  0.1012420E+00
       -2   -1    0    0    0  501  0.00000000000E+00  0.00000000000E+00  0.49289229539E+02  0.49289229605E+02  0.25500000920E-02 0. -1.
        2   -1    0    0  501    0  0.00000000000E+00  0.00000000000E+00 -0.12947542543E+04  0.12947542543E+04  0.25500000920E-02 0.  1.
    10030    2    1    2    0    0  0.00000000000E+00  0.00000000000E+00 -0.12454650247E+04  0.13440434839E+04  0.50524227725E+03 0.  0.
        1    1    3    3  502    0 -0.47350504550E+02  0.49649475440E+02  0.24030557404E+02  0.72695312140E+02  0.50400001928E-02 0. -1.
       -1    1    3    3    0  502  0.47350504550E+02 -0.49649475440E+02 -0.12694955821E+04  0.12713481717E+04  0.50400001928E-02 0.  1.
</event>
<event>
 5   0  0.1279188E-01  0.5008270E+03  0.7818609E-02  0.1013563E+00
        2   -1    0    0  501    0  0.00000000000E+00  0.00000000000E+00  0.19312344990E+03  0.19312344991E+03  0.25500000920E-02 0.  1.
       -2   -1    0    0    0  501  0.00000000000E+00  0.00000000000E+00 -0.32469857653E+03  0.32469857654E+03  0.25500000920E-02 0. -1.
    10030    2    1    2    0    0  0.00000000000E+00  0.00000000000E+00 -0.13157512663E+03  0.51782202645E+03  0.50082695328E+03 0.  0.
        2    1    3    3  502    0  0.18997386566E+03 -0.12755042208E+03  0.39388124167E+02  0.23218657183E+03  0.25500000920E-02 0.  1.
       -2    1    3    3    0  502 -0.18997386566E+03  0.12755042208E+03 -0.17096325080E+03  0.28563545462E+03  0.25500000920E-02 0. -1.
</event>
<event>
 5   0  0.5006750E-02  0.4991725E+03  0.7818609E-02  0.1013995E+00
       -4   -1    0    0    0  501  0.00000000000E+00  0.00000000000E+00  0.55941717966E+03  0.55941862125E+03  0.12699999809E+01 0.  1.
        4   -1    0    0  501    0  0.00000000000E+00  0.00000000000E+00 -0.11134873038E+03  0.11135597270E+03  0.12699999809E+01 0. -1.
    10030    2    1    2    0    0  0.00000000000E+00  0.00000000000E+00  0.44806844928E+03  0.67077459395E+03  0.49917253595E+03 0.  0.
        1    1    3    3  502    0  0.24944418325E+03 -0.83811640990E+01  0.22294198652E+03  0.33465769653E+03  0.50400001928E-02 0.  1.
       -1    1    3    3    0  502 -0.24944418325E+03  0.83811640990E+01  0.22512646277E+03  0.33611689742E+03  0.50400001928E-02 0. -1.
</event>
<event>
 5   0  0.1243803E-01  0.5052248E+03  0.7818609E-02  0.1012424E+00
        2   -1    0    0  501    0  0.00000000000E+00  0.00000000000E+00  0.71553214088E+03  0.71553214088E+03  0.25500000920E-02 0. -1.
       -2   -1    0    0    0  501  0.00000000000E+00  0.00000000000E+00 -0.89182615736E+02  0.89182615773E+02  0.25500000920E-02 0.  1.
    10030    2    1    2    0    0  0.00000000000E+00  0.00000000000E+00  0.62634952514E+03  0.80471475666E+03  0.50522481326E+03 0.  0.
        4    1    3    3  502    0  0.89431188710E+02 -0.12944583174E+03  0.62795549936E+03  0.64736688434E+03  0.12699999809E+01 0. -1.
       -4    1    3    3    0  502 -0.89431188710E+02  0.12944583174E+03 -0.16059742158E+01  0.15734787231E+03  0.12699999809E+01 0.  1.
</event>
<event>
 5   0  0.1211345E-01  0.5005496E+03  0.7818609E-02  0.1013636E+00
       -2   -1    0    0    0  501  0.00000000000E+00  0.00000000000E+00  0.62101661353E+03  0.62101661354E+03  0.25500000920E-02 0.  1.
        2   -1    0    0  501    0  0.00000000000E+00  0.00000000000E+00 -0.10086279068E+03  0.10086279072E+03  0.25500000920E-02 0. -1.
    10030    2    1    2    0    0  0.00000000000E+00  0.00000000000E+00  0.52015382285E+03  0.72187940425E+03  0.50054957283E+03 0.  0.
        5    1    3    3  502    0  0.16496776116E+03 -0.48085289898E+02 -0.22592775823E+01  0.17191204629E+03  0.46999998093E+01 0. -1.
       -5    1    3    3    0  502 -0.16496776116E+03  0.48085289898E+02  0.52241310043E+03  0.54996735796E+03  0.46999998093E+01 0.  1.
</event>
<event>
 5   0  0.1243803E-01  0.5015713E+03  0.7818609E-02  0.1013370E+00
        2   -1    0    0  501    0  0.00000000000E+00  0.00000000000E+00  0.17781548775E+03  0.17781548777E+03  0.25500000920E-02 0.  1.
       -2   -1    0    0    0  501  0.00000000000E+00  0.00000000000E+00 -0.35370054631E+03  0.35370054632E+03  0.25500000920E-02 0. -1.
    10030    2    1    2    0    0  0.00000000000E+00  0.00000000000E+00 -0.17588505855E+03  0.53151603409E+03  0.50157127178E+03 0.  0.
        4    1    3    3  502    0  0.21215889086E+03 -0.82343192836E+02  0.23704124861E+02  0.22881279425E+03  0.12699999809E+01 0.  1.
       -4    1    3    3    0  502 -0.21215889086E+03  0.82343192836E+02 -0.19958918342E+03  0.30270323984E+03  0.12699999809E+01 0. -1.
</event>
<event>
 5   0  0.1279188E-01  0.4980483E+03  0.7818609E-02  0.1014290E+00
        2   -1    0    0  501    0  0.00000000000E+00  0.00000000000E+00  0.69722395548E+03  0.69722395549E+03  0.25500000920E-02 0. -1.
       -2   -1    0    0    0  501  0.00000000000E+00  0.00000000000E+00 -0.88942783210E+02  0.88942783246E+02  0.25500000920E-02 0.  1.
    10030    2    1    2    0    0  0.00000000000E+00  0.00000000000E+00  0.60828117227E+03  0.78616673873E+03  0.49804834760E+03 0.  0.
        2    1    3    3  502    0  0.11857282521E+02 -0.17325726678E+03  0.58586703941E+03  0.61106371477E+03  0.25500000920E-02 0. -1.
       -2    1    3    3    0  502 -0.11857282521E+02  0.17325726678E+03  0.22414132867E+02  0.17510302396E+03  0.25500000920E-02 0.  1.
</event>
<event>
 5   0  0.1211345E-01  0.4998769E+03  0.7818609E-02  0.1013811E+00
       -2   -1    0    0    0  501  0.00000000000E+00  0.00000000000E+00  0.89121757729E+02  0.89121757766E+02  0.25500000920E-02 0. -1.
        2   -1    0    0  501    0  0.00000000000E+00  0.00000000000E+00 -0.70094243910E+03  0.70094243911E+03  0.25500000920E-02 0.  1.
    10030    2    1    2    0    0  0.00000000000E+00  0.00000000000E+00 -0.61182068137E+03  0.79006419687E+03  0.49987687386E+03 0.  0.
        5    1    3    3  502    0  0.20870102999E+03  0.23973599677E+02 -0.92006806732E+02  0.22938656430E+03  0.46999998093E+01 0. -1.
       -5    1    3    3    0  502 -0.20870102999E+03 -0.23973599677E+02 -0.51981387464E+03  0.56067763257E+03  0.46999998093E+01 0.  1.
</event>
<event>
 5   0  0.7416638E-02  0.4988143E+03  0.7818609E-02  0.1014089E+00
        1   -1    0    0  501    0  0.00000000000E+00  0.00000000000E+00  0.28629702686E+03  0.28629702691E+03  0.50400001928E-02 0. -1.
       -1   -1    0    0    0  501  0.00000000000E+00  0.00000000000E+00 -0.21727056802E+03  0.21727056807E+03  0.50400001928E-02 0.  1.
    10030    2    1    2    0    0  0.00000000000E+00  0.00000000000E+00  0.69026458845E+02  0.50356759498E+03  0.49881426473E+03 0.  0.
        1    1    3    3  502    0  0.18548748418E+03  0.93633692651E+02 -0.10475440526E+03  0.23269370561E+03  0.50400001928E-02 0. -1.
       -1    1    3    3    0  502 -0.18548748418E+03 -0.93633692651E+02  0.17378086410E+03  0.27087388937E+03  0.50400001928E-02 0.  1.
</event>
<event>
 5   0  0.1191894E-01  0.4992549E+03  0.7818609E-02  0.1013974E+00
        2   -1    0    0  501    0  0.00000000000E+00  0.00000000000E+00  0.37672307644E+03  0.37672307645E+03  0.25500000920E-02 0. -1.
       -2   -1    0    0    0  501  0.00000000000E+00  0.00000000000E+00 -0.16541025791E+03  0.16541025793E+03  0.25500000920E-02 0.  1.
    10030    2    1    2    0    0  0.00000000000E+00  0.00000000000E+00  0.21131281853E+03  0.54213333438E+03  0.49925488978E+03 0.  0.
        3    1    3    3  502    0 -0.20086689714E+03 -0.14354297697E+03  0.14572768638E+03  0.28668565605E+03  0.10100000352E+00 0.  1.
       -3    1    3    3    0  502  0.20086689714E+03  0.14354297697E+03  0.65585132150E+02  0.25544767833E+03  0.10100000352E+00 0. -1.
</event>
<event>
 5   0  0.7416638E-02  0.5058903E+03  0.7818609E-02  0.1012253E+00
        1   -1    0    0  501    0  0.00000000000E+00  0.00000000000E+00  0.76392348229E+03  0.76392348231E+03  0.50400001928E-02 0.  1.
       -1   -1    0    0    0  501  0.00000000000E+00  0.00000000000E+00 -0.83753474174E+02  0.83753474326E+02  0.50400001928E-02 0. -1.
    10030    2    1    2    0    0  0.00000000000E+00  0.00000000000E+00  0.68017000812E+03  0.84767695663E+03  0.50589028738E+03 0.  0.
        1    1    3    3  502    0  0.16638910543E+03 -0.10397647448E+03  0.60757939835E+03  0.63847409264E+03  0.50400001928E-02 0.  1.
       -1    1    3    3    0  502 -0.16638910543E+03  0.10397647448E+03  0.72590609766E+02  0.20920286399E+03  0.50400001928E-02 0. -1.
</event>
<event>
 5   0  0.1279188E-01  0.4978235E+03  0.7818609E-02  0.1014349E+00
        2   -1    0    0  501    0  0.00000000000E+00  0.00000000000E+00  0.56170859983E+03  0.56170859984E+03  0.25500000920E-02 0. -1.
       -2   -1    0    0    0  501  0.00000000000E+00  0.00000000000E+00 -0.11030105692E+03  0.11030105695E+03  0.25500000920E-02 0.  1.
    10030    2    1    2    0    0  0.00000000000E+00  0.00000000000E+00  0.45140754291E+03  0.67200965679E+03  0.49782347174E+03 0.  0.
        2    1    3    3  502    0 -0.19496658523E+03  0.79619855340E+01  0.43431259319E+03  0.47613316539E+03  0.25500000920E-02 0. -1.
       -2    1    3    3    0  502  0.19496658523E+03 -0.79619855340E+01  0.17094949716E+02  0.19587649140E+03  0.25500000920E-02 0.  1.
</event>
<event>
 5   0  0.1211345E-01  0.5003382E+03  0.7818609E-02  0.1013691E+00
       -2   -1    0    0    0  501  0.00000000000E+00  0.00000000000E+00  0.12483963334E+03  0.12483963337E+03  0.25500000920E-02 0. -1.
        2   -1    0    0  501    0  0.00000000000E+00  0.00000000000E+00 -0.50131985502E+03  0.50131985503E+03  0.25500000920E-02 0.  1.
    10030    2    1    2    0    0  0.00000000000E+00  0.00000000000E+00 -0.37648022168E+03  0.62615948840E+03  0.50033823320E+03 0.  0.
        5    1    3    3  502    0 -0.10757491451E+03 -0.20674171106E+03 -0.74583267401E+02  0.24474323504E+03  0.46999998093E+01 0. -1.
       -5    1    3    3    0  502  0.10757491451E+03  0.20674171106E+03 -0.30189695428E+03  0.38141625336E+03  0.46999998093E+01 0.  1.
</event>
<event>
 5   0  0.7416638E-02  0.4906011E+03  0.7818609E-02  0.1016262E+00
        1   -1    0    0  501    0  0.00000000000E+00  0.00000000000E+00  0.61070585295E+03  0.61070585297E+03  0.50400001928E-02 0.  1.
       -1   -1    0    0    0  501  0.00000000000E+00  0.00000000000E+00 -0.98529220815E+02  0.98529220944E+02  0.50400001928E-02 0. -1.
    10030    2    1    2    0    0  0.00000000000E+00  0.00000000000E+00  0.51217663213E+03  0.70923507391E+03  0.49060114917E+03 0.  0.
        1    1    3    3  502    0 -0.14263267761E+03  0.17201571716E+03  0.10980730312E+03  0.24898018298E+03  0.50400001928E-02 0. -1.
       -1    1    3    3    0  502  0.14263267761E+03 -0.17201571716E+03  0.40236932901E+03  0.46025489093E+03  0.50400001928E-02 0.  1.
</event>
<event>
 5   0  0.7812547E-02  0.4999349E+03  0.7818609E-02  0.1013796E+00
       -1   -1    0    0    0  501  0.00000000000E+00  0.00000000000E+00  0.95546606157E+02  0.95546606290E+02  0.50400001928E-02 0. -1.
        1   -1    0    0  501    0  0.00000000000E+00  0.00000000000E+00 -0.65396076976E+03  0.65396076978E+03  0.50400001928E-02 0.  1.
    10030    2    1    2    0    0  0.00000000000E+00  0.00000000000E+00 -0.55841416361E+03  0.74950737607E+03  0.49993492444E+03 0.  0.
        4    1    3    3  502    0  0.13256497230E+03 -0.85368532256E+02  0.11581132363E+02  0.15810437599E+03  0.12699999809E+01 0. -1.
       -4    1    3    3    0  502 -0.13256497230E+03  0.85368532256E+02 -0.56999529597E+03  0.59140300008E+03  0.12699999809E+01 0.  1.
</event>
<event>
 5   0  0.7531632E-02  0.4971852E+03  0.7818609E-02  0.1014516E+00
       -1   -1    0    0    0  501  0.00000000000E+00  0.00000000000E+00  0.40060033121E+02  0.40060033438E+02  0.50400001928E-02 0. -1.
        1   -1    0    0  501    0  0.00000000000E+00  0.00000000000E+00 -0.15426418047E+04  0.15426418047E+04  0.50400001928E-02 0.  1.
    10030    2    1    2    0    0  0.00000000000E+00  0.00000000000E+00 -0.15025817715E+04  0.15827018381E+04  0.49718520511E+03 0.  0.
        3    1    3    3  502    0 -0.18870710189E+03 -0.14192967417E+03 -0.99876993329E+03  0.10263019987E+04  0.10100000352E+00 0.  1.
       -3    1    3    3    0  502  0.18870710189E+03  0.14192967417E+03 -0.50381183825E+03  0.55639983940E+03  0.10100000352E+00 0. -1.
</event>
<event>
 5   0  0.7602288E-02  0.5773167E+03  0.7818609E-02  0.9953617E-01
        1   -1    0    0  501    0  0.00000000000E+00  0.00000000000E+00  0.15678959334E+03  0.15678959342E+03  0.50400001928E-02 0.  1.
       -1   -1    0    0    0  501  0.00000000000E+00  0.00000000000E+00 -0.53143597585E+03  0.53143597587E+03  0.50400001928E-02 0. -1.
    10030    2    1    2    0    0  0.00000000000E+00  0.00000000000E+00 -0.37464638251E+03  0.68822556929E+03  0.57731665687E+03 0.  0.
        5    1    3    3  502    0 -0.62343704727E+02  0.28163046358E+03 -0.19918963968E+03  0.35057247195E+03  0.46999998093E+01 0. -1.
       -5    1    3    3    0  502  0.62343704727E+02 -0.28163046358E+03 -0.17545674283E+03  0.33765309734E+03  0.46999998093E+01 0.  1.
</event>
<event>
 5   0  0.7602288E-02  0.4733301E+03  0.7818609E-02  0.1020984E+00
       -1   -1    0    0    0  501  0.00000000000E+00  0.00000000000E+00  0.14289963298E+03  0.14289963307E+03  0.50400001928E-02 0. -1.
        1   -1    0    0  501    0  0.00000000000E+00  0.00000000000E+00 -0.39195589623E+03  0.39195589626E+03  0.50400001928E-02 0.  1.
    10030    2    1    2    0    0  0.00000000000E+00  0.00000000000E+00 -0.24905626325E+03  0.53485552933E+03  0.47333013320E+03 0.  0.
        5    1    3    3  502    0 -0.19509093490E+03  0.13109430724E+03 -0.15531005777E+03  0.28176141381E+03  0.46999998093E+01 0.  1.
       -5    1    3    3    0  502  0.19509093490E+03 -0.13109430724E+03 -0.93746205482E+02  0.25309411552E+03  0.46999998093E+01 0. -1.
</event>
<event>
 5   0  0.7531632E-02  0.5045310E+03  0.7818609E-02  0.1012603E+00
        1   -1    0    0  501    0  0.00000000000E+00  0.00000000000E+00  0.78774688365E+03  0.78774688366E+03  0.50400001928E-02 0. -1.
       -1   -1    0    0    0  501  0.00000000000E+00  0.00000000000E+00 -0.80784684250E+02  0.80784684408E+02  0.50400001928E-02 0.  1.
    10030    2    1    2    0    0  0.00000000000E+00  0.00000000000E+00  0.70696219940E+03  0.86853156807E+03  0.50453100337E+03 0.  0.
        3    1    3    3  502    0 -0.10862623772E+03 -0.10675495982E+03  0.69966898994E+03  0.71605375961E+03  0.10100000352E+00 0. -1.
       -3    1    3    3    0  502  0.10862623772E+03  0.10675495982E+03  0.72932094591E+01  0.15247780846E+03  0.10100000352E+00 0.  1.
</event>
<event>
 5   0  0.1211345E-01  0.4960310E+03  0.7818609E-02  0.1014820E+00
        2   -1    0    0  501    0  0.00000000000E+00  0.00000000000E+00  0.26654552362E+03  0.26654552363E+03  0.25500000920E-02 0. -1.
       -2   -1    0    0    0  501  0.00000000000E+00  0.00000000000E+00 -0.23077365539E+03  0.23077365541E+03  0.25500000920E-02 0.  1.
    10030    2    1    2    0    0  0.00000000000E+00  0.00000000000E+00  0.35771868228E+02  0.49731917904E+03  0.49603098621E+03 0.  0.
        5    1    3    3  502    0 -0.53506085615E+02  0.14736115768E+03 -0.17473636354E+03  0.23480438397E+03  0.46999998093E+01 0.  1.
       -5    1    3    3    0  502  0.53506085615E+02 -0.14736115768E+03  0.21050823177E+03  0.26251479507E+03  0.46999998093E+01 0. -1.
</event>
<event>
 5   0  0.5006750E-02  0.4954503E+03  0.7818609E-02  0.1014973E+00
        3   -1    0    0  501    0  0.00000000000E+00  0.00000000000E+00  0.60030499943E+03  0.60030500793E+03  0.10100000352E+00 0.  1.
       -3   -1    0    0    0  501  0.00000000000E+00  0.00000000000E+00 -0.10222758073E+03  0.10222763062E+03  0.10100000352E+00 0. -1.
    10030    2    1    2    0    0  0.00000000000E+00  0.00000000000E+00  0.49807741871E+03  0.70253263855E+03  0.49545029337E+03 0.  0.
        1    1    3    3  502    0 -0.95302472037E+02  0.18442990022E+03  0.44070475630E+03  0.48715257520E+03  0.50400001928E-02 0.  1.
       -1    1    3    3    0  502  0.95302472037E+02 -0.18442990022E+03  0.57372662410E+02  0.21538006335E+03  0.50400001928E-02 0. -1.
</event>
<event>
 5   0  0.7602288E-02  0.5000832E+03  0.7818609E-02  0.1013757E+00
        1   -1    0    0  501    0  0.00000000000E+00  0.00000000000E+00  0.16841536785E+03  0.16841536792E+03  0.50400001928E-02 0. -1.
       -1   -1    0    0    0  501  0.00000000000E+00  0.00000000000E+00 -0.37122973543E+03  0.37122973547E+03  0.50400001928E-02 0.  1.
    10030    2    1    2    0    0  0.00000000000E+00  0.00000000000E+00 -0.20281436759E+03  0.53964510339E+03  0.50008316300E+03 0.  0.
        5    1    3    3  502    0 -0.53220551050E+02  0.13038664602E+03 -0.32430454460E+03  0.35359388027E+03  0.46999998093E+01 0.  1.
       -5    1    3    3    0  502  0.53220551050E+02 -0.13038664602E+03  0.12149017702E+03  0.18605122312E+03  0.46999998093E+01 0. -1.
</event>
<event>
 5   0  0.1211345E-01  0.4965795E+03  0.7818609E-02  0.1014676E+00
       -2   -1    0    0    0  501  0.00000000000E+00  0.00000000000E+00  0.62808841098E+03  0.62808841098E+03  0.25500000920E-02 0.  1.
        2   -1    0    0  501    0  0.00000000000E+00  0.00000000000E+00 -0.98151468263E+02  0.98151468296E+02  0.25500000920E-02 0. -1.
    10030    2    1    2    0    0  0.00000000000E+00  0.00000000000E+00  0.52993694271E+03  0.72623987928E+03  0.49657949917E+03 0.  0.
        5    1    3    3  502    0  0.49523387200E+02 -0.99176341659E+02  0.58981523453E+03  0.60016048979E+03  0.46999998093E+01 0.  1.
       -5    1    3    3    0  502 -0.49523387200E+02  0.99176341659E+02 -0.59878291816E+02  0.12607938949E+03  0.46999998093E+01 0. -1.
</event>
<event>
 5   0  0.7812547E-02  0.4973708E+03  0.7818609E-02  0.1014467E+00
       -1   -1    0    0    0  501  0.00000000000E+00  0.00000000000E+00  0.46136731194E+03  0.46136731197E+03  0.50400001928E-02 0.  1.
        1   -1    0    0  501    0  0.00000000000E+00  0.00000000000E+00 -0.13404599049E+03  0.13404599058E+03  0.50400001928E-02 0. -1.
    10030    2    1    2    0    0  0.00000000000E+00  0.00000000000E+00  0.32732132145E+03  0.59541330255E+03  0.49737084089E+03 0.  0.
        4    1    3    3  502    0  0.24366453651E+02 -0.23319020481E+03  0.26289495114E+03  0.35225951218E+03  0.12699999809E+01 0.  1.
       -4    1    3    3    0  502 -0.24366453651E+02  0.23319020481E+03  0.64426370307E+02  0.24315379037E+03  0.12699999809E+01 0. -1.
</event>
<event>
 5   0  0.7602288E-02  0.4989066E+03  0.7818609E-02  0.1014065E+00
       -1   -1    0    0    0  501  0.00000000000E+00  0.00000000000E+00  0.10879778536E+03  0.10879778548E+03  0.50400001928E-02 0. -1.
        1   -1    0    0  501    0  0.00000000000E+00  0.00000000000E+00 -0.57195054875E+03  0.57195054878E+03  0.50400001928E-02 0.  1.
    10030    2    1    2    0    0  0.00000000000E+00  0.00000000000E+00 -0.46315276339E+03  0.68074833426E+03  0.49890661687E+03 0.  0.
        5    1    3    3  502    0 -0.12736203550E+03  0.15022056066E+03 -0.22772711951E+02  0.19831286226E+03  0.46999998093E+01 0. -1.
       -5    1    3    3    0  502  0.12736203550E+03 -0.15022056066E+03 -0.44038005144E+03  0.48243547199E+03  0.46999998093E+01 0.  1.
</event>
<event>
 5   0  0.1191894E-01  0.4971768E+03  0.7818609E-02  0.1014518E+00
        2   -1    0    0  501    0  0.00000000000E+00  0.00000000000E+00  0.93415192528E+03  0.93415192528E+03  0.25500000920E-02 0.  1.
       -2   -1    0    0    0  501  0.00000000000E+00  0.00000000000E+00 -0.66152174160E+02  0.66152174209E+02  0.25500000920E-02 0. -1.
    10030    2    1    2    0    0  0.00000000000E+00  0.00000000000E+00  0.86799975112E+03  0.10003040995E+04  0.49717675279E+03 0.  0.
        3    1    3    3  502    0 -0.92216838984E+02  0.12489245586E+03  0.43376774980E+02  0.16119437252E+03  0.10100000352E+00 0. -1.
       -3    1    3    3    0  502  0.92216838984E+02 -0.12489245586E+03  0.82462297614E+03  0.83910972697E+03  0.10100000352E+00 0.  1.
</event>
<event>
 5   0  0.1211345E-01  0.4934024E+03  0.7818609E-02  0.1015515E+00
        2   -1    0    0  501    0  0.00000000000E+00  0.00000000000E+00  0.33212098078E+03  0.33212098079E+03  0.25500000920E-02 0. -1.
       -2   -1    0    0    0  501  0.00000000000E+00  0.00000000000E+00 -0.18325097048E+03  0.18325097050E+03  0.25500000920E-02 0.  1.
    10030    2    1    2    0    0  0.00000000000E+00  0.00000000000E+00  0.14887001031E+03  0.51537195129E+03  0.49340244041E+03 0.  0.
        5    1    3    3  502    0 -0.12445003733E+03  0.15520197699E+03 -0.77879519649E+02  0.21368850000E+03  0.46999998093E+01 0.  1.
       -5    1    3    3    0  502  0.12445003733E+03 -0.15520197699E+03  0.22674952996E+03  0.30168345129E+03  0.46999998093E+01 0. -1.
</event>
<event>
 5   0  0.7602288E-02  0.5071706E+03  0.7818609E-02  0.1011924E+00
       -1   -1    0    0    0  501  0.00000000000E+00  0.00000000000E+00  0.24660498012E+03  0.24660498017E+03  0.50400001928E-02 0. -1.
        1   -1    0    0  501    0  0.00000000000E+00  0.00000000000E+00 -0.26076317404E+03  0.26076317409E+03  0.50400001928E-02 0.  1.
    10030    2    1    2    0    0  0.00000000000E+00  0.00000000000E+00 -0.14158193926E+02  0.50736815426E+03  0.50717057240E+03 0.  0.
        5    1    3    3  502    0 -0.21058956593E+03 -0.13063621067E+03  0.46510630356E+02  0.25218864675E+03  0.46999998093E+01 0.  1.
       -5    1    3    3    0  502  0.21058956593E+03  0.13063621067E+03 -0.60668824282E+02  0.25517950751E+03  0.46999998093E+01 0. -1.
</event>
<event>
 5   0  0.1243803E-01  0.4940382E+03  0.7818609E-02  0.1015347E+00
       -2   -1    0    0    0  501  0.00000000000E+00  0.00000000000E+00  0.14001809476E+03  0.14001809479E+03  0.25500000920E-02 0.  1.
        2   -1    0    0  501    0  0.00000000000E+00  0.00000000000E+00 -0.43578965289E+03  0.43578965290E+03  0.25500000920E-02 0. -1.
    10030    2    1    2    0    0  0.00000000000E+00  0.00000000000E+00 -0.29577155813E+03  0.57580774768E+03  0.49403820469E+03 0.  0.
        4    1    3    3  502    0  0.81739376444E+02  0.21118393200E+03 -0.32878295027E+02  0.22882870008E+03  0.12699999809E+01 0.  1.
       -4    1    3    3    0  502 -0.81739376444E+02 -0.21118393200E+03 -0.26289326310E+03  0.34697904761E+03  0.12699999809E+01 0. -1.
</event>
<event>
 5   0  0.7416638E-02  0.5129908E+03  0.7818609E-02  0.1010443E+00
        1   -1    0    0  501    0  0.00000000000E+00  0.00000000000E+00  0.93329540511E+03  0.93329540512E+03  0.50400001928E-02 0.  1.
       -1   -1    0    0    0  501  0.00000000000E+00  0.00000000000E+00 -0.70492041932E+02  0.70492042113E+02  0.50400001928E-02 0. -1.
    10030    2    1    2    0    0  0.00000000000E+00  0.00000000000E+00  0.86280336318E+03  0.10037874472E+04  0.51299083395E+03 0.  0.
        1    1    3    3  502    0 -0.42805741155E+01  0.81242535813E+02 -0.44576931070E+02  0.92767320480E+02  0.50400001928E-02 0. -1.
       -1    1    3    3    0  502  0.42805741155E+01 -0.81242535813E+02  0.90738029425E+03  0.91102012676E+03  0.50400001928E-02 0.  1.
</event>
<event>
 5   0  0.7781754E-02  0.4966530E+03  0.7818609E-02  0.1014656E+00
        1   -1    0    0  501    0  0.00000000000E+00  0.00000000000E+00  0.47106633654E+03  0.47106633657E+03  0.50400001928E-02 0.  1.
       -1   -1    0    0    0  501  0.00000000000E+00  0.00000000000E+00 -0.13090737281E+03  0.13090737291E+03  0.50400001928E-02 0. -1.
    10030    2    1    2    0    0  0.00000000000E+00  0.00000000000E+00  0.34015896373E+03  0.60197370948E+03  0.49665302405E+03 0.  0.
        2    1    3    3  502    0 -0.24158585876E+03 -0.27208095164E+02  0.23142998852E+03  0.33565435673E+03  0.25500000920E-02 0.  1.
       -2    1    3    3    0  502  0.24158585876E+03  0.27208095164E+02  0.10872897520E+03  0.26631935275E+03  0.25500000920E-02 0. -1.
</event>
<event>
 5   0  0.7812547E-02  0.5014986E+03  0.7818609E-02  0.1013389E+00
        1   -1    0    0  501    0  0.00000000000E+00  0.00000000000E+00  0.17820507499E+03  0.17820507506E+03  0.50400001928E-02 0. -1.
       -1   -1    0    0    0  501  0.00000000000E+00  0.00000000000E+00 -0.35282497798E+03  0.35282497801E+03  0.50400001928E-02 0.  1.
    10030    2    1    2    0    0  0.00000000000E+00  0.00000000000E+00 -0.17461990299E+03  0.53103005307E+03  0.50149856106E+03 0.  0.
        4    1    3    3  502    0  0.18539830299E+03 -0.15441757607E+03 -0.15956505006E+03  0.28927484621E+03  0.12699999809E+01 0.  1.
       -4    1    3    3    0  502 -0.18539830299E+03  0.15441757607E+03 -0.15054852930E+02  0.24175520687E+03  0.12699999809E+01 0. -1.
</event>
<event>
 5   0  0.7812547E-02  0.4644486E+03  0.7818609E-02  0.1023499E+00
        1   -1    0    0  501    0  0.00000000000E+00  0.00000000000E+00  0.17848445930E+03  0.17848445937E+03  0.50400001928E-02 0. -1.
       -1   -1    0    0    0  501  0.00000000000E+00  0.00000000000E+00 -0.30214466822E+03  0.30214466826E+03  0.50400001928E-02 0.  1.
    10030    2    1    2    0    0  0.00000000000E+00  0.00000000000E+00 -0.12366020892E+03  0.48062912763E+03  0.46444860970E+03 0.  0.
        4    1    3    3  502    0 -0.18645040723E+03  0.13245225351E+03 -0.10347074903E+03  0.25102821081E+03  0.12699999809E+01 0.  1.
       -4    1    3    3    0  502  0.18645040723E+03 -0.13245225351E+03 -0.20189459884E+02  0.22960091682E+03  0.12699999809E+01 0. -1.
</event>
<event>
 5   0  0.7416638E-02  0.4966048E+03  0.7818609E-02  0.1014669E+00
       -1   -1    0    0    0  501  0.00000000000E+00  0.00000000000E+00  0.59430527602E+02  0.59430527816E+02  0.50400001928E-02 0. -1.
        1   -1    0    0  501    0  0.00000000000E+00  0.00000000000E+00 -0.10374144518E+04  0.10374144518E+04  0.50400001928E-02 0.  1.
    10030    2    1    2    0    0  0.00000000000E+00  0.00000000000E+00 -0.97798392415E+03  0.10968449796E+04  0.49660482613E+03 0.  0.
        1    1    3    3  502    0 -0.19776869700E+03  0.14926784244E+03 -0.45332715986E+03  0.51662255099E+03  0.50400001928E-02 0. -1.
       -1    1    3    3    0  502  0.19776869700E+03 -0.14926784244E+03 -0.52465676429E+03  0.58022242859E+03  0.50400001928E-02 0.  1.
</event>
<event>
 5   0  0.7602288E-02  0.5184960E+03  0.7818609E-02  0.1009061E+00
        1   -1    0    0  501    0  0.00000000000E+00  0.00000000000E+00  0.14156774490E+03  0.14156774499E+03  0.50400001928E-02 0. -1.
       -1   -1    0    0    0  501  0.00000000000E+00  0.00000000000E+00 -0.47475166299E+03  0.47475166302E+03  0.50400001928E-02 0.  1.
    10030    2    1    2    0    0  0.00000000000E+00  0.00000000000E+00 -0.33318391809E+03  0.61631940800E+03  0.51849598784E+03 0.  0.
        5    1    3    3  502    0 -0.23900543146E+03 -0.27842006729E+02 -0.28115299908E+03  0.37009170822E+03  0.46999998093E+01 0.  1.
       -5    1    3    3    0  502  0.23900543146E+03  0.27842006729E+02 -0.52030919014E+02  0.24622769978E+03  0.46999998093E+01 0. -1.
</event>
<event>
 5   0  0.1243803E-01  0.4951714E+03  0.7818609E-02  0.1015047E+00
        2   -1    0    0  501    0  0.00000000000E+00  0.00000000000E+00  0.36676920051E+03  0.36676920052E+03  0.25500000920E-02 0.  1.
       -2   -1    0    0    0  501  0.00000000000E+00  0.00000000000E+00 -0.16713145755E+03  0.16713145757E+03  0.25500000920E-02 0. -1.
    10030    2    1    2    0    0  0.00000000000E+00  0.00000000000E+00  0.19963774296E+03  0.53390065809E+03  0.49517136861E+03 0.  0.
        4    1    3    3  502    0 -0.95627192462E+02  0.10159184208E+03 -0.12070578152E+03  0.18449108625E+03  0.12699999809E+01 0. -1.
       -4    1    3    3    0  502  0.95627192462E+02 -0.10159184208E+03  0.32034352447E+03  0.34940957183E+03  0.12699999809E+01 0.  1.
</event>
<event>
 5   0  0.7602288E-02  0.4858222E+03  0.7818609E-02  0.1017547E+00
       -1   -1    0    0    0  501  0.00000000000E+00  0.00000000000E+00  0.51951514750E+03  0.51951514753E+03  0.50400001928E-02 0.  1.
        1   -1    0    0  501    0  0.00000000000E+00  0.00000000000E+00 -0.11357860661E+03  0.11357860672E+03  0.50400001928E-02 0. -1.
    10030    2    1    2    0    0  0.00000000000E+00  0.00000000000E+00  0.40593654089E+03  0.63309375425E+03  0.48582221690E+03 0.  0.
        5    1    3    3  502    0 -0.13326592516E+02  0.60925661417E+02 -0.10290640993E+03  0.12042156572E+03  0.46999998093E+01 0. -1.
       -5    1    3    3    0  502  0.13326592516E+02 -0.60925661417E+02  0.50884295082E+03  0.51267218853E+03  0.46999998093E+01 0.  1.
</event>
<event>
 5   0  0.1243803E-01  0.5002011E+03  0.7818609E-02  0.1013726E+00
       -2   -1    0    0    0  501  0.00000000000E+00  0.00000000000E+00  0.88771574049E+02  0.88771574086E+02  0.25500000920E-02 0. -1.
        2   -1    0    0  501    0  0.00000000000E+00  0.00000000000E+00 -0.70462062109E+03  0.70462062110E+03  0.25500000920E-02 0.  1.
    10030    2    1    2    0    0  0.00000000000E+00  0.00000000000E+00 -0.61584904704E+03  0.79339219518E+03  0.50020108620E+03 0.  0.
        4    1    3    3  502    0 -0.17909845144E+03 -0.14149863695E+02 -0.58389666788E+03  0.61091194588E+03  0.12699999809E+01 0.  1.
       -4    1    3    3    0  502  0.17909845144E+03  0.14149863695E+02 -0.31952379159E+02  0.18248024930E+03  0.12699999809E+01 0. -1.
</event>
<event>
 5   0  0.7416638E-02  0.5002498E+03  0.7818609E-02  0.1013714E+00
        1   -1    0    0  501    0  0.00000000000E+00  0.00000000000E+00  0.53313395637E+03  0.53313395639E+03  0.50400001928E-02 0.  1.
       -1   -1    0    0    0  501  0.00000000000E+00  0.00000000000E+00 -0.11734847547E+03  0.11734847558E+03  0.50400001928E-02 0. -1.
    10030    2    1    2    0    0  0.00000000000E+00  0.00000000000E+00  0.41578548090E+03  0.65048243198E+03  0.50024976580E+03 0.  0.
        1    1    3    3  502    0  0.99762495435E+02 -0.14465341588E+03 -0.23568100374E+02  0.17729247475E+03  0.50400001928E-02 0. -1.
       -1    1    3    3    0  502 -0.99762495435E+02  0.14465341588E+03  0.43935358127E+03  0.47318995723E+03  0.50400001928E-02 0.  1.
</event>
<event>
 5   0  0.5006750E-02  0.4985413E+03  0.7818609E-02  0.1014160E+00
       -3   -1    0    0    0  501  0.00000000000E+00  0.00000000000E+00  0.17960661291E+03  0.17960664130E+03  0.10100000352E+00 0.  1.
        3   -1    0    0  501    0  0.00000000000E+00  0.00000000000E+00 -0.34595521192E+03  0.34595522666E+03  0.10100000352E+00 0. -1.
    10030    2    1    2    0    0  0.00000000000E+00  0.00000000000E+00 -0.16634859901E+03  0.52556186797E+03  0.49854129284E+03 0.  0.
        4    1    3    3  502    0 -0.21577188891E+03 -0.12400251694E+03 -0.98087028435E+02  0.26750104729E+03  0.12699999809E+01 0. -1.
       -4    1    3    3    0  502  0.21577188891E+03  0.12400251694E+03 -0.68261570578E+02  0.25806082068E+03  0.12699999809E+01 0.  1.
</event>
<event>
 5   0  0.1231822E-01  0.5060733E+03  0.7818609E-02  0.1012206E+00
       -2   -1    0    0    0  501  0.00000000000E+00  0.00000000000E+00  0.60762600627E+02  0.60762600681E+02  0.25500000920E-02 0.  1.
        2   -1    0    0  501    0  0.00000000000E+00  0.00000000000E+00 -0.10537327979E+04  0.10537327979E+04  0.25500000920E-02 0. -1.
    10030    2    1    2    0    0  0.00000000000E+00  0.00000000000E+00 -0.99297019727E+03  0.11144953986E+04  0.50607329587E+03 0.  0.
        1    1    3    3  502    0 -0.12097418159E+03 -0.20336474120E+02 -0.98386856499E+03  0.99148660000E+03  0.50400001928E-02 0. -1.
       -1    1    3    3    0  502  0.12097418159E+03  0.20336474120E+02 -0.91016322807E+01  0.12300879857E+03  0.50400001928E-02 0.  1.
</event>
<event>
 5   0  0.7416638E-02  0.4979247E+03  0.7818609E-02  0.1014322E+00
       -1   -1    0    0    0  501  0.00000000000E+00  0.00000000000E+00  0.33057339205E+03  0.33057339209E+03  0.50400001928E-02 0.  1.
        1   -1    0    0  501    0  0.00000000000E+00  0.00000000000E+00 -0.18749920106E+03  0.18749920112E+03  0.50400001928E-02 0. -1.
    10030    2    1    2    0    0  0.00000000000E+00  0.00000000000E+00  0.14307419099E+03  0.51807259321E+03  0.49792468076E+03 0.  0.
        1    1    3    3  502    0 -0.10815647737E+03  0.50779978882E+02 -0.15571747879E+03  0.19627624176E+03  0.50400001928E-02 0. -1.
       -1    1    3    3    0  502  0.10815647737E+03 -0.50779978882E+02  0.29879166978E+03  0.32179635145E+03  0.50400001928E-02 0.  1.
</event>
<event>
 5   0  0.1279188E-01  0.4955049E+03  0.7818609E-02  0.1014959E+00
        2   -1    0    0  501    0  0.00000000000E+00  0.00000000000E+00  0.30486773488E+03  0.30486773489E+03  0.25500000920E-02 0. -1.
       -2   -1    0    0    0  501  0.00000000000E+00  0.00000000000E+00 -0.20133743400E+03  0.20133743402E+03  0.25500000920E-02 0.  1.
    10030    2    1    2    0    0  0.00000000000E+00  0.00000000000E+00  0.10353030087E+03  0.50620516890E+03  0.49550494430E+03 0.  0.
        2    1    3    3  502    0 -0.21436938042E+02  0.10274171147E+03  0.28103493431E+03  0.29999339309E+03  0.25500000920E-02 0. -1.
       -2    1    3    3    0  502  0.21436938042E+02 -0.10274171147E+03 -0.17750463344E+03  0.20621177582E+03  0.25500000920E-02 0.  1.
</event>
<event>
 5   0  0.7416638E-02  0.4999397E+03  0.7818609E-02  0.1013795E+00
       -1   -1    0    0    0  501  0.00000000000E+00  0.00000000000E+00  0.37058115496E+03  0.37058115499E+03  0.50400001928E-02 0.  1.
        1   -1    0    0  501    0  0.00000000000E+00  0.00000000000E+00 -0.16861333890E+03  0.16861333898E+03  0.50400001928E-02 0. -1.
    10030    2    1    2    0    0  0.00000000000E+00  0.00000000000E+00  0.20196781605E+03  0.53919449397E+03  0.49993969997E+03 0.  0.
        1    1    3    3  502    0 -0.15866257190E+03  0.99516864366E+02 -0.77567219538E+02  0.20271677678E+03  0.50400001928E-02 0. -1.
       -1    1    3    3    0  502  0.15866257190E+03 -0.99516864366E+02  0.27953503559E+03  0.33647771719E+03  0.50400001928E-02 0.  1.
</event>
<event>
 5   0  0.7531632E-02  0.5045538E+03  0.7818609E-02  0.1012597E+00
       -1   -1    0    0    0  501  0.00000000000E+00  0.00000000000E+00  0.25903714860E+03  0.25903714865E+03  0.50400001928E-02 0. -1.
        1   -1    0    0  501    0  0.00000000000E+00  0.00000000000E+00 -0.24569305250E+03  0.24569305255E+03  0.50400001928E-02 0.  1.
    10030    2    1    2    0    0  0.00000000000E+00  0.00000000000E+00  0.13344096098E+02  0.50473020120E+03  0.50455377424E+03 0.  0.
        3    1    3    3  502    0 -0.15071938365E+03 -0.30766591173E+02 -0.19334961770E+03  0.24707691233E+03  0.10100000352E+00 0.  1.
       -3    1    3    3    0  502  0.15071938365E+03  0.30766591173E+02  0.20669371380E+03  0.25765328887E+03  0.10100000352E+00 0. -1.
</event>
<event>
 5   0  0.7416638E-02  0.4941232E+03  0.7818609E-02  0.1015324E+00
       -1   -1    0    0    0  501  0.00000000000E+00  0.00000000000E+00  0.27498066111E+03  0.27498066116E+03  0.50400001928E-02 0. -1.
        1   -1    0    0  501    0  0.00000000000E+00  0.00000000000E+00 -0.22197718126E+03  0.22197718132E+03  0.50400001928E-02 0.  1.
    10030    2    1    2    0    0  0.00000000000E+00  0.00000000000E+00  0.53003479850E+02  0.49695784248E+03  0.49412319144E+03 0.  0.
        1    1    3    3  502    0 -0.30200997547E+02 -0.92694039573E+02 -0.20181411418E+03  0.22412769114E+03  0.50400001928E-02 0.  1.
       -1    1    3    3    0  502  0.30200997547E+02  0.92694039573E+02  0.25481759403E+03  0.27283015134E+03  0.50400001928E-02 0. -1.
</event>
<event>
 5   0  0.1211345E-01  0.4934991E+03  0.7818609E-02  0.1015490E+00
        2   -1    0    0  501    0  0.00000000000E+00  0.00000000000E+00  0.15579842574E+03  0.15579842577E+03  0.25500000920E-02 0.  1.
       -2   -1    0    0    0  501  0.00000000000E+00  0.00000000000E+00 -0.39079557927E+03  0.39079557928E+03  0.25500000920E-02 0. -1.
    10030    2    1    2    0    0  0.00000000000E+00  0.00000000000E+00 -0.23499715353E+03  0.54659400504E+03  0.49349908225E+03 0.  0.
        5    1    3    3  502    0  0.16767991480E+03  0.16194192461E+03 -0.20694282939E+03  0.31175176890E+03  0.46999998093E+01 0. -1.
       -5    1    3    3    0  502 -0.16767991480E+03 -0.16194192461E+03 -0.28054324134E+02  0.23484223614E+03  0.46999998093E+01 0.  1.
</event>
<event>
 5   0  0.1191894E-01  0.5027580E+03  0.7818609E-02  0.1013062E+00
       -2   -1    0    0    0  501  0.00000000000E+00  0.00000000000E+00  0.14704217006E+03  0.14704217008E+03  0.25500000920E-02 0.  1.
        2   -1    0    0  501    0  0.00000000000E+00  0.00000000000E+00 -0.42975014831E+03  0.42975014832E+03  0.25500000920E-02 0. -1.
    10030    2    1    2    0    0  0.00000000000E+00  0.00000000000E+00 -0.28270797825E+03  0.57679231840E+03  0.50275797119E+03 0.  0.
        3    1    3    3  502    0 -0.12552828741E+03 -0.21094310156E+03 -0.20352894981E+03  0.31887048570E+03  0.10100000352E+00 0. -1.
       -3    1    3    3    0  502  0.12552828741E+03  0.21094310156E+03 -0.79179028444E+02  0.25792183270E+03  0.10100000352E+00 0.  1.
</event>
<event>
 5   0  0.1231822E-01  0.5070855E+03  0.7818609E-02  0.1011946E+00
        2   -1    0    0  501    0  0.00000000000E+00  0.00000000000E+00  0.61572486136E+03  0.61572486137E+03  0.25500000920E-02 0.  1.
       -2   -1    0    0    0  501  0.00000000000E+00  0.00000000000E+00 -0.10440367107E+03  0.10440367110E+03  0.25500000920E-02 0. -1.
    10030    2    1    2    0    0  0.00000000000E+00  0.00000000000E+00  0.51132119029E+03  0.72012853247E+03  0.50708553878E+03 0.  0.
        1    1    3    3  502    0  0.17596977077E+03 -0.17903268441E+03  0.20513354317E+03  0.32418795917E+03  0.50400001928E-02 0. -1.
       -1    1    3    3    0  502 -0.17596977077E+03  0.17903268441E+03  0.30618764712E+03  0.39594057330E+03  0.50400001928E-02 0.  1.
</event>
<event>
 5   0  0.7781754E-02  0.5343343E+03  0.7818609E-02  0.1005186E+00
        1   -1    0    0  501    0  0.00000000000E+00  0.00000000000E+00  0.42868261199E+03  0.42868261202E+03  0.50400001928E-02 0.  1.
       -1   -1    0    0    0  501  0.00000000000E+00  0.00000000000E+00 -0.16650614257E+03  0.16650614264E+03  0.50400001928E-02 0. -1.
    10030    2    1    2    0    0  0.00000000000E+00  0.00000000000E+00  0.26217646942E+03  0.59518875466E+03  0.53433430786E+03 0.  0.
        2    1    3    3  502    0 -0.17206931119E+03  0.80827181490E+02  0.34018322558E+03  0.38969925339E+03  0.25500000920E-02 0.  1.
       -2    1    3    3    0  502  0.17206931119E+03 -0.80827181490E+02 -0.78006756160E+02  0.20548950127E+03  0.25500000920E-02 0. -1.
</event>
<event>
 5   0  0.7416638E-02  0.4995530E+03  0.7818609E-02  0.1013896E+00
        1   -1    0    0  501    0  0.00000000000E+00  0.00000000000E+00  0.84025748214E+03  0.84025748215E+03  0.50400001928E-02 0.  1.
       -1   -1    0    0    0  501  0.00000000000E+00  0.00000000000E+00 -0.74249019571E+02  0.74249019742E+02  0.50400001928E-02 0. -1.
    10030    2    1    2    0    0  0.00000000000E+00  0.00000000000E+00  0.76600846257E+03  0.91450650189E+03  0.49955297745E+03 0.  0.
        1    1    3    3  502    0  0.30213133685E+02 -0.21332679752E+03  0.61432721709E+03  0.65101389053E+03  0.50400001928E-02 0.  1.
       -1    1    3    3    0  502 -0.30213133685E+02  0.21332679752E+03  0.15168124548E+03  0.26349261136E+03  0.50400001928E-02 0. -1.
</event>
<event>
 5   0  0.1211345E-01  0.4978573E+03  0.7818609E-02  0.1014340E+00
       -2   -1    0    0    0  501  0.00000000000E+00  0.00000000000E+00  0.46904620416E+02  0.46904620485E+02  0.25500000920E-02 0. -1.
        2   -1    0    0  501    0  0.00000000000E+00  0.00000000000E+00 -0.13210952908E+04  0.13210952908E+04  0.25500000920E-02 0.  1.
    10030    2    1    2    0    0  0.00000000000E+00  0.00000000000E+00 -0.12741906703E+04  0.13679999113E+04  0.49785730163E+03 0.  0.
        5    1    3    3  502    0  0.18801429109E+03 -0.68956295855E+02 -0.23102810016E+03  0.30577837963E+03  0.46999998093E+01 0. -1.
       -5    1    3    3    0  502 -0.18801429109E+03  0.68956295855E+02 -0.10431625702E+04  0.10622215316E+04  0.46999998093E+01 0.  1.
</event>
<event>
 5   0  0.7531632E-02  0.5020024E+03  0.7818609E-02  0.1013258E+00
       -1   -1    0    0    0  501  0.00000000000E+00  0.00000000000E+00  0.35335921167E+03  0.35335921171E+03  0.50400001928E-02 0. -1.
        1   -1    0    0  501    0  0.00000000000E+00  0.00000000000E+00 -0.17829335204E+03  0.17829335212E+03  0.50400001928E-02 0.  1.
    10030    2    1    2    0    0  0.00000000000E+00  0.00000000000E+00  0.17506585963E+03  0.53165256382E+03  0.50200238387E+03 0.  0.
        3    1    3    3  502    0 -0.16916891925E+03  0.84669563283E+02  0.26224485606E+03  0.32335651055E+03  0.10100000352E+00 0. -1.
       -3    1    3    3    0  502  0.16916891925E+03 -0.84669563283E+02 -0.87178996432E+02  0.20829605327E+03  0.10100000352E+00 0.  1.
</event>
<event>
 5   0  0.7812547E-02  0.4992205E+03  0.7818609E-02  0.1013983E+00
       -1   -1    0    0    0  501  0.00000000000E+00  0.00000000000E+00  0.23512173150E+03  0.23512173155E+03  0.50400001928E-02 0.  1.
        1   -1    0    0  501    0  0.00000000000E+00  0.00000000000E+00 -0.26499155248E+03  0.26499155253E+03  0.50400001928E-02 0. -1.
    10030    2    1    2    0    0  0.00000000000E+00  0.00000000000E+00 -0.29869820979E+02  0.50011328408E+03  0.49922048306E+03 0.  0.
        4    1    3    3  502    0 -0.81316252861E+02  0.22083005901E+03  0.68432976986E+02  0.24507740243E+03  0.12699999809E+01 0.  1.
       -4    1    3    3    0  502  0.81316252861E+02 -0.22083005901E+03 -0.98302797965E+02  0.25503588165E+03  0.12699999809E+01 0. -1.
</event>
<event>
 5   0  0.1211345E-01  0.4971464E+03  0.7818609E-02  0.1014526E+00
       -2   -1    0    0    0  501  0.00000000000E+00  0.00000000000E+00  0.13546576335E+03  0.13546576338E+03  0.25500000920E-02 0. -1.
        2   -1    0    0  501    0  0.00000000000E+00  0.00000000000E+00 -0.45611991310E+03  0.45611991311E+03  0.25500000920E-02 0.  1.
    10030    2    1    2    0    0  0.00000000000E+00  0.00000000000E+00 -0.32065414975E+03  0.59158567648E+03  0.49714638575E+03 0.  0.
        5    1    3    3  502    0  0.18911258695E+03 -0.16028181483E+03 -0.13928418911E+03  0.28438707081E+03  0.46999998093E+01 0.  1.
       -5    1    3    3    0  502 -0.18911258695E+03  0.16028181483E+03 -0.18136996064E+03  0.30719860567E+03  0.46999998093E+01 0. -1.
</event>
<event>
 5   0  0.7602288E-02  0.5061944E+03  0.7818609E-02  0.1012175E+00
        1   -1    0    0  501    0  0.00000000000E+00  0.00000000000E+00  0.88183867558E+02  0.88183867702E+02  0.50400001928E-02 0.  1.
       -1   -1    0    0    0  501  0.00000000000E+00  0.00000000000E+00 -0.72641617658E+03  0.72641617660E+03  0.50400001928E-02 0. -1.
    10030    2    1    2    0    0  0.00000000000E+00  0.00000000000E+00 -0.63823230902E+03  0.81460004430E+03  0.50619438153E+03 0.  0.
        5    1    3    3  502    0  0.14018067087E+03  0.18016279748E+03 -0.14336836294E+03  0.26960310008E+03  0.46999998093E+01 0.  1.
       -5    1    3    3    0  502 -0.14018067087E+03 -0.18016279748E+03 -0.49486394608E+03  0.54499694422E+03  0.46999998093E+01 0. -1.
</event>
<event>
 5   0  0.1211345E-01  0.4894789E+03  0.7818609E-02  0.1016562E+00
        2   -1    0    0  501    0  0.00000000000E+00  0.00000000000E+00  0.37110563430E+03  0.37110563431E+03  0.25500000920E-02 0.  1.
       -2   -1    0    0    0  501  0.00000000000E+00  0.00000000000E+00 -0.16140253153E+03  0.16140253155E+03  0.25500000920E-02 0. -1.
    10030    2    1    2    0    0  0.00000000000E+00  0.00000000000E+00  0.20970310277E+03  0.53250816587E+03  0.48947886104E+03 0.  0.
        5    1    3    3  502    0  0.14662963386E+03 -0.15122501693E+03  0.24032145795E+03  0.31960248500E+03  0.46999998093E+01 0.  1.
       -5    1    3    3    0  502 -0.14662963386E+03  0.15122501693E+03 -0.30618355179E+02  0.21290568086E+03  0.46999998093E+01 0. -1.
</event>
<event>
 5   0  0.1243803E-01  0.4925296E+03  0.7818609E-02  0.1015747E+00
        2   -1    0    0  501    0  0.00000000000E+00  0.00000000000E+00  0.65372830367E+03  0.65372830367E+03  0.25500000920E-02 0. -1.
       -2   -1    0    0    0  501  0.00000000000E+00  0.00000000000E+00 -0.92769947353E+02  0.92769947388E+02  0.25500000920E-02 0.  1.
    10030    2    1    2    0    0  0.00000000000E+00  0.00000000000E+00  0.56095835632E+03  0.74649825106E+03  0.49252955375E+03 0.  0.
        4    1    3    3  502    0  0.80895155132E+02  0.15981531945E+03  0.24341296081E+02  0.18077354355E+03  0.12699999809E+01 0.  1.
       -4    1    3    3    0  502 -0.80895155132E+02 -0.15981531945E+03  0.53661706024E+03  0.56572470751E+03  0.12699999809E+01 0. -1.
</event>
<event>
 5   0  0.1231822E-01  0.4947585E+03  0.7818609E-02  0.1015156E+00
        2   -1    0    0  501    0  0.00000000000E+00  0.00000000000E+00  0.36557962123E+03  0.36557962124E+03  0.25500000920E-02 0. -1.
       -2   -1    0    0    0  501  0.00000000000E+00  0.00000000000E+00 -0.16739583013E+03  0.16739583015E+03  0.25500000920E-02 0.  1.
    10030    2    1    2    0    0  0.00000000000E+00  0.00000000000E+00  0.19818379110E+03  0.53297545139E+03  0.49475854387E+03 0.  0.
        1    1    3    3  502    0 -0.12861306576E+03  0.71565675546E+02 -0.11509689687E+03  0.18684288130E+03  0.50400001928E-02 0.  1.
       -1    1    3    3    0  502  0.12861306576E+03 -0.71565675546E+02  0.31328068796E+03  0.34613257009E+03  0.50400001928E-02 0. -1.
</event>
<event>
 5   0  0.1231822E-01  0.4969736E+03  0.7818609E-02  0.1014572E+00
       -2   -1    0    0    0  501  0.00000000000E+00  0.00000000000E+00  0.92785917974E+02  0.92785918009E+02  0.25500000920E-02 0. -1.
        2   -1    0    0  501    0  0.00000000000E+00  0.00000000000E+00 -0.66546390655E+03  0.66546390656E+03  0.25500000920E-02 0.  1.
    10030    2    1    2    0    0  0.00000000000E+00  0.00000000000E+00 -0.57267798858E+03  0.75824982456E+03  0.49697355850E+03 0.  0.
        1    1    3    3  502    0 -0.90918784530E+01 -0.24791004586E+03 -0.26456710997E+03  0.36268141501E+03  0.50400001928E-02 0. -1.
       -1    1    3    3    0  502  0.90918784530E+01  0.24791004586E+03 -0.30811087861E+03  0.39556840955E+03  0.50400001928E-02 0.  1.
</event>
<event>
 5   0  0.5006750E-02  0.5061746E+03  0.7818609E-02  0.1012180E+00
       -3   -1    0    0    0  501  0.00000000000E+00  0.00000000000E+00  0.99367932074E+02  0.99367983403E+02  0.10100000352E+00 0.  1.
        3   -1    0    0  501    0  0.00000000000E+00  0.00000000000E+00 -0.64460586884E+03  0.64460587675E+03  0.10100000352E+00 0. -1.
    10030    2    1    2    0    0  0.00000000000E+00  0.00000000000E+00 -0.54523793676E+03  0.74397386015E+03  0.50617457157E+03 0.  0.
        3    1    3    3  502    0 -0.83742563759E+02  0.71509938008E+02  0.62309924094E+02  0.12652677606E+03  0.10100000352E+00 0.  1.
       -3    1    3    3    0  502  0.83742563759E+02 -0.71509938008E+02 -0.60754786086E+03  0.61744708409E+03  0.10100000352E+00 0. -1.
</event>
<event>
 5   0  0.7781754E-02  0.4900136E+03  0.7818609E-02  0.1016419E+00
        1   -1    0    0  501    0  0.00000000000E+00  0.00000000000E+00  0.10518498330E+04  0.10518498330E+04  0.50400001928E-02 0.  1.
       -1   -1    0    0    0  501  0.00000000000E+00  0.00000000000E+00 -0.57069298298E+02  0.57069298521E+02  0.50400001928E-02 0. -1.
    10030    2    1    2    0    0  0.00000000000E+00  0.00000000000E+00  0.99478053474E+03  0.11089191316E+04  0.49001359988E+03 0.  0.
        2    1    3    3  502    0  0.21637867503E+03  0.35163144882E+02  0.24977472886E+03  0.33233054772E+03  0.25500000920E-02 0. -1.
       -2    1    3    3    0  502 -0.21637867503E+03 -0.35163144882E+02  0.74500580588E+03  0.77658858385E+03  0.25500000920E-02 0.  1.
</event>
<event>
 5   0  0.1231822E-01  0.4935026E+03  0.7818609E-02  0.1015489E+00
       -2   -1    0    0    0  501  0.00000000000E+00  0.00000000000E+00  0.50782327299E+02  0.50782327363E+02  0.25500000920E-02 0. -1.
        2   -1    0    0  501    0  0.00000000000E+00  0.00000000000E+00 -0.11989645513E+04  0.11989645513E+04  0.25500000920E-02 0.  1.
    10030    2    1    2    0    0  0.00000000000E+00  0.00000000000E+00 -0.11481822240E+04  0.12497468786E+04  0.49350262534E+03 0.  0.
        1    1    3    3  502    0 -0.15636546944E+03  0.17845769298E+03 -0.40254258719E+03  0.46726635097E+03  0.50400001928E-02 0. -1.
       -1    1    3    3    0  502  0.15636546944E+03 -0.17845769298E+03 -0.74563963677E+03  0.78248052766E+03  0.50400001928E-02 0.  1.
</event>
<event>
 5   0  0.7602288E-02  0.5187653E+03  0.7818609E-02  0.1008994E+00
       -1   -1    0    0    0  501  0.00000000000E+00  0.00000000000E+00  0.17552832653E+03  0.17552832660E+03  0.50400001928E-02 0. -1.
        1   -1    0    0  501    0  0.00000000000E+00  0.00000000000E+00 -0.38329631244E+03  0.38329631247E+03  0.50400001928E-02 0.  1.
    10030    2    1    2    0    0  0.00000000000E+00  0.00000000000E+00 -0.20776798591E+03  0.55882463908E+03  0.51876530461E+03 0.  0.
        5    1    3    3  502    0 -0.13514475647E+03 -0.17124001717E+03 -0.25496401608E+03  0.33558305705E+03  0.46999998093E+01 0.  1.
       -5    1    3    3    0  502  0.13514475647E+03  0.17124001717E+03  0.47196030177E+02  0.22324158203E+03  0.46999998093E+01 0. -1.
</event>
<event>
 5   0  0.7531632E-02  0.5048010E+03  0.7818609E-02  0.1012533E+00
        1   -1    0    0  501    0  0.00000000000E+00  0.00000000000E+00  0.42307906392E+03  0.42307906395E+03  0.50400001928E-02 0.  1.
       -1   -1    0    0    0  501  0.00000000000E+00  0.00000000000E+00 -0.15057708570E+03  0.15057708579E+03  0.50400001928E-02 0. -1.
    10030    2    1    2    0    0  0.00000000000E+00  0.00000000000E+00  0.27250197822E+03  0.57365614974E+03  0.50480100040E+03 0.  0.
        3    1    3    3  502    0 -0.14549406612E+03 -0.20603247324E+03  0.14691736592E+03  0.29189488847E+03  0.10100000352E+00 0.  1.
       -3    1    3    3    0  502  0.14549406612E+03  0.20603247324E+03  0.12558461229E+03  0.28176126127E+03  0.10100000352E+00 0. -1.
</event>
<event>
 5   0  0.1243803E-01  0.5011284E+03  0.7818609E-02  0.1013485E+00
       -2   -1    0    0    0  501  0.00000000000E+00  0.00000000000E+00  0.17414560149E+03  0.17414560151E+03  0.25500000920E-02 0.  1.
        2   -1    0    0  501    0  0.00000000000E+00  0.00000000000E+00 -0.36051680197E+03  0.36051680198E+03  0.25500000920E-02 0. -1.
    10030    2    1    2    0    0  0.00000000000E+00  0.00000000000E+00 -0.18637120048E+03  0.53466240349E+03  0.50112838808E+03 0.  0.
        4    1    3    3  502    0 -0.22030948458E+03  0.27671199014E+02 -0.21705295713E+03  0.31050855600E+03  0.12699999809E+01 0. -1.
       -4    1    3    3    0  502  0.22030948458E+03 -0.27671199014E+02  0.30681756654E+02  0.22415384749E+03  0.12699999809E+01 0.  1.
</event>
<event>
 5   0  0.7812547E-02  0.4993905E+03  0.7818609E-02  0.1013938E+00
        1   -1    0    0  501    0  0.00000000000E+00  0.00000000000E+00  0.13363680042E+04  0.13363680042E+04  0.50400001928E-02 0. -1.
       -1   -1    0    0    0  501  0.00000000000E+00  0.00000000000E+00 -0.46654606422E+02  0.46654606694E+02  0.50400001928E-02 0.  1.
    10030    2    1    2    0    0  0.00000000000E+00  0.00000000000E+00  0.12897133978E+04  0.13830226109E+04  0.49939052240E+03 0.  0.
        4    1    3    3  502    0 -0.50656836861E+02  0.16071877415E+03  0.11551331081E+04  0.11673605912E+04  0.12699999809E+01 0. -1.
       -4    1    3    3    0  502  0.50656836861E+02 -0.16071877415E+03  0.13458028968E+03  0.21566201973E+03  0.12699999809E+01 0.  1.
</event>
<event>
 5   0  0.1191894E-01  0.4990277E+03  0.7818609E-02  0.1014033E+00
        2   -1    0    0  501    0  0.00000000000E+00  0.00000000000E+00  0.72662373718E+03  0.72662373719E+03  0.25500000920E-02 0. -1.
       -2   -1    0    0    0  501  0.00000000000E+00  0.00000000000E+00 -0.85680053138E+02  0.85680053176E+02  0.25500000920E-02 0.  1.
    10030    2    1    2    0    0  0.00000000000E+00  0.00000000000E+00  0.64094368404E+03  0.81230379036E+03  0.49902769635E+03 0.  0.
        3    1    3    3  502    0  0.12699219413E+03  0.16671633430E+03  0.10005553446E+03  0.23223366180E+03  0.10100000352E+00 0.  1.
       -3    1    3    3    0  502 -0.12699219413E+03 -0.16671633430E+03  0.54088814958E+03  0.58007012857E+03  0.10100000352E+00 0. -1.
</event>
<event>
 5   0  0.1191894E-01  0.5102440E+03  0.7818609E-02  0.1011139E+00
        2   -1    0    0  501    0  0.00000000000E+00  0.00000000000E+00  0.22115506849E+03  0.22115506850E+03  0.25500000920E-02 0. -1.
       -2   -1    0    0    0  501  0.00000000000E+00  0.00000000000E+00 -0.29430585331E+03  0.29430585332E+03  0.25500000920E-02 0.  1.
    10030    2    1    2    0    0  0.00000000000E+00  0.00000000000E+00 -0.73150784820E+02  0.51546092182E+03  0.51024398536E+03 0.  0.
        3    1    3    3  502    0 -0.33290389031E+02  0.19869194668E+03  0.12155129017E+03  0.23529017409E+03  0.10100000352E+00 0. -1.
       -3    1    3    3    0  502  0.33290389031E+02 -0.19869194668E+03 -0.19470207499E+03  0.28017074773E+03  0.10100000352E+00 0.  1.
</event>
<event>
 5   0  0.1191894E-01  0.5185025E+03  0.7818609E-02  0.1009059E+00
        2   -1    0    0  501    0  0.00000000000E+00  0.00000000000E+00  0.19556133914E+04  0.19556133914E+04  0.25500000920E-02 0. -1.
       -2   -1    0    0    0  501  0.00000000000E+00  0.00000000000E+00 -0.34368351395E+02  0.34368351489E+02  0.25500000920E-02 0.  1.
    10030    2    1    2    0    0  0.00000000000E+00  0.00000000000E+00  0.19212450400E+04  0.19899817429E+04  0.51850249112E+03 0.  0.
        3    1    3    3  502    0  0.47107454216E+01  0.42525759045E+02 -0.20724448913E+02  0.47540974838E+02  0.10100000352E+00 0.  1.
       -3    1    3    3    0  502 -0.47107454216E+01 -0.42525759045E+02  0.19419694889E+04  0.19424407681E+04  0.10100000352E+00 0. -1.
</event>
<event>
 5   0  0.7781754E-02  0.4993295E+03  0.7818609E-02  0.1013954E+00
        1   -1    0    0  501    0  0.00000000000E+00  0.00000000000E+00  0.98138941567E+03  0.98138941569E+03  0.50400001928E-02 0. -1.
       -1   -1    0    0    0  501  0.00000000000E+00  0.00000000000E+00 -0.63514520233E+02  0.63514520433E+02  0.50400001928E-02 0.  1.
    10030    2    1    2    0    0  0.00000000000E+00  0.00000000000E+00  0.91787489544E+03  0.10449039361E+04  0.49932946242E+03 0.  0.
        2    1    3    3  502    0  0.12682283347E+03  0.13879716568E+03  0.80268584130E+03  0.82441084668E+03  0.25500000920E-02 0.  1.
       -2    1    3    3    0  502 -0.12682283347E+03 -0.13879716568E+03  0.11518905414E+03  0.22049308944E+03  0.25500000920E-02 0. -1.
</event>
<event>
 5   0  0.1211345E-01  0.4971855E+03  0.7818609E-02  0.1014516E+00
        2   -1    0    0  501    0  0.00000000000E+00  0.00000000000E+00  0.47705991142E+03  0.47705991143E+03  0.25500000920E-02 0.  1.
       -2   -1    0    0    0  501  0.00000000000E+00  0.00000000000E+00 -0.12954000417E+03  0.12954000420E+03  0.25500000920E-02 0. -1.
    10030    2    1    2    0    0  0.00000000000E+00  0.00000000000E+00  0.34751990725E+03  0.60659991563E+03  0.49718545001E+03 0.  0.
        5    1    3    3  502    0  0.12421447300E+03  0.90204064044E+02 -0.64732061414E+02  0.16666834806E+03  0.46999998093E+01 0. -1.
       -5    1    3    3    0  502 -0.12421447300E+03 -0.90204064044E+02  0.41225196866E+03  0.43993156756E+03  0.46999998093E+01 0.  1.
</event>
<event>
 5   0  0.1211345E-01  0.5088932E+03  0.7818609E-02  0.1011483E+00
       -2   -1    0    0    0  501  0.00000000000E+00  0.00000000000E+00  0.30006689034E+03  0.30006689035E+03  0.25500000920E-02 0. -1.
        2   -1    0    0  501    0  0.00000000000E+00  0.00000000000E+00 -0.21576215840E+03  0.21576215842E+03  0.25500000920E-02 0.  1.
    10030    2    1    2    0    0  0.00000000000E+00  0.00000000000E+00  0.84304731939E+02  0.51582904877E+03  0.50889323018E+03 0.  0.
        5    1    3    3  502    0 -0.19761438172E+03  0.13981598808E+03 -0.37150991240E+02  0.24495354771E+03  0.46999998093E+01 0.  1.
       -5    1    3    3    0  502  0.19761438172E+03 -0.13981598808E+03  0.12145572318E+03  0.27087550106E+03  0.46999998093E+01 0. -1.
</event>
<event>
 5   0  0.1243803E-01  0.5711731E+03  0.7818609E-02  0.9967086E-01
        2   -1    0    0  501    0  0.00000000000E+00  0.00000000000E+00  0.17581521802E+04  0.17581521802E+04  0.25500000920E-02 0. -1.
       -2   -1    0    0    0  501  0.00000000000E+00  0.00000000000E+00 -0.46389437377E+02  0.46389437447E+02  0.25500000920E-02 0.  1.
    10030    2    1    2    0    0  0.00000000000E+00  0.00000000000E+00  0.17117627429E+04  0.18045416177E+04  0.57117314548E+03 0.  0.
        4    1    3    3  502    0  0.24452146570E+03 -0.38941391493E+01  0.38991950315E+03  0.46026594850E+03  0.12699999809E+01 0.  1.
       -4    1    3    3    0  502 -0.24452146570E+03  0.38941391493E+01  0.13218432397E+04  0.13442756692E+04  0.12699999809E+01 0. -1.
</event>
<event>
 5   0  0.1243803E-01  0.4741241E+03  0.7818609E-02  0.1020763E+00
       -2   -1    0    0    0  501  0.00000000000E+00  0.00000000000E+00  0.76798537561E+02  0.76798537604E+02  0.25500000920E-02 0. -1.
        2   -1    0    0  501    0  0.00000000000E+00  0.00000000000E+00 -0.73176405066E+03  0.73176405067E+03  0.25500000920E-02 0.  1.
    10030    2    1    2    0    0  0.00000000000E+00  0.00000000000E+00 -0.65496551310E+03  0.80856258827E+03  0.47412407216E+03 0.  0.
        4    1    3    3  502    0  0.10464386573E+02  0.21765105972E+03 -0.16827543774E+03  0.27531749496E+03  0.12699999809E+01 0. -1.
       -4    1    3    3    0  502 -0.10464386573E+02 -0.21765105972E+03 -0.48669007536E+03  0.53324509331E+03  0.12699999809E+01 0.  1.
</event>
<event>
 5   0  0.7781754E-02  0.4990245E+03  0.7818609E-02  0.1014034E+00
       -1   -1    0    0    0  501  0.00000000000E+00  0.00000000000E+00  0.39250689967E+03  0.39250689970E+03  0.50400001928E-02 0.  1.
        1   -1    0    0  501    0  0.00000000000E+00  0.00000000000E+00 -0.15861214222E+03  0.15861214230E+03  0.50400001928E-02 0. -1.
    10030    2    1    2    0    0  0.00000000000E+00  0.00000000000E+00  0.23389475745E+03  0.55111904199E+03  0.49902448926E+03 0.  0.
        2    1    3    3  502    0  0.66431171275E+02  0.18910696647E+03 -0.47164849008E+02  0.20591034037E+03  0.25500000920E-02 0. -1.
       -2    1    3    3    0  502 -0.66431171275E+02 -0.18910696647E+03  0.28105960646E+03  0.34520870162E+03  0.25500000920E-02 0.  1.
</event>
<event>
 5   0  0.1191894E-01  0.4949687E+03  0.7818609E-02  0.1015101E+00
        2   -1    0    0  501    0  0.00000000000E+00  0.00000000000E+00  0.24584059287E+03  0.24584059289E+03  0.25500000920E-02 0.  1.
       -2   -1    0    0    0  501  0.00000000000E+00  0.00000000000E+00 -0.24913907092E+03  0.24913907094E+03  0.25500000920E-02 0. -1.
    10030    2    1    2    0    0  0.00000000000E+00  0.00000000000E+00 -0.32984780507E+01  0.49497966382E+03  0.49496867339E+03 0.  0.
        3    1    3    3  502    0 -0.74637100470E+02 -0.13657875689E+03 -0.19406981306E+03  0.24877209679E+03  0.10100000352E+00 0. -1.
       -3    1    3    3    0  502  0.74637100470E+02  0.13657875689E+03  0.19077133501E+03  0.24620756703E+03  0.10100000352E+00 0.  1.
</event>
<event>
 5   0  0.7812547E-02  0.4991163E+03  0.7818609E-02  0.1014010E+00
        1   -1    0    0  501    0  0.00000000000E+00  0.00000000000E+00  0.53577709963E+03  0.53577709965E+03  0.50400001928E-02 0. -1.
       -1   -1    0    0    0  501  0.00000000000E+00  0.00000000000E+00 -0.11624100108E+03  0.11624100119E+03  0.50400001928E-02 0.  1.
    10030    2    1    2    0    0  0.00000000000E+00  0.00000000000E+00  0.41953609855E+03  0.65201810084E+03  0.49911628488E+03 0.  0.
        4    1    3    3  502    0 -0.10257705991E+03 -0.77444916454E+02  0.48920953708E+03  0.50581355495E+03  0.12699999809E+01 0. -1.
       -4    1    3    3    0  502  0.10257705991E+03  0.77444916454E+02 -0.69673438525E+02  0.14620454589E+03  0.12699999809E+01 0.  1.
</event>
<event>
 5   0  0.1231822E-01  0.4968161E+03  0.7818609E-02  0.1014613E+00
       -2   -1    0    0    0  501  0.00000000000E+00  0.00000000000E+00  0.51335323483E+02  0.51335323547E+02  0.25500000920E-02 0. -1.
        2   -1    0    0  501    0  0.00000000000E+00  0.00000000000E+00 -0.12020292128E+04  0.12020292128E+04  0.25500000920E-02 0.  1.
    10030    2    1    2    0    0  0.00000000000E+00  0.00000000000E+00 -0.11506938893E+04  0.12533645363E+04  0.49681609683E+03 0.  0.
        1    1    3    3  502    0  0.12623253200E+03  0.38344588629E+02 -0.44350706890E+02  0.13918313418E+03  0.50400001928E-02 0. -1.
       -1    1    3    3    0  502 -0.12623253200E+03 -0.38344588629E+02 -0.11063431824E+04  0.11141814022E+04  0.50400001928E-02 0.  1.
</event>
<event>
 5   0  0.1279188E-01  0.5030257E+03  0.7818609E-02  0.1012992E+00
        2   -1    0    0  501    0  0.00000000000E+00  0.00000000000E+00  0.12945571233E+03  0.12945571236E+03  0.25500000920E-02 0. -1.
       -2   -1    0    0    0  501  0.00000000000E+00  0.00000000000E+00 -0.48865133442E+03  0.48865133443E+03  0.25500000920E-02 0.  1.
    10030    2    1    2    0    0  0.00000000000E+00  0.00000000000E+00 -0.35919562209E+03  0.61810704679E+03  0.50302567167E+03 0.  0.
        2    1    3    3  502    0 -0.91808701911E+02  0.97763413332E+02  0.81852563012E+02  0.15711895115E+03  0.25500000920E-02 0. -1.
       -2    1    3    3    0  502  0.91808701911E+02 -0.97763413332E+02 -0.44104818510E+03  0.46098809564E+03  0.25500000920E-02 0.  1.
</event>
<event>
 5   0  0.7812547E-02  0.5037817E+03  0.7818609E-02  0.1012797E+00
       -1   -1    0    0    0  501  0.00000000000E+00  0.00000000000E+00  0.11426224626E+03  0.11426224637E+03  0.50400001928E-02 0.  1.
        1   -1    0    0  501    0  0.00000000000E+00  0.00000000000E+00 -0.55529274911E+03  0.55529274914E+03  0.50400001928E-02 0. -1.
    10030    2    1    2    0    0  0.00000000000E+00  0.00000000000E+00 -0.44103050286E+03  0.66955499550E+03  0.50378168640E+03 0.  0.
        4    1    3    3  502    0  0.66096347257E+02  0.99685053802E+02  0.74108863224E+02  0.14071095757E+03  0.12699999809E+01 0.  1.
       -4    1    3    3    0  502 -0.66096347257E+02 -0.99685053802E+02 -0.51513936608E+03  0.52884403793E+03  0.12699999809E+01 0. -1.
</event>
<event>
 5   0  0.7781754E-02  0.5082500E+03  0.7818609E-02  0.1011648E+00
       -1   -1    0    0    0  501  0.00000000000E+00  0.00000000000E+00  0.18188232489E+03  0.18188232496E+03  0.50400001928E-02 0. -1.
        1   -1    0    0  501    0  0.00000000000E+00  0.00000000000E+00 -0.35506204598E+03  0.35506204601E+03  0.50400001928E-02 0.  1.
    10030    2    1    2    0    0  0.00000000000E+00  0.00000000000E+00 -0.17317972109E+03  0.53694437097E+03  0.50824997956E+03 0.  0.
        2    1    3    3  502    0  0.14278548635E+02  0.25297296978E+03 -0.65987318132E+02  0.26182728381E+03  0.25500000920E-02 0. -1.
       -2    1    3    3    0  502 -0.14278548635E+02 -0.25297296978E+03 -0.10719240296E+03  0.27511708716E+03  0.25500000920E-02 0.  1.
</event>
<event>
 5   0  0.1243803E-01  0.4980232E+03  0.7818609E-02  0.1014296E+00
       -2   -1    0    0    0  501  0.00000000000E+00  0.00000000000E+00  0.46533216207E+02  0.46533216277E+02  0.25500000920E-02 0.  1.
        2   -1    0    0  501    0  0.00000000000E+00  0.00000000000E+00 -0.13325272799E+04  0.13325272799E+04  0.25500000920E-02 0. -1.
    10030    2    1    2    0    0  0.00000000000E+00  0.00000000000E+00 -0.12859940637E+04  0.13790604962E+04  0.49802321258E+03 0.  0.
        4    1    3    3  502    0 -0.42480095293E+02  0.19887516437E+03 -0.10409082331E+04  0.10605882576E+04  0.12699999809E+01 0. -1.
       -4    1    3    3    0  502  0.42480095293E+02 -0.19887516437E+03 -0.24508583061E+03  0.31847223861E+03  0.12699999809E+01 0.  1.
</event>
<event>
 5   0  0.1243803E-01  0.5002975E+03  0.7818609E-02  0.1013701E+00
       -2   -1    0    0    0  501  0.00000000000E+00  0.00000000000E+00  0.61915389678E+02  0.61915389731E+02  0.25500000920E-02 0. -1.
        2   -1    0    0  501    0  0.00000000000E+00  0.00000000000E+00 -0.10106435930E+04  0.10106435930E+04  0.25500000920E-02 0.  1.
    10030    2    1    2    0    0  0.00000000000E+00  0.00000000000E+00 -0.94872820331E+03  0.10725589827E+04  0.50029747917E+03 0.  0.
        4    1    3    3  502    0  0.21422770243E+03 -0.10129501788E+03 -0.30260779869E+03  0.38435306927E+03  0.12699999809E+01 0. -1.
       -4    1    3    3    0  502 -0.21422770243E+03  0.10129501788E+03 -0.64612040462E+03  0.68820591345E+03  0.12699999809E+01 0.  1.
</event>
<event>
 5   0  0.7812547E-02  0.4945072E+03  0.7818609E-02  0.1015223E+00
        1   -1    0    0  501    0  0.00000000000E+00  0.00000000000E+00  0.78284302302E+03  0.78284302303E+03  0.50400001928E-02 0. -1.
       -1   -1    0    0    0  501  0.00000000000E+00  0.00000000000E+00 -0.78092711718E+02  0.78092711880E+02  0.50400001928E-02 0.  1.
    10030    2    1    2    0    0  0.00000000000E+00  0.00000000000E+00  0.70475031130E+03  0.86093573491E+03  0.49450716716E+03 0.  0.
        4    1    3    3  502    0 -0.22765137803E+03  0.90563814673E+02  0.41026868222E+03  0.47785872280E+03  0.12699999809E+01 0. -1.
       -4    1    3    3    0  502  0.22765137803E+03 -0.90563814673E+02  0.29448162908E+03  0.38307701211E+03  0.12699999809E+01 0.  1.
</event>
<event>
 5   0  0.7781754E-02  0.5118360E+03  0.7818609E-02  0.1010735E+00
       -1   -1    0    0    0  501  0.00000000000E+00  0.00000000000E+00  0.19258144092E+03  0.19258144098E+03  0.50400001928E-02 0. -1.
        1   -1    0    0  501    0  0.00000000000E+00  0.00000000000E+00 -0.34008484751E+03  0.34008484754E+03  0.50400001928E-02 0.  1.
    10030    2    1    2    0    0  0.00000000000E+00  0.00000000000E+00 -0.14750340659E+03  0.53266628853E+03  0.51183602841E+03 0.  0.
        2    1    3    3  502    0  0.10994968969E+03  0.12683459802E+03 -0.27479241245E+03  0.32200437802E+03  0.25500000920E-02 0.  1.
       -2    1    3    3    0  502 -0.10994968969E+03 -0.12683459802E+03  0.12728900586E+03  0.21066191050E+03  0.25500000920E-02 0. -1.
</event>
<event>
 5   0  0.1211345E-01  0.4937409E+03  0.7818609E-02  0.1015426E+00
       -2   -1    0    0    0  501  0.00000000000E+00  0.00000000000E+00  0.11193322440E+03  0.11193322443E+03  0.25500000920E-02 0.  1.
        2   -1    0    0  501    0  0.00000000000E+00  0.00000000000E+00 -0.54447656302E+03  0.54447656303E+03  0.25500000920E-02 0. -1.
    10030    2    1    2    0    0  0.00000000000E+00  0.00000000000E+00 -0.43254333862E+03  0.65640978745E+03  0.49374089286E+03 0.  0.
        5    1    3    3  502    0  0.62597235841E+02 -0.20034336908E+03 -0.43610177695E+02  0.21442904903E+03  0.46999998093E+01 0.  1.
       -5    1    3    3    0  502 -0.62597235841E+02  0.20034336908E+03 -0.38893316093E+03  0.44198073842E+03  0.46999998093E+01 0. -1.
</event>
<event>
 5   0  0.1211345E-01  0.5314221E+03  0.7818609E-02  0.1005888E+00
        2   -1    0    0  501    0  0.00000000000E+00  0.00000000000E+00  0.72389302847E+03  0.72389302847E+03  0.25500000920E-02 0.  1.
       -2   -1    0    0    0  501  0.00000000000E+00  0.00000000000E+00 -0.97531472494E+02  0.97531472528E+02  0.25500000920E-02 0. -1.
    10030    2    1    2    0    0  0.00000000000E+00  0.00000000000E+00  0.62636155598E+03  0.82142450100E+03  0.53142206582E+03 0.  0.
        5    1    3    3  502    0 -0.23633546631E+03 -0.53783989489E+02  0.14503839218E+03  0.28249848737E+03  0.46999998093E+01 0. -1.
       -5    1    3    3    0  502  0.23633546631E+03  0.53783989489E+02  0.48132316379E+03  0.53892601363E+03  0.46999998093E+01 0.  1.
</event>
<event>
 5   0  0.7531632E-02  0.4961572E+03  0.7818609E-02  0.1014787E+00
       -1   -1    0    0    0  501  0.00000000000E+00  0.00000000000E+00  0.22921029936E+03  0.22921029941E+03  0.50400001928E-02 0.  1.
        1   -1    0    0  501    0  0.00000000000E+00  0.00000000000E+00 -0.26850014810E+03  0.26850014815E+03  0.50400001928E-02 0. -1.
    10030    2    1    2    0    0  0.00000000000E+00  0.00000000000E+00 -0.39289848743E+02  0.49771044756E+03  0.49615723052E+03 0.  0.
        3    1    3    3  502    0 -0.16021368077E+03 -0.18201454638E+03  0.32914428314E+02  0.24470612659E+03  0.10100000352E+00 0.  1.
       -3    1    3    3    0  502  0.16021368077E+03  0.18201454638E+03 -0.72204277057E+02  0.25300432096E+03  0.10100000352E+00 0. -1.
</event>
<event>
 5   0  0.1279188E-01  0.4966566E+03  0.7818609E-02  0.1014655E+00
       -2   -1    0    0    0  501  0.00000000000E+00  0.00000000000E+00  0.75304795166E+02  0.75304795209E+02  0.25500000920E-02 0. -1.
        2   -1    0    0  501    0  0.00000000000E+00  0.00000000000E+00 -0.81889794424E+03  0.81889794424E+03  0.25500000920E-02 0.  1.
    10030    2    1    2    0    0  0.00000000000E+00  0.00000000000E+00 -0.74359314907E+03  0.89420273945E+03  0.49665658950E+03 0.  0.
        2    1    3    3  502    0  0.68279476492E+02 -0.22744897049E+01 -0.80164566242E+03  0.80455144540E+03  0.25500000920E-02 0.  1.
       -2    1    3    3    0  502 -0.68279476492E+02  0.22744897049E+01  0.58052513345E+02  0.89651294054E+02  0.25500000920E-02 0. -1.
</event>
<event>
 5   0  0.7812547E-02  0.5003046E+03  0.7818609E-02  0.1013699E+00
       -1   -1    0    0    0  501  0.00000000000E+00  0.00000000000E+00  0.28374820843E+03  0.28374820847E+03  0.50400001928E-02 0. -1.
        1   -1    0    0  501    0  0.00000000000E+00  0.00000000000E+00 -0.22053414442E+03  0.22053414447E+03  0.50400001928E-02 0.  1.
    10030    2    1    2    0    0  0.00000000000E+00  0.00000000000E+00  0.63214064009E+02  0.50428235295E+03  0.50030458083E+03 0.  0.
        4    1    3    3  502    0 -0.15734780559E+03 -0.13071405919E+03 -0.11351707254E+03  0.23394921639E+03  0.12699999809E+01 0.  1.
       -4    1    3    3    0  502  0.15734780559E+03  0.13071405919E+03  0.17673113655E+03  0.27033313655E+03  0.12699999809E+01 0. -1.
</event>
<event>
 5   0  0.1191894E-01  0.4514688E+03  0.7818609E-02  0.1027285E+00
       -2   -1    0    0    0  501  0.00000000000E+00  0.00000000000E+00  0.24745752351E+03  0.24745752353E+03  0.25500000920E-02 0.  1.
        2   -1    0    0  501    0  0.00000000000E+00  0.00000000000E+00 -0.20591827632E+03  0.20591827633E+03  0.25500000920E-02 0. -1.
    10030    2    1    2    0    0  0.00000000000E+00  0.00000000000E+00  0.41539247197E+02  0.45337579986E+03  0.45146883264E+03 0.  0.
        3    1    3    3  502    0  0.20657346649E+03 -0.42760521723E+02  0.10145173325E+03  0.23408016502E+03  0.10100000352E+00 0.  1.
       -3    1    3    3    0  502 -0.20657346649E+03  0.42760521723E+02 -0.59912486050E+02  0.21929563484E+03  0.10100000352E+00 0. -1.
</event>
<event>
 5   0  0.5006750E-02  0.5004976E+03  0.7818609E-02  0.1013649E+00
        4   -1    0    0  501    0  0.00000000000E+00  0.00000000000E+00  0.80023324647E+03  0.80023425424E+03  0.12699999809E+01 0.  1.
       -4   -1    0    0    0  501  0.00000000000E+00  0.00000000000E+00 -0.78251543967E+02  0.78261849155E+02  0.12699999809E+01 0. -1.
    10030    2    1    2    0    0  0.00000000000E+00  0.00000000000E+00  0.72198170250E+03  0.87849610339E+03  0.50049757734E+03 0.  0.
        2    1    3    3  502    0  0.14348002132E+03  0.15104433690E+03  0.60435389757E+03  0.63925311243E+03  0.25500000920E-02 0.  1.
       -2    1    3    3    0  502 -0.14348002132E+03 -0.15104433690E+03  0.11762780493E+03  0.23924299097E+03  0.25500000920E-02 0. -1.
</event>
<event>
 5   0  0.1279188E-01  0.4984439E+03  0.7818609E-02  0.1014186E+00
        2   -1    0    0  501    0  0.00000000000E+00  0.00000000000E+00  0.53968998328E+03  0.53968998329E+03  0.25500000920E-02 0. -1.
       -2   -1    0    0    0  501  0.00000000000E+00  0.00000000000E+00 -0.11508750760E+03  0.11508750763E+03  0.25500000920E-02 0.  1.
    10030    2    1    2    0    0  0.00000000000E+00  0.00000000000E+00  0.42460247568E+03  0.65477749092E+03  0.49844387875E+03 0.  0.
        2    1    3    3  502    0 -0.60303650365E+02 -0.13722510404E+03 -0.49256719510E+02  0.15777668982E+03  0.25500000920E-02 0.  1.
       -2    1    3    3    0  502  0.60303650365E+02  0.13722510404E+03  0.47385919519E+03  0.49700080111E+03  0.25500000920E-02 0. -1.
</event>
<event>
 5   0  0.7416638E-02  0.5085114E+03  0.7818609E-02  0.1011581E+00
       -1   -1    0    0    0  501  0.00000000000E+00  0.00000000000E+00  0.57903022483E+02  0.57903022703E+02  0.50400001928E-02 0. -1.
        1   -1    0    0  501    0  0.00000000000E+00  0.00000000000E+00 -0.11164520804E+04  0.11164520805E+04  0.50400001928E-02 0.  1.
    10030    2    1    2    0    0  0.00000000000E+00  0.00000000000E+00 -0.10585490580E+04  0.11743551032E+04  0.50851135700E+03 0.  0.
        1    1    3    3  502    0  0.20352173783E+03 -0.93770398319E+02 -0.25183936165E+03  0.33710094848E+03  0.50400001928E-02 0. -1.
       -1    1    3    3    0  502 -0.20352173783E+03  0.93770398319E+02 -0.80670969631E+03  0.83725415467E+03  0.50400001928E-02 0.  1.
</event>
<event>
 5   0  0.1279188E-01  0.5009946E+03  0.7818609E-02  0.1013520E+00
        2   -1    0    0  501    0  0.00000000000E+00  0.00000000000E+00  0.18711844386E+03  0.18711844387E+03  0.25500000920E-02 0.  1.
       -2   -1    0    0    0  501  0.00000000000E+00  0.00000000000E+00 -0.33534313504E+03  0.33534313505E+03  0.25500000920E-02 0. -1.
    10030    2    1    2    0    0  0.00000000000E+00  0.00000000000E+00 -0.14822469119E+03  0.52246157892E+03  0.50099455324E+03 0.  0.
        2    1    3    3  502    0 -0.14977394205E+03  0.64714225995E+02  0.12410773431E+03  0.20499486453E+03  0.25500000920E-02 0.  1.
       -2    1    3    3    0  502  0.14977394205E+03 -0.64714225995E+02 -0.27233242549E+03  0.31746671439E+03  0.25500000920E-02 0. -1.
</event>
<event>
 5   0  0.7531632E-02  0.5022869E+03  0.7818609E-02  0.1013184E+00
        1   -1    0    0  501    0  0.00000000000E+00  0.00000000000E+00  0.32723506832E+03  0.32723506836E+03  0.50400001928E-02 0. -1.
       -1   -1    0    0    0  501  0.00000000000E+00  0.00000000000E+00 -0.19274533750E+03  0.19274533757E+03  0.50400001928E-02 0.  1.
    10030    2    1    2    0    0  0.00000000000E+00  0.00000000000E+00  0.13448973082E+03  0.51998040593E+03  0.50228690492E+03 0.  0.
        3    1    3    3  502    0  0.14336834894E+03  0.73667513536E+02  0.26662097901E+03  0.31155760732E+03  0.10100000352E+00 0. -1.
       -3    1    3    3    0  502 -0.14336834894E+03 -0.73667513536E+02 -0.13213124819E+03  0.20842279861E+03  0.10100000352E+00 0.  1.
</event>
<event>
 5   0  0.7812547E-02  0.5031621E+03  0.7818609E-02  0.1012957E+00
        1   -1    0    0  501    0  0.00000000000E+00  0.00000000000E+00  0.20149614164E+03  0.20149614170E+03  0.50400001928E-02 0. -1.
       -1   -1    0    0    0  501  0.00000000000E+00  0.00000000000E+00 -0.31411538048E+03  0.31411538052E+03  0.50400001928E-02 0.  1.
    10030    2    1    2    0    0  0.00000000000E+00  0.00000000000E+00 -0.11261923884E+03  0.51561152222E+03  0.50316214970E+03 0.  0.
        4    1    3    3  502    0 -0.31133587148E+02 -0.20318868327E+03 -0.20493781916E+03  0.29026895094E+03  0.12699999809E+01 0.  1.
       -4    1    3    3    0  502  0.31133587148E+02  0.20318868327E+03  0.92318580321E+02  0.22534257128E+03  0.12699999809E+01 0. -1.
</event>
<event>
 5   0  0.1191894E-01  0.5195133E+03  0.7818609E-02  0.1008808E+00
       -2   -1    0    0    0  501  0.00000000000E+00  0.00000000000E+00  0.69643236956E+02  0.69643237003E+02  0.25500000920E-02 0.  1.
        2   -1    0    0  501    0  0.00000000000E+00  0.00000000000E+00 -0.96884539022E+03  0.96884539022E+03  0.25500000920E-02 0. -1.
    10030    2    1    2    0    0  0.00000000000E+00  0.00000000000E+00 -0.89920215326E+03  0.10384886272E+04  0.51951334578E+03 0.  0.
        3    1    3    3  502    0  0.11468480848E+03 -0.36360321400E+02 -0.90979218263E+03  0.91771264786E+03  0.10100000352E+00 0. -1.
       -3    1    3    3    0  502 -0.11468480848E+03  0.36360321400E+02  0.10590029370E+02  0.12077597936E+03  0.10100000352E+00 0.  1.
</event>
<event>
 5   0  0.7416638E-02  0.5025390E+03  0.7818609E-02  0.1013118E+00
       -1   -1    0    0    0  501  0.00000000000E+00  0.00000000000E+00  0.75339709688E+02  0.75339709857E+02  0.50400001928E-02 0. -1.
        1   -1    0    0  501    0  0.00000000000E+00  0.00000000000E+00 -0.83802235019E+03  0.83802235020E+03  0.50400001928E-02 0.  1.
    10030    2    1    2    0    0  0.00000000000E+00  0.00000000000E+00 -0.76268264050E+03  0.91336206006E+03  0.50253899614E+03 0.  0.
        1    1    3    3  502    0 -0.11518516125E+03  0.23832058609E+02 -0.78489383758E+03  0.79365856934E+03  0.50400001928E-02 0.  1.
       -1    1    3    3    0  502  0.11518516125E+03 -0.23832058609E+02  0.22211197081E+02  0.11970349072E+03  0.50400001928E-02 0. -1.
</event>
<event>
 5   0  0.7781754E-02  0.4978019E+03  0.7818609E-02  0.1014354E+00
       -1   -1    0    0    0  501  0.00000000000E+00  0.00000000000E+00  0.23012651962E+02  0.23012652514E+02  0.50400001928E-02 0.  1.
        1   -1    0    0  501    0  0.00000000000E+00  0.00000000000E+00 -0.26920705202E+04  0.26920705202E+04  0.50400001928E-02 0. -1.
    10030    2    1    2    0    0  0.00000000000E+00  0.00000000000E+00 -0.26690578683E+04  0.27150831728E+04  0.49780189913E+03 0.  0.
        2    1    3    3  502    0  0.21256760095E+03  0.12091566088E+03 -0.10818601245E+04  0.11091559453E+04  0.25500000920E-02 0. -1.
       -2    1    3    3    0  502 -0.21256760095E+03 -0.12091566088E+03 -0.15871977437E+04  0.16059272274E+04  0.25500000920E-02 0.  1.
</event>
<event>
 5   0  0.7781754E-02  0.5035019E+03  0.7818609E-02  0.1012869E+00
       -1   -1    0    0    0  501  0.00000000000E+00  0.00000000000E+00  0.30332385090E+02  0.30332385509E+02  0.50400001928E-02 0. -1.
        1   -1    0    0  501    0  0.00000000000E+00  0.00000000000E+00 -0.20894676986E+04  0.20894676986E+04  0.50400001928E-02 0.  1.
    10030    2    1    2    0    0  0.00000000000E+00  0.00000000000E+00 -0.20591353135E+04  0.21198000841E+04  0.50350189400E+03 0.  0.
        2    1    3    3  502    0 -0.12479736939E+03 -0.17761880749E+03 -0.15663482876E+04  0.15813190008E+04  0.25500000920E-02 0.  1.
       -2    1    3    3    0  502  0.12479736939E+03  0.17761880749E+03 -0.49278702584E+03  0.53848108326E+03  0.25500000920E-02 0. -1.
</event>
<event>
 5   0  0.1243803E-01  0.4997458E+03  0.7818609E-02  0.1013845E+00
       -2   -1    0    0    0  501  0.00000000000E+00  0.00000000000E+00  0.28859494534E+03  0.28859494536E+03  0.25500000920E-02 0.  1.
        2   -1    0    0  501    0  0.00000000000E+00  0.00000000000E+00 -0.21634638915E+03  0.21634638916E+03  0.25500000920E-02 0. -1.
    10030    2    1    2    0    0  0.00000000000E+00  0.00000000000E+00  0.72248556197E+02  0.50494133452E+03  0.49974583283E+03 0.  0.
        4    1    3    3  502    0 -0.20953576954E+03 -0.16126965784E+02 -0.10044581094E+03  0.23292979968E+03  0.12699999809E+01 0. -1.
       -4    1    3    3    0  502  0.20953576954E+03  0.16126965784E+02  0.17269436714E+03  0.27201153484E+03  0.12699999809E+01 0.  1.
</event>
<event>
 5   0  0.7812547E-02  0.5236225E+03  0.7818609E-02  0.1007791E+00
        1   -1    0    0  501    0  0.00000000000E+00  0.00000000000E+00  0.35447313911E+03  0.35447313915E+03  0.50400001928E-02 0. -1.
       -1   -1    0    0    0  501  0.00000000000E+00  0.00000000000E+00 -0.19337182477E+03  0.19337182484E+03  0.50400001928E-02 0.  1.
    10030    2    1    2    0    0  0.00000000000E+00  0.00000000000E+00  0.16110131434E+03  0.54784496399E+03  0.52362245090E+03 0.  0.
        4    1    3    3  502    0 -0.48735570461E+02 -0.56981415570E+02 -0.18189466454E+03  0.19674684098E+03  0.12699999809E+01 0.  1.
       -4    1    3    3    0  502  0.48735570461E+02  0.56981415570E+02  0.34299597888E+03  0.35109812301E+03  0.12699999809E+01 0. -1.
</event>
<event>
 5   0  0.7812547E-02  0.5233422E+03  0.7818609E-02  0.1007860E+00
        1   -1    0    0  501    0  0.00000000000E+00  0.00000000000E+00  0.10677684345E+04  0.10677684345E+04  0.50400001928E-02 0.  1.
       -1   -1    0    0    0  501  0.00000000000E+00  0.00000000000E+00 -0.64126032525E+02  0.64126032723E+02  0.50400001928E-02 0. -1.
    10030    2    1    2    0    0  0.00000000000E+00  0.00000000000E+00  0.10036424020E+04  0.11318944672E+04  0.52334215759E+03 0.  0.
        4    1    3    3  502    0  0.20845687520E+03 -0.13400528126E+03  0.68352963409E+03  0.72706674921E+03  0.12699999809E+01 0.  1.
       -4    1    3    3    0  502 -0.20845687520E+03  0.13400528126E+03  0.32011276789E+03  0.40482771803E+03  0.12699999809E+01 0. -1.
</event>
<event>
 5   0  0.1211345E-01  0.5319563E+03  0.7818609E-02  0.1005759E+00
       -2   -1    0    0    0  501  0.00000000000E+00  0.00000000000E+00  0.63565492061E+02  0.63565492112E+02  0.25500000920E-02 0. -1.
        2   -1    0    0  501    0  0.00000000000E+00  0.00000000000E+00 -0.11129369298E+04  0.11129369298E+04  0.25500000920E-02 0.  1.
    10030    2    1    2    0    0  0.00000000000E+00  0.00000000000E+00 -0.10493714378E+04  0.11765024219E+04  0.53195632757E+03 0.  0.
        5    1    3    3  502    0  0.15114016247E+03 -0.20958066172E+03 -0.38559949614E+03  0.46419442468E+03  0.46999998093E+01 0. -1.
       -5    1    3    3    0  502 -0.15114016247E+03  0.20958066172E+03 -0.66377194163E+03  0.71230799727E+03  0.46999998093E+01 0.  1.
</event>
<event>
 5   0  0.1231822E-01  0.4980407E+03  0.7818609E-02  0.1014292E+00
        2   -1    0    0  501    0  0.00000000000E+00  0.00000000000E+00  0.84578848277E+02  0.84578848315E+02  0.25500000920E-02 0. -1.
       -2   -1    0    0    0  501  0.00000000000E+00  0.00000000000E+00 -0.73317543778E+03  0.73317543778E+03  0.25500000920E-02 0.  1.
    10030    2    1    2    0    0  0.00000000000E+00  0.00000000000E+00 -0.64859658950E+03  0.81775428610E+03  0.49804069765E+03 0.  0.
        1    1    3    3  502    0  0.18973004305E+03  0.10421238580E+03 -0.52642019700E+03  0.56918883898E+03  0.50400001928E-02 0.  1.
       -1    1    3    3    0  502 -0.18973004305E+03 -0.10421238580E+03 -0.12217639250E+03  0.24856544712E+03  0.50400001928E-02 0. -1.
</event>
<event>
 5   0  0.1231822E-01  0.4973439E+03  0.7818609E-02  0.1014475E+00
        2   -1    0    0  501    0  0.00000000000E+00  0.00000000000E+00  0.51881153998E+03  0.51881153998E+03  0.25500000920E-02 0. -1.
       -2   -1    0    0    0  501  0.00000000000E+00  0.00000000000E+00 -0.11919114009E+03  0.11919114012E+03  0.25500000920E-02 0.  1.
    10030    2    1    2    0    0  0.00000000000E+00  0.00000000000E+00  0.39962039988E+03  0.63800268010E+03  0.49734390095E+03 0.  0.
        1    1    3    3  502    0 -0.10493399845E+03  0.34109541031E+02 -0.86069138400E+02  0.13993749115E+03  0.50400001928E-02 0.  1.
       -1    1    3    3    0  502  0.10493399845E+03 -0.34109541031E+02  0.48568953828E+03  0.49806518895E+03  0.50400001928E-02 0. -1.
</event>
<event>
 5   0  0.5006750E-02  0.5010635E+03  0.7818609E-02  0.1013502E+00
        3   -1    0    0  501    0  0.00000000000E+00  0.00000000000E+00  0.17405150699E+03  0.17405153630E+03  0.10100000352E+00 0.  1.
       -3   -1    0    0    0  501  0.00000000000E+00  0.00000000000E+00 -0.36061820912E+03  0.36061822326E+03  0.10100000352E+00 0. -1.
    10030    2    1    2    0    0  0.00000000000E+00  0.00000000000E+00 -0.18656670213E+03  0.53466975956E+03  0.50106348645E+03 0.  0.
        1    1    3    3  502    0 -0.23414798575E+03 -0.65763854766E+02 -0.15744957856E+03  0.28972492754E+03  0.50400001928E-02 0. -1.
       -1    1    3    3    0  502  0.23414798575E+03  0.65763854766E+02 -0.29117123566E+02  0.24494483202E+03  0.50400001928E-02 0.  1.
</event>
<event>
 5   0  0.7416638E-02  0.4920732E+03  0.7818609E-02  0.1015869E+00
        1   -1    0    0  501    0  0.00000000000E+00  0.00000000000E+00  0.27912575833E+03  0.27912575838E+03  0.50400001928E-02 0.  1.
       -1   -1    0    0    0  501  0.00000000000E+00  0.00000000000E+00 -0.21687003934E+03  0.21687003940E+03  0.50400001928E-02 0. -1.
    10030    2    1    2    0    0  0.00000000000E+00  0.00000000000E+00  0.62255718994E+02  0.49599579777E+03  0.49207322307E+03 0.  0.
        1    1    3    3  502    0  0.12676370352E+02  0.58907026440E+02 -0.20931779776E+03  0.21781797128E+03  0.50400001928E-02 0. -1.
       -1    1    3    3    0  502 -0.12676370352E+02 -0.58907026440E+02  0.27157351675E+03  0.27817782650E+03  0.50400001928E-02 0.  1.
</event>
<event>
 5   0  0.1211345E-01  0.5161697E+03  0.7818609E-02  0.1009642E+00
       -2   -1    0    0    0  501  0.00000000000E+00  0.00000000000E+00  0.25756178907E+03  0.25756178908E+03  0.25500000920E-02 0.  1.
        2   -1    0    0  501    0  0.00000000000E+00  0.00000000000E+00 -0.25860899180E+03  0.25860899181E+03  0.25500000920E-02 0. -1.
    10030    2    1    2    0    0  0.00000000000E+00  0.00000000000E+00 -0.10472027316E+01  0.51617078089E+03  0.51616971861E+03 0.  0.
        5    1    3    3  502    0  0.20454778525E+03  0.15729451399E+03  0.15606348212E+01  0.25808116197E+03  0.46999998093E+01 0.  1.
       -5    1    3    3    0  502 -0.20454778525E+03 -0.15729451399E+03 -0.26078375527E+01  0.25808961893E+03  0.46999998093E+01 0. -1.
</event>
<event>
 5   0  0.1279188E-01  0.5085241E+03  0.7818609E-02  0.1011578E+00
        2   -1    0    0  501    0  0.00000000000E+00  0.00000000000E+00  0.66209570332E+03  0.66209570333E+03  0.25500000920E-02 0. -1.
       -2   -1    0    0    0  501  0.00000000000E+00  0.00000000000E+00 -0.97643266156E+02  0.97643266189E+02  0.25500000920E-02 0.  1.
    10030    2    1    2    0    0  0.00000000000E+00  0.00000000000E+00  0.56445243717E+03  0.75973896952E+03  0.50852408790E+03 0.  0.
        2    1    3    3  502    0  0.20810216714E+03 -0.33291307243E+01  0.64021314405E+02  0.21775289616E+03  0.25500000920E-02 0.  1.
       -2    1    3    3    0  502 -0.20810216714E+03  0.33291307243E+01  0.50043112276E+03  0.54198607336E+03  0.25500000920E-02 0. -1.
</event>
<event>
 5   0  0.7602288E-02  0.4927554E+03  0.7818609E-02  0.1015687E+00
       -1   -1    0    0    0  501  0.00000000000E+00  0.00000000000E+00  0.63787644231E+03  0.63787644233E+03  0.50400001928E-02 0.  1.
        1   -1    0    0  501    0  0.00000000000E+00  0.00000000000E+00 -0.95162590607E+02  0.95162590741E+02  0.50400001928E-02 0. -1.
    10030    2    1    2    0    0  0.00000000000E+00  0.00000000000E+00  0.54271385170E+03  0.73303903307E+03  0.49275541517E+03 0.  0.
        5    1    3    3  502    0  0.41490258641E+02 -0.24276784539E+03  0.26434506476E+03  0.36132820479E+03  0.46999998093E+01 0.  1.
       -5    1    3    3    0  502 -0.41490258641E+02  0.24276784539E+03  0.27836878695E+03  0.37171082828E+03  0.46999998093E+01 0. -1.
</event>
<event>
 5   0  0.1231822E-01  0.5031011E+03  0.7818609E-02  0.1012973E+00
        2   -1    0    0  501    0  0.00000000000E+00  0.00000000000E+00  0.58908114961E+03  0.58908114962E+03  0.25500000920E-02 0.  1.
       -2   -1    0    0    0  501  0.00000000000E+00  0.00000000000E+00 -0.10741757322E+03  0.10741757325E+03  0.25500000920E-02 0. -1.
    10030    2    1    2    0    0  0.00000000000E+00  0.00000000000E+00  0.48166357640E+03  0.69649872287E+03  0.50310105359E+03 0.  0.
        1    1    3    3  502    0  0.21954887629E+03 -0.40126487215E+02  0.80181482729E+02  0.23715166930E+03  0.50400001928E-02 0. -1.
       -1    1    3    3    0  502 -0.21954887629E+03  0.40126487215E+02  0.40148209367E+03  0.45934705356E+03  0.50400001928E-02 0.  1.
</event>
<event>
 5   0  0.1243803E-01  0.4996932E+03  0.7818609E-02  0.1013859E+00
        2   -1    0    0  501    0  0.00000000000E+00  0.00000000000E+00  0.11250726341E+04  0.11250726341E+04  0.25500000920E-02 0.  1.
       -2   -1    0    0    0  501  0.00000000000E+00  0.00000000000E+00 -0.55483826626E+02  0.55483826685E+02  0.25500000920E-02 0. -1.
    10030    2    1    2    0    0  0.00000000000E+00  0.00000000000E+00  0.10695888075E+04  0.11805564608E+04  0.49969324593E+03 0.  0.
        4    1    3    3  502    0  0.12096588388E+03  0.69860275935E+02  0.45404455618E+02  0.14688900812E+03  0.12699999809E+01 0. -1.
       -4    1    3    3    0  502 -0.12096588388E+03 -0.69860275935E+02  0.10241843518E+04  0.10336674527E+04  0.12699999809E+01 0.  1.
</event>
<event>
 5   0  0.1231822E-01  0.4974228E+03  0.7818609E-02  0.1014454E+00
       -2   -1    0    0    0  501  0.00000000000E+00  0.00000000000E+00  0.21173431997E+03  0.21173431998E+03  0.25500000920E-02 0.  1.
        2   -1    0    0  501    0  0.00000000000E+00  0.00000000000E+00 -0.29214614328E+03  0.29214614329E+03  0.25500000920E-02 0. -1.
    10030    2    1    2    0    0  0.00000000000E+00  0.00000000000E+00 -0.80411823309E+02  0.50388046327E+03  0.49742281807E+03 0.  0.
        1    1    3    3  502    0  0.92672974998E+02 -0.18686625522E+03  0.97015184425E+02  0.23004178679E+03  0.50400001928E-02 0.  1.
       -1    1    3    3    0  502 -0.92672974998E+02  0.18686625522E+03 -0.17742700773E+03  0.27383867648E+03  0.50400001928E-02 0. -1.
</event>
<event>
 5   0  0.1279188E-01  0.4980179E+03  0.7818609E-02  0.1014298E+00
       -2   -1    0    0    0  501  0.00000000000E+00  0.00000000000E+00  0.91791745597E+02  0.91791745633E+02  0.25500000920E-02 0. -1.
        2   -1    0    0  501    0  0.00000000000E+00  0.00000000000E+00 -0.67550143453E+03  0.67550143454E+03  0.25500000920E-02 0.  1.
    10030    2    1    2    0    0  0.00000000000E+00  0.00000000000E+00 -0.58370968894E+03  0.76729318017E+03  0.49801789464E+03 0.  0.
        2    1    3    3  502    0  0.51428288667E+02 -0.93463342031E+02  0.54801957406E+02  0.11993131251E+03  0.25500000920E-02 0. -1.
       -2    1    3    3    0  502 -0.51428288667E+02  0.93463342031E+02 -0.63851164634E+03  0.64736186766E+03  0.25500000920E-02 0.  1.
</event>
<event>
 5   0  0.7781754E-02  0.5063661E+03  0.7818609E-02  0.1012130E+00
        1   -1    0    0  501    0  0.00000000000E+00  0.00000000000E+00  0.40511896375E+03  0.40511896378E+03  0.50400001928E-02 0. -1.
       -1   -1    0    0    0  501  0.00000000000E+00  0.00000000000E+00 -0.15822924440E+03  0.15822924448E+03  0.50400001928E-02 0.  1.
    10030    2    1    2    0    0  0.00000000000E+00  0.00000000000E+00  0.24688971934E+03  0.56334820826E+03  0.50636614247E+03 0.  0.
        2    1    3    3  502    0 -0.81702481604E+02  0.13850703980E+03  0.34100710540E+03  0.37702167247E+03  0.25500000920E-02 0. -1.
       -2    1    3    3    0  502  0.81702481604E+02 -0.13850703980E+03 -0.94117386059E+02  0.18632653579E+03  0.25500000920E-02 0.  1.
</event>
<event>
 5   0  0.7781754E-02  0.4941342E+03  0.7818609E-02  0.1015321E+00
        1   -1    0    0  501    0  0.00000000000E+00  0.00000000000E+00  0.53616688143E+03  0.53616688145E+03  0.50400001928E-02 0.  1.
       -1   -1    0    0    0  501  0.00000000000E+00  0.00000000000E+00 -0.11384914700E+03  0.11384914711E+03  0.50400001928E-02 0. -1.
    10030    2    1    2    0    0  0.00000000000E+00  0.00000000000E+00  0.42231773443E+03  0.65001602856E+03  0.49413416050E+03 0.  0.
        2    1    3    3  502    0 -0.11248247207E+03  0.10629751511E+03  0.46450340745E+03  0.48960686656E+03  0.25500000920E-02 0.  1.
       -2    1    3    3    0  502  0.11248247207E+03 -0.10629751511E+03 -0.42185673018E+02  0.16040916201E+03  0.25500000920E-02 0. -1.
</event>
<event>
 5   0  0.1231822E-01  0.4947349E+03  0.7818609E-02  0.1015162E+00
       -2   -1    0    0    0  501  0.00000000000E+00  0.00000000000E+00  0.10612657146E+03  0.10612657149E+03  0.25500000920E-02 0. -1.
        2   -1    0    0  501    0  0.00000000000E+00  0.00000000000E+00 -0.57658180404E+03  0.57658180404E+03  0.25500000920E-02 0.  1.
    10030    2    1    2    0    0  0.00000000000E+00  0.00000000000E+00 -0.47045523258E+03  0.68270837553E+03  0.49473487865E+03 0.  0.
        1    1    3    3  502    0  0.17002487929E+03  0.16210405914E+03 -0.12829754890E+03  0.26766853877E+03  0.50400001928E-02 0. -1.
       -1    1    3    3    0  502 -0.17002487929E+03 -0.16210405914E+03 -0.34215768368E+03  0.41503983676E+03  0.50400001928E-02 0.  1.
</event>
<event>
 5   0  0.7416638E-02  0.5015669E+03  0.7818609E-02  0.1013371E+00
       -1   -1    0    0    0  501  0.00000000000E+00  0.00000000000E+00  0.57583331785E+03  0.57583331787E+03  0.50400001928E-02 0. -1.
        1   -1    0    0  501    0  0.00000000000E+00  0.00000000000E+00 -0.10921967427E+03  0.10921967439E+03  0.50400001928E-02 0.  1.
    10030    2    1    2    0    0  0.00000000000E+00  0.00000000000E+00  0.46661364357E+03  0.68505299226E+03  0.50156685480E+03 0.  0.
        1    1    3    3  502    0 -0.67749950072E+02  0.23123644014E+03  0.13836492092E+03  0.27785823427E+03  0.50400001928E-02 0.  1.
       -1    1    3    3    0  502  0.67749950072E+02 -0.23123644014E+03  0.32824872265E+03  0.40719475799E+03  0.50400001928E-02 0. -1.
</event>
<event>
 5   0  0.7602288E-02  0.4939104E+03  0.7818609E-02  0.1015381E+00
       -1   -1    0    0    0  501  0.00000000000E+00  0.00000000000E+00  0.14369266024E+03  0.14369266033E+03  0.50400001928E-02 0. -1.
        1   -1    0    0  501    0  0.00000000000E+00  0.00000000000E+00 -0.42442573338E+03  0.42442573341E+03  0.50400001928E-02 0.  1.
    10030    2    1    2    0    0  0.00000000000E+00  0.00000000000E+00 -0.28073307313E+03  0.56811839374E+03  0.49391036733E+03 0.  0.
        5    1    3    3  502    0  0.53349910033E+02  0.88995077189E+02 -0.39807922516E+03  0.41140672839E+03  0.46999998093E+01 0.  1.
       -5    1    3    3    0  502 -0.53349910033E+02 -0.88995077189E+02  0.11734615202E+03  0.15671166535E+03  0.46999998093E+01 0. -1.
</event>
<event>
 5   0  0.1191894E-01  0.4979933E+03  0.7818609E-02  0.1014304E+00
       -2   -1    0    0    0  501  0.00000000000E+00  0.00000000000E+00  0.25303761860E+03  0.25303761862E+03  0.25500000920E-02 0. -1.
        2   -1    0    0  501    0  0.00000000000E+00  0.00000000000E+00 -0.24502025931E+03  0.24502025932E+03  0.25500000920E-02 0.  1.
    10030    2    1    2    0    0  0.00000000000E+00  0.00000000000E+00  0.80173592966E+01  0.49805787793E+03  0.49799334506E+03 0.  0.
        3    1    3    3  502    0 -0.12837730143E+03  0.13454900582E+03  0.16960539439E+03  0.25169458973E+03  0.10100000352E+00 0. -1.
       -3    1    3    3    0  502  0.12837730143E+03 -0.13454900582E+03 -0.16158803510E+03  0.24636328821E+03  0.10100000352E+00 0.  1.
</event>
<event>
 5   0  0.7812547E-02  0.4973842E+03  0.7818609E-02  0.1014464E+00
        1   -1    0    0  501    0  0.00000000000E+00  0.00000000000E+00  0.16547714608E+03  0.16547714615E+03  0.50400001928E-02 0. -1.
       -1   -1    0    0    0  501  0.00000000000E+00  0.00000000000E+00 -0.37375414230E+03  0.37375414233E+03  0.50400001928E-02 0.  1.
    10030    2    1    2    0    0  0.00000000000E+00  0.00000000000E+00 -0.20827699622E+03  0.53923128849E+03  0.49738423309E+03 0.  0.
        4    1    3    3  502    0 -0.92525913803E+02  0.17407864863E+03 -0.26849030337E+03  0.33309619712E+03  0.12699999809E+01 0.  1.
       -4    1    3    3    0  502  0.92525913803E+02 -0.17407864863E+03  0.60213307144E+02  0.20613509137E+03  0.12699999809E+01 0. -1.
</event>
<event>
 5   0  0.1279188E-01  0.5055718E+03  0.7818609E-02  0.1012335E+00
        2   -1    0    0  501    0  0.00000000000E+00  0.00000000000E+00  0.50222063835E+03  0.50222063835E+03  0.25500000920E-02 0.  1.
       -2   -1    0    0    0  501  0.00000000000E+00  0.00000000000E+00 -0.12723633566E+03  0.12723633568E+03  0.25500000920E-02 0. -1.
    10030    2    1    2    0    0  0.00000000000E+00  0.00000000000E+00  0.37498430269E+03  0.62945697404E+03  0.50557180984E+03 0.  0.
        2    1    3    3  502    0 -0.21037434686E+03  0.11832713773E+03  0.28101142835E+03  0.37044041384E+03  0.25500000920E-02 0.  1.
       -2    1    3    3    0  502  0.21037434686E+03 -0.11832713773E+03  0.93972874342E+02  0.25901656020E+03  0.25500000920E-02 0. -1.
</event>
<event>
 5   0  0.7812547E-02  0.5032749E+03  0.7818609E-02  0.1012928E+00
        1   -1    0    0  501    0  0.00000000000E+00  0.00000000000E+00  0.26599755648E+03  0.26599755653E+03  0.50400001928E-02 0.  1.
       -1   -1    0    0    0  501  0.00000000000E+00  0.00000000000E+00 -0.23805257369E+03  0.23805257374E+03  0.50400001928E-02 0. -1.
    10030    2    1    2    0    0  0.00000000000E+00  0.00000000000E+00  0.27944982796E+02  0.50405013027E+03  0.50327488688E+03 0.  0.
        4    1    3    3  502    0 -0.24722991777E+03 -0.46682846914E+02  0.18206248316E+02  0.25225978835E+03  0.12699999809E+01 0. -1.
       -4    1    3    3    0  502  0.24722991777E+03  0.46682846914E+02  0.97387344805E+01  0.25179034193E+03  0.12699999809E+01 0.  1.
</event>
<event>
 5   0  0.7416638E-02  0.5198382E+03  0.7818609E-02  0.1008727E+00
       -1   -1    0    0    0  501  0.00000000000E+00  0.00000000000E+00  0.29035577788E+03  0.29035577793E+03  0.50400001928E-02 0.  1.
        1   -1    0    0  501    0  0.00000000000E+00  0.00000000000E+00 -0.23267297855E+03  0.23267297860E+03  0.50400001928E-02 0. -1.
    10030    2    1    2    0    0  0.00000000000E+00  0.00000000000E+00  0.57682799334E+02  0.52302875653E+03  0.51983821985E+03 0.  0.
        1    1    3    3  502    0 -0.18080286460E+03 -0.18512507041E+03  0.53424454343E+02  0.26422554738E+03  0.50400001928E-02 0.  1.
       -1    1    3    3    0  502  0.18080286460E+03  0.18512507041E+03  0.42583449908E+01  0.25880320915E+03  0.50400001928E-02 0. -1.
</event>
<event>
 5   0  0.1211345E-01  0.4972307E+03  0.7818609E-02  0.1014504E+00
       -2   -1    0    0    0  501  0.00000000000E+00  0.00000000000E+00  0.20618928272E+03  0.20618928274E+03  0.25500000920E-02 0.  1.
        2   -1    0    0  501    0  0.00000000000E+00  0.00000000000E+00 -0.29977114790E+03  0.29977114791E+03  0.25500000920E-02 0. -1.
    10030    2    1    2    0    0  0.00000000000E+00  0.00000000000E+00 -0.93581865174E+02  0.50596043065E+03  0.49723072300E+03 0.  0.
        5    1    3    3  502    0 -0.10894877604E+03 -0.20308225217E+03  0.47985449060E+02  0.23545048369E+03  0.46999998093E+01 0.  1.
       -5    1    3    3    0  502  0.10894877604E+03  0.20308225217E+03 -0.14156731423E+03  0.27050994696E+03  0.46999998093E+01 0. -1.
</event>
<event>
 5   0  0.7531632E-02  0.4955935E+03  0.7818609E-02  0.1014936E+00
       -1   -1    0    0    0  501  0.00000000000E+00  0.00000000000E+00  0.10106612867E+03  0.10106612880E+03  0.50400001928E-02 0. -1.
        1   -1    0    0  501    0  0.00000000000E+00  0.00000000000E+00 -0.60755492530E+03  0.60755492532E+03  0.50400001928E-02 0.  1.
    10030    2    1    2    0    0  0.00000000000E+00  0.00000000000E+00 -0.50648879662E+03  0.70862105412E+03  0.49559347981E+03 0.  0.
        3    1    3    3  502    0 -0.13773685913E+03 -0.15269553965E+03 -0.55554168826E+02  0.21301090598E+03  0.10100000352E+00 0. -1.
       -3    1    3    3    0  502  0.13773685913E+03  0.15269553965E+03 -0.45093462779E+03  0.49561014814E+03  0.10100000352E+00 0.  1.
</event>
<event>
 5   0  0.5006750E-02  0.5053965E+03  0.7818609E-02  0.1012380E+00
       -3   -1    0    0    0  501  0.00000000000E+00  0.00000000000E+00  0.62084976483E+03  0.62084977304E+03  0.10100000352E+00 0.  1.
        3   -1    0    0  501    0  0.00000000000E+00  0.00000000000E+00 -0.10285319641E+03  0.10285324600E+03  0.10100000352E+00 0. -1.
    10030    2    1    2    0    0  0.00000000000E+00  0.00000000000E+00  0.51799656842E+03  0.72370301904E+03  0.50539649275E+03 0.  0.
        3    1    3    3  502    0  0.23489845612E+03  0.46081976075E+02  0.37493822365E+03  0.44483650363E+03  0.10100000352E+00 0.  1.
       -3    1    3    3    0  502 -0.23489845612E+03 -0.46081976075E+02  0.14305834476E+03  0.27886651541E+03  0.10100000352E+00 0. -1.
</event>
<event>
 5   0  0.7531632E-02  0.5043341E+03  0.7818609E-02  0.1012654E+00
        1   -1    0    0  501    0  0.00000000000E+00  0.00000000000E+00  0.84966100295E+02  0.84966100445E+02  0.50400001928E-02 0.  1.
       -1   -1    0    0    0  501  0.00000000000E+00  0.00000000000E+00 -0.74839523923E+03  0.74839523925E+03  0.50400001928E-02 0. -1.
    10030    2    1    2    0    0  0.00000000000E+00  0.00000000000E+00 -0.66342913893E+03  0.83336133969E+03  0.50433411555E+03 0.  0.
        3    1    3    3  502    0  0.10077379886E+03  0.23004697561E+03 -0.36907653086E+03  0.44642408689E+03  0.10100000352E+00 0. -1.
       -3    1    3    3    0  502 -0.10077379886E+03 -0.23004697561E+03 -0.29435260807E+03  0.38693725280E+03  0.10100000352E+00 0.  1.
</event>
<event>
 5   0  0.1279188E-01  0.4947335E+03  0.7818609E-02  0.1015163E+00
       -2   -1    0    0    0  501  0.00000000000E+00  0.00000000000E+00  0.75040523883E+02  0.75040523926E+02  0.25500000920E-02 0.  1.
        2   -1    0    0  501    0  0.00000000000E+00  0.00000000000E+00 -0.81543010068E+03  0.81543010068E+03  0.25500000920E-02 0. -1.
    10030    2    1    2    0    0  0.00000000000E+00  0.00000000000E+00 -0.74038957680E+03  0.89047062461E+03  0.49473347154E+03 0.  0.
        2    1    3    3  502    0  0.17168303066E+03 -0.16694473705E+03 -0.48179863856E+03  0.53802930810E+03  0.25500000920E-02 0. -1.
       -2    1    3    3    0  502 -0.17168303066E+03  0.16694473705E+03 -0.25859093823E+03  0.35244131651E+03  0.25500000920E-02 0.  1.
</event>
<event>
 5   0  0.1243803E-01  0.4983683E+03  0.7818609E-02  0.1014206E+00
       -2   -1    0    0    0  501  0.00000000000E+00  0.00000000000E+00  0.91287280501E+03  0.91287280502E+03  0.25500000920E-02 0. -1.
        2   -1    0    0  501    0  0.00000000000E+00  0.00000000000E+00 -0.68019060112E+02  0.68019060160E+02  0.25500000920E-02 0.  1.
    10030    2    1    2    0    0  0.00000000000E+00  0.00000000000E+00  0.84485374490E+03  0.98089186518E+03  0.49836833858E+03 0.  0.
        4    1    3    3  502    0  0.12784778376E+03 -0.16644996517E+03  0.15806740945E+03  0.26275000580E+03  0.12699999809E+01 0.  1.
       -4    1    3    3    0  502 -0.12784778376E+03  0.16644996517E+03  0.68678633545E+03  0.71814185937E+03  0.12699999809E+01 0. -1.
</event>
<event>
 5   0  0.7531632E-02  0.4968983E+03  0.7818609E-02  0.1014592E+00
        1   -1    0    0  501    0  0.00000000000E+00  0.00000000000E+00  0.18910223847E+03  0.18910223853E+03  0.50400001928E-02 0. -1.
       -1   -1    0    0    0  501  0.00000000000E+00  0.00000000000E+00 -0.32642118817E+03  0.32642118821E+03  0.50400001928E-02 0.  1.
    10030    2    1    2    0    0  0.00000000000E+00  0.00000000000E+00 -0.13731894970E+03  0.51552342674E+03  0.49689828896E+03 0.  0.
        3    1    3    3  502    0  0.19038302032E+03  0.14012722069E+03 -0.14798203883E+03  0.27889070695E+03  0.10100000352E+00 0.  1.
       -3    1    3    3    0  502 -0.19038302032E+03 -0.14012722069E+03  0.10663089123E+02  0.23663271979E+03  0.10100000352E+00 0. -1.
</event>
<event>
 5   0  0.1279188E-01  0.5101197E+03  0.7818609E-02  0.1011171E+00
        2   -1    0    0  501    0  0.00000000000E+00  0.00000000000E+00  0.79186515297E+03  0.79186515297E+03  0.25500000920E-02 0.  1.
       -2   -1    0    0    0  501  0.00000000000E+00  0.00000000000E+00 -0.82154791595E+02  0.82154791635E+02  0.25500000920E-02 0. -1.
    10030    2    1    2    0    0  0.00000000000E+00  0.00000000000E+00  0.70971036138E+03  0.87401994461E+03  0.51011965903E+03 0.  0.
        2    1    3    3  502    0  0.24927378047E+03  0.35716622374E+02  0.42429229173E+03  0.49339339636E+03  0.25500000920E-02 0. -1.
       -2    1    3    3    0  502 -0.24927378047E+03 -0.35716622374E+02  0.28541806964E+03  0.38062654825E+03  0.25500000920E-02 0.  1.
</event>
<event>
 5   0  0.1243803E-01  0.4989099E+03  0.7818609E-02  0.1014064E+00
       -2   -1    0    0    0  501  0.00000000000E+00  0.00000000000E+00  0.14479222629E+03  0.14479222632E+03  0.25500000920E-02 0.  1.
        2   -1    0    0  501    0  0.00000000000E+00  0.00000000000E+00 -0.42977292295E+03  0.42977292295E+03  0.25500000920E-02 0. -1.
    10030    2    1    2    0    0  0.00000000000E+00  0.00000000000E+00 -0.28498069665E+03  0.57456514927E+03  0.49890992503E+03 0.  0.
        4    1    3    3  502    0  0.29595363829E+02  0.19599364196E+03  0.31924432576E+02  0.20077394140E+03  0.12699999809E+01 0.  1.
       -4    1    3    3    0  502 -0.29595363829E+02 -0.19599364196E+03 -0.31690512923E+03  0.37379120787E+03  0.12699999809E+01 0. -1.
</event>
<event>
 5   0  0.1191894E-01  0.5029631E+03  0.7818609E-02  0.1013008E+00
       -2   -1    0    0    0  501  0.00000000000E+00  0.00000000000E+00  0.13441500488E+03  0.13441500490E+03  0.25500000920E-02 0.  1.
        2   -1    0    0  501    0  0.00000000000E+00  0.00000000000E+00 -0.47050536493E+03  0.47050536494E+03  0.25500000920E-02 0. -1.
    10030    2    1    2    0    0  0.00000000000E+00  0.00000000000E+00 -0.33609036006E+03  0.60492036984E+03  0.50296314350E+03 0.  0.
        3    1    3    3  502    0  0.16132135751E+02  0.47606093533E+02  0.12831169020E+03  0.13780597225E+03  0.10100000352E+00 0.  1.
       -3    1    3    3    0  502 -0.16132135751E+02 -0.47606093533E+02 -0.46440205026E+03  0.46711439759E+03  0.10100000352E+00 0. -1.
</event>
<event>
 5   0  0.7531632E-02  0.5034533E+03  0.7818609E-02  0.1012881E+00
        1   -1    0    0  501    0  0.00000000000E+00  0.00000000000E+00  0.87003176581E+03  0.87003176583E+03  0.50400001928E-02 0.  1.
       -1   -1    0    0    0  501  0.00000000000E+00  0.00000000000E+00 -0.72832174829E+02  0.72832175003E+02  0.50400001928E-02 0. -1.
    10030    2    1    2    0    0  0.00000000000E+00  0.00000000000E+00  0.79719959098E+03  0.94286394083E+03  0.50345329779E+03 0.  0.
        3    1    3    3  502    0 -0.67058551873E+02  0.34835770036E+02  0.84828828614E+03  0.85164746630E+03  0.10100000352E+00 0.  1.
       -3    1    3    3    0  502  0.67058551873E+02 -0.34835770036E+02 -0.51088695151E+02  0.91216474535E+02  0.10100000352E+00 0. -1.
</event>
<event>
 5   0  0.1279188E-01  0.4774710E+03  0.7818609E-02  0.1019833E+00
        2   -1    0    0  501    0  0.00000000000E+00  0.00000000000E+00  0.24554358460E+03  0.24554358461E+03  0.25500000920E-02 0.  1.
       -2   -1    0    0    0  501  0.00000000000E+00  0.00000000000E+00 -0.23211618117E+03  0.23211618118E+03  0.25500000920E-02 0. -1.
    10030    2    1    2    0    0  0.00000000000E+00  0.00000000000E+00  0.13427403427E+02  0.47765976579E+03  0.47747100089E+03 0.  0.
        2    1    3    3  502    0 -0.19786409027E+03  0.12232724405E+02  0.13978809898E+03  0.24257071213E+03  0.25500000920E-02 0.  1.
       -2    1    3    3    0  502  0.19786409027E+03 -0.12232724405E+02 -0.12636069555E+03  0.23508905366E+03  0.25500000920E-02 0. -1.
</event>
<event>
 5   0  0.7602288E-02  0.4982523E+03  0.7818609E-02  0.1014236E+00
        1   -1    0    0  501    0  0.00000000000E+00  0.00000000000E+00  0.10674371390E+04  0.10674371390E+04  0.50400001928E-02 0.  1.
       -1   -1    0    0    0  501  0.00000000000E+00  0.00000000000E+00 -0.58142862420E+02  0.58142862638E+02  0.50400001928E-02 0. -1.
    10030    2    1    2    0    0  0.00000000000E+00  0.00000000000E+00  0.10092942765E+04  0.11255800016E+04  0.49825234909E+03 0.  0.
        5    1    3    3  502    0  0.41754932903E+02  0.62758269102E+01 -0.49898909791E+02  0.65535117469E+02  0.46999998093E+01 0. -1.
       -5    1    3    3    0  502 -0.41754932903E+02 -0.62758269102E+01  0.10591931863E+04  0.10600448841E+04  0.46999998093E+01 0.  1.
</event>
<event>
 5   0  0.7781754E-02  0.4963013E+03  0.7818609E-02  0.1014749E+00
        1   -1    0    0  501    0  0.00000000000E+00  0.00000000000E+00  0.41435815158E+03  0.41435815161E+03  0.50400001928E-02 0. -1.
       -1   -1    0    0    0  501  0.00000000000E+00  0.00000000000E+00 -0.14861237669E+03  0.14861237678E+03  0.50400001928E-02 0.  1.
    10030    2    1    2    0    0  0.00000000000E+00  0.00000000000E+00  0.26574577489E+03  0.56297052838E+03  0.49630131871E+03 0.  0.
        2    1    3    3  502    0 -0.38862541699E+02 -0.78649654178E+02  0.39618136570E+03  0.40577794393E+03  0.25500000920E-02 0. -1.
       -2    1    3    3    0  502  0.38862541699E+02  0.78649654178E+02 -0.13043559081E+03  0.15719258445E+03  0.25500000920E-02 0.  1.
</event>
<event>
 5   0  0.1279188E-01  0.4967285E+03  0.7818609E-02  0.1014636E+00
       -2   -1    0    0    0  501  0.00000000000E+00  0.00000000000E+00  0.47316375521E+02  0.47316375590E+02  0.25500000920E-02 0. -1.
        2   -1    0    0  501    0  0.00000000000E+00  0.00000000000E+00 -0.13036670252E+04  0.13036670252E+04  0.25500000920E-02 0.  1.
    10030    2    1    2    0    0  0.00000000000E+00  0.00000000000E+00 -0.12563506496E+04  0.13509834007E+04  0.49672849149E+03 0.  0.
        2    1    3    3  502    0 -0.10804117250E+03  0.22208366031E+03 -0.55669412435E+03  0.60901756561E+03  0.25500000920E-02 0. -1.
       -2    1    3    3    0  502  0.10804117250E+03 -0.22208366031E+03 -0.69965652528E+03  0.74196583513E+03  0.25500000920E-02 0.  1.
</event>
<event>
 5   0  0.7531632E-02  0.5006007E+03  0.7818609E-02  0.1013622E+00
       -1   -1    0    0    0  501  0.00000000000E+00  0.00000000000E+00  0.44382604140E+02  0.44382604426E+02  0.50400001928E-02 0. -1.
        1   -1    0    0  501    0  0.00000000000E+00  0.00000000000E+00 -0.14115949039E+04  0.14115949039E+04  0.50400001928E-02 0.  1.
    10030    2    1    2    0    0  0.00000000000E+00  0.00000000000E+00 -0.13672122997E+04  0.14559775083E+04  0.50060067135E+03 0.  0.
        3    1    3    3  502    0  0.24168820368E+03  0.30173886192E+02 -0.85135645162E+03  0.88551198136E+03  0.10100000352E+00 0. -1.
       -3    1    3    3    0  502 -0.24168820368E+03 -0.30173886192E+02 -0.51585584810E+03  0.57046552694E+03  0.10100000352E+00 0.  1.
</event>
<event>
 5   0  0.7531632E-02  0.4992898E+03  0.7818609E-02  0.1013964E+00
        1   -1    0    0  501    0  0.00000000000E+00  0.00000000000E+00  0.86332244886E+03  0.86332244887E+03  0.50400001928E-02 0. -1.
       -1   -1    0    0    0  501  0.00000000000E+00  0.00000000000E+00 -0.72189217125E+02  0.72189217301E+02  0.50400001928E-02 0.  1.
    10030    2    1    2    0    0  0.00000000000E+00  0.00000000000E+00  0.79113323173E+03  0.93551166617E+03  0.49928978279E+03 0.  0.
        3    1    3    3  502    0 -0.25182962033E+02  0.24106699009E+03  0.28353520786E+03  0.37301434233E+03  0.10100000352E+00 0.  1.
       -3    1    3    3    0  502  0.25182962033E+02 -0.24106699009E+03  0.50759802387E+03  0.56249732384E+03  0.10100000352E+00 0. -1.
</event>
<event>
 5   0  0.7531632E-02  0.4982946E+03  0.7818609E-02  0.1014225E+00
        1   -1    0    0  501    0  0.00000000000E+00  0.00000000000E+00  0.32909684852E+03  0.32909684856E+03  0.50400001928E-02 0.  1.
       -1   -1    0    0    0  501  0.00000000000E+00  0.00000000000E+00 -0.18862040733E+03  0.18862040740E+03  0.50400001928E-02 0. -1.
    10030    2    1    2    0    0  0.00000000000E+00  0.00000000000E+00  0.14047644119E+03  0.51771725596E+03  0.49829461827E+03 0.  0.
        3    1    3    3  502    0  0.12732568684E+03  0.16278730978E+03  0.21481245140E+03  0.29808713195E+03  0.10100000352E+00 0.  1.
       -3    1    3    3    0  502 -0.12732568684E+03 -0.16278730978E+03 -0.74336010218E+02  0.21963012401E+03  0.10100000352E+00 0. -1.
</event>
<event>
 5   0  0.5006750E-02  0.5126039E+03  0.7818609E-02  0.1010540E+00
       -4   -1    0    0    0  501  0.00000000000E+00  0.00000000000E+00  0.85497332008E+03  0.85497426333E+03  0.12699999809E+01 0. -1.
        4   -1    0    0  501    0  0.00000000000E+00  0.00000000000E+00 -0.76827373613E+02  0.76837869806E+02  0.12699999809E+01 0.  1.
    10030    2    1    2    0    0  0.00000000000E+00  0.00000000000E+00  0.77814594647E+03  0.93181213313E+03  0.51260387967E+03 0.  0.
        5    1    3    3  502    0  0.96864645756E+02  0.18378410635E+03  0.66179917201E+03  0.69365668123E+03  0.46999998093E+01 0. -1.
       -5    1    3    3    0  502 -0.96864645756E+02 -0.18378410635E+03  0.11634677446E+03  0.23815545190E+03  0.46999998093E+01 0.  1.
</event>
<event>
 5   0  0.1211345E-01  0.5005409E+03  0.7818609E-02  0.1013638E+00
        2   -1    0    0  501    0  0.00000000000E+00  0.00000000000E+00  0.27830516956E+03  0.27830516957E+03  0.25500000920E-02 0. -1.
       -2   -1    0    0    0  501  0.00000000000E+00  0.00000000000E+00 -0.22505977266E+03  0.22505977268E+03  0.25500000920E-02 0.  1.
    10030    2    1    2    0    0  0.00000000000E+00  0.00000000000E+00  0.53245396896E+02  0.50336494224E+03  0.50054090022E+03 0.  0.
        5    1    3    3  502    0  0.83361209173E+02  0.20900121555E+03  0.13670540202E+03  0.26332689995E+03  0.46999998093E+01 0. -1.
       -5    1    3    3    0  502 -0.83361209173E+02 -0.20900121555E+03 -0.83460005123E+02  0.24003804230E+03  0.46999998093E+01 0.  1.
</event>
<event>
 5   0  0.7812547E-02  0.5280252E+03  0.7818609E-02  0.1006712E+00
       -1   -1    0    0    0  501  0.00000000000E+00  0.00000000000E+00  0.79666328830E+02  0.79666328990E+02  0.50400001928E-02 0.  1.
        1   -1    0    0  501    0  0.00000000000E+00  0.00000000000E+00 -0.87493244840E+03  0.87493244842E+03  0.50400001928E-02 0. -1.
    10030    2    1    2    0    0  0.00000000000E+00  0.00000000000E+00 -0.79526611957E+03  0.95459877741E+03  0.52802521236E+03 0.  0.
        4    1    3    3  502    0 -0.20101627146E+03 -0.51584283531E+02 -0.10259862968E+03  0.23150933332E+03  0.12699999809E+01 0.  1.
       -4    1    3    3    0  502  0.20101627146E+03  0.51584283531E+02 -0.69266748989E+03  0.72308944409E+03  0.12699999809E+01 0. -1.
</event>
<event>
 5   0  0.7531632E-02  0.4877206E+03  0.7818609E-02  0.1017035E+00
       -1   -1    0    0    0  501  0.00000000000E+00  0.00000000000E+00  0.16533545408E+03  0.16533545416E+03  0.50400001928E-02 0.  1.
        1   -1    0    0  501    0  0.00000000000E+00  0.00000000000E+00 -0.35968000619E+03  0.35968000622E+03  0.50400001928E-02 0. -1.
    10030    2    1    2    0    0  0.00000000000E+00  0.00000000000E+00 -0.19434455210E+03  0.52501546038E+03  0.48772064618E+03 0.  0.
        3    1    3    3  502    0 -0.25212250580E+02 -0.24087147255E+03 -0.12786808648E+03  0.27387037373E+03  0.10100000352E+00 0. -1.
       -3    1    3    3    0  502  0.25212250580E+02  0.24087147255E+03 -0.66476465627E+02  0.25114508665E+03  0.10100000352E+00 0.  1.
</event>
<event>
 5   0  0.5006750E-02  0.4999391E+03  0.7818609E-02  0.1013795E+00
       -3   -1    0    0    0  501  0.00000000000E+00  0.00000000000E+00  0.48270509664E+02  0.48270615329E+02  0.10100000352E+00 0.  1.
        3   -1    0    0  501    0  0.00000000000E+00  0.00000000000E+00 -0.12944694913E+04  0.12944694952E+04  0.10100000352E+00 0. -1.
    10030    2    1    2    0    0  0.00000000000E+00  0.00000000000E+00 -0.12461989816E+04  0.13427401106E+04  0.49993909899E+03 0.  0.
        3    1    3    3  502    0 -0.59827993530E+01 -0.11621841931E+03 -0.12172778464E+04  0.12228278212E+04  0.10100000352E+00 0. -1.
       -3    1    3    3    0  502  0.59827993530E+01  0.11621841931E+03 -0.28921135276E+02  0.11991228936E+03  0.10100000352E+00 0.  1.
</event>
<event>
 5   0  0.1279188E-01  0.4974855E+03  0.7818609E-02  0.1014437E+00
       -2   -1    0    0    0  501  0.00000000000E+00  0.00000000000E+00  0.11496257285E+03  0.11496257287E+03  0.25500000920E-02 0. -1.
        2   -1    0    0  501    0  0.00000000000E+00  0.00000000000E+00 -0.53820095032E+03  0.53820095032E+03  0.25500000920E-02 0.  1.
    10030    2    1    2    0    0  0.00000000000E+00  0.00000000000E+00 -0.42323837747E+03  0.65316352320E+03  0.49748554137E+03 0.  0.
        2    1    3    3  502    0  0.22892760619E+03 -0.37189768519E+02 -0.93586606275E+02  0.25009874178E+03  0.25500000920E-02 0. -1.
       -2    1    3    3    0  502 -0.22892760619E+03  0.37189768519E+02 -0.32965177120E+03  0.40306478142E+03  0.25500000920E-02 0.  1.
</event>
<event>
 5   0  0.5006750E-02  0.4945658E+03  0.7818609E-02  0.1015207E+00
        4   -1    0    0  501    0  0.00000000000E+00  0.00000000000E+00  0.10453376643E+04  0.10453384357E+04  0.12699999809E+01 0.  1.
       -4   -1    0    0    0  501  0.00000000000E+00  0.00000000000E+00 -0.58489035092E+02  0.58502821521E+02  0.12699999809E+01 0. -1.
    10030    2    1    2    0    0  0.00000000000E+00  0.00000000000E+00  0.98684862918E+03  0.11038412573E+04  0.49456577351E+03 0.  0.
        1    1    3    3  502    0  0.85913520324E+02  0.99614774781E+02  0.96077250979E+03  0.96973607334E+03  0.50400001928E-02 0.  1.
       -1    1    3    3    0  502 -0.85913520324E+02 -0.99614774781E+02  0.26076119387E+02  0.13410518393E+03  0.50400001928E-02 0. -1.
</event>
<event>
 5   0  0.1211345E-01  0.4962402E+03  0.7818609E-02  0.1014765E+00
        2   -1    0    0  501    0  0.00000000000E+00  0.00000000000E+00  0.99725144977E+03  0.99725144978E+03  0.25500000920E-02 0. -1.
       -2   -1    0    0    0  501  0.00000000000E+00  0.00000000000E+00 -0.61733259212E+02  0.61733259265E+02  0.25500000920E-02 0.  1.
    10030    2    1    2    0    0  0.00000000000E+00  0.00000000000E+00  0.93551819056E+03  0.10589847090E+04  0.49624019296E+03 0.  0.
        5    1    3    3  502    0  0.98895410236E+02  0.15346765303E+03  0.10934045020E+03  0.21286156708E+03  0.46999998093E+01 0.  1.
       -5    1    3    3    0  502 -0.98895410236E+02 -0.15346765303E+03  0.82617774036E+03  0.84612314196E+03  0.46999998093E+01 0. -1.
</event>
<event>
 5   0  0.7416638E-02  0.4995567E+03  0.7818609E-02  0.1013895E+00
       -1   -1    0    0    0  501  0.00000000000E+00  0.00000000000E+00  0.55605021226E+02  0.55605021454E+02  0.50400001928E-02 0. -1.
        1   -1    0    0  501    0  0.00000000000E+00  0.00000000000E+00 -0.11220069745E+04  0.11220069745E+04  0.50400001928E-02 0.  1.
    10030    2    1    2    0    0  0.00000000000E+00  0.00000000000E+00 -0.10664019533E+04  0.11776119960E+04  0.49955669058E+03 0.  0.
        1    1    3    3  502    0 -0.56281463528E+02 -0.16834505876E+03 -0.11894664793E+03  0.21367256966E+03  0.50400001928E-02 0. -1.
       -1    1    3    3    0  502  0.56281463528E+02  0.16834505876E+03 -0.94745530538E+03  0.96393942634E+03  0.50400001928E-02 0.  1.
</event>
<event>
 5   0  0.1191894E-01  0.5027330E+03  0.7818609E-02  0.1013068E+00
        2   -1    0    0  501    0  0.00000000000E+00  0.00000000000E+00  0.77683913896E+03  0.77683913896E+03  0.25500000920E-02 0.  1.
       -2   -1    0    0    0  501  0.00000000000E+00  0.00000000000E+00 -0.81336157191E+02  0.81336157231E+02  0.25500000920E-02 0. -1.
    10030    2    1    2    0    0  0.00000000000E+00  0.00000000000E+00  0.69550298177E+03  0.85817529620E+03  0.50273297221E+03 0.  0.
        3    1    3    3  502    0 -0.83806215969E+02  0.22467277468E+03  0.47644498857E+03  0.53338651544E+03  0.10100000352E+00 0.  1.
       -3    1    3    3    0  502  0.83806215969E+02 -0.22467277468E+03  0.21905799320E+03  0.32478878076E+03  0.10100000352E+00 0. -1.
</event>
<event>
 5   0  0.1211345E-01  0.4902857E+03  0.7818609E-02  0.1016346E+00
       -2   -1    0    0    0  501  0.00000000000E+00  0.00000000000E+00  0.14030840648E+03  0.14030840650E+03  0.25500000920E-02 0.  1.
        2   -1    0    0  501    0  0.00000000000E+00  0.00000000000E+00 -0.42830665972E+03  0.42830665973E+03  0.25500000920E-02 0. -1.
    10030    2    1    2    0    0  0.00000000000E+00  0.00000000000E+00 -0.28799825324E+03  0.56861506623E+03  0.49028573268E+03 0.  0.
        5    1    3    3  502    0 -0.20731145359E+03  0.11407343883E+03 -0.21809830804E+03  0.32183808072E+03  0.46999998093E+01 0. -1.
       -5    1    3    3    0  502  0.20731145359E+03 -0.11407343883E+03 -0.69899945204E+02  0.24677698550E+03  0.46999998093E+01 0.  1.
</event>
<event>
 5   0  0.7416638E-02  0.4803216E+03  0.7818609E-02  0.1019047E+00
        1   -1    0    0  501    0  0.00000000000E+00  0.00000000000E+00  0.41760113553E+03  0.41760113556E+03  0.50400001928E-02 0.  1.
       -1   -1    0    0    0  501  0.00000000000E+00  0.00000000000E+00 -0.13811556072E+03  0.13811556081E+03  0.50400001928E-02 0. -1.
    10030    2    1    2    0    0  0.00000000000E+00  0.00000000000E+00  0.27948557481E+03  0.55571669638E+03  0.48032162153E+03 0.  0.
        1    1    3    3  502    0  0.17206203018E+03  0.15351941708E+03  0.62099454083E+02  0.23880932953E+03  0.50400001928E-02 0. -1.
       -1    1    3    3    0  502 -0.17206203018E+03 -0.15351941708E+03  0.21738612073E+03  0.31690736684E+03  0.50400001928E-02 0.  1.
</event>
<event>
 5   0  0.1279188E-01  0.4986575E+03  0.7818609E-02  0.1014130E+00
       -2   -1    0    0    0  501  0.00000000000E+00  0.00000000000E+00  0.23802312259E+02  0.23802312395E+02  0.25500000920E-02 0. -1.
        2   -1    0    0  501    0  0.00000000000E+00  0.00000000000E+00 -0.26117136341E+04  0.26117136341E+04  0.25500000920E-02 0.  1.
    10030    2    1    2    0    0  0.00000000000E+00  0.00000000000E+00 -0.25879113218E+04  0.26355159465E+04  0.49865749219E+03 0.  0.
        2    1    3    3  502    0 -0.98750321888E+02 -0.60444509358E+02 -0.24610168557E+04  0.24637388516E+04  0.25500000920E-02 0.  1.
       -2    1    3    3    0  502  0.98750321888E+02  0.60444509358E+02 -0.12689446607E+03  0.17177709483E+03  0.25500000920E-02 0. -1.
</event>
<event>
 5   0  0.1211345E-01  0.4997129E+03  0.7818609E-02  0.1013854E+00
        2   -1    0    0  501    0  0.00000000000E+00  0.00000000000E+00  0.38187487784E+03  0.38187487785E+03  0.25500000920E-02 0. -1.
       -2   -1    0    0    0  501  0.00000000000E+00  0.00000000000E+00 -0.16347826081E+03  0.16347826083E+03  0.25500000920E-02 0.  1.
    10030    2    1    2    0    0  0.00000000000E+00  0.00000000000E+00  0.21839661703E+03  0.54535313867E+03  0.49971288109E+03 0.  0.
        5    1    3    3  502    0  0.93870562759E+02  0.23150479013E+03  0.10917443436E+03  0.27266700849E+03  0.46999998093E+01 0. -1.
       -5    1    3    3    0  502 -0.93870562759E+02 -0.23150479013E+03  0.10922218267E+03  0.27268613018E+03  0.46999998093E+01 0.  1.
</event>
<event>
 5   0  0.7781754E-02  0.4992827E+03  0.7818609E-02  0.1013966E+00
       -1   -1    0    0    0  501  0.00000000000E+00  0.00000000000E+00  0.10136206996E+03  0.10136207008E+03  0.50400001928E-02 0.  1.
        1   -1    0    0  501    0  0.00000000000E+00  0.00000000000E+00 -0.61483364110E+03  0.61483364112E+03  0.50400001928E-02 0. -1.
    10030    2    1    2    0    0  0.00000000000E+00  0.00000000000E+00 -0.51347157114E+03  0.71619571120E+03  0.49928272789E+03 0.  0.
        2    1    3    3  502    0  0.24109096674E+03  0.50006480802E+02 -0.19767360087E+03  0.31575363000E+03  0.25500000920E-02 0. -1.
       -2    1    3    3    0  502 -0.24109096674E+03 -0.50006480802E+02 -0.31579797027E+03  0.40044208120E+03  0.25500000920E-02 0.  1.
</event>
<event>
 5   0  0.1211345E-01  0.4977745E+03  0.7818609E-02  0.1014361E+00
        2   -1    0    0  501    0  0.00000000000E+00  0.00000000000E+00  0.81532426484E+03  0.81532426484E+03  0.25500000920E-02 0.  1.
       -2   -1    0    0    0  501  0.00000000000E+00  0.00000000000E+00 -0.75975751350E+02  0.75975751393E+02  0.25500000920E-02 0. -1.
    10030    2    1    2    0    0  0.00000000000E+00  0.00000000000E+00  0.73934851349E+03  0.89130001623E+03  0.49777454188E+03 0.  0.
        5    1    3    3  502    0  0.15292220637E+03 -0.13599172515E+03  0.11617212117E+03  0.23536567771E+03  0.46999998093E+01 0.  1.
       -5    1    3    3    0  502 -0.15292220637E+03  0.13599172515E+03  0.62317639232E+03  0.65593433852E+03  0.46999998093E+01 0. -1.
</event>
<event>
 5   0  0.7812547E-02  0.4996572E+03  0.7818609E-02  0.1013868E+00
        1   -1    0    0  501    0  0.00000000000E+00  0.00000000000E+00  0.12572171901E+04  0.12572171901E+04  0.50400001928E-02 0. -1.
       -1   -1    0    0    0  501  0.00000000000E+00  0.00000000000E+00 -0.49644820874E+02  0.49644821130E+02  0.50400001928E-02 0.  1.
    10030    2    1    2    0    0  0.00000000000E+00  0.00000000000E+00  0.12075723692E+04  0.13068620112E+04  0.49965717197E+03 0.  0.
        4    1    3    3  502    0 -0.15330039963E+03  0.88457082128E+02  0.10649415917E+04  0.10795498481E+04  0.12699999809E+01 0. -1.
       -4    1    3    3    0  502  0.15330039963E+03 -0.88457082128E+02  0.14263077748E+03  0.22731216310E+03  0.12699999809E+01 0.  1.
</event>
<event>
 5   0  0.7602288E-02  0.5367686E+03  0.7818609E-02  0.1004604E+00
       -1   -1    0    0    0  501  0.00000000000E+00  0.00000000000E+00  0.52673759718E+03  0.52673759721E+03  0.50400001928E-02 0. -1.
        1   -1    0    0  501    0  0.00000000000E+00  0.00000000000E+00 -0.13674767900E+03  0.13674767909E+03  0.50400001928E-02 0.  1.
    10030    2    1    2    0    0  0.00000000000E+00  0.00000000000E+00  0.38998991818E+03  0.66348527630E+03  0.53676864251E+03 0.  0.
        5    1    3    3  502    0  0.25479451941E+03 -0.72592442649E+02  0.14228917281E+03  0.30076271137E+03  0.46999998093E+01 0.  1.
       -5    1    3    3    0  502 -0.25479451941E+03  0.72592442649E+02  0.24770074537E+03  0.36272256493E+03  0.46999998093E+01 0. -1.
</event>
<event>
 5   0  0.7602288E-02  0.5004789E+03  0.7818609E-02  0.1013654E+00
       -1   -1    0    0    0  501  0.00000000000E+00  0.00000000000E+00  0.62245128209E+03  0.62245128211E+03  0.50400001928E-02 0. -1.
        1   -1    0    0  501    0  0.00000000000E+00  0.00000000000E+00 -0.10060190349E+03  0.10060190362E+03  0.50400001928E-02 0.  1.
    10030    2    1    2    0    0  0.00000000000E+00  0.00000000000E+00  0.52184937860E+03  0.72305318573E+03  0.50047890610E+03 0.  0.
        5    1    3    3  502    0 -0.86098320743E+02  0.17621540328E+02  0.59935463331E+03  0.60578173130E+03  0.46999998093E+01 0. -1.
       -5    1    3    3    0  502  0.86098320743E+02 -0.17621540328E+02 -0.77505254704E+02  0.11727145443E+03  0.46999998093E+01 0.  1.
</event>
<event>
 5   0  0.7602288E-02  0.5019075E+03  0.7818609E-02  0.1013282E+00
       -1   -1    0    0    0  501  0.00000000000E+00  0.00000000000E+00  0.74950188559E+02  0.74950188728E+02  0.50400001928E-02 0. -1.
        1   -1    0    0  501    0  0.00000000000E+00  0.00000000000E+00 -0.84026171521E+03  0.84026171522E+03  0.50400001928E-02 0.  1.
    10030    2    1    2    0    0  0.00000000000E+00  0.00000000000E+00 -0.76531152665E+03  0.91521190395E+03  0.50190745792E+03 0.  0.
        5    1    3    3  502    0 -0.32761276860E+02 -0.84326452786E+02 -0.80940726680E+03  0.81446084341E+03  0.46999998093E+01 0.  1.
       -5    1    3    3    0  502  0.32761276860E+02  0.84326452786E+02  0.44095740156E+02  0.10075106054E+03  0.46999998093E+01 0. -1.
</event>
<event>
 5   0  0.1191894E-01  0.5003608E+03  0.7818609E-02  0.1013685E+00
        2   -1    0    0  501    0  0.00000000000E+00  0.00000000000E+00  0.20041122923E+04  0.20041122923E+04  0.25500000920E-02 0.  1.
       -2   -1    0    0    0  501  0.00000000000E+00  0.00000000000E+00 -0.31230905992E+02  0.31230906096E+02  0.25500000920E-02 0. -1.
    10030    2    1    2    0    0  0.00000000000E+00  0.00000000000E+00  0.19728813863E+04  0.20353431984E+04  0.50036084061E+03 0.  0.
        3    1    3    3  502    0 -0.47171560305E+02 -0.11495200371E+03  0.18697245887E+04  0.18738487578E+04  0.10100000352E+00 0.  1.
       -3    1    3    3    0  502  0.47171560305E+02  0.11495200371E+03  0.10315679763E+03  0.16149444064E+03  0.10100000352E+00 0. -1.
</event>
<event>
 5   0  0.7531632E-02  0.4940299E+03  0.7818609E-02  0.1015349E+00
       -1   -1    0    0    0  501  0.00000000000E+00  0.00000000000E+00  0.20664181261E+03  0.20664181267E+03  0.50400001928E-02 0. -1.
        1   -1    0    0  501    0  0.00000000000E+00  0.00000000000E+00 -0.29527614144E+03  0.29527614149E+03  0.50400001928E-02 0.  1.
    10030    2    1    2    0    0  0.00000000000E+00  0.00000000000E+00 -0.88634328833E+02  0.50191795416E+03  0.49402994693E+03 0.  0.
        3    1    3    3  502    0  0.10377977715E+03  0.22289535248E+03 -0.68440898845E+02  0.25521901797E+03  0.10100000352E+00 0.  1.
       -3    1    3    3    0  502 -0.10377977715E+03 -0.22289535248E+03 -0.20193429987E+02  0.24669893619E+03  0.10100000352E+00 0. -1.
</event>
<event>
 5   0  0.7602288E-02  0.5023344E+03  0.7818609E-02  0.1013171E+00
        1   -1    0    0  501    0  0.00000000000E+00  0.00000000000E+00  0.15098087001E+03  0.15098087009E+03  0.50400001928E-02 0. -1.
       -1   -1    0    0    0  501  0.00000000000E+00  0.00000000000E+00 -0.41783413242E+03  0.41783413245E+03  0.50400001928E-02 0.  1.
    10030    2    1    2    0    0  0.00000000000E+00  0.00000000000E+00 -0.26685326242E+03  0.56881500255E+03  0.50233439406E+03 0.  0.
        5    1    3    3  502    0  0.89709031175E+02 -0.18258018266E+03  0.33299677778E+02  0.20618969885E+03  0.46999998093E+01 0. -1.
       -5    1    3    3    0  502 -0.89709031175E+02  0.18258018266E+03 -0.30015294020E+03  0.36262530370E+03  0.46999998093E+01 0.  1.
</event>
<event>
 5   0  0.1191894E-01  0.4567786E+03  0.7818609E-02  0.1025720E+00
       -2   -1    0    0    0  501  0.00000000000E+00  0.00000000000E+00  0.36015858809E+02  0.36015858899E+02  0.25500000920E-02 0. -1.
        2   -1    0    0  501    0  0.00000000000E+00  0.00000000000E+00 -0.14482972899E+04  0.14482972899E+04  0.25500000920E-02 0.  1.
    10030    2    1    2    0    0  0.00000000000E+00  0.00000000000E+00 -0.14122814311E+04  0.14843131488E+04  0.45677859309E+03 0.  0.
        3    1    3    3  502    0  0.56211818308E+02 -0.10870240688E+03 -0.79515814633E+02  0.14594093585E+03  0.10100000352E+00 0. -1.
       -3    1    3    3    0  502 -0.56211818308E+02  0.10870240688E+03 -0.13327656165E+04  0.13383722130E+04  0.10100000352E+00 0.  1.
</event>
<event>
 5   0  0.5006750E-02  0.5194134E+03  0.7818609E-02  0.1008832E+00
        3   -1    0    0  501    0  0.00000000000E+00  0.00000000000E+00  0.25650463720E+03  0.25650465708E+03  0.10100000352E+00 0.  1.
       -3   -1    0    0    0  501  0.00000000000E+00  0.00000000000E+00 -0.26294874281E+03  0.26294876220E+03  0.10100000352E+00 0. -1.
    10030    2    1    2    0    0  0.00000000000E+00  0.00000000000E+00 -0.64441056064E+01  0.51945341929E+03  0.51941344641E+03 0.  0.
        5    1    3    3  502    0 -0.31060001497E+02 -0.83138690106E+02 -0.24726691019E+03  0.26275422044E+03  0.46999998093E+01 0. -1.
       -5    1    3    3    0  502  0.31060001497E+02  0.83138690106E+02  0.24082280458E+03  0.25669919885E+03  0.46999998093E+01 0.  1.
</event>
<event>
 5   0  0.1231822E-01  0.4960676E+03  0.7818609E-02  0.1014810E+00
       -2   -1    0    0    0  501  0.00000000000E+00  0.00000000000E+00  0.88113077660E+02  0.88113077697E+02  0.25500000920E-02 0. -1.
        2   -1    0    0  501    0  0.00000000000E+00  0.00000000000E+00 -0.69820253810E+03  0.69820253810E+03  0.25500000920E-02 0.  1.
    10030    2    1    2    0    0  0.00000000000E+00  0.00000000000E+00 -0.61008946043E+03  0.78631561580E+03  0.49606763441E+03 0.  0.
        1    1    3    3  502    0 -0.93422718740E+02 -0.16963551619E+03 -0.55069273019E+03  0.58375208423E+03  0.50400001928E-02 0. -1.
       -1    1    3    3    0  502  0.93422718740E+02  0.16963551619E+03 -0.59396730241E+02  0.20256353156E+03  0.50400001928E-02 0.  1.
</event>
<event>
 5   0  0.1243803E-01  0.5021615E+03  0.7818609E-02  0.1013216E+00
        2   -1    0    0  501    0  0.00000000000E+00  0.00000000000E+00  0.75891204980E+03  0.75891204981E+03  0.25500000920E-02 0.  1.
       -2   -1    0    0    0  501  0.00000000000E+00  0.00000000000E+00 -0.83068297873E+02  0.83068297912E+02  0.25500000920E-02 0. -1.
    10030    2    1    2    0    0  0.00000000000E+00  0.00000000000E+00  0.67584375193E+03  0.84198034772E+03  0.50216145703E+03 0.  0.
        4    1    3    3  502    0  0.11045354698E+03 -0.21246878865E+03  0.46447698261E+03  0.52257387273E+03  0.12699999809E+01 0. -1.
       -4    1    3    3    0  502 -0.11045354698E+03  0.21246878865E+03  0.21136676932E+03  0.31940647499E+03  0.12699999809E+01 0.  1.
</event>
<event>
 5   0  0.5006750E-02  0.5012759E+03  0.7818609E-02  0.1013446E+00
        3   -1    0    0  501    0  0.00000000000E+00  0.00000000000E+00  0.15878339298E+03  0.15878342510E+03  0.10100000352E+00 0. -1.
       -3   -1    0    0    0  501  0.00000000000E+00  0.00000000000E+00 -0.39562941614E+03  0.39562942903E+03  0.10100000352E+00 0.  1.
    10030    2    1    2    0    0  0.00000000000E+00  0.00000000000E+00 -0.23684602316E+03  0.55441285413E+03  0.50127594610E+03 0.  0.
        3    1    3    3  502    0 -0.49697520997E+02  0.15767233527E+03 -0.32677763892E+03  0.36621584401E+03  0.10100000352E+00 0.  1.
       -3    1    3    3    0  502  0.49697520997E+02 -0.15767233527E+03  0.89931615763E+02  0.18819701012E+03  0.10100000352E+00 0. -1.
</event>
<event>
 5   0  0.7781754E-02  0.4592242E+03  0.7818609E-02  0.1025006E+00
       -1   -1    0    0    0  501  0.00000000000E+00  0.00000000000E+00  0.31858249253E+02  0.31858249652E+02  0.50400001928E-02 0.  1.
        1   -1    0    0  501    0  0.00000000000E+00  0.00000000000E+00 -0.16548839637E+04  0.16548839637E+04  0.50400001928E-02 0. -1.
    10030    2    1    2    0    0  0.00000000000E+00  0.00000000000E+00 -0.16230257145E+04  0.16867422134E+04  0.45922415504E+03 0.  0.
        2    1    3    3  502    0 -0.81731102655E+02 -0.20760831148E+03 -0.61233722387E+03  0.65171931065E+03  0.25500000920E-02 0. -1.
       -2    1    3    3    0  502  0.81731102655E+02  0.20760831148E+03 -0.10106884906E+04  0.10350229027E+04  0.25500000920E-02 0.  1.
</event>
<event>
 5   0  0.1211345E-01  0.4972910E+03  0.7818609E-02  0.1014488E+00
       -2   -1    0    0    0  501  0.00000000000E+00  0.00000000000E+00  0.12835767920E+03  0.12835767922E+03  0.25500000920E-02 0. -1.
        2   -1    0    0  501    0  0.00000000000E+00  0.00000000000E+00 -0.48165854005E+03  0.48165854006E+03  0.25500000920E-02 0.  1.
    10030    2    1    2    0    0  0.00000000000E+00  0.00000000000E+00 -0.35330086086E+03  0.61001621928E+03  0.49729095056E+03 0.  0.
        5    1    3    3  502    0  0.16212397779E+03  0.70209346011E+02  0.37891943601E+02  0.18075238817E+03  0.46999998093E+01 0. -1.
       -5    1    3    3    0  502 -0.16212397779E+03 -0.70209346011E+02 -0.39119280446E+03  0.42926383111E+03  0.46999998093E+01 0.  1.
</event>
<event>
 5   0  0.7812547E-02  0.5002226E+03  0.7818609E-02  0.1013721E+00
        1   -1    0    0  501    0  0.00000000000E+00  0.00000000000E+00  0.32627877585E+03  0.32627877589E+03  0.50400001928E-02 0.  1.
       -1   -1    0    0    0  501  0.00000000000E+00  0.00000000000E+00 -0.19172454797E+03  0.19172454804E+03  0.50400001928E-02 0. -1.
    10030    2    1    2    0    0  0.00000000000E+00  0.00000000000E+00  0.13455422788E+03  0.51800332393E+03  0.50022255383E+03 0.  0.
        4    1    3    3  502    0 -0.25561033247E+02 -0.18408518115E+03 -0.10604403127E+03  0.21398053605E+03  0.12699999809E+01 0. -1.
       -4    1    3    3    0  502  0.25561033247E+02  0.18408518115E+03  0.24059825915E+03  0.30402278788E+03  0.12699999809E+01 0.  1.
</event>
<event>
 5   0  0.1231822E-01  0.5310857E+03  0.7818609E-02  0.1005969E+00
       -2   -1    0    0    0  501  0.00000000000E+00  0.00000000000E+00  0.62984801229E+02  0.62984801281E+02  0.25500000920E-02 0.  1.
        2   -1    0    0  501    0  0.00000000000E+00  0.00000000000E+00 -0.11195242561E+04  0.11195242561E+04  0.25500000920E-02 0. -1.
    10030    2    1    2    0    0  0.00000000000E+00  0.00000000000E+00 -0.10565394548E+04  0.11825090573E+04  0.53108572856E+03 0.  0.
        1    1    3    3  502    0 -0.26469885641E+03 -0.15541098191E+02 -0.56022746418E+03  0.61980789117E+03  0.50400001928E-02 0.  1.
       -1    1    3    3    0  502  0.26469885641E+03  0.15541098191E+02 -0.49631199065E+03  0.56270116616E+03  0.50400001928E-02 0. -1.
</event>
<event>
 5   0  0.1211345E-01  0.5023750E+03  0.7818609E-02  0.1013161E+00
        2   -1    0    0  501    0  0.00000000000E+00  0.00000000000E+00  0.37269749908E+03  0.37269749909E+03  0.25500000920E-02 0.  1.
       -2   -1    0    0    0  501  0.00000000000E+00  0.00000000000E+00 -0.16929324826E+03  0.16929324828E+03  0.25500000920E-02 0. -1.
    10030    2    1    2    0    0  0.00000000000E+00  0.00000000000E+00  0.20340425082E+03  0.54199074737E+03  0.50237504017E+03 0.  0.
        5    1    3    3  502    0  0.91654076340E+02 -0.13070725334E+02  0.35356787237E+03  0.36551832231E+03  0.46999998093E+01 0.  1.
       -5    1    3    3    0  502 -0.91654076340E+02  0.13070725334E+02 -0.15016362155E+03  0.17647242506E+03  0.46999998093E+01 0. -1.
</event>
<event>
 5   0  0.1279188E-01  0.4931581E+03  0.7818609E-02  0.1015580E+00
        2   -1    0    0  501    0  0.00000000000E+00  0.00000000000E+00  0.13976725095E+03  0.13976725097E+03  0.25500000920E-02 0.  1.
       -2   -1    0    0    0  501  0.00000000000E+00  0.00000000000E+00 -0.43501772638E+03  0.43501772638E+03  0.25500000920E-02 0. -1.
    10030    2    1    2    0    0  0.00000000000E+00  0.00000000000E+00 -0.29525047543E+03  0.57478497736E+03  0.49315811557E+03 0.  0.
        2    1    3    3  502    0 -0.23344611665E+03 -0.33719976048E+02 -0.63844748544E+02  0.24435686626E+03  0.25500000920E-02 0.  1.
       -2    1    3    3    0  502  0.23344611665E+03  0.33719976048E+02 -0.23140572688E+03  0.33042811110E+03  0.25500000920E-02 0. -1.
</event>
<event>
 5   0  0.7416638E-02  0.4981483E+03  0.7818609E-02  0.1014263E+00
        1   -1    0    0  501    0  0.00000000000E+00  0.00000000000E+00  0.38647357887E+03  0.38647357890E+03  0.50400001928E-02 0.  1.
       -1   -1    0    0    0  501  0.00000000000E+00  0.00000000000E+00 -0.16052307819E+03  0.16052307827E+03  0.50400001928E-02 0. -1.
    10030    2    1    2    0    0  0.00000000000E+00  0.00000000000E+00  0.22595050068E+03  0.54699665717E+03  0.49814828535E+03 0.  0.
        1    1    3    3  502    0  0.23229331380E+03 -0.83285988924E+02  0.15006934783E+03  0.28882096318E+03  0.50400001928E-02 0.  1.
       -1    1    3    3    0  502 -0.23229331380E+03  0.83285988924E+02  0.75881152852E+02  0.25817569400E+03  0.50400001928E-02 0. -1.
</event>
<event>
 5   0  0.7812547E-02  0.5002274E+03  0.7818609E-02  0.1013720E+00
       -1   -1    0    0    0  501  0.00000000000E+00  0.00000000000E+00  0.98259729107E+02  0.98259729236E+02  0.50400001928E-02 0. -1.
        1   -1    0    0  501    0  0.00000000000E+00  0.00000000000E+00 -0.63664791658E+03  0.63664791660E+03  0.50400001928E-02 0.  1.
    10030    2    1    2    0    0  0.00000000000E+00  0.00000000000E+00 -0.53838818747E+03  0.73490764584E+03  0.50022735581E+03 0.  0.
        4    1    3    3  502    0 -0.14839877799E+03  0.19893966724E+03 -0.22376796410E+03  0.33417495892E+03  0.12699999809E+01 0. -1.
       -4    1    3    3    0  502  0.14839877799E+03 -0.19893966724E+03 -0.31462022338E+03  0.40073268692E+03  0.12699999809E+01 0.  1.
</event>
<event>
 5   0  0.1279188E-01  0.5222954E+03  0.7818609E-02  0.1008118E+00
       -2   -1    0    0    0  501  0.00000000000E+00  0.00000000000E+00  0.31962806323E+02  0.31962806425E+02  0.25500000920E-02 0. -1.
        2   -1    0    0  501    0  0.00000000000E+00  0.00000000000E+00 -0.21336715345E+04  0.21336715345E+04  0.25500000920E-02 0.  1.
    10030    2    1    2    0    0  0.00000000000E+00  0.00000000000E+00 -0.21017087282E+04  0.21656343410E+04  0.52229543413E+03 0.  0.
        2    1    3    3  502    0  0.15356995074E+03  0.19730528909E+01 -0.19266191568E+04  0.19327309688E+04  0.25500000920E-02 0.  1.
       -2    1    3    3    0  502 -0.15356995074E+03 -0.19730528909E+01 -0.17508957146E+03  0.23290337213E+03  0.25500000920E-02 0. -1.
</event>
<event>
 5   0  0.1211345E-01  0.4986758E+03  0.7818609E-02  0.1014125E+00
       -2   -1    0    0    0  501  0.00000000000E+00  0.00000000000E+00  0.10818022412E+03  0.10818022415E+03  0.25500000920E-02 0. -1.
        2   -1    0    0  501    0  0.00000000000E+00  0.00000000000E+00 -0.57468351483E+03  0.57468351484E+03  0.25500000920E-02 0.  1.
    10030    2    1    2    0    0  0.00000000000E+00  0.00000000000E+00 -0.46650329071E+03  0.68286373899E+03  0.49867581231E+03 0.  0.
        5    1    3    3  502    0 -0.22295349129E+03  0.55547532473E+01 -0.80716503276E+02  0.23722638652E+03  0.46999998093E+01 0. -1.
       -5    1    3    3    0  502  0.22295349129E+03 -0.55547532473E+01 -0.38578678743E+03  0.44563735247E+03  0.46999998093E+01 0.  1.
</event>
<event>
 5   0  0.7812547E-02  0.5004736E+03  0.7818609E-02  0.1013655E+00
       -1   -1    0    0    0  501  0.00000000000E+00  0.00000000000E+00  0.18226740574E+03  0.18226740581E+03  0.50400001928E-02 0.  1.
        1   -1    0    0  501    0  0.00000000000E+00  0.00000000000E+00 -0.34355268749E+03  0.34355268753E+03  0.50400001928E-02 0. -1.
    10030    2    1    2    0    0  0.00000000000E+00  0.00000000000E+00 -0.16128528175E+03  0.52582009334E+03  0.50047360415E+03 0.  0.
        4    1    3    3  502    0 -0.21711633079E+03 -0.17609606783E+02  0.48749932456E+02  0.22322134342E+03  0.12699999809E+01 0.  1.
       -4    1    3    3    0  502  0.21711633079E+03  0.17609606783E+02 -0.21003521420E+03  0.30259874991E+03  0.12699999809E+01 0. -1.
</event>
<event>
 5   0  0.7781754E-02  0.5024974E+03  0.7818609E-02  0.1013129E+00
        1   -1    0    0  501    0  0.00000000000E+00  0.00000000000E+00  0.17788084214E+03  0.17788084221E+03  0.50400001928E-02 0.  1.
       -1   -1    0    0    0  501  0.00000000000E+00  0.00000000000E+00 -0.35487750028E+03  0.35487750031E+03  0.50400001928E-02 0. -1.
    10030    2    1    2    0    0  0.00000000000E+00  0.00000000000E+00 -0.17699665813E+03  0.53275834252E+03  0.50249739754E+03 0.  0.
        2    1    3    3  502    0 -0.94094357607E+02  0.14636276220E+03 -0.28065913241E+03  0.33022016126E+03  0.25500000920E-02 0. -1.
       -2    1    3    3    0  502  0.94094357607E+02 -0.14636276220E+03  0.10366247427E+03  0.20253818127E+03  0.25500000920E-02 0.  1.
</event>
<event>
 5   0  0.5006750E-02  0.5006427E+03  0.7818609E-02  0.1013611E+00
       -3   -1    0    0    0  501  0.00000000000E+00  0.00000000000E+00  0.60446637249E+03  0.60446638093E+03  0.10100000352E+00 0.  1.
        3   -1    0    0  501    0  0.00000000000E+00  0.00000000000E+00 -0.10366293104E+03  0.10366298024E+03  0.10100000352E+00 0. -1.
    10030    2    1    2    0    0  0.00000000000E+00  0.00000000000E+00  0.50080344146E+03  0.70812936117E+03  0.50064269212E+03 0.  0.
        4    1    3    3  502    0 -0.92216303049E+02 -0.20625204273E+03  0.40284280351E+03  0.46187410505E+03  0.12699999809E+01 0. -1.
       -4    1    3    3    0  502  0.92216303049E+02  0.20625204273E+03  0.97960637948E+02  0.24625525612E+03  0.12699999809E+01 0.  1.
</event>
<event>
 5   0  0.1243803E-01  0.4815703E+03  0.7818609E-02  0.1018704E+00
        2   -1    0    0  501    0  0.00000000000E+00  0.00000000000E+00  0.12229108753E+04  0.12229108753E+04  0.25500000920E-02 0. -1.
       -2   -1    0    0    0  501  0.00000000000E+00  0.00000000000E+00 -0.47409415693E+02  0.47409415761E+02  0.25500000920E-02 0.  1.
    10030    2    1    2    0    0  0.00000000000E+00  0.00000000000E+00  0.11755014596E+04  0.12703202910E+04  0.48157030675E+03 0.  0.
        4    1    3    3  502    0 -0.84789783474E+02 -0.81444580295E+02  0.33462871995E+02  0.12224526062E+03  0.12699999809E+01 0.  1.
       -4    1    3    3    0  502  0.84789783474E+02  0.81444580295E+02  0.11420385876E+04  0.11480750304E+04  0.12699999809E+01 0. -1.
</event>
<event>
 5   0  0.7602288E-02  0.5145938E+03  0.7818609E-02  0.1010038E+00
        1   -1    0    0  501    0  0.00000000000E+00  0.00000000000E+00  0.12889176714E+04  0.12889176714E+04  0.50400001928E-02 0. -1.
       -1   -1    0    0    0  501  0.00000000000E+00  0.00000000000E+00 -0.51362232649E+02  0.51362232896E+02  0.50400001928E-02 0.  1.
    10030    2    1    2    0    0  0.00000000000E+00  0.00000000000E+00  0.12375554387E+04  0.13402799043E+04  0.51459377950E+03 0.  0.
        5    1    3    3  502    0  0.95516009604E+02  0.14905299104E+03  0.13263149907E+03  0.22125394182E+03  0.46999998093E+01 0.  1.
       -5    1    3    3    0  502 -0.95516009604E+02 -0.14905299104E+03  0.11049239396E+04  0.11190259624E+04  0.46999998093E+01 0. -1.
</event>
<event>
 5   0  0.1243803E-01  0.4913381E+03  0.7818609E-02  0.1016065E+00
        2   -1    0    0  501    0  0.00000000000E+00  0.00000000000E+00  0.13535299387E+04  0.13535299387E+04  0.25500000920E-02 0.  1.
       -2   -1    0    0    0  501  0.00000000000E+00  0.00000000000E+00 -0.44589551157E+02  0.44589551230E+02  0.25500000920E-02 0. -1.
    10030    2    1    2    0    0  0.00000000000E+00  0.00000000000E+00  0.13089403876E+04  0.13981194900E+04  0.49133814221E+03 0.  0.
        4    1    3    3  502    0  0.14583560145E+03 -0.17898186421E+03  0.89337900254E+03  0.92272974670E+03  0.12699999809E+01 0. -1.
       -4    1    3    3    0  502 -0.14583560145E+03  0.17898186421E+03  0.41556138503E+03  0.47538974326E+03  0.12699999809E+01 0.  1.
</event>
<event>
 5   0  0.1243803E-01  0.5040257E+03  0.7818609E-02  0.1012733E+00
       -2   -1    0    0    0  501  0.00000000000E+00  0.00000000000E+00  0.57265411349E+02  0.57265411406E+02  0.25500000920E-02 0.  1.
        2   -1    0    0  501    0  0.00000000000E+00  0.00000000000E+00 -0.11090546978E+04  0.11090546978E+04  0.25500000920E-02 0. -1.
    10030    2    1    2    0    0  0.00000000000E+00  0.00000000000E+00 -0.10517892865E+04  0.11663201092E+04  0.50402568789E+03 0.  0.
        4    1    3    3  502    0  0.18835015988E+03 -0.10944327778E+03 -0.81910113799E+03  0.84757412710E+03  0.12699999809E+01 0. -1.
       -4    1    3    3    0  502 -0.18835015988E+03  0.10944327778E+03 -0.23268814848E+03  0.31874598212E+03  0.12699999809E+01 0.  1.
</event>
<event>
 5   0  0.1191894E-01  0.4999677E+03  0.7818609E-02  0.1013787E+00
       -2   -1    0    0    0  501  0.00000000000E+00  0.00000000000E+00  0.72631442547E+02  0.72631442592E+02  0.25500000920E-02 0. -1.
        2   -1    0    0  501    0  0.00000000000E+00  0.00000000000E+00 -0.86039758552E+03  0.86039758552E+03  0.25500000920E-02 0.  1.
    10030    2    1    2    0    0  0.00000000000E+00  0.00000000000E+00 -0.78776614297E+03  0.93302902812E+03  0.49996767025E+03 0.  0.
        3    1    3    3  502    0 -0.17448265670E+03 -0.17734161541E+03 -0.34826038015E+03  0.42799479977E+03  0.10100000352E+00 0. -1.
       -3    1    3    3    0  502  0.17448265670E+03  0.17734161541E+03 -0.43950576282E+03  0.50503422835E+03  0.10100000352E+00 0.  1.
</event>
<event>
 5   0  0.7781754E-02  0.5011002E+03  0.7818609E-02  0.1013492E+00
       -1   -1    0    0    0  501  0.00000000000E+00  0.00000000000E+00  0.12024944531E+03  0.12024944541E+03  0.50400001928E-02 0. -1.
        1   -1    0    0  501    0  0.00000000000E+00  0.00000000000E+00 -0.52204276904E+03  0.52204276906E+03  0.50400001928E-02 0.  1.
    10030    2    1    2    0    0  0.00000000000E+00  0.00000000000E+00 -0.40179332373E+03  0.64229221447E+03  0.50110020333E+03 0.  0.
        2    1    3    3  502    0 -0.15812640197E+03  0.98704468224E+02  0.13693844509E+02  0.18690653395E+03  0.25500000920E-02 0. -1.
       -2    1    3    3    0  502  0.15812640197E+03 -0.98704468224E+02 -0.41548716824E+03  0.45538568052E+03  0.25500000920E-02 0.  1.
</event>
<event>
 5   0  0.7812547E-02  0.4994361E+03  0.7818609E-02  0.1013926E+00
        1   -1    0    0  501    0  0.00000000000E+00  0.00000000000E+00  0.10047764941E+04  0.10047764941E+04  0.50400001928E-02 0.  1.
       -1   -1    0    0    0  501  0.00000000000E+00  0.00000000000E+00 -0.62062671646E+02  0.62062671850E+02  0.50400001928E-02 0. -1.
    10030    2    1    2    0    0  0.00000000000E+00  0.00000000000E+00  0.94271382245E+03  0.10668391660E+04  0.49943613704E+03 0.  0.
        4    1    3    3  502    0 -0.10201764659E+03  0.10965691983E+02  0.95766124978E+03  0.96314304693E+03  0.12699999809E+01 0.  1.
       -4    1    3    3    0  502  0.10201764659E+03 -0.10965691983E+02 -0.14947427335E+02  0.10369611903E+03  0.12699999809E+01 0. -1.
</event>
<event>
 5   0  0.7602288E-02  0.5001174E+03  0.7818609E-02  0.1013748E+00
       -1   -1    0    0    0  501  0.00000000000E+00  0.00000000000E+00  0.14166435178E+03  0.14166435187E+03  0.50400001928E-02 0.  1.
        1   -1    0    0  501    0  0.00000000000E+00  0.00000000000E+00 -0.44139093880E+03  0.44139093883E+03  0.50400001928E-02 0. -1.
    10030    2    1    2    0    0  0.00000000000E+00  0.00000000000E+00 -0.29972658702E+03  0.58305529070E+03  0.50011743125E+03 0.  0.
        5    1    3    3  502    0  0.11257405656E+03  0.15827925100E+03 -0.33339292951E+03  0.38587326281E+03  0.46999998093E+01 0. -1.
       -5    1    3    3    0  502 -0.11257405656E+03 -0.15827925100E+03  0.33666342493E+02  0.19718202789E+03  0.46999998093E+01 0.  1.
</event>
<event>
 5   0  0.1231822E-01  0.4982761E+03  0.7818609E-02  0.1014230E+00
       -2   -1    0    0    0  501  0.00000000000E+00  0.00000000000E+00  0.13045930376E+03  0.13045930378E+03  0.25500000920E-02 0. -1.
        2   -1    0    0  501    0  0.00000000000E+00  0.00000000000E+00 -0.47577882650E+03  0.47577882650E+03  0.25500000920E-02 0.  1.
    10030    2    1    2    0    0  0.00000000000E+00  0.00000000000E+00 -0.34531952274E+03  0.60623813029E+03  0.49827612609E+03 0.  0.
        1    1    3    3  502    0  0.76624527550E+02 -0.44243298955E+02 -0.45601872787E+03  0.46452326951E+03  0.50400001928E-02 0.  1.
       -1    1    3    3    0  502 -0.76624527550E+02  0.44243298955E+02  0.11069920513E+03  0.14171486078E+03  0.50400001928E-02 0. -1.
</event>
<event>
 5   0  0.1211345E-01  0.4956398E+03  0.7818609E-02  0.1014923E+00
        2   -1    0    0  501    0  0.00000000000E+00  0.00000000000E+00  0.15227226772E+04  0.15227226772E+04  0.25500000920E-02 0. -1.
       -2   -1    0    0    0  501  0.00000000000E+00  0.00000000000E+00 -0.40332170289E+02  0.40332170370E+02  0.25500000920E-02 0.  1.
    10030    2    1    2    0    0  0.00000000000E+00  0.00000000000E+00  0.14823905069E+04  0.15630548476E+04  0.49563983046E+03 0.  0.
        5    1    3    3  502    0  0.11974656789E+02 -0.23819486683E+03  0.95303791310E+03  0.98243755058E+03  0.46999998093E+01 0. -1.
       -5    1    3    3    0  502 -0.11974656789E+02  0.23819486683E+03  0.52935259383E+03  0.58061729701E+03  0.46999998093E+01 0.  1.
</event>
<event>
 5   0  0.1243803E-01  0.4994435E+03  0.7818609E-02  0.1013924E+00
       -2   -1    0    0    0  501  0.00000000000E+00  0.00000000000E+00  0.12100942152E+03  0.12100942155E+03  0.25500000920E-02 0.  1.
        2   -1    0    0  501    0  0.00000000000E+00  0.00000000000E+00 -0.51533964543E+03  0.51533964543E+03  0.25500000920E-02 0. -1.
    10030    2    1    2    0    0  0.00000000000E+00  0.00000000000E+00 -0.39433022391E+03  0.63634906698E+03  0.49944349987E+03 0.  0.
        4    1    3    3  502    0  0.11413917601E+03 -0.20844187958E+03 -0.29489548115E+03  0.37873569460E+03  0.12699999809E+01 0. -1.
       -4    1    3    3    0  502 -0.11413917601E+03  0.20844187958E+03 -0.99434742758E+02  0.25761337238E+03  0.12699999809E+01 0.  1.
</event>
<event>
 5   0  0.7602288E-02  0.4988813E+03  0.7818609E-02  0.1014071E+00
       -1   -1    0    0    0  501  0.00000000000E+00  0.00000000000E+00  0.43067575638E+02  0.43067575932E+02  0.50400001928E-02 0.  1.
        1   -1    0    0  501    0  0.00000000000E+00  0.00000000000E+00 -0.14447214154E+04  0.14447214155E+04  0.50400001928E-02 0. -1.
    10030    2    1    2    0    0  0.00000000000E+00  0.00000000000E+00 -0.14016538398E+04  0.14877889914E+04  0.49888134485E+03 0.  0.
        5    1    3    3  502    0 -0.22716460862E+03 -0.52983357171E+02 -0.43765177087E+03  0.49595580256E+03  0.46999998093E+01 0.  1.
       -5    1    3    3    0  502  0.22716460862E+03  0.52983357171E+02 -0.96400206893E+03  0.99183318882E+03  0.46999998093E+01 0. -1.
</event>
<event>
 5   0  0.7416638E-02  0.5021219E+03  0.7818609E-02  0.1013227E+00
        1   -1    0    0  501    0  0.00000000000E+00  0.00000000000E+00  0.90607311907E+03  0.90607311908E+03  0.50400001928E-02 0.  1.
       -1   -1    0    0    0  501  0.00000000000E+00  0.00000000000E+00 -0.69565691829E+02  0.69565692012E+02  0.50400001928E-02 0. -1.
    10030    2    1    2    0    0  0.00000000000E+00  0.00000000000E+00  0.83650742724E+03  0.97563881109E+03  0.50212191138E+03 0.  0.
        1    1    3    3  502    0 -0.19918974422E+03  0.10479227344E+03  0.20211705442E+03  0.30250500573E+03  0.50400001928E-02 0. -1.
       -1    1    3    3    0  502  0.19918974422E+03 -0.10479227344E+03  0.63439037282E+03  0.67313380536E+03  0.50400001928E-02 0.  1.
</event>
<event>
 5   0  0.5006750E-02  0.5017352E+03  0.7818609E-02  0.1013327E+00
        4   -1    0    0  501    0  0.00000000000E+00  0.00000000000E+00  0.44368334105E+02  0.44386506634E+02  0.12699999809E+01 0.  1.
       -4   -1    0    0    0  501  0.00000000000E+00  0.00000000000E+00 -0.14181475619E+04  0.14181481305E+04  0.12699999809E+01 0. -1.
    10030    2    1    2    0    0  0.00000000000E+00  0.00000000000E+00 -0.13737792278E+04  0.14625346372E+04  0.50173518740E+03 0.  0.
        1    1    3    3  502    0 -0.66978751665E+02 -0.23620338997E+03 -0.83712583539E+03  0.87238630143E+03  0.50400001928E-02 0.  1.
       -1    1    3    3    0  502  0.66978751665E+02  0.23620338997E+03 -0.53665339236E+03  0.59014833573E+03  0.50400001928E-02 0. -1.
</event>
<event>
 5   0  0.7781754E-02  0.4887424E+03  0.7818609E-02  0.1016760E+00
       -1   -1    0    0    0  501  0.00000000000E+00  0.00000000000E+00  0.73019184137E+03  0.73019184139E+03  0.50400001928E-02 0. -1.
        1   -1    0    0  501    0  0.00000000000E+00  0.00000000000E+00 -0.81782991600E+02  0.81782991755E+02  0.50400001928E-02 0.  1.
    10030    2    1    2    0    0  0.00000000000E+00  0.00000000000E+00  0.64840884977E+03  0.81197483314E+03  0.48874235871E+03 0.  0.
        2    1    3    3  502    0 -0.74009992903E+01  0.20906724445E+03  0.11436406514E+03  0.23841775709E+03  0.25500000920E-02 0.  1.
       -2    1    3    3    0  502  0.74009992903E+01 -0.20906724445E+03  0.53404478463E+03  0.57355707605E+03  0.25500000920E-02 0. -1.
</event>
<event>
 5   0  0.7531632E-02  0.5071774E+03  0.7818609E-02  0.1011922E+00
        1   -1    0    0  501    0  0.00000000000E+00  0.00000000000E+00  0.18083176186E+03  0.18083176193E+03  0.50400001928E-02 0. -1.
       -1   -1    0    0    0  501  0.00000000000E+00  0.00000000000E+00 -0.35561909205E+03  0.35561909208E+03  0.50400001928E-02 0.  1.
    10030    2    1    2    0    0  0.00000000000E+00  0.00000000000E+00 -0.17478733019E+03  0.53645085402E+03  0.50717739301E+03 0.  0.
        3    1    3    3  502    0  0.34253922442E+02  0.24592171283E+03 -0.32878601349E+02  0.25046323617E+03  0.10100000352E+00 0.  1.
       -3    1    3    3    0  502 -0.34253922442E+02 -0.24592171283E+03 -0.14190872884E+03  0.28598761785E+03  0.10100000352E+00 0. -1.
</event>
<event>
 5   0  0.1231822E-01  0.4863227E+03  0.7818609E-02  0.1017412E+00
        2   -1    0    0  501    0  0.00000000000E+00  0.00000000000E+00  0.88673151310E+03  0.88673151310E+03  0.25500000920E-02 0. -1.
       -2   -1    0    0    0  501  0.00000000000E+00  0.00000000000E+00 -0.66680216645E+02  0.66680216694E+02  0.25500000920E-02 0.  1.
    10030    2    1    2    0    0  0.00000000000E+00  0.00000000000E+00  0.82005129645E+03  0.95341172979E+03  0.48632272998E+03 0.  0.
        1    1    3    3  502    0  0.96297203733E+02 -0.14924314996E+03  0.84444541131E+02  0.19666608709E+03  0.50400001928E-02 0.  1.
       -1    1    3    3    0  502 -0.96297203733E+02  0.14924314996E+03  0.73560675532E+03  0.75674564271E+03  0.50400001928E-02 0. -1.
</event>
<event>
 5   0  0.7781754E-02  0.4967330E+03  0.7818609E-02  0.1014635E+00
        1   -1    0    0  501    0  0.00000000000E+00  0.00000000000E+00  0.85842022921E+03  0.85842022922E+03  0.50400001928E-02 0.  1.
       -1   -1    0    0    0  501  0.00000000000E+00  0.00000000000E+00 -0.71859814503E+02  0.71859814680E+02  0.50400001928E-02 0. -1.
    10030    2    1    2    0    0  0.00000000000E+00  0.00000000000E+00  0.78656041470E+03  0.93028004390E+03  0.49673300082E+03 0.  0.
        2    1    3    3  502    0 -0.97059917821E+02 -0.22846107096E+03  0.40904176359E+03  0.47846656409E+03  0.25500000920E-02 0.  1.
       -2    1    3    3    0  502  0.97059917821E+02  0.22846107096E+03  0.37751865112E+03  0.45181347981E+03  0.25500000920E-02 0. -1.
</event>
<event>
 5   0  0.7812547E-02  0.4987192E+03  0.7818609E-02  0.1014114E+00
       -1   -1    0    0    0  501  0.00000000000E+00  0.00000000000E+00  0.13295130999E+03  0.13295131008E+03  0.50400001928E-02 0.  1.
        1   -1    0    0  501    0  0.00000000000E+00  0.00000000000E+00 -0.46769168460E+03  0.46769168463E+03  0.50400001928E-02 0. -1.
    10030    2    1    2    0    0  0.00000000000E+00  0.00000000000E+00 -0.33474037462E+03  0.60064299471E+03  0.49871924837E+03 0.  0.
        4    1    3    3  502    0  0.10743336183E+03 -0.16807692608E+03  0.12830555339E+02  0.19989501335E+03  0.12699999809E+01 0.  1.
       -4    1    3    3    0  502 -0.10743336183E+03  0.16807692608E+03 -0.34757092996E+03  0.40074798136E+03  0.12699999809E+01 0. -1.
</event>
<event>
 5   0  0.1243803E-01  0.5034237E+03  0.7818609E-02  0.1012889E+00
       -2   -1    0    0    0  501  0.00000000000E+00  0.00000000000E+00  0.22874844215E+02  0.22874844358E+02  0.25500000920E-02 0. -1.
        2   -1    0    0  501    0  0.00000000000E+00  0.00000000000E+00 -0.27698052805E+04  0.27698052805E+04  0.25500000920E-02 0.  1.
    10030    2    1    2    0    0  0.00000000000E+00  0.00000000000E+00 -0.27469304362E+04  0.27926801248E+04  0.50342373602E+03 0.  0.
        4    1    3    3  502    0 -0.13201377111E+03 -0.12623292480E+03 -0.23342164684E+04  0.23413522847E+04  0.12699999809E+01 0.  1.
       -4    1    3    3    0  502  0.13201377111E+03  0.12623292480E+03 -0.41271396788E+03  0.45132784010E+03  0.12699999809E+01 0. -1.
</event>
<event>
 5   0  0.7602288E-02  0.4990172E+03  0.7818609E-02  0.1014036E+00
       -1   -1    0    0    0  501  0.00000000000E+00  0.00000000000E+00  0.80742607588E+03  0.80742607590E+03  0.50400001928E-02 0.  1.
        1   -1    0    0  501    0  0.00000000000E+00  0.00000000000E+00 -0.77102459311E+02  0.77102459476E+02  0.50400001928E-02 0. -1.
    10030    2    1    2    0    0  0.00000000000E+00  0.00000000000E+00  0.73032361657E+03  0.88452853537E+03  0.49901717903E+03 0.  0.
        5    1    3    3  502    0  0.24784030479E+03  0.67893781930E+01  0.31624693032E+03  0.40187700017E+03  0.46999998093E+01 0. -1.
       -5    1    3    3    0  502 -0.24784030479E+03 -0.67893781930E+01  0.41407668625E+03  0.48265153520E+03  0.46999998093E+01 0.  1.
</event>
<event>
 5   0  0.7602288E-02  0.4986035E+03  0.7818609E-02  0.1014144E+00
        1   -1    0    0  501    0  0.00000000000E+00  0.00000000000E+00  0.37484432829E+03  0.37484432832E+03  0.50400001928E-02 0.  1.
       -1   -1    0    0    0  501  0.00000000000E+00  0.00000000000E+00 -0.16580581513E+03  0.16580581520E+03  0.50400001928E-02 0. -1.
    10030    2    1    2    0    0  0.00000000000E+00  0.00000000000E+00  0.20903851316E+03  0.54065014352E+03  0.49860352757E+03 0.  0.
        5    1    3    3  502    0  0.29982368124E+02 -0.54680985667E+02  0.36620067044E+03  0.37150231980E+03  0.46999998093E+01 0.  1.
       -5    1    3    3    0  502 -0.29982368124E+02  0.54680985667E+02 -0.15716215728E+03  0.16914782372E+03  0.46999998093E+01 0. -1.
</event>
<event>
 5   0  0.5006750E-02  0.5005074E+03  0.7818609E-02  0.1013647E+00
       -3   -1    0    0    0  501  0.00000000000E+00  0.00000000000E+00  0.58387287418E+02  0.58387374774E+02  0.10100000352E+00 0.  1.
        3   -1    0    0  501    0  0.00000000000E+00  0.00000000000E+00 -0.10726111159E+04  0.10726111206E+04  0.10100000352E+00 0. -1.
    10030    2    1    2    0    0  0.00000000000E+00  0.00000000000E+00 -0.10142238284E+04  0.11309984954E+04  0.50050736497E+03 0.  0.
        4    1    3    3  502    0 -0.81429807101E+02 -0.22746423982E+03 -0.65450454079E+03  0.69767370647E+03  0.12699999809E+01 0. -1.
       -4    1    3    3    0  502  0.81429807101E+02  0.22746423982E+03 -0.35971928765E+03  0.43332478892E+03  0.12699999809E+01 0.  1.
</event>
<event>
 5   0  0.7781754E-02  0.5062304E+03  0.7818609E-02  0.1012165E+00
       -1   -1    0    0    0  501  0.00000000000E+00  0.00000000000E+00  0.24812440341E+03  0.24812440346E+03  0.50400001928E-02 0.  1.
        1   -1    0    0  501    0  0.00000000000E+00  0.00000000000E+00 -0.25820636366E+03  0.25820636371E+03  0.50400001928E-02 0. -1.
    10030    2    1    2    0    0  0.00000000000E+00  0.00000000000E+00 -0.10081960259E+02  0.50633076717E+03  0.50623038220E+03 0.  0.
        2    1    3    3  502    0  0.15839197813E+03 -0.10774391979E+03  0.16043223566E+03  0.24987051293E+03  0.25500000920E-02 0.  1.
       -2    1    3    3    0  502 -0.15839197813E+03  0.10774391979E+03 -0.17051419592E+03  0.25646025424E+03  0.25500000920E-02 0. -1.
</event>
<event>
 5   0  0.1231822E-01  0.5017603E+03  0.7818609E-02  0.1013320E+00
        2   -1    0    0  501    0  0.00000000000E+00  0.00000000000E+00  0.57553116919E+03  0.57553116920E+03  0.25500000920E-02 0.  1.
       -2   -1    0    0    0  501  0.00000000000E+00  0.00000000000E+00 -0.10936133932E+03  0.10936133935E+03  0.25500000920E-02 0. -1.
    10030    2    1    2    0    0  0.00000000000E+00  0.00000000000E+00  0.46616982987E+03  0.68489250855E+03  0.50176033919E+03 0.  0.
        1    1    3    3  502    0  0.12388671629E+03 -0.13823578155E+03  0.46345449114E+03  0.49924654747E+03  0.50400001928E-02 0.  1.
       -1    1    3    3    0  502 -0.12388671629E+03  0.13823578155E+03  0.27153387236E+01  0.18564596108E+03  0.50400001928E-02 0. -1.
</event>
<event>
 5   0  0.7781754E-02  0.5061667E+03  0.7818609E-02  0.1012182E+00
       -1   -1    0    0    0  501  0.00000000000E+00  0.00000000000E+00  0.98161717294E+02  0.98161717423E+02  0.50400001928E-02 0.  1.
        1   -1    0    0  501    0  0.00000000000E+00  0.00000000000E+00 -0.65250667788E+03  0.65250667790E+03  0.50400001928E-02 0. -1.
    10030    2    1    2    0    0  0.00000000000E+00  0.00000000000E+00 -0.55434496059E+03  0.75066839533E+03  0.50616667651E+03 0.  0.
        2    1    3    3  502    0  0.13561272469E+03 -0.17065337185E+03 -0.46789120763E+03  0.51617396932E+03  0.25500000920E-02 0. -1.
       -2    1    3    3    0  502 -0.13561272469E+03  0.17065337185E+03 -0.86453752962E+02  0.23449442601E+03  0.25500000920E-02 0.  1.
</event>
<event>
 5   0  0.1231822E-01  0.4806364E+03  0.7818609E-02  0.1018960E+00
       -2   -1    0    0    0  501  0.00000000000E+00  0.00000000000E+00  0.11369205215E+03  0.11369205218E+03  0.25500000920E-02 0. -1.
        2   -1    0    0  501    0  0.00000000000E+00  0.00000000000E+00 -0.50797610347E+03  0.50797610348E+03  0.25500000920E-02 0.  1.
    10030    2    1    2    0    0  0.00000000000E+00  0.00000000000E+00 -0.39428405132E+03  0.62166815566E+03  0.48063643498E+03 0.  0.
        1    1    3    3  502    0  0.89837994913E+02 -0.15728443232E+03  0.71358774239E+01  0.18127376741E+03  0.50400001928E-02 0. -1.
       -1    1    3    3    0  502 -0.89837994913E+02  0.15728443232E+03 -0.40141992875E+03  0.44039438825E+03  0.50400001928E-02 0.  1.
</event>
<event>
 5   0  0.1191894E-01  0.4930353E+03  0.7818609E-02  0.1015613E+00
        2   -1    0    0  501    0  0.00000000000E+00  0.00000000000E+00  0.49483423452E+03  0.49483423453E+03  0.25500000920E-02 0. -1.
       -2   -1    0    0    0  501  0.00000000000E+00  0.00000000000E+00 -0.12281075034E+03  0.12281075037E+03  0.25500000920E-02 0.  1.
    10030    2    1    2    0    0  0.00000000000E+00  0.00000000000E+00  0.37202348418E+03  0.61764498489E+03  0.49303534821E+03 0.  0.
        3    1    3    3  502    0  0.12203490222E+03  0.18733188580E+03  0.31611104716E+03  0.38718465509E+03  0.10100000352E+00 0. -1.
       -3    1    3    3    0  502 -0.12203490222E+03 -0.18733188580E+03  0.55912437021E+02  0.23046032980E+03  0.10100000352E+00 0.  1.
</event>
<event>
 5   0  0.1191894E-01  0.4998092E+03  0.7818609E-02  0.1013829E+00
        2   -1    0    0  501    0  0.00000000000E+00  0.00000000000E+00  0.64295406526E+02  0.64295406577E+02  0.25500000920E-02 0.  1.
       -2   -1    0    0    0  501  0.00000000000E+00  0.00000000000E+00 -0.97133375605E+03  0.97133375606E+03  0.25500000920E-02 0. -1.
    10030    2    1    2    0    0  0.00000000000E+00  0.00000000000E+00 -0.90703834953E+03  0.10356291626E+04  0.49980915856E+03 0.  0.
        3    1    3    3  502    0 -0.40750874383E+02  0.31419323149E+02  0.53199516149E+02  0.74013555175E+02  0.10100000352E+00 0.  1.
       -3    1    3    3    0  502  0.40750874383E+02 -0.31419323149E+02 -0.96023786568E+03  0.96161560746E+03  0.10100000352E+00 0. -1.
</event>
<event>
 5   0  0.7416638E-02  0.5006280E+03  0.7818609E-02  0.1013615E+00
        1   -1    0    0  501    0  0.00000000000E+00  0.00000000000E+00  0.98430815869E+03  0.98430815870E+03  0.50400001928E-02 0.  1.
       -1   -1    0    0    0  501  0.00000000000E+00  0.00000000000E+00 -0.63655968910E+02  0.63655969110E+02  0.50400001928E-02 0. -1.
    10030    2    1    2    0    0  0.00000000000E+00  0.00000000000E+00  0.92065218978E+03  0.10479641278E+04  0.50062796430E+03 0.  0.
        1    1    3    3  502    0  0.12469626498E+03 -0.12791309542E+03  0.93274739504E+02  0.20152194802E+03  0.50400001928E-02 0. -1.
       -1    1    3    3    0  502 -0.12469626498E+03  0.12791309542E+03  0.82737745027E+03  0.84644217979E+03  0.50400001928E-02 0.  1.
</event>
<event>
 5   0  0.7531632E-02  0.5059466E+03  0.7818609E-02  0.1012238E+00
       -1   -1    0    0    0  501  0.00000000000E+00  0.00000000000E+00  0.51717618651E+03  0.51717618654E+03  0.50400001928E-02 0. -1.
        1   -1    0    0  501    0  0.00000000000E+00  0.00000000000E+00 -0.12374022798E+03  0.12374022808E+03  0.50400001928E-02 0.  1.
    10030    2    1    2    0    0  0.00000000000E+00  0.00000000000E+00  0.39343595853E+03  0.64091641462E+03  0.50594663460E+03 0.  0.
        3    1    3    3  502    0 -0.84619004067E+02 -0.56290747107E+02  0.49017748230E+03  0.50060263525E+03  0.10100000352E+00 0. -1.
       -3    1    3    3    0  502  0.84619004067E+02  0.56290747107E+02 -0.96741523770E+02  0.14031377937E+03  0.10100000352E+00 0.  1.
</event>
<event>
 5   0  0.1191894E-01  0.5000832E+03  0.7818609E-02  0.1013757E+00
       -2   -1    0    0    0  501  0.00000000000E+00  0.00000000000E+00  0.52389578209E+02  0.52389578271E+02  0.25500000920E-02 0. -1.
        2   -1    0    0  501    0  0.00000000000E+00  0.00000000000E+00 -0.11933823446E+04  0.11933823446E+04  0.25500000920E-02 0.  1.
    10030    2    1    2    0    0  0.00000000000E+00  0.00000000000E+00 -0.11409927664E+04  0.12457719228E+04  0.50008318394E+03 0.  0.
        3    1    3    3  502    0  0.12991731473E+02  0.21961010894E+03 -0.27444577656E+03  0.35173552495E+03  0.10100000352E+00 0. -1.
       -3    1    3    3    0  502 -0.12991731473E+02 -0.21961010894E+03 -0.86654698980E+03  0.89403639790E+03  0.10100000352E+00 0.  1.
</event>
<event>
 5   0  0.5006750E-02  0.4979927E+03  0.7818609E-02  0.1014304E+00
       -3   -1    0    0    0  501  0.00000000000E+00  0.00000000000E+00  0.20728081152E+03  0.20728083612E+03  0.10100000352E+00 0.  1.
        3   -1    0    0  501    0  0.00000000000E+00  0.00000000000E+00 -0.29910711447E+03  0.29910713152E+03  0.10100000352E+00 0. -1.
    10030    2    1    2    0    0  0.00000000000E+00  0.00000000000E+00 -0.91826302956E+02  0.50638796765E+03  0.49799267451E+03 0.  0.
        5    1    3    3  502    0  0.81500446270E+02 -0.23382504906E+03 -0.19777526895E+02  0.24845465759E+03  0.46999998093E+01 0. -1.
       -5    1    3    3    0  502 -0.81500446270E+02  0.23382504906E+03 -0.72048776060E+02  0.25793331006E+03  0.46999998093E+01 0.  1.
</event>
<event>
 5   0  0.7531632E-02  0.4969809E+03  0.7818609E-02  0.1014570E+00
        1   -1    0    0  501    0  0.00000000000E+00  0.00000000000E+00  0.31496158994E+03  0.31496158998E+03  0.50400001928E-02 0.  1.
       -1   -1    0    0    0  501  0.00000000000E+00  0.00000000000E+00 -0.19604768753E+03  0.19604768760E+03  0.50400001928E-02 0. -1.
    10030    2    1    2    0    0  0.00000000000E+00  0.00000000000E+00  0.11891390240E+03  0.51100927758E+03  0.49698085032E+03 0.  0.
        3    1    3    3  502    0  0.18198707701E+03 -0.13657564393E+03  0.16215250579E+03  0.27940230502E+03  0.10100000352E+00 0.  1.
       -3    1    3    3    0  502 -0.18198707701E+03  0.13657564393E+03 -0.43238603388E+02  0.23160697256E+03  0.10100000352E+00 0. -1.
</event>
<event>
 5   0  0.1279188E-01  0.5133045E+03  0.7818609E-02  0.1010363E+00
       -2   -1    0    0    0  501  0.00000000000E+00  0.00000000000E+00  0.11063710779E+03  0.11063710782E+03  0.25500000920E-02 0. -1.
        2   -1    0    0  501    0  0.00000000000E+00  0.00000000000E+00 -0.59537333173E+03  0.59537333174E+03  0.25500000920E-02 0.  1.
    10030    2    1    2    0    0  0.00000000000E+00  0.00000000000E+00 -0.48473622394E+03  0.70601043956E+03  0.51330452362E+03 0.  0.
        2    1    3    3  502    0 -0.17006531168E+02 -0.77241701043E+02 -0.57819338150E+03  0.58357783448E+03  0.25500000920E-02 0.  1.
       -2    1    3    3    0  502  0.17006531168E+02  0.77241701043E+02  0.93457157556E+02  0.12243260508E+03  0.25500000920E-02 0. -1.
</event>
<event>
 5   0  0.7416638E-02  0.4988479E+03  0.7818609E-02  0.1014080E+00
        1   -1    0    0  501    0  0.00000000000E+00  0.00000000000E+00  0.27152617347E+03  0.27152617352E+03  0.50400001928E-02 0. -1.
       -1   -1    0    0    0  501  0.00000000000E+00  0.00000000000E+00 -0.22912081099E+03  0.22912081105E+03  0.50400001928E-02 0.  1.
    10030    2    1    2    0    0  0.00000000000E+00  0.00000000000E+00  0.42405362484E+02  0.50064698457E+03  0.49884786096E+03 0.  0.
        1    1    3    3  502    0 -0.47102276170E+01 -0.22484052685E+03  0.12946596036E+03  0.25949351375E+03  0.50400001928E-02 0. -1.
       -1    1    3    3    0  502  0.47102276170E+01  0.22484052685E+03 -0.87060597878E+02  0.24115347082E+03  0.50400001928E-02 0.  1.
</event>
<event>
 5   0  0.7416638E-02  0.4972525E+03  0.7818609E-02  0.1014499E+00
       -1   -1    0    0    0  501  0.00000000000E+00  0.00000000000E+00  0.10770855771E+03  0.10770855783E+03  0.50400001928E-02 0.  1.
        1   -1    0    0  501    0  0.00000000000E+00  0.00000000000E+00 -0.57391004835E+03  0.57391004837E+03  0.50400001928E-02 0. -1.
    10030    2    1    2    0    0  0.00000000000E+00  0.00000000000E+00 -0.46620149064E+03  0.68161860619E+03  0.49725254593E+03 0.  0.
        1    1    3    3  502    0  0.19337744823E+03 -0.44914481497E+02 -0.27929590119E+02  0.20047994952E+03  0.50400001928E-02 0.  1.
       -1    1    3    3    0  502 -0.19337744823E+03  0.44914481497E+02 -0.43827190052E+03  0.48113865667E+03  0.50400001928E-02 0. -1.
</event>
<event>
 5   0  0.7781754E-02  0.4977808E+03  0.7818609E-02  0.1014360E+00
        1   -1    0    0  501    0  0.00000000000E+00  0.00000000000E+00  0.74098108257E+03  0.74098108258E+03  0.50400001928E-02 0. -1.
       -1   -1    0    0    0  501  0.00000000000E+00  0.00000000000E+00 -0.83600547748E+02  0.83600547899E+02  0.50400001928E-02 0.  1.
    10030    2    1    2    0    0  0.00000000000E+00  0.00000000000E+00  0.65738053482E+03  0.82458163048E+03  0.49778077280E+03 0.  0.
        2    1    3    3  502    0  0.40961001125E+02 -0.17466292259E+03  0.42916189883E+02  0.18446338255E+03  0.25500000920E-02 0.  1.
       -2    1    3    3    0  502 -0.40961001125E+02  0.17466292259E+03  0.61446434494E+03  0.64011824794E+03  0.25500000920E-02 0. -1.
</event>
<event>
 5   0  0.1243803E-01  0.5065542E+03  0.7818609E-02  0.1012082E+00
        2   -1    0    0  501    0  0.00000000000E+00  0.00000000000E+00  0.84053112016E+03  0.84053112017E+03  0.25500000920E-02 0. -1.
       -2   -1    0    0    0  501  0.00000000000E+00  0.00000000000E+00 -0.76319939655E+02  0.76319939697E+02  0.25500000920E-02 0.  1.
    10030    2    1    2    0    0  0.00000000000E+00  0.00000000000E+00  0.76421118051E+03  0.91685105986E+03  0.50655418028E+03 0.  0.
        4    1    3    3  502    0  0.17724289612E+03  0.42505109977E+02  0.70040392204E+03  0.72373268235E+03  0.12699999809E+01 0. -1.
       -4    1    3    3    0  502 -0.17724289612E+03 -0.42505109977E+02  0.63807258467E+02  0.19311837751E+03  0.12699999809E+01 0.  1.
</event>
<event>
 5   0  0.7531632E-02  0.4950941E+03  0.7818609E-02  0.1015067E+00
        1   -1    0    0  501    0  0.00000000000E+00  0.00000000000E+00  0.28565043647E+03  0.28565043651E+03  0.50400001928E-02 0. -1.
       -1   -1    0    0    0  501  0.00000000000E+00  0.00000000000E+00 -0.21452632382E+03  0.21452632387E+03  0.50400001928E-02 0.  1.
    10030    2    1    2    0    0  0.00000000000E+00  0.00000000000E+00  0.71124112651E+02  0.50017676038E+03  0.49509408422E+03 0.  0.
        3    1    3    3  502    0 -0.20334928108E+03 -0.13070960472E+03  0.89434886796E+02  0.25774898654E+03  0.10100000352E+00 0. -1.
       -3    1    3    3    0  502  0.20334928108E+03  0.13070960472E+03 -0.18310774145E+02  0.24242777385E+03  0.10100000352E+00 0.  1.
</event>
<event>
 5   0  0.7602288E-02  0.4985939E+03  0.7818609E-02  0.1014147E+00
        1   -1    0    0  501    0  0.00000000000E+00  0.00000000000E+00  0.69981551782E+03  0.69981551784E+03  0.50400001928E-02 0. -1.
       -1   -1    0    0    0  501  0.00000000000E+00  0.00000000000E+00 -0.88807642229E+02  0.88807642372E+02  0.50400001928E-02 0.  1.
    10030    2    1    2    0    0  0.00000000000E+00  0.00000000000E+00  0.61100787559E+03  0.78862316021E+03  0.49859388763E+03 0.  0.
        5    1    3    3  502    0  0.17749260083E+02 -0.82000475318E+01 -0.87522771389E+02  0.89803132033E+02  0.46999998093E+01 0.  1.
       -5    1    3    3    0  502 -0.17749260083E+02  0.82000475318E+01  0.69853064698E+03  0.69882002818E+03  0.46999998093E+01 0. -1.
</event>
<event>
 5   0  0.7781754E-02  0.4908582E+03  0.7818609E-02  0.1016193E+00
       -1   -1    0    0    0  501  0.00000000000E+00  0.00000000000E+00  0.18058522954E+03  0.18058522961E+03  0.50400001928E-02 0. -1.
        1   -1    0    0  501    0  0.00000000000E+00  0.00000000000E+00 -0.33355685140E+03  0.33355685144E+03  0.50400001928E-02 0.  1.
    10030    2    1    2    0    0  0.00000000000E+00  0.00000000000E+00 -0.15297162186E+03  0.51414208105E+03  0.49085818972E+03 0.  0.
        2    1    3    3  502    0  0.16895206742E+03  0.69491435963E+01  0.10983504357E+03  0.20163538500E+03  0.25500000920E-02 0. -1.
       -2    1    3    3    0  502 -0.16895206742E+03 -0.69491435963E+01 -0.26280666543E+03  0.31250669606E+03  0.25500000920E-02 0.  1.
</event>
<event>
 5   0  0.1279188E-01  0.5035598E+03  0.7818609E-02  0.1012854E+00
       -2   -1    0    0    0  501  0.00000000000E+00  0.00000000000E+00  0.86959301246E+02  0.86959301284E+02  0.25500000920E-02 0.  1.
        2   -1    0    0  501    0  0.00000000000E+00  0.00000000000E+00 -0.72899755919E+03  0.72899755919E+03  0.25500000920E-02 0. -1.
    10030    2    1    2    0    0  0.00000000000E+00  0.00000000000E+00 -0.64203825794E+03  0.81595686048E+03  0.50355980131E+03 0.  0.
        2    1    3    3  502    0 -0.85993855177E+02 -0.23455695157E+03 -0.27026194650E+03  0.36803997933E+03  0.25500000920E-02 0.  1.
       -2    1    3    3    0  502  0.85993855177E+02  0.23455695157E+03 -0.37177631144E+03  0.44791688114E+03  0.25500000920E-02 0. -1.
</event>
<event>
 5   0  0.5006750E-02  0.5024471E+03  0.7818609E-02  0.1013142E+00
       -3   -1    0    0    0  501  0.00000000000E+00  0.00000000000E+00  0.50002014658E+03  0.50002015678E+03  0.10100000352E+00 0. -1.
        3   -1    0    0  501    0  0.00000000000E+00  0.00000000000E+00 -0.12622142236E+03  0.12622146277E+03  0.10100000352E+00 0.  1.
    10030    2    1    2    0    0  0.00000000000E+00  0.00000000000E+00  0.37379872422E+03  0.62624161955E+03  0.50244709157E+03 0.  0.
        2    1    3    3  502    0 -0.55687136063E+02  0.24470240937E+03  0.17252841353E+03  0.30454290298E+03  0.25500000920E-02 0.  1.
       -2    1    3    3    0  502  0.55687136063E+02 -0.24470240937E+03  0.20127031069E+03  0.32169871657E+03  0.25500000920E-02 0. -1.
</event>
<event>
 5   0  0.1243803E-01  0.5066731E+03  0.7818609E-02  0.1012052E+00
        2   -1    0    0  501    0  0.00000000000E+00  0.00000000000E+00  0.37761363471E+03  0.37761363472E+03  0.25500000920E-02 0. -1.
       -2   -1    0    0    0  501  0.00000000000E+00  0.00000000000E+00 -0.16996050763E+03  0.16996050765E+03  0.25500000920E-02 0.  1.
    10030    2    1    2    0    0  0.00000000000E+00  0.00000000000E+00  0.20765312708E+03  0.54757414236E+03  0.50667309007E+03 0.  0.
        4    1    3    3  502    0 -0.23335863385E+03  0.76346458002E+02  0.36398013050E+02  0.24821656250E+03  0.12699999809E+01 0.  1.
       -4    1    3    3    0  502  0.23335863385E+03 -0.76346458002E+02  0.17125511403E+03  0.29935757987E+03  0.12699999809E+01 0. -1.
</event>
<event>
 5   0  0.1243803E-01  0.5538337E+03  0.7818609E-02  0.1000610E+00
       -2   -1    0    0    0  501  0.00000000000E+00  0.00000000000E+00  0.24994094448E+03  0.24994094449E+03  0.25500000920E-02 0. -1.
        2   -1    0    0  501    0  0.00000000000E+00  0.00000000000E+00 -0.30680424239E+03  0.30680424240E+03  0.25500000920E-02 0.  1.
    10030    2    1    2    0    0  0.00000000000E+00  0.00000000000E+00 -0.56863297911E+02  0.55674518690E+03  0.55383370111E+03 0.  0.
        4    1    3    3  502    0  0.12787404026E+03  0.11790405869E+03  0.18817310183E+03  0.25624961733E+03  0.12699999809E+01 0. -1.
       -4    1    3    3    0  502 -0.12787404026E+03 -0.11790405869E+03 -0.24503639974E+03  0.30049556957E+03  0.12699999809E+01 0.  1.
</event>
<event>
 5   0  0.7812547E-02  0.5135965E+03  0.7818609E-02  0.1010290E+00
       -1   -1    0    0    0  501  0.00000000000E+00  0.00000000000E+00  0.14100101025E+03  0.14100101034E+03  0.50400001928E-02 0.  1.
        1   -1    0    0  501    0  0.00000000000E+00  0.00000000000E+00 -0.46769408558E+03  0.46769408561E+03  0.50400001928E-02 0. -1.
    10030    2    1    2    0    0  0.00000000000E+00  0.00000000000E+00 -0.32669307533E+03  0.60869509596E+03  0.51359648984E+03 0.  0.
        4    1    3    3  502    0 -0.20608785139E+03 -0.21974163515E+02 -0.34304095227E+03  0.40079143477E+03  0.12699999809E+01 0. -1.
       -4    1    3    3    0  502  0.20608785139E+03  0.21974163515E+02  0.16347876945E+02  0.20790366118E+03  0.12699999809E+01 0.  1.
</event>
<event>
 5   0  0.1279188E-01  0.5035003E+03  0.7818609E-02  0.1012869E+00
        2   -1    0    0  501    0  0.00000000000E+00  0.00000000000E+00  0.13397472048E+04  0.13397472048E+04  0.25500000920E-02 0. -1.
       -2   -1    0    0    0  501  0.00000000000E+00  0.00000000000E+00 -0.47306040074E+02  0.47306040143E+02  0.25500000920E-02 0.  1.
    10030    2    1    2    0    0  0.00000000000E+00  0.00000000000E+00  0.12924411647E+04  0.13870532449E+04  0.50350028801E+03 0.  0.
        2    1    3    3  502    0  0.14881092042E+03 -0.13594217909E+03  0.23067912861E+03  0.30632960431E+03  0.25500000920E-02 0.  1.
       -2    1    3    3    0  502 -0.14881092042E+03  0.13594217909E+03  0.10617620361E+04  0.10807236406E+04  0.25500000920E-02 0. -1.
</event>
<event>
 5   0  0.5006750E-02  0.4991695E+03  0.7818609E-02  0.1013996E+00
        3   -1    0    0  501    0  0.00000000000E+00  0.00000000000E+00  0.15388110792E+03  0.15388114107E+03  0.10100000352E+00 0. -1.
       -3   -1    0    0    0  501  0.00000000000E+00  0.00000000000E+00 -0.40480943975E+03  0.40480945235E+03  0.10100000352E+00 0.  1.
    10030    2    1    2    0    0  0.00000000000E+00  0.00000000000E+00 -0.25092833182E+03  0.55869059341E+03  0.49916946166E+03 0.  0.
        4    1    3    3  502    0  0.19573138621E+02 -0.22864885350E+03 -0.23528393936E+03  0.32866936423E+03  0.12699999809E+01 0.  1.
       -4    1    3    3    0  502 -0.19573138621E+02  0.22864885350E+03 -0.15644392467E+02  0.23002122919E+03  0.12699999809E+01 0. -1.
</event>
<event>
 5   0  0.1243803E-01  0.5056066E+03  0.7818609E-02  0.1012326E+00
       -2   -1    0    0    0  501  0.00000000000E+00  0.00000000000E+00  0.86197003971E+02  0.86197004009E+02  0.25500000920E-02 0. -1.
        2   -1    0    0  501    0  0.00000000000E+00  0.00000000000E+00 -0.74143523750E+03  0.74143523750E+03  0.25500000920E-02 0.  1.
    10030    2    1    2    0    0  0.00000000000E+00  0.00000000000E+00 -0.65523823353E+03  0.82763224151E+03  0.50560655110E+03 0.  0.
        4    1    3    3  502    0  0.14851866902E+03 -0.65498835350E+02 -0.10379477971E+02  0.16265681340E+03  0.12699999809E+01 0. -1.
       -4    1    3    3    0  502 -0.14851866902E+03  0.65498835350E+02 -0.64485875556E+03  0.66497542812E+03  0.12699999809E+01 0.  1.
</event>
<event>
 5   0  0.1211345E-01  0.4960070E+03  0.7818609E-02  0.1014826E+00
        2   -1    0    0  501    0  0.00000000000E+00  0.00000000000E+00  0.44751620782E+03  0.44751620783E+03  0.25500000920E-02 0. -1.
       -2   -1    0    0    0  501  0.00000000000E+00  0.00000000000E+00 -0.13743800579E+03  0.13743800582E+03  0.25500000920E-02 0.  1.
    10030    2    1    2    0    0  0.00000000000E+00  0.00000000000E+00  0.31007820203E+03  0.58495421364E+03  0.49600699661E+03 0.  0.
        5    1    3    3  502    0 -0.65735317813E+02  0.68075441004E+02  0.42532944246E+03  0.43575523209E+03  0.46999998093E+01 0. -1.
       -5    1    3    3    0  502  0.65735317813E+02 -0.68075441004E+02 -0.11525124043E+03  0.14919898155E+03  0.46999998093E+01 0.  1.
</event>
<event>
 5   0  0.5006750E-02  0.5121211E+03  0.7818609E-02  0.1010663E+00
        4   -1    0    0  501    0  0.00000000000E+00  0.00000000000E+00  0.29743109222E+03  0.29743380359E+03  0.12699999809E+01 0. -1.
       -4   -1    0    0    0  501  0.00000000000E+00  0.00000000000E+00 -0.22043880099E+03  0.22044245934E+03  0.12699999809E+01 0.  1.
    10030    2    1    2    0    0  0.00000000000E+00  0.00000000000E+00  0.76992291231E+02  0.51787626293E+03  0.51212108998E+03 0.  0.
        2    1    3    3  502    0  0.23972263527E+03 -0.16125089009E+02 -0.51042917983E+02  0.24562642333E+03  0.25500000920E-02 0.  1.
       -2    1    3    3    0  502 -0.23972263527E+03  0.16125089009E+02  0.12803520921E+03  0.27224983960E+03  0.25500000920E-02 0. -1.
</event>
<event>
 5   0  0.1211345E-01  0.5073720E+03  0.7818609E-02  0.1011872E+00
        2   -1    0    0  501    0  0.00000000000E+00  0.00000000000E+00  0.10113614584E+04  0.10113614584E+04  0.25500000920E-02 0.  1.
       -2   -1    0    0    0  501  0.00000000000E+00  0.00000000000E+00 -0.63633607094E+02  0.63633607145E+02  0.25500000920E-02 0. -1.
    10030    2    1    2    0    0  0.00000000000E+00  0.00000000000E+00  0.94772785134E+03  0.10749950656E+04  0.50737196495E+03 0.  0.
        5    1    3    3  502    0 -0.13239408824E+03  0.15713964311E+03  0.78893462526E+03  0.81526743770E+03  0.46999998093E+01 0.  1.
       -5    1    3    3    0  502  0.13239408824E+03 -0.15713964311E+03  0.15879322608E+03  0.25972762789E+03  0.46999998093E+01 0. -1.
</event>
<event>
 5   0  0.7602288E-02  0.5015166E+03  0.7818609E-02  0.1013384E+00
        1   -1    0    0  501    0  0.00000000000E+00  0.00000000000E+00  0.71647901859E+02  0.71647902037E+02  0.50400001928E-02 0. -1.
       -1   -1    0    0    0  501  0.00000000000E+00  0.00000000000E+00 -0.87762121146E+03  0.87762121147E+03  0.50400001928E-02 0.  1.
    10030    2    1    2    0    0  0.00000000000E+00  0.00000000000E+00 -0.80597330960E+03  0.94926911351E+03  0.50151657408E+03 0.  0.
        5    1    3    3  502    0 -0.15255208990E+03 -0.10169096384E+03 -0.72667397511E+03  0.74946003786E+03  0.46999998093E+01 0.  1.
       -5    1    3    3    0  502  0.15255208990E+03  0.10169096384E+03 -0.79299334493E+02  0.19980907565E+03  0.46999998093E+01 0. -1.
</event>
<event>
 5   0  0.7781754E-02  0.5029589E+03  0.7818609E-02  0.1013009E+00
        1   -1    0    0  501    0  0.00000000000E+00  0.00000000000E+00  0.67897812286E+03  0.67897812288E+03  0.50400001928E-02 0. -1.
       -1   -1    0    0    0  501  0.00000000000E+00  0.00000000000E+00 -0.93142778398E+02  0.93142778534E+02  0.50400001928E-02 0.  1.
    10030    2    1    2    0    0  0.00000000000E+00  0.00000000000E+00  0.58583534446E+03  0.77212090141E+03  0.50295888060E+03 0.  0.
        2    1    3    3  502    0  0.15228778893E+03 -0.54689692602E+02  0.58844787927E+03  0.61028963596E+03  0.25500000920E-02 0. -1.
       -2    1    3    3    0  502 -0.15228778893E+03  0.54689692602E+02 -0.26125348135E+01  0.16183126545E+03  0.25500000920E-02 0.  1.
</event>
<event>
 5   0  0.1231822E-01  0.5133300E+03  0.7818609E-02  0.1010357E+00
       -2   -1    0    0    0  501  0.00000000000E+00  0.00000000000E+00  0.22915503797E+03  0.22915503799E+03  0.25500000920E-02 0. -1.
        2   -1    0    0  501    0  0.00000000000E+00  0.00000000000E+00 -0.28747753918E+03  0.28747753919E+03  0.25500000920E-02 0.  1.
    10030    2    1    2    0    0  0.00000000000E+00  0.00000000000E+00 -0.58322501210E+02  0.51663257718E+03  0.51333001632E+03 0.  0.
        1    1    3    3  502    0  0.66798620426E+02 -0.22906171151E+03  0.66028445173E+02  0.24757035155E+03  0.50400001928E-02 0. -1.
       -1    1    3    3    0  502 -0.66798620426E+02  0.22906171151E+03 -0.12435094638E+03  0.26906222563E+03  0.50400001928E-02 0.  1.
</event>
<event>
 5   0  0.7812547E-02  0.4954361E+03  0.7818609E-02  0.1014977E+00
       -1   -1    0    0    0  501  0.00000000000E+00  0.00000000000E+00  0.57293623161E+02  0.57293623383E+02  0.50400001928E-02 0.  1.
        1   -1    0    0  501    0  0.00000000000E+00  0.00000000000E+00 -0.10710483380E+04  0.10710483380E+04  0.50400001928E-02 0. -1.
    10030    2    1    2    0    0  0.00000000000E+00  0.00000000000E+00 -0.10137547149E+04  0.11283419614E+04  0.49543613109E+03 0.  0.
        4    1    3    3  502    0 -0.18652006063E+03  0.25348443796E+02 -0.14013822180E+03  0.23467554352E+03  0.12699999809E+01 0.  1.
       -4    1    3    3    0  502  0.18652006063E+03 -0.25348443796E+02 -0.87361649307E+03  0.89366641790E+03  0.12699999809E+01 0. -1.
</event>
<event>
 5   0  0.1191894E-01  0.4913517E+03  0.7818609E-02  0.1016061E+00
       -2   -1    0    0    0  501  0.00000000000E+00  0.00000000000E+00  0.23268035671E+03  0.23268035673E+03  0.25500000920E-02 0. -1.
        2   -1    0    0  501    0  0.00000000000E+00  0.00000000000E+00 -0.25939718729E+03  0.25939718731E+03  0.25500000920E-02 0.  1.
    10030    2    1    2    0    0  0.00000000000E+00  0.00000000000E+00 -0.26716830583E+02  0.49207754403E+03  0.49135172769E+03 0.  0.
        3    1    3    3  502    0  0.14866376304E+03 -0.93351749515E+02  0.15877088534E+03  0.23669319342E+03  0.10100000352E+00 0. -1.
       -3    1    3    3    0  502 -0.14866376304E+03  0.93351749515E+02 -0.18548771592E+03  0.25538435061E+03  0.10100000352E+00 0.  1.
</event>
<event>
 5   0  0.7531632E-02  0.4995708E+03  0.7818609E-02  0.1013891E+00
       -1   -1    0    0    0  501  0.00000000000E+00  0.00000000000E+00  0.29183571834E+03  0.29183571838E+03  0.50400001928E-02 0. -1.
        1   -1    0    0  501    0  0.00000000000E+00  0.00000000000E+00 -0.21379404644E+03  0.21379404650E+03  0.50400001928E-02 0.  1.
    10030    2    1    2    0    0  0.00000000000E+00  0.00000000000E+00  0.78041671892E+02  0.50562976488E+03  0.49957077235E+03 0.  0.
        3    1    3    3  502    0 -0.10438139709E+03  0.91431740831E+02  0.24923551734E+03  0.28526056965E+03  0.10100000352E+00 0. -1.
       -3    1    3    3    0  502  0.10438139709E+03 -0.91431740831E+02 -0.17119384545E+03  0.22036919524E+03  0.10100000352E+00 0.  1.
</event>
<event>
 5   0  0.7531632E-02  0.5013504E+03  0.7818609E-02  0.1013427E+00
        1   -1    0    0  501    0  0.00000000000E+00  0.00000000000E+00  0.89493699982E+02  0.89493700123E+02  0.50400001928E-02 0. -1.
       -1   -1    0    0    0  501  0.00000000000E+00  0.00000000000E+00 -0.70215049823E+03  0.70215049825E+03  0.50400001928E-02 0.  1.
    10030    2    1    2    0    0  0.00000000000E+00  0.00000000000E+00 -0.61265679825E+03  0.79164419837E+03  0.50135036090E+03 0.  0.
        3    1    3    3  502    0 -0.13081886186E+03  0.14125958461E+01 -0.64396811298E+03  0.65712290387E+03  0.10100000352E+00 0.  1.
       -3    1    3    3    0  502  0.13081886186E+03 -0.14125958461E+01  0.31311314730E+02  0.13452129451E+03  0.10100000352E+00 0. -1.
</event>
<event>
 5   0  0.7602288E-02  0.5073179E+03  0.7818609E-02  0.1011886E+00
        1   -1    0    0  501    0  0.00000000000E+00  0.00000000000E+00  0.71007239990E+03  0.71007239992E+03  0.50400001928E-02 0.  1.
       -1   -1    0    0    0  501  0.00000000000E+00  0.00000000000E+00 -0.90614503076E+02  0.90614503216E+02  0.50400001928E-02 0. -1.
    10030    2    1    2    0    0  0.00000000000E+00  0.00000000000E+00  0.61945789683E+03  0.80068690314E+03  0.50731787955E+03 0.  0.
        5    1    3    3  502    0 -0.69343288393E+02  0.24357040769E+03  0.28821963206E+03  0.38370259505E+03  0.46999998093E+01 0.  1.
       -5    1    3    3    0  502  0.69343288393E+02 -0.24357040769E+03  0.33123826477E+03  0.41698430808E+03  0.46999998093E+01 0. -1.
</event>
<event>
 5   0  0.1279188E-01  0.5025755E+03  0.7818609E-02  0.1013109E+00
        2   -1    0    0  501    0  0.00000000000E+00  0.00000000000E+00  0.36967852727E+03  0.36967852728E+03  0.25500000920E-02 0. -1.
       -2   -1    0    0    0  501  0.00000000000E+00  0.00000000000E+00 -0.17081201924E+03  0.17081201926E+03  0.25500000920E-02 0.  1.
    10030    2    1    2    0    0  0.00000000000E+00  0.00000000000E+00  0.19886650803E+03  0.54049054654E+03  0.50257550964E+03 0.  0.
        2    1    3    3  502    0  0.62176421049E+02  0.18824224802E+03  0.26549926316E+03  0.33134711409E+03  0.25500000920E-02 0. -1.
       -2    1    3    3    0  502 -0.62176421049E+02 -0.18824224802E+03 -0.66632755131E+02  0.20914343245E+03  0.25500000920E-02 0.  1.
</event>
<event>
 5   0  0.1211345E-01  0.5011555E+03  0.7818609E-02  0.1013478E+00
       -2   -1    0    0    0  501  0.00000000000E+00  0.00000000000E+00  0.34124998674E+03  0.34124998675E+03  0.25500000920E-02 0.  1.
        2   -1    0    0  501    0  0.00000000000E+00  0.00000000000E+00 -0.18399769205E+03  0.18399769207E+03  0.25500000920E-02 0. -1.
    10030    2    1    2    0    0  0.00000000000E+00  0.00000000000E+00  0.15725229469E+03  0.52524767882E+03  0.50115550473E+03 0.  0.
        5    1    3    3  502    0  0.74993749812E+02  0.64163801995E+02 -0.16271775606E+03  0.19036862697E+03  0.46999998093E+01 0. -1.
       -5    1    3    3    0  502 -0.74993749812E+02 -0.64163801995E+02  0.31997005075E+03  0.33487905186E+03  0.46999998093E+01 0.  1.
</event>
<event>
 5   0  0.7812547E-02  0.5058789E+03  0.7818609E-02  0.1012256E+00
        1   -1    0    0  501    0  0.00000000000E+00  0.00000000000E+00  0.98153428024E+03  0.98153428025E+03  0.50400001928E-02 0.  1.
       -1   -1    0    0    0  501  0.00000000000E+00  0.00000000000E+00 -0.65182008851E+02  0.65182009046E+02  0.50400001928E-02 0. -1.
    10030    2    1    2    0    0  0.00000000000E+00  0.00000000000E+00  0.91635227139E+03  0.10467162893E+04  0.50587894303E+03 0.  0.
        4    1    3    3  502    0 -0.62934957848E+02 -0.32411014701E+02  0.96061277437E+03  0.96321845808E+03  0.12699999809E+01 0.  1.
       -4    1    3    3    0  502  0.62934957848E+02  0.32411014701E+02 -0.44260502988E+02  0.83497831217E+02  0.12699999809E+01 0. -1.
</event>
<event>
 5   0  0.1243803E-01  0.4796720E+03  0.7818609E-02  0.1019225E+00
       -2   -1    0    0    0  501  0.00000000000E+00  0.00000000000E+00  0.59641060766E+02  0.59641060821E+02  0.25500000920E-02 0.  1.
        2   -1    0    0  501    0  0.00000000000E+00  0.00000000000E+00 -0.96445809017E+03  0.96445809018E+03  0.25500000920E-02 0. -1.
    10030    2    1    2    0    0  0.00000000000E+00  0.00000000000E+00 -0.90481702941E+03  0.10240991510E+04  0.47967198623E+03 0.  0.
        4    1    3    3  502    0  0.42211820416E+02 -0.20203889550E+03 -0.71317691036E+03  0.74244492823E+03  0.12699999809E+01 0. -1.
       -4    1    3    3    0  502 -0.42211820416E+02  0.20203889550E+03 -0.19164011905E+03  0.28165422277E+03  0.12699999809E+01 0.  1.
</event>
<event>
 5   0  0.7602288E-02  0.4967647E+03  0.7818609E-02  0.1014627E+00
        1   -1    0    0  501    0  0.00000000000E+00  0.00000000000E+00  0.75027035942E+02  0.75027036111E+02  0.50400001928E-02 0.  1.
       -1   -1    0    0    0  501  0.00000000000E+00  0.00000000000E+00 -0.82228752826E+03  0.82228752827E+03  0.50400001928E-02 0. -1.
    10030    2    1    2    0    0  0.00000000000E+00  0.00000000000E+00 -0.74726049232E+03  0.89731456439E+03  0.49676471702E+03 0.  0.
        5    1    3    3  502    0  0.25184909931E+02 -0.12489400720E+03  0.11411610482E+02  0.12800432639E+03  0.46999998093E+01 0.  1.
       -5    1    3    3    0  502 -0.25184909931E+02  0.12489400720E+03 -0.75867210280E+03  0.76931023800E+03  0.46999998093E+01 0. -1.
</event>
<event>
 5   0  0.1279188E-01  0.4979615E+03  0.7818609E-02  0.1014312E+00
        2   -1    0    0  501    0  0.00000000000E+00  0.00000000000E+00  0.19793974435E+04  0.19793974435E+04  0.25500000920E-02 0. -1.
       -2   -1    0    0    0  501  0.00000000000E+00  0.00000000000E+00 -0.31318328738E+02  0.31318328842E+02  0.25500000920E-02 0.  1.
    10030    2    1    2    0    0  0.00000000000E+00  0.00000000000E+00  0.19480791148E+04  0.20107157724E+04  0.49796152440E+03 0.  0.
        2    1    3    3  502    0 -0.11319665578E+03 -0.85038648690E+02  0.18010329965E+04  0.18065893028E+04  0.25500000920E-02 0. -1.
       -2    1    3    3    0  502  0.11319665578E+03  0.85038648690E+02  0.14704611827E+03  0.20412646951E+03  0.25500000920E-02 0.  1.
</event>
<event>
 5   0  0.1191894E-01  0.5016431E+03  0.7818609E-02  0.1013351E+00
        2   -1    0    0  501    0  0.00000000000E+00  0.00000000000E+00  0.21142323959E+03  0.21142323961E+03  0.25500000920E-02 0. -1.
       -2   -1    0    0    0  501  0.00000000000E+00  0.00000000000E+00 -0.29756170989E+03  0.29756170990E+03  0.25500000920E-02 0.  1.
    10030    2    1    2    0    0  0.00000000000E+00  0.00000000000E+00 -0.86138470298E+02  0.50898494951E+03  0.50164314285E+03 0.  0.
        3    1    3    3  502    0  0.17380048654E+02 -0.21743959895E+03  0.82554792311E+02  0.23323239316E+03  0.10100000352E+00 0. -1.
       -3    1    3    3    0  502 -0.17380048654E+02  0.21743959895E+03 -0.16869326261E+03  0.27575255635E+03  0.10100000352E+00 0.  1.
</event>
<event>
 5   0  0.7781754E-02  0.4855234E+03  0.7818609E-02  0.1017628E+00
       -1   -1    0    0    0  501  0.00000000000E+00  0.00000000000E+00  0.20101381582E+03  0.20101381588E+03  0.50400001928E-02 0. -1.
        1   -1    0    0  501    0  0.00000000000E+00  0.00000000000E+00 -0.29318009642E+03  0.29318009646E+03  0.50400001928E-02 0.  1.
    10030    2    1    2    0    0  0.00000000000E+00  0.00000000000E+00 -0.92166280601E+02  0.49419391234E+03  0.48552342859E+03 0.  0.
        2    1    3    3  502    0  0.10183696295E+03  0.67843787031E+02 -0.25949304754E+03  0.28689752211E+03  0.25500000920E-02 0.  1.
       -2    1    3    3    0  502 -0.10183696295E+03 -0.67843787031E+02  0.16732676694E+03  0.20729639023E+03  0.25500000920E-02 0. -1.
</event>
<event>
 5   0  0.7602288E-02  0.4986696E+03  0.7818609E-02  0.1014127E+00
       -1   -1    0    0    0  501  0.00000000000E+00  0.00000000000E+00  0.66748621492E+02  0.66748621683E+02  0.50400001928E-02 0. -1.
        1   -1    0    0  501    0  0.00000000000E+00  0.00000000000E+00 -0.93137274117E+03  0.93137274118E+03  0.50400001928E-02 0.  1.
    10030    2    1    2    0    0  0.00000000000E+00  0.00000000000E+00 -0.86462411967E+03  0.99812136286E+03  0.49866961676E+03 0.  0.
        5    1    3    3  502    0  0.21530317587E+03  0.11749424944E+03 -0.52149761175E+03  0.57631779883E+03  0.46999998093E+01 0. -1.
       -5    1    3    3    0  502 -0.21530317587E+03 -0.11749424944E+03 -0.34312650793E+03  0.42180356403E+03  0.46999998093E+01 0.  1.
</event>
<event>
 5   0  0.1191894E-01  0.5043658E+03  0.7818609E-02  0.1012646E+00
       -2   -1    0    0    0  501  0.00000000000E+00  0.00000000000E+00  0.55523642125E+02  0.55523642184E+02  0.25500000920E-02 0.  1.
        2   -1    0    0  501    0  0.00000000000E+00  0.00000000000E+00 -0.11453896344E+04  0.11453896344E+04  0.25500000920E-02 0. -1.
    10030    2    1    2    0    0  0.00000000000E+00  0.00000000000E+00 -0.10898659923E+04  0.12009132766E+04  0.50436575694E+03 0.  0.
        3    1    3    3  502    0 -0.16220752394E+03 -0.55649659848E+01 -0.85362453671E+02  0.18338213754E+03  0.10100000352E+00 0.  1.
       -3    1    3    3    0  502  0.16220752394E+03  0.55649659848E+01 -0.10045035386E+04  0.10175311391E+04  0.10100000352E+00 0. -1.
</event>
<event>
 5   0  0.1191894E-01  0.4878832E+03  0.7818609E-02  0.1016991E+00
        2   -1    0    0  501    0  0.00000000000E+00  0.00000000000E+00  0.50842796842E+03  0.50842796843E+03  0.25500000920E-02 0. -1.
       -2   -1    0    0    0  501  0.00000000000E+00  0.00000000000E+00 -0.11704216788E+03  0.11704216790E+03  0.25500000920E-02 0.  1.
    10030    2    1    2    0    0  0.00000000000E+00  0.00000000000E+00  0.39138580055E+03  0.62547013633E+03  0.48788323047E+03 0.  0.
        3    1    3    3  502    0 -0.12065170308E+03  0.20954999912E+03  0.15436000746E+03  0.28687115173E+03  0.10100000352E+00 0. -1.
       -3    1    3    3    0  502  0.12065170308E+03 -0.20954999912E+03  0.23702579308E+03  0.33859898461E+03  0.10100000352E+00 0.  1.
</event>
<event>
 5   0  0.1279188E-01  0.4965606E+03  0.7818609E-02  0.1014681E+00
       -2   -1    0    0    0  501  0.00000000000E+00  0.00000000000E+00  0.25677463922E+02  0.25677464048E+02  0.25500000920E-02 0.  1.
        2   -1    0    0  501    0  0.00000000000E+00  0.00000000000E+00 -0.24006697552E+04  0.24006697552E+04  0.25500000920E-02 0. -1.
    10030    2    1    2    0    0  0.00000000000E+00  0.00000000000E+00 -0.23749922913E+04  0.24263472193E+04  0.49656061536E+03 0.  0.
        2    1    3    3  502    0  0.22587777919E+03 -0.83405236646E+02 -0.89164628160E+03  0.92358556514E+03  0.25500000920E-02 0.  1.
       -2    1    3    3    0  502 -0.22587777919E+03  0.83405236646E+02 -0.14833460097E+04  0.15027616541E+04  0.25500000920E-02 0. -1.
</event>
<event>
 5   0  0.7416638E-02  0.5152522E+03  0.7818609E-02  0.1009873E+00
        1   -1    0    0  501    0  0.00000000000E+00  0.00000000000E+00  0.36704916890E+03  0.36704916893E+03  0.50400001928E-02 0.  1.
       -1   -1    0    0    0  501  0.00000000000E+00  0.00000000000E+00 -0.18082373117E+03  0.18082373124E+03  0.50400001928E-02 0. -1.
    10030    2    1    2    0    0  0.00000000000E+00  0.00000000000E+00  0.18622543773E+03  0.54787290017E+03  0.51525217232E+03 0.  0.
        1    1    3    3  502    0  0.11881387822E+03  0.99497484494E+02 -0.12571929655E+03  0.19955407445E+03  0.50400001928E-02 0. -1.
       -1    1    3    3    0  502 -0.11881387822E+03 -0.99497484494E+02  0.31194473428E+03  0.34831882572E+03  0.50400001928E-02 0.  1.
</event>
<event>
 5   0  0.1243803E-01  0.5123614E+03  0.7818609E-02  0.1010602E+00
       -2   -1    0    0    0  501  0.00000000000E+00  0.00000000000E+00  0.28379912934E+02  0.28379913048E+02  0.25500000920E-02 0. -1.
        2   -1    0    0  501    0  0.00000000000E+00  0.00000000000E+00 -0.23124999533E+04  0.23124999533E+04  0.25500000920E-02 0.  1.
    10030    2    1    2    0    0  0.00000000000E+00  0.00000000000E+00 -0.22841200404E+04  0.23408798664E+04  0.51236138601E+03 0.  0.
        4    1    3    3  502    0  0.43527368410E+02 -0.11887689909E+03 -0.21595874761E+04  0.21632951784E+04  0.12699999809E+01 0.  1.
       -4    1    3    3    0  502 -0.43527368410E+02  0.11887689909E+03 -0.12453256424E+03  0.17758468795E+03  0.12699999809E+01 0. -1.
</event>
<event>
 5   0  0.1191894E-01  0.4954616E+03  0.7818609E-02  0.1014970E+00
       -2   -1    0    0    0  501  0.00000000000E+00  0.00000000000E+00  0.90790958982E+02  0.90790959018E+02  0.25500000920E-02 0.  1.
        2   -1    0    0  501    0  0.00000000000E+00  0.00000000000E+00 -0.67595452764E+03  0.67595452764E+03  0.25500000920E-02 0. -1.
    10030    2    1    2    0    0  0.00000000000E+00  0.00000000000E+00 -0.58516356866E+03  0.76674548666E+03  0.49546164255E+03 0.  0.
        3    1    3    3  502    0 -0.10169547119E+03 -0.16289362202E+03 -0.53478128938E+03  0.56821416616E+03  0.10100000352E+00 0. -1.
       -3    1    3    3    0  502  0.10169547119E+03  0.16289362202E+03 -0.50382279277E+02  0.19853132050E+03  0.10100000352E+00 0.  1.
</event>
<event>
 5   0  0.5006750E-02  0.4990191E+03  0.7818609E-02  0.1014035E+00
        4   -1    0    0  501    0  0.00000000000E+00  0.00000000000E+00  0.82977347470E+02  0.82987065818E+02  0.12699999809E+01 0.  1.
       -4   -1    0    0    0  501  0.00000000000E+00  0.00000000000E+00 -0.75021099040E+03  0.75021206536E+03  0.12699999809E+01 0. -1.
    10030    2    1    2    0    0  0.00000000000E+00  0.00000000000E+00 -0.66723364293E+03  0.83319913118E+03  0.49901909577E+03 0.  0.
        1    1    3    3  502    0  0.22167744096E+02 -0.19260031777E+03 -0.59586047046E+03  0.62660672799E+03  0.50400001928E-02 0. -1.
       -1    1    3    3    0  502 -0.22167744096E+02  0.19260031777E+03 -0.71373172470E+02  0.20659240319E+03  0.50400001928E-02 0.  1.
</event>
<event>
 5   0  0.7812547E-02  0.5093847E+03  0.7818609E-02  0.1011358E+00
       -1   -1    0    0    0  501  0.00000000000E+00  0.00000000000E+00  0.32317731990E+03  0.32317731994E+03  0.50400001928E-02 0. -1.
        1   -1    0    0  501    0  0.00000000000E+00  0.00000000000E+00 -0.20072014242E+03  0.20072014248E+03  0.50400001928E-02 0.  1.
    10030    2    1    2    0    0  0.00000000000E+00  0.00000000000E+00  0.12245717748E+03  0.52389746242E+03  0.50938471789E+03 0.  0.
        4    1    3    3  502    0 -0.17550840020E+03  0.52233207659E+00 -0.12859166682E+03  0.21757964300E+03  0.12699999809E+01 0.  1.
       -4    1    3    3    0  502  0.17550840020E+03 -0.52233207659E+00  0.25104884430E+03  0.30631781942E+03  0.12699999809E+01 0. -1.
</event>
<event>
 5   0  0.1231822E-01  0.4820303E+03  0.7818609E-02  0.1018579E+00
        2   -1    0    0  501    0  0.00000000000E+00  0.00000000000E+00  0.52955255646E+03  0.52955255647E+03  0.25500000920E-02 0. -1.
       -2   -1    0    0    0  501  0.00000000000E+00  0.00000000000E+00 -0.10969316373E+03  0.10969316376E+03  0.25500000920E-02 0.  1.
    10030    2    1    2    0    0  0.00000000000E+00  0.00000000000E+00  0.41985939273E+03  0.63924572023E+03  0.48203026997E+03 0.  0.
        1    1    3    3  502    0 -0.22719918610E+03  0.75547083775E+01  0.10374012733E+03  0.24987708543E+03  0.50400001928E-02 0.  1.
       -1    1    3    3    0  502  0.22719918610E+03 -0.75547083775E+01  0.31611926540E+03  0.38936863480E+03  0.50400001928E-02 0. -1.
</event>
<event>
 5   0  0.7602288E-02  0.5083628E+03  0.7818609E-02  0.1011619E+00
       -1   -1    0    0    0  501  0.00000000000E+00  0.00000000000E+00  0.16558937878E+03  0.16558937886E+03  0.50400001928E-02 0. -1.
        1   -1    0    0  501    0  0.00000000000E+00  0.00000000000E+00 -0.39017111847E+03  0.39017111850E+03  0.50400001928E-02 0.  1.
    10030    2    1    2    0    0  0.00000000000E+00  0.00000000000E+00 -0.22458173969E+03  0.55576049736E+03  0.50836283561E+03 0.  0.
        5    1    3    3  502    0 -0.17164651784E+03 -0.11965609805E+03 -0.26998230957E+03  0.34160305380E+03  0.46999998093E+01 0.  1.
       -5    1    3    3    0  502  0.17164651784E+03  0.11965609805E+03  0.45400569886E+02  0.21415744356E+03  0.46999998093E+01 0. -1.
</event>
<event>
 5   0  0.7812547E-02  0.4979604E+03  0.7818609E-02  0.1014313E+00
        1   -1    0    0  501    0  0.00000000000E+00  0.00000000000E+00  0.44961751124E+03  0.44961751127E+03  0.50400001928E-02 0. -1.
       -1   -1    0    0    0  501  0.00000000000E+00  0.00000000000E+00 -0.13787529366E+03  0.13787529375E+03  0.50400001928E-02 0.  1.
    10030    2    1    2    0    0  0.00000000000E+00  0.00000000000E+00  0.31174221759E+03  0.58749280502E+03  0.49796042586E+03 0.  0.
        4    1    3    3  502    0  0.99158178811E+02 -0.28290472646E+02  0.42323752944E+03  0.43561946064E+03  0.12699999809E+01 0. -1.
       -4    1    3    3    0  502 -0.99158178811E+02  0.28290472646E+02 -0.11149531185E+03  0.15187334438E+03  0.12699999809E+01 0.  1.
</event>
<event>
 5   0  0.1191894E-01  0.4966641E+03  0.7818609E-02  0.1014653E+00
        2   -1    0    0  501    0  0.00000000000E+00  0.00000000000E+00  0.26050292837E+03  0.26050292838E+03  0.25500000920E-02 0. -1.
       -2   -1    0    0    0  501  0.00000000000E+00  0.00000000000E+00 -0.23672977748E+03  0.23672977749E+03  0.25500000920E-02 0.  1.
    10030    2    1    2    0    0  0.00000000000E+00  0.00000000000E+00  0.23773150888E+02  0.49723270588E+03  0.49666407268E+03 0.  0.
        3    1    3    3  502    0  0.10187046147E+03 -0.15996484546E+03 -0.14861680390E+03  0.24094253943E+03  0.10100000352E+00 0.  1.
       -3    1    3    3    0  502 -0.10187046147E+03  0.15996484546E+03  0.17238995479E+03  0.25629016645E+03  0.10100000352E+00 0. -1.
</event>
<event>
 5   0  0.7812547E-02  0.4998688E+03  0.7818609E-02  0.1013813E+00
        1   -1    0    0  501    0  0.00000000000E+00  0.00000000000E+00  0.24732737641E+03  0.24732737647E+03  0.50400001928E-02 0. -1.
       -1   -1    0    0    0  501  0.00000000000E+00  0.00000000000E+00 -0.25256891083E+03  0.25256891088E+03  0.50400001928E-02 0.  1.
    10030    2    1    2    0    0  0.00000000000E+00  0.00000000000E+00 -0.52415344176E+01  0.49989628735E+03  0.49986880721E+03 0.  0.
        4    1    3    3  502    0  0.58233553083E+02  0.13420539451E+03  0.20003133271E+03  0.24782328701E+03  0.12699999809E+01 0. -1.
       -4    1    3    3    0  502 -0.58233553083E+02 -0.13420539451E+03 -0.20527286713E+03  0.25207300034E+03  0.12699999809E+01 0.  1.
</event>
<event>
 5   0  0.7416638E-02  0.5019184E+03  0.7818609E-02  0.1013279E+00
       -1   -1    0    0    0  501  0.00000000000E+00  0.00000000000E+00  0.91116602910E+02  0.91116603050E+02  0.50400001928E-02 0.  1.
        1   -1    0    0  501    0  0.00000000000E+00  0.00000000000E+00 -0.69120796598E+03  0.69120796600E+03  0.50400001928E-02 0. -1.
    10030    2    1    2    0    0  0.00000000000E+00  0.00000000000E+00 -0.60009136307E+03  0.78232456905E+03  0.50191840702E+03 0.  0.
        1    1    3    3  502    0  0.19336108882E+03  0.12761159100E+03 -0.14967417913E+03  0.27581803558E+03  0.50400001928E-02 0.  1.
       -1    1    3    3    0  502 -0.19336108882E+03 -0.12761159100E+03 -0.45041718394E+03  0.50650653347E+03  0.50400001928E-02 0. -1.
</event>
<event>
 5   0  0.7781754E-02  0.5037557E+03  0.7818609E-02  0.1012803E+00
        1   -1    0    0  501    0  0.00000000000E+00  0.00000000000E+00  0.67306956800E+03  0.67306956802E+03  0.50400001928E-02 0.  1.
       -1   -1    0    0    0  501  0.00000000000E+00  0.00000000000E+00 -0.94258394176E+02  0.94258394311E+02  0.50400001928E-02 0. -1.
    10030    2    1    2    0    0  0.00000000000E+00  0.00000000000E+00  0.57881117383E+03  0.76732796233E+03  0.50375572139E+03 0.  0.
        2    1    3    3  502    0 -0.19659044828E+03 -0.11074240399E+03  0.11889554847E+03  0.25504477224E+03  0.25500000920E-02 0.  1.
       -2    1    3    3    0  502  0.19659044828E+03  0.11074240399E+03  0.45991562536E+03  0.51228319009E+03  0.25500000920E-02 0. -1.
</event>
<event>
 5   0  0.1231822E-01  0.4930562E+03  0.7818609E-02  0.1015607E+00
        2   -1    0    0  501    0  0.00000000000E+00  0.00000000000E+00  0.94566462798E+03  0.94566462799E+03  0.25500000920E-02 0. -1.
       -2   -1    0    0    0  501  0.00000000000E+00  0.00000000000E+00 -0.64268129821E+02  0.64268129871E+02  0.25500000920E-02 0.  1.
    10030    2    1    2    0    0  0.00000000000E+00  0.00000000000E+00  0.88139649816E+03  0.10099327579E+04  0.49305617167E+03 0.  0.
        1    1    3    3  502    0 -0.51983260427E+02  0.21031699008E+03  0.19972238820E+03  0.29466002114E+03  0.50400001928E-02 0.  1.
       -1    1    3    3    0  502  0.51983260427E+02 -0.21031699008E+03  0.68167410996E+03  0.71527273672E+03  0.50400001928E-02 0. -1.
</event>
<event>
 5   0  0.7602288E-02  0.4966987E+03  0.7818609E-02  0.1014644E+00
       -1   -1    0    0    0  501  0.00000000000E+00  0.00000000000E+00  0.11566635156E+03  0.11566635167E+03  0.50400001928E-02 0. -1.
        1   -1    0    0  501    0  0.00000000000E+00  0.00000000000E+00 -0.53323540637E+03  0.53323540640E+03  0.50400001928E-02 0.  1.
    10030    2    1    2    0    0  0.00000000000E+00  0.00000000000E+00 -0.41756905481E+03  0.64890175807E+03  0.49669867736E+03 0.  0.
        5    1    3    3  502    0  0.58167300371E+01 -0.35150915226E+02 -0.52982046951E+03  0.53103789045E+03  0.46999998093E+01 0.  1.
       -5    1    3    3    0  502 -0.58167300371E+01  0.35150915226E+02  0.11225141470E+03  0.11786386762E+03  0.46999998093E+01 0. -1.
</event>
<event>
 5   0  0.1191894E-01  0.4990739E+03  0.7818609E-02  0.1014021E+00
        2   -1    0    0  501    0  0.00000000000E+00  0.00000000000E+00  0.18800792128E+03  0.18800792129E+03  0.25500000920E-02 0. -1.
       -2   -1    0    0    0  501  0.00000000000E+00  0.00000000000E+00 -0.33120252812E+03  0.33120252813E+03  0.25500000920E-02 0.  1.
    10030    2    1    2    0    0  0.00000000000E+00  0.00000000000E+00 -0.14319460684E+03  0.51921044942E+03  0.49907393777E+03 0.  0.
        3    1    3    3  502    0 -0.13295850149E+03  0.14148109967E+02  0.14759425682E+03  0.19915372701E+03  0.10100000352E+00 0. -1.
       -3    1    3    3    0  502  0.13295850149E+03 -0.14148109967E+02 -0.29078886366E+03  0.32005672242E+03  0.10100000352E+00 0.  1.
</event>
<event>
 5   0  0.1279188E-01  0.5002223E+03  0.7818609E-02  0.1013721E+00
        2   -1    0    0  501    0  0.00000000000E+00  0.00000000000E+00  0.74294023154E+03  0.74294023154E+03  0.25500000920E-02 0.  1.
       -2   -1    0    0    0  501  0.00000000000E+00  0.00000000000E+00 -0.84200022392E+02  0.84200022431E+02  0.25500000920E-02 0. -1.
    10030    2    1    2    0    0  0.00000000000E+00  0.00000000000E+00  0.65874020915E+03  0.82714025397E+03  0.50022228719E+03 0.  0.
        2    1    3    3  502    0 -0.12194226289E+02 -0.21211125490E+03  0.11115410319E+03  0.23978139684E+03  0.25500000920E-02 0. -1.
       -2    1    3    3    0  502  0.12194226289E+02  0.21211125490E+03  0.54758610595E+03  0.58735885713E+03  0.25500000920E-02 0.  1.
</event>
<event>
 5   0  0.1231822E-01  0.5041921E+03  0.7818609E-02  0.1012690E+00
        2   -1    0    0  501    0  0.00000000000E+00  0.00000000000E+00  0.49342548668E+03  0.49342548669E+03  0.25500000920E-02 0. -1.
       -2   -1    0    0    0  501  0.00000000000E+00  0.00000000000E+00 -0.12879839907E+03  0.12879839910E+03  0.25500000920E-02 0.  1.
    10030    2    1    2    0    0  0.00000000000E+00  0.00000000000E+00  0.36462708761E+03  0.62222388579E+03  0.50419207751E+03 0.  0.
        1    1    3    3  502    0  0.72248069612E+02  0.25453590681E+02  0.47871555479E+03  0.48480537462E+03  0.50400001928E-02 0. -1.
       -1    1    3    3    0  502 -0.72248069612E+02 -0.25453590681E+02 -0.11408846718E+03  0.13741851116E+03  0.50400001928E-02 0.  1.
</event>
<event>
 5   0  0.1191894E-01  0.5013350E+03  0.7818609E-02  0.1013431E+00
       -2   -1    0    0    0  501  0.00000000000E+00  0.00000000000E+00  0.23120054177E+03  0.23120054178E+03  0.25500000920E-02 0.  1.
        2   -1    0    0  501    0  0.00000000000E+00  0.00000000000E+00 -0.27177356721E+03  0.27177356722E+03  0.25500000920E-02 0. -1.
    10030    2    1    2    0    0  0.00000000000E+00  0.00000000000E+00 -0.40573025437E+02  0.50297410900E+03  0.50133500171E+03 0.  0.
        3    1    3    3  502    0  0.58036648957E+02 -0.23868561722E+03 -0.70400895958E+02  0.25552959289E+03  0.10100000352E+00 0.  1.
       -3    1    3    3    0  502 -0.58036648957E+02  0.23868561722E+03  0.29827870521E+02  0.24744451611E+03  0.10100000352E+00 0. -1.
</event>
<event>
 5   0  0.7416638E-02  0.5006327E+03  0.7818609E-02  0.1013614E+00
        1   -1    0    0  501    0  0.00000000000E+00  0.00000000000E+00  0.26243709513E+03  0.26243709518E+03  0.50400001928E-02 0. -1.
       -1   -1    0    0    0  501  0.00000000000E+00  0.00000000000E+00 -0.23875543450E+03  0.23875543455E+03  0.50400001928E-02 0.  1.
    10030    2    1    2    0    0  0.00000000000E+00  0.00000000000E+00  0.23681660631E+02  0.50119252973E+03  0.50063273046E+03 0.  0.
        1    1    3    3  502    0  0.24193114519E+03  0.15139151430E+02  0.74347893157E+02  0.25354976269E+03  0.50400001928E-02 0.  1.
       -1    1    3    3    0  502 -0.24193114519E+03 -0.15139151430E+02 -0.50666232526E+02  0.24764276703E+03  0.50400001928E-02 0. -1.
</event>
<event>
 5   0  0.7602288E-02  0.4956580E+03  0.7818609E-02  0.1014918E+00
        1   -1    0    0  501    0  0.00000000000E+00  0.00000000000E+00  0.42228125488E+03  0.42228125491E+03  0.50400001928E-02 0.  1.
       -1   -1    0    0    0  501  0.00000000000E+00  0.00000000000E+00 -0.14544622720E+03  0.14544622729E+03  0.50400001928E-02 0. -1.
    10030    2    1    2    0    0  0.00000000000E+00  0.00000000000E+00  0.27683502768E+03  0.56772748220E+03  0.49565800860E+03 0.  0.
        5    1    3    3  502    0  0.68056582859E+02  0.18970744819E+03  0.30351638327E+03  0.36436917993E+03  0.46999998093E+01 0.  1.
       -5    1    3    3    0  502 -0.68056582859E+02 -0.18970744819E+03 -0.26681355592E+02  0.20335830227E+03  0.46999998093E+01 0. -1.
</event>
<event>
 5   0  0.7602288E-02  0.4984760E+03  0.7818609E-02  0.1014177E+00
        1   -1    0    0  501    0  0.00000000000E+00  0.00000000000E+00  0.13956650851E+03  0.13956650860E+03  0.50400001928E-02 0. -1.
       -1   -1    0    0    0  501  0.00000000000E+00  0.00000000000E+00 -0.44508944721E+03  0.44508944724E+03  0.50400001928E-02 0.  1.
    10030    2    1    2    0    0  0.00000000000E+00  0.00000000000E+00 -0.30552293870E+03  0.58465595584E+03  0.49847599804E+03 0.  0.
        5    1    3    3  502    0  0.22957910781E+03 -0.95757147999E+02 -0.17021708499E+03  0.30144973736E+03  0.46999998093E+01 0.  1.
       -5    1    3    3    0  502 -0.22957910781E+03  0.95757147999E+02 -0.13530585371E+03  0.28320621848E+03  0.46999998093E+01 0. -1.
</event>
<event>
 5   0  0.1243803E-01  0.5099937E+03  0.7818609E-02  0.1011203E+00
        2   -1    0    0  501    0  0.00000000000E+00  0.00000000000E+00  0.44843661643E+03  0.44843661644E+03  0.25500000920E-02 0. -1.
       -2   -1    0    0    0  501  0.00000000000E+00  0.00000000000E+00 -0.14500019222E+03  0.14500019225E+03  0.25500000920E-02 0.  1.
    10030    2    1    2    0    0  0.00000000000E+00  0.00000000000E+00  0.30343642421E+03  0.59343680868E+03  0.50999370816E+03 0.  0.
        4    1    3    3  502    0  0.13526476895E+02 -0.25280896184E+03  0.11630056548E+03  0.27860863446E+03  0.12699999809E+01 0.  1.
       -4    1    3    3    0  502 -0.13526476895E+02  0.25280896184E+03  0.18713585873E+03  0.31482817423E+03  0.12699999809E+01 0. -1.
</event>
<event>
 5   0  0.1279188E-01  0.5120642E+03  0.7818609E-02  0.1010677E+00
       -2   -1    0    0    0  501  0.00000000000E+00  0.00000000000E+00  0.95087864069E+02  0.95087864103E+02  0.25500000920E-02 0.  1.
        2   -1    0    0  501    0  0.00000000000E+00  0.00000000000E+00 -0.68938798455E+03  0.68938798456E+03  0.25500000920E-02 0. -1.
    10030    2    1    2    0    0  0.00000000000E+00  0.00000000000E+00 -0.59430012048E+03  0.78447584866E+03  0.51206417950E+03 0.  0.
        2    1    3    3  502    0  0.91657075981E+02 -0.86915784679E+01 -0.66315036158E+03  0.66951098959E+03  0.25500000920E-02 0. -1.
       -2    1    3    3    0  502 -0.91657075981E+02  0.86915784679E+01  0.68850241101E+02  0.11496485906E+03  0.25500000920E-02 0.  1.
</event>
<event>
 5   0  0.5006750E-02  0.4982777E+03  0.7818609E-02  0.1014229E+00
       -4   -1    0    0    0  501  0.00000000000E+00  0.00000000000E+00  0.12684562501E+03  0.12685198258E+03  0.12699999809E+01 0. -1.
        4   -1    0    0  501    0  0.00000000000E+00  0.00000000000E+00 -0.48931693245E+03  0.48931858056E+03  0.12699999809E+01 0.  1.
    10030    2    1    2    0    0  0.00000000000E+00  0.00000000000E+00 -0.36247130743E+03  0.61617056314E+03  0.49827774802E+03 0.  0.
        5    1    3    3  502    0  0.11412821120E+02  0.67007956575E+02  0.11510445034E+03  0.13375889958E+03  0.46999998093E+01 0. -1.
       -5    1    3    3    0  502 -0.11412821120E+02 -0.67007956575E+02 -0.47757575777E+03  0.48241166356E+03  0.46999998093E+01 0.  1.
</event>
<event>
 5   0  0.5006750E-02  0.4977658E+03  0.7818609E-02  0.1014364E+00
       -3   -1    0    0    0  501  0.00000000000E+00  0.00000000000E+00  0.43162644291E+03  0.43162645473E+03  0.10100000352E+00 0.  1.
        3   -1    0    0  501    0  0.00000000000E+00  0.00000000000E+00 -0.14350994547E+03  0.14350998101E+03  0.10100000352E+00 0. -1.
    10030    2    1    2    0    0  0.00000000000E+00  0.00000000000E+00  0.28811649744E+03  0.57513643574E+03  0.49776581202E+03 0.  0.
        5    1    3    3  502    0  0.24447627597E+03 -0.78908260093E+01  0.91239586200E+02  0.26110853440E+03  0.46999998093E+01 0. -1.
       -5    1    3    3    0  502 -0.24447627597E+03  0.78908260093E+01  0.19687691124E+03  0.31402790134E+03  0.46999998093E+01 0.  1.
</event>
<event>
 5   0  0.5006750E-02  0.5043087E+03  0.7818609E-02  0.1012660E+00
       -4   -1    0    0    0  501  0.00000000000E+00  0.00000000000E+00  0.11755571355E+03  0.11756257350E+03  0.12699999809E+01 0.  1.
        4   -1    0    0  501    0  0.00000000000E+00  0.00000000000E+00 -0.54084195733E+03  0.54084344843E+03  0.12699999809E+01 0. -1.
    10030    2    1    2    0    0  0.00000000000E+00  0.00000000000E+00 -0.42328624377E+03  0.65840602193E+03  0.50430868082E+03 0.  0.
        4    1    3    3  502    0  0.16451166007E+03  0.14793655558E+03 -0.36956150514E+03  0.43072802296E+03  0.12699999809E+01 0. -1.
       -4    1    3    3    0  502 -0.16451166007E+03 -0.14793655558E+03 -0.53724738629E+02  0.22767799897E+03  0.12699999809E+01 0.  1.
</event>
<event>
 5   0  0.1231822E-01  0.5229369E+03  0.7818609E-02  0.1007960E+00
        2   -1    0    0  501    0  0.00000000000E+00  0.00000000000E+00  0.22515769533E+03  0.22515769534E+03  0.25500000920E-02 0. -1.
       -2   -1    0    0    0  501  0.00000000000E+00  0.00000000000E+00 -0.30363498770E+03  0.30363498771E+03  0.25500000920E-02 0.  1.
    10030    2    1    2    0    0  0.00000000000E+00  0.00000000000E+00 -0.78477292370E+02  0.52879268305E+03  0.52293691420E+03 0.  0.
        1    1    3    3  502    0 -0.62095394495E+02 -0.14441524559E+03 -0.25051403991E+03  0.29575139120E+03  0.50400001928E-02 0.  1.
       -1    1    3    3    0  502  0.62095394495E+02  0.14441524559E+03  0.17203674754E+03  0.23304129185E+03  0.50400001928E-02 0. -1.
</event>
<event>
 5   0  0.7812547E-02  0.5005334E+03  0.7818609E-02  0.1013640E+00
        1   -1    0    0  501    0  0.00000000000E+00  0.00000000000E+00  0.11298824229E+04  0.11298824230E+04  0.50400001928E-02 0. -1.
       -1   -1    0    0    0  501  0.00000000000E+00  0.00000000000E+00 -0.55433573602E+02  0.55433573832E+02  0.50400001928E-02 0.  1.
    10030    2    1    2    0    0  0.00000000000E+00  0.00000000000E+00  0.10744488493E+04  0.11853159968E+04  0.50053339788E+03 0.  0.
        4    1    3    3  502    0 -0.16746443090E+03 -0.37822026761E+02  0.10601476694E+03  0.20178103240E+03  0.12699999809E+01 0.  1.
       -4    1    3    3    0  502  0.16746443090E+03  0.37822026761E+02  0.96843408240E+03  0.98353496440E+03  0.12699999809E+01 0. -1.
</event>
<event>
 5   0  0.7602288E-02  0.4923300E+03  0.7818609E-02  0.1015800E+00
        1   -1    0    0  501    0  0.00000000000E+00  0.00000000000E+00  0.81729988705E+03  0.81729988707E+03  0.50400001928E-02 0. -1.
       -1   -1    0    0    0  501  0.00000000000E+00  0.00000000000E+00 -0.74143183313E+02  0.74143183485E+02  0.50400001928E-02 0.  1.
    10030    2    1    2    0    0  0.00000000000E+00  0.00000000000E+00  0.74315670374E+03  0.89144307055E+03  0.49233003334E+03 0.  0.
        5    1    3    3  502    0  0.96074823508E+02 -0.20475069106E+03  0.54733295924E+03  0.59224038655E+03  0.46999998093E+01 0. -1.
       -5    1    3    3    0  502 -0.96074823508E+02  0.20475069106E+03  0.19582374451E+03  0.29920268400E+03  0.46999998093E+01 0.  1.
</event>
<event>
 5   0  0.7416638E-02  0.5039222E+03  0.7818609E-02  0.1012760E+00
        1   -1    0    0  501    0  0.00000000000E+00  0.00000000000E+00  0.16505067042E+03  0.16505067049E+03  0.50400001928E-02 0. -1.
       -1   -1    0    0    0  501  0.00000000000E+00  0.00000000000E+00 -0.38463574952E+03  0.38463574955E+03  0.50400001928E-02 0.  1.
    10030    2    1    2    0    0  0.00000000000E+00  0.00000000000E+00 -0.21958507910E+03  0.54968642005E+03  0.50392217000E+03 0.  0.
        1    1    3    3  502    0  0.66740139095E+02 -0.11932899915E+03  0.12106582941E+03  0.18262144256E+03  0.50400001928E-02 0. -1.
       -1    1    3    3    0  502 -0.66740139095E+02  0.11932899915E+03 -0.34065090851E+03  0.36706497749E+03  0.50400001928E-02 0.  1.
</event>
<event>
 5   0  0.7531632E-02  0.4979604E+03  0.7818609E-02  0.1014313E+00
        1   -1    0    0  501    0  0.00000000000E+00  0.00000000000E+00  0.16743906191E+03  0.16743906199E+03  0.50400001928E-02 0.  1.
       -1   -1    0    0    0  501  0.00000000000E+00  0.00000000000E+00 -0.37023103865E+03  0.37023103868E+03  0.50400001928E-02 0. -1.
    10030    2    1    2    0    0  0.00000000000E+00  0.00000000000E+00 -0.20279197673E+03  0.53767010067E+03  0.49796039132E+03 0.  0.
        3    1    3    3  502    0  0.59682911607E+02  0.11838382659E+03 -0.32894907401E+03  0.35466080109E+03  0.10100000352E+00 0. -1.
       -3    1    3    3    0  502 -0.59682911607E+02 -0.11838382659E+03  0.12615709728E+03  0.18300929958E+03  0.10100000352E+00 0.  1.
</event>
<event>
 5   0  0.5006750E-02  0.5159042E+03  0.7818609E-02  0.1009709E+00
       -3   -1    0    0    0  501  0.00000000000E+00  0.00000000000E+00  0.28195500652E+03  0.28195502461E+03  0.10100000352E+00 0.  1.
        3   -1    0    0  501    0  0.00000000000E+00  0.00000000000E+00 -0.23599254831E+03  0.23599256992E+03  0.10100000352E+00 0. -1.
    10030    2    1    2    0    0  0.00000000000E+00  0.00000000000E+00  0.45962458209E+02  0.51794759453E+03  0.51590421893E+03 0.  0.
        5    1    3    3  502    0  0.16105939268E+03 -0.11653891142E+03 -0.14197338933E+03  0.24433579173E+03  0.46999998093E+01 0.  1.
       -5    1    3    3    0  502 -0.16105939268E+03  0.11653891142E+03  0.18793584753E+03  0.27361180280E+03  0.46999998093E+01 0. -1.
</event>
<event>
 5   0  0.1191894E-01  0.5020092E+03  0.7818609E-02  0.1013256E+00
        2   -1    0    0  501    0  0.00000000000E+00  0.00000000000E+00  0.65927708295E+03  0.65927708296E+03  0.25500000920E-02 0. -1.
       -2   -1    0    0    0  501  0.00000000000E+00  0.00000000000E+00 -0.95564236515E+02  0.95564236549E+02  0.25500000920E-02 0.  1.
    10030    2    1    2    0    0  0.00000000000E+00  0.00000000000E+00  0.56371284644E+03  0.75484131951E+03  0.50200920748E+03 0.  0.
        3    1    3    3  502    0 -0.77392017554E+01  0.11968414495E+03 -0.49692399100E+02  0.12982116363E+03  0.10100000352E+00 0.  1.
       -3    1    3    3    0  502  0.77392017554E+01 -0.11968414495E+03  0.61340524554E+03  0.62502015588E+03  0.10100000352E+00 0. -1.
</event>
<event>
 5   0  0.1231822E-01  0.5001646E+03  0.7818609E-02  0.1013736E+00
       -2   -1    0    0    0  501  0.00000000000E+00  0.00000000000E+00  0.16061152550E+03  0.16061152552E+03  0.25500000920E-02 0.  1.
        2   -1    0    0  501    0  0.00000000000E+00  0.00000000000E+00 -0.38939391295E+03  0.38939391296E+03  0.25500000920E-02 0. -1.
    10030    2    1    2    0    0  0.00000000000E+00  0.00000000000E+00 -0.22878238746E+03  0.55000543848E+03  0.50016457446E+03 0.  0.
        1    1    3    3  502    0  0.13424638692E+03 -0.49043120327E+01 -0.34634937172E+03  0.37148893926E+03  0.50400001928E-02 0. -1.
       -1    1    3    3    0  502 -0.13424638692E+03  0.49043120327E+01  0.11756698426E+03  0.17851649921E+03  0.50400001928E-02 0.  1.
</event>
<event>
 5   0  0.7602288E-02  0.5035168E+03  0.7818609E-02  0.1012865E+00
       -1   -1    0    0    0  501  0.00000000000E+00  0.00000000000E+00  0.18081612087E+03  0.18081612094E+03  0.50400001928E-02 0.  1.
        1   -1    0    0  501    0  0.00000000000E+00  0.00000000000E+00 -0.35053444933E+03  0.35053444936E+03  0.50400001928E-02 0. -1.
    10030    2    1    2    0    0  0.00000000000E+00  0.00000000000E+00 -0.16971832846E+03  0.53135057030E+03  0.50351675001E+03 0.  0.
        5    1    3    3  502    0  0.43658826514E+02  0.58699755226E+02 -0.33902244223E+03  0.34685740692E+03  0.46999998093E+01 0. -1.
       -5    1    3    3    0  502 -0.43658826514E+02 -0.58699755226E+02  0.16930411377E+03  0.18449316338E+03  0.46999998093E+01 0.  1.
</event>
<event>
 5   0  0.1243803E-01  0.4968465E+03  0.7818609E-02  0.1014605E+00
       -2   -1    0    0    0  501  0.00000000000E+00  0.00000000000E+00  0.15569764057E+04  0.15569764057E+04  0.25500000920E-02 0. -1.
        2   -1    0    0  501    0  0.00000000000E+00  0.00000000000E+00 -0.39637147788E+02  0.39637147870E+02  0.25500000920E-02 0.  1.
    10030    2    1    2    0    0  0.00000000000E+00  0.00000000000E+00  0.15173392579E+04  0.15966135536E+04  0.49684647110E+03 0.  0.
        4    1    3    3  502    0 -0.66670875107E+01 -0.19384142958E+03  0.25986793467E+03  0.32427134663E+03  0.12699999809E+01 0.  1.
       -4    1    3    3    0  502  0.66670875107E+01  0.19384142958E+03  0.12574713233E+04  0.12723422069E+04  0.12699999809E+01 0. -1.
</event>
<event>
 5   0  0.7781754E-02  0.5042390E+03  0.7818609E-02  0.1012678E+00
        1   -1    0    0  501    0  0.00000000000E+00  0.00000000000E+00  0.75403083712E+02  0.75403083880E+02  0.50400001928E-02 0. -1.
       -1   -1    0    0    0  501  0.00000000000E+00  0.00000000000E+00 -0.84299276189E+03  0.84299276191E+03  0.50400001928E-02 0.  1.
    10030    2    1    2    0    0  0.00000000000E+00  0.00000000000E+00 -0.76758967818E+03  0.91839584579E+03  0.50423904600E+03 0.  0.
        2    1    3    3  502    0 -0.24075726253E+03 -0.25949972923E+02 -0.51163744363E+03  0.56604799645E+03  0.25500000920E-02 0.  1.
       -2    1    3    3    0  502  0.24075726253E+03  0.25949972923E+02 -0.25595223455E+03  0.35234784934E+03  0.25500000920E-02 0. -1.
</event>
<event>
 5   0  0.1211345E-01  0.4979959E+03  0.7818609E-02  0.1014303E+00
       -2   -1    0    0    0  501  0.00000000000E+00  0.00000000000E+00  0.27820406197E+03  0.27820406198E+03  0.25500000920E-02 0.  1.
        2   -1    0    0  501    0  0.00000000000E+00  0.00000000000E+00 -0.22285793942E+03  0.22285793943E+03  0.25500000920E-02 0. -1.
    10030    2    1    2    0    0  0.00000000000E+00  0.00000000000E+00  0.55346122556E+02  0.50106200141E+03  0.49799591964E+03 0.  0.
        5    1    3    3  502    0 -0.21172752326E+02  0.16383964270E+02  0.27670688853E+03  0.27803868775E+03  0.46999998093E+01 0.  1.
       -5    1    3    3    0  502  0.21172752326E+02 -0.16383964270E+02 -0.22136076598E+03  0.22302331366E+03  0.46999998093E+01 0. -1.
</event>
<event>
 5   0  0.1211345E-01  0.5622516E+03  0.7818609E-02  0.9986973E-01
        2   -1    0    0  501    0  0.00000000000E+00  0.00000000000E+00  0.42390455110E+03  0.42390455111E+03  0.25500000920E-02 0.  1.
       -2   -1    0    0    0  501  0.00000000000E+00  0.00000000000E+00 -0.18643754690E+03  0.18643754691E+03  0.25500000920E-02 0. -1.
    10030    2    1    2    0    0  0.00000000000E+00  0.00000000000E+00  0.23746700421E+03  0.61034209802E+03  0.56225163275E+03 0.  0.
        5    1    3    3  502    0 -0.21137073491E+03 -0.54896110251E+02  0.31084034241E+03  0.37991443637E+03  0.46999998093E+01 0.  1.
       -5    1    3    3    0  502  0.21137073491E+03  0.54896110251E+02 -0.73373338198E+02  0.23042766165E+03  0.46999998093E+01 0. -1.
</event>
<event>
 5   0  0.1191894E-01  0.4999439E+03  0.7818609E-02  0.1013794E+00
        2   -1    0    0  501    0  0.00000000000E+00  0.00000000000E+00  0.42376826551E+03  0.42376826552E+03  0.25500000920E-02 0. -1.
       -2   -1    0    0    0  501  0.00000000000E+00  0.00000000000E+00 -0.14745315190E+03  0.14745315192E+03  0.25500000920E-02 0.  1.
    10030    2    1    2    0    0  0.00000000000E+00  0.00000000000E+00  0.27631511361E+03  0.57122141744E+03  0.49994386258E+03 0.  0.
        3    1    3    3  502    0 -0.18967637998E+03  0.30009424892E+02  0.32099843119E+03  0.37405574148E+03  0.10100000352E+00 0. -1.
       -3    1    3    3    0  502  0.18967637998E+03 -0.30009424892E+02 -0.44683317581E+02  0.19716567596E+03  0.10100000352E+00 0.  1.
</event>
<event>
 5   0  0.1211345E-01  0.4989708E+03  0.7818609E-02  0.1014048E+00
        2   -1    0    0  501    0  0.00000000000E+00  0.00000000000E+00  0.18805404454E+03  0.18805404455E+03  0.25500000920E-02 0.  1.
       -2   -1    0    0    0  501  0.00000000000E+00  0.00000000000E+00 -0.33098448773E+03  0.33098448774E+03  0.25500000920E-02 0. -1.
    10030    2    1    2    0    0  0.00000000000E+00  0.00000000000E+00 -0.14293044319E+03  0.51903853229E+03  0.49897082722E+03 0.  0.
        5    1    3    3  502    0  0.15823628495E+03  0.65504875588E+02  0.11718823772E+03  0.20756874442E+03  0.46999998093E+01 0.  1.
       -5    1    3    3    0  502 -0.15823628495E+03 -0.65504875588E+02 -0.26011868091E+03  0.31146978787E+03  0.46999998093E+01 0. -1.
</event>
<event>
 5   0  0.1279188E-01  0.5007379E+03  0.7818609E-02  0.1013586E+00
        2   -1    0    0  501    0  0.00000000000E+00  0.00000000000E+00  0.15109076391E+04  0.15109076391E+04  0.25500000920E-02 0.  1.
       -2   -1    0    0    0  501  0.00000000000E+00  0.00000000000E+00 -0.41488051067E+02  0.41488051145E+02  0.25500000920E-02 0. -1.
    10030    2    1    2    0    0  0.00000000000E+00  0.00000000000E+00  0.14694195880E+04  0.15523956902E+04  0.50073790889E+03 0.  0.
        2    1    3    3  502    0 -0.65089616346E+02 -0.46571255519E+02  0.14701805790E+04  0.14723574549E+04  0.25500000920E-02 0.  1.
       -2    1    3    3    0  502  0.65089616346E+02  0.46571255519E+02 -0.76099105311E+00  0.80038235304E+02  0.25500000920E-02 0. -1.
</event>
<event>
 5   0  0.1211345E-01  0.4597289E+03  0.7818609E-02  0.1024860E+00
       -2   -1    0    0    0  501  0.00000000000E+00  0.00000000000E+00  0.13322701822E+03  0.13322701824E+03  0.25500000920E-02 0. -1.
        2   -1    0    0  501    0  0.00000000000E+00  0.00000000000E+00 -0.39659867467E+03  0.39659867468E+03  0.25500000920E-02 0.  1.
    10030    2    1    2    0    0  0.00000000000E+00  0.00000000000E+00 -0.26337165645E+03  0.52982569292E+03  0.45972887168E+03 0.  0.
        5    1    3    3  502    0 -0.41637941633E+02 -0.21223445264E+03 -0.42130436854E+02  0.22039565508E+03  0.46999998093E+01 0.  1.
       -5    1    3    3    0  502  0.41637941633E+02  0.21223445264E+03 -0.22124121960E+03  0.30943003784E+03  0.46999998093E+01 0. -1.
</event>
<event>
 5   0  0.1279188E-01  0.4982293E+03  0.7818609E-02  0.1014242E+00
        2   -1    0    0  501    0  0.00000000000E+00  0.00000000000E+00  0.44295716145E+03  0.44295716145E+03  0.25500000920E-02 0.  1.
       -2   -1    0    0    0  501  0.00000000000E+00  0.00000000000E+00 -0.14009955029E+03  0.14009955031E+03  0.25500000920E-02 0. -1.
    10030    2    1    2    0    0  0.00000000000E+00  0.00000000000E+00  0.30285761116E+03  0.58305671177E+03  0.49822926098E+03 0.  0.
        2    1    3    3  502    0  0.40535391451E+02  0.23793072254E+03  0.79251758924E+02  0.25403737518E+03  0.25500000920E-02 0. -1.
       -2    1    3    3    0  502 -0.40535391451E+02 -0.23793072254E+03  0.22360585223E+03  0.32901933659E+03  0.25500000920E-02 0.  1.
</event>
<event>
 5   0  0.1243803E-01  0.4936887E+03  0.7818609E-02  0.1015440E+00
        2   -1    0    0  501    0  0.00000000000E+00  0.00000000000E+00  0.63527189109E+03  0.63527189110E+03  0.25500000920E-02 0. -1.
       -2   -1    0    0    0  501  0.00000000000E+00  0.00000000000E+00 -0.95915036454E+02  0.95915036488E+02  0.25500000920E-02 0.  1.
    10030    2    1    2    0    0  0.00000000000E+00  0.00000000000E+00  0.53935685464E+03  0.73118692759E+03  0.49368867359E+03 0.  0.
        4    1    3    3  502    0  0.11355406846E+03  0.21903014756E+03  0.28131982681E+03  0.37418069146E+03  0.12699999809E+01 0. -1.
       -4    1    3    3    0  502 -0.11355406846E+03 -0.21903014756E+03  0.25803702782E+03  0.35700623613E+03  0.12699999809E+01 0.  1.
</event>
<event>
 5   0  0.1231822E-01  0.5017448E+03  0.7818609E-02  0.1013324E+00
       -2   -1    0    0    0  501  0.00000000000E+00  0.00000000000E+00  0.18787882125E+03  0.18787882127E+03  0.25500000920E-02 0. -1.
        2   -1    0    0  501    0  0.00000000000E+00  0.00000000000E+00 -0.33498702932E+03  0.33498702933E+03  0.25500000920E-02 0.  1.
    10030    2    1    2    0    0  0.00000000000E+00  0.00000000000E+00 -0.14710820806E+03  0.52286585059E+03  0.50174482841E+03 0.  0.
        1    1    3    3  502    0 -0.16848601589E+03  0.14058376090E+03  0.53160709922E+02  0.22578173638E+03  0.50400001928E-02 0. -1.
       -1    1    3    3    0  502  0.16848601589E+03 -0.14058376090E+03 -0.20026891799E+03  0.29708411421E+03  0.50400001928E-02 0.  1.
</event>
<event>
 5   0  0.7416638E-02  0.5014530E+03  0.7818609E-02  0.1013400E+00
        1   -1    0    0  501    0  0.00000000000E+00  0.00000000000E+00  0.51175022624E+03  0.51175022627E+03  0.50400001928E-02 0.  1.
       -1   -1    0    0    0  501  0.00000000000E+00  0.00000000000E+00 -0.12284072337E+03  0.12284072347E+03  0.50400001928E-02 0. -1.
    10030    2    1    2    0    0  0.00000000000E+00  0.00000000000E+00  0.38890950288E+03  0.63459094974E+03  0.50145296097E+03 0.  0.
        1    1    3    3  502    0 -0.12309541169E+03 -0.15946283524E+03  0.38336235976E+03  0.43306763341E+03  0.50400001928E-02 0.  1.
       -1    1    3    3    0  502  0.12309541169E+03  0.15946283524E+03  0.55471431188E+01  0.20152331633E+03  0.50400001928E-02 0. -1.
</event>
<event>
 5   0  0.7602288E-02  0.4984972E+03  0.7818609E-02  0.1014172E+00
       -1   -1    0    0    0  501  0.00000000000E+00  0.00000000000E+00  0.31970241160E+03  0.31970241164E+03  0.50400001928E-02 0. -1.
        1   -1    0    0  501    0  0.00000000000E+00  0.00000000000E+00 -0.19432087770E+03  0.19432087777E+03  0.50400001928E-02 0.  1.
    10030    2    1    2    0    0  0.00000000000E+00  0.00000000000E+00  0.12538153390E+03  0.51402328940E+03  0.49849715446E+03 0.  0.
        5    1    3    3  502    0 -0.69993370760E+02  0.60686742766E+02  0.30124188365E+03  0.31519948471E+03  0.46999998093E+01 0. -1.
       -5    1    3    3    0  502  0.69993370760E+02 -0.60686742766E+02 -0.17586034975E+03  0.19882380469E+03  0.46999998093E+01 0.  1.
</event>
<event>
 5   0  0.7781754E-02  0.4989580E+03  0.7818609E-02  0.1014051E+00
        1   -1    0    0  501    0  0.00000000000E+00  0.00000000000E+00  0.33087651089E+03  0.33087651093E+03  0.50400001928E-02 0. -1.
       -1   -1    0    0    0  501  0.00000000000E+00  0.00000000000E+00 -0.18810575201E+03  0.18810575208E+03  0.50400001928E-02 0.  1.
    10030    2    1    2    0    0  0.00000000000E+00  0.00000000000E+00  0.14277075888E+03  0.51898226301E+03  0.49895801399E+03 0.  0.
        2    1    3    3  502    0  0.16887854342E+03  0.80564251631E+02 -0.10024970359E+03  0.21227473742E+03  0.25500000920E-02 0.  1.
       -2    1    3    3    0  502 -0.16887854342E+03 -0.80564251631E+02  0.24302046247E+03  0.30670752559E+03  0.25500000920E-02 0. -1.
</event>
<event>
 5   0  0.7602288E-02  0.4871301E+03  0.7818609E-02  0.1017194E+00
       -1   -1    0    0    0  501  0.00000000000E+00  0.00000000000E+00  0.18687435258E+03  0.18687435264E+03  0.50400001928E-02 0.  1.
        1   -1    0    0  501    0  0.00000000000E+00  0.00000000000E+00 -0.31745352441E+03  0.31745352445E+03  0.50400001928E-02 0. -1.
    10030    2    1    2    0    0  0.00000000000E+00  0.00000000000E+00 -0.13057917183E+03  0.50432787709E+03  0.48713005193E+03 0.  0.
        5    1    3    3  502    0  0.25932216222E+02  0.68722442711E+02  0.17508521269E+03  0.18992676397E+03  0.46999998093E+01 0.  1.
       -5    1    3    3    0  502 -0.25932216222E+02 -0.68722442711E+02 -0.30566438452E+03  0.31440111313E+03  0.46999998093E+01 0. -1.
</event>
<event>
 5   0  0.1231822E-01  0.4750532E+03  0.7818609E-02  0.1020504E+00
        2   -1    0    0  501    0  0.00000000000E+00  0.00000000000E+00  0.80049708213E+02  0.80049708254E+02  0.25500000920E-02 0.  1.
       -2   -1    0    0    0  501  0.00000000000E+00  0.00000000000E+00 -0.70479819466E+03  0.70479819467E+03  0.25500000920E-02 0. -1.
    10030    2    1    2    0    0  0.00000000000E+00  0.00000000000E+00 -0.62474848645E+03  0.78484790292E+03  0.47505321744E+03 0.  0.
        1    1    3    3  502    0  0.60461437373E+02  0.26598882471E+02 -0.68931909576E+03  0.69247664348E+03  0.50400001928E-02 0. -1.
       -1    1    3    3    0  502 -0.60461437373E+02 -0.26598882471E+02  0.64570609314E+02  0.92371259440E+02  0.50400001928E-02 0.  1.
</event>
<event>
 5   0  0.1243803E-01  0.5378183E+03  0.7818609E-02  0.1004354E+00
       -2   -1    0    0    0  501  0.00000000000E+00  0.00000000000E+00  0.30031477437E+02  0.30031477545E+02  0.25500000920E-02 0. -1.
        2   -1    0    0  501    0  0.00000000000E+00  0.00000000000E+00 -0.24078775295E+04  0.24078775295E+04  0.25500000920E-02 0.  1.
    10030    2    1    2    0    0  0.00000000000E+00  0.00000000000E+00 -0.23778460520E+04  0.24379090070E+04  0.53781825863E+03 0.  0.
        4    1    3    3  502    0 -0.15888939836E+03  0.21212987353E+03 -0.98290593461E+03  0.10180130713E+04  0.12699999809E+01 0.  1.
       -4    1    3    3    0  502  0.15888939836E+03 -0.21212987353E+03 -0.13949401174E+04  0.14198959357E+04  0.12699999809E+01 0. -1.
</event>
<event>
 5   0  0.7812547E-02  0.4992519E+03  0.7818609E-02  0.1013974E+00
        1   -1    0    0  501    0  0.00000000000E+00  0.00000000000E+00  0.84105022029E+03  0.84105022030E+03  0.50400001928E-02 0. -1.
       -1   -1    0    0    0  501  0.00000000000E+00  0.00000000000E+00 -0.74089647511E+02  0.74089647682E+02  0.50400001928E-02 0.  1.
    10030    2    1    2    0    0  0.00000000000E+00  0.00000000000E+00  0.76696057278E+03  0.91513986798E+03  0.49925189813E+03 0.  0.
        4    1    3    3  502    0 -0.66949723309E+02  0.38958132555E+01 -0.57261756887E+02  0.88192769056E+02  0.12699999809E+01 0.  1.
       -4    1    3    3    0  502  0.66949723309E+02 -0.38958132555E+01  0.82422232966E+03  0.82694709893E+03  0.12699999809E+01 0. -1.
</event>
<event>
 5   0  0.7781754E-02  0.4978529E+03  0.7818609E-02  0.1014341E+00
        1   -1    0    0  501    0  0.00000000000E+00  0.00000000000E+00  0.20148460591E+03  0.20148460597E+03  0.50400001928E-02 0. -1.
       -1   -1    0    0    0  501  0.00000000000E+00  0.00000000000E+00 -0.30753905015E+03  0.30753905019E+03  0.50400001928E-02 0.  1.
    10030    2    1    2    0    0  0.00000000000E+00  0.00000000000E+00 -0.10605444424E+03  0.50902365616E+03  0.49785292747E+03 0.  0.
        2    1    3    3  502    0 -0.54129159420E+02 -0.60547178341E+02  0.18755753817E+03  0.20438629317E+03  0.25500000920E-02 0. -1.
       -2    1    3    3    0  502  0.54129159420E+02  0.60547178341E+02 -0.29361198242E+03  0.30463736299E+03  0.25500000920E-02 0.  1.
</event>
<event>
 5   0  0.7781754E-02  0.4933749E+03  0.7818609E-02  0.1015523E+00
       -1   -1    0    0    0  501  0.00000000000E+00  0.00000000000E+00  0.28035725027E+03  0.28035725032E+03  0.50400001928E-02 0. -1.
        1   -1    0    0  501    0  0.00000000000E+00  0.00000000000E+00 -0.21706123762E+03  0.21706123768E+03  0.50400001928E-02 0.  1.
    10030    2    1    2    0    0  0.00000000000E+00  0.00000000000E+00  0.63296012649E+02  0.49741848800E+03  0.49337487470E+03 0.  0.
        2    1    3    3  502    0 -0.17374063166E+03  0.41030410483E+02 -0.13999830249E+03  0.22686742027E+03  0.25500000920E-02 0.  1.
       -2    1    3    3    0  502  0.17374063166E+03 -0.41030410483E+02  0.20329431514E+03  0.27055106773E+03  0.25500000920E-02 0. -1.
</event>
<event>
 5   0  0.1279188E-01  0.4981737E+03  0.7818609E-02  0.1014257E+00
        2   -1    0    0  501    0  0.00000000000E+00  0.00000000000E+00  0.21373627254E+03  0.21373627256E+03  0.25500000920E-02 0.  1.
       -2   -1    0    0    0  501  0.00000000000E+00  0.00000000000E+00 -0.29028415744E+03  0.29028415745E+03  0.25500000920E-02 0. -1.
    10030    2    1    2    0    0  0.00000000000E+00  0.00000000000E+00 -0.76547884893E+02  0.50402043000E+03  0.49817367973E+03 0.  0.
        2    1    3    3  502    0  0.19056745907E+03 -0.14521015446E+03  0.30660196466E+02  0.24154087246E+03  0.25500000920E-02 0.  1.
       -2    1    3    3    0  502 -0.19056745907E+03  0.14521015446E+03 -0.10720808136E+03  0.26247955755E+03  0.25500000920E-02 0. -1.
</event>
<event>
 5   0  0.7812547E-02  0.4950400E+03  0.7818609E-02  0.1015082E+00
       -1   -1    0    0    0  501  0.00000000000E+00  0.00000000000E+00  0.65826534437E+02  0.65826534630E+02  0.50400001928E-02 0. -1.
        1   -1    0    0  501    0  0.00000000000E+00  0.00000000000E+00 -0.93072137317E+03  0.93072137318E+03  0.50400001928E-02 0.  1.
    10030    2    1    2    0    0  0.00000000000E+00  0.00000000000E+00 -0.86489483873E+03  0.99654790781E+03  0.49504004939E+03 0.  0.
        4    1    3    3  502    0 -0.16604508344E+03  0.82341753391E+02 -0.76269698542E+03  0.78489453976E+03  0.12699999809E+01 0.  1.
       -4    1    3    3    0  502  0.16604508344E+03 -0.82341753391E+02 -0.10219785331E+03  0.21165336805E+03  0.12699999809E+01 0. -1.
</event>
<event>
 5   0  0.7781754E-02  0.4995042E+03  0.7818609E-02  0.1013908E+00
        1   -1    0    0  501    0  0.00000000000E+00  0.00000000000E+00  0.75495304085E+03  0.75495304087E+03  0.50400001928E-02 0.  1.
       -1   -1    0    0    0  501  0.00000000000E+00  0.00000000000E+00 -0.82622493227E+02  0.82622493381E+02  0.50400001928E-02 0. -1.
    10030    2    1    2    0    0  0.00000000000E+00  0.00000000000E+00  0.67233054762E+03  0.83757553425E+03  0.49950416445E+03 0.  0.
        2    1    3    3  502    0  0.12367843480E+03 -0.80131028329E+02 -0.19478004298E+01  0.14738090402E+03  0.25500000920E-02 0. -1.
       -2    1    3    3    0  502 -0.12367843480E+03  0.80131028329E+02  0.67427834805E+03  0.69019463023E+03  0.25500000920E-02 0.  1.
</event>
<event>
 5   0  0.7531632E-02  0.4727107E+03  0.7818609E-02  0.1021158E+00
        1   -1    0    0  501    0  0.00000000000E+00  0.00000000000E+00  0.51051688514E+03  0.51051688516E+03  0.50400001928E-02 0.  1.
       -1   -1    0    0    0  501  0.00000000000E+00  0.00000000000E+00 -0.10942607296E+03  0.10942607308E+03  0.50400001928E-02 0. -1.
    10030    2    1    2    0    0  0.00000000000E+00  0.00000000000E+00  0.40109081218E+03  0.61994295824E+03  0.47271072747E+03 0.  0.
        3    1    3    3  502    0 -0.20376340163E+03 -0.24415839043E+02  0.46772774253E+02  0.21048363274E+03  0.10100000352E+00 0. -1.
       -3    1    3    3    0  502  0.20376340163E+03  0.24415839043E+02  0.35431803792E+03  0.40945932550E+03  0.10100000352E+00 0.  1.
</event>
<event>
 5   0  0.7812547E-02  0.5052880E+03  0.7818609E-02  0.1012408E+00
       -1   -1    0    0    0  501  0.00000000000E+00  0.00000000000E+00  0.29013836173E+03  0.29013836177E+03  0.50400001928E-02 0.  1.
        1   -1    0    0  501    0  0.00000000000E+00  0.00000000000E+00 -0.21999497044E+03  0.21999497050E+03  0.50400001928E-02 0. -1.
    10030    2    1    2    0    0  0.00000000000E+00  0.00000000000E+00  0.70143391286E+02  0.51013333227E+03  0.50528795884E+03 0.  0.
        4    1    3    3  502    0  0.66494988068E+02  0.60136672071E+02 -0.20339100616E+03  0.22227801748E+03  0.12699999809E+01 0. -1.
       -4    1    3    3    0  502 -0.66494988068E+02 -0.60136672071E+02  0.27353439745E+03  0.28785531479E+03  0.12699999809E+01 0.  1.
</event>
<event>
 5   0  0.1243803E-01  0.5022035E+03  0.7818609E-02  0.1013205E+00
       -2   -1    0    0    0  501  0.00000000000E+00  0.00000000000E+00  0.71515833673E+02  0.71515833719E+02  0.25500000920E-02 0. -1.
        2   -1    0    0  501    0  0.00000000000E+00  0.00000000000E+00 -0.88165208397E+03  0.88165208397E+03  0.25500000920E-02 0.  1.
    10030    2    1    2    0    0  0.00000000000E+00  0.00000000000E+00 -0.81013625030E+03  0.95316791769E+03  0.50220347995E+03 0.  0.
        4    1    3    3  502    0 -0.93862259002E+02  0.16592809828E+03 -0.94889320744E+02  0.21295035467E+03  0.12699999809E+01 0. -1.
       -4    1    3    3    0  502  0.93862259002E+02 -0.16592809828E+03 -0.71524692955E+03  0.74021756302E+03  0.12699999809E+01 0.  1.
</event>
<event>
 5   0  0.1279188E-01  0.4998320E+03  0.7818609E-02  0.1013823E+00
       -2   -1    0    0    0  501  0.00000000000E+00  0.00000000000E+00  0.50750672144E+02  0.50750672208E+02  0.25500000920E-02 0.  1.
        2   -1    0    0  501    0  0.00000000000E+00  0.00000000000E+00 -0.12306834745E+04  0.12306834745E+04  0.25500000920E-02 0. -1.
    10030    2    1    2    0    0  0.00000000000E+00  0.00000000000E+00 -0.11799328024E+04  0.12814341467E+04  0.49983202606E+03 0.  0.
        2    1    3    3  502    0  0.15309710609E+03 -0.12712182837E+03 -0.97758442732E+03  0.99763219459E+03  0.25500000920E-02 0. -1.
       -2    1    3    3    0  502 -0.15309710609E+03  0.12712182837E+03 -0.20234837504E+03  0.28380195212E+03  0.25500000920E-02 0.  1.
</event>
<event>
 5   0  0.1211345E-01  0.5014954E+03  0.7818609E-02  0.1013389E+00
        2   -1    0    0  501    0  0.00000000000E+00  0.00000000000E+00  0.16394798182E+04  0.16394798182E+04  0.25500000920E-02 0.  1.
       -2   -1    0    0    0  501  0.00000000000E+00  0.00000000000E+00 -0.38350213749E+02  0.38350213834E+02  0.25500000920E-02 0. -1.
    10030    2    1    2    0    0  0.00000000000E+00  0.00000000000E+00  0.16011296045E+04  0.16778300321E+04  0.50149537003E+03 0.  0.
        5    1    3    3  502    0 -0.21705665339E+03 -0.57965027429E+02  0.11728021064E+04  0.11941358407E+04  0.46999998093E+01 0.  1.
       -5    1    3    3    0  502  0.21705665339E+03  0.57965027429E+02  0.42832749808E+03  0.48369419140E+03  0.46999998093E+01 0. -1.
</event>
<event>
 5   0  0.1191894E-01  0.5031602E+03  0.7818609E-02  0.1012957E+00
        2   -1    0    0  501    0  0.00000000000E+00  0.00000000000E+00  0.34544657532E+03  0.34544657533E+03  0.25500000920E-02 0.  1.
       -2   -1    0    0    0  501  0.00000000000E+00  0.00000000000E+00 -0.18321948013E+03  0.18321948015E+03  0.25500000920E-02 0. -1.
    10030    2    1    2    0    0  0.00000000000E+00  0.00000000000E+00  0.16222709519E+03  0.52866605548E+03  0.50316018106E+03 0.  0.
        3    1    3    3  502    0 -0.20694705952E+03 -0.75301813255E+02 -0.46687339304E+02  0.22511589544E+03  0.10100000352E+00 0. -1.
       -3    1    3    3    0  502  0.20694705952E+03  0.75301813255E+02  0.20891443449E+03  0.30355016005E+03  0.10100000352E+00 0.  1.
</event>
<event>
 5   0  0.1231822E-01  0.4069970E+03  0.7818609E-02  0.1041383E+00
       -2   -1    0    0    0  501  0.00000000000E+00  0.00000000000E+00  0.18635734858E+03  0.18635734860E+03  0.25500000920E-02 0. -1.
        2   -1    0    0  501    0  0.00000000000E+00  0.00000000000E+00 -0.22221629564E+03  0.22221629566E+03  0.25500000920E-02 0.  1.
    10030    2    1    2    0    0  0.00000000000E+00  0.00000000000E+00 -0.35858947059E+02  0.40857364425E+03  0.40699700084E+03 0.  0.
        1    1    3    3  502    0  0.21421885387E+01 -0.17991163145E+03  0.77511720126E+02  0.19591031337E+03  0.50400001928E-02 0.  1.
       -1    1    3    3    0  502 -0.21421885387E+01  0.17991163145E+03 -0.11337066719E+03  0.21266333089E+03  0.50400001928E-02 0. -1.
</event>
<event>
 5   0  0.7531632E-02  0.5073373E+03  0.7818609E-02  0.1011881E+00
       -1   -1    0    0    0  501  0.00000000000E+00  0.00000000000E+00  0.62280714097E+02  0.62280714301E+02  0.50400001928E-02 0.  1.
        1   -1    0    0  501    0  0.00000000000E+00  0.00000000000E+00 -0.10331893752E+04  0.10331893752E+04  0.50400001928E-02 0. -1.
    10030    2    1    2    0    0  0.00000000000E+00  0.00000000000E+00 -0.97090866111E+03  0.10954700895E+04  0.50733725352E+03 0.  0.
        3    1    3    3  502    0  0.57235085111E+02  0.12741502081E+03 -0.28236044432E+02  0.14250518202E+03  0.10100000352E+00 0.  1.
       -3    1    3    3    0  502 -0.57235085111E+02 -0.12741502081E+03 -0.94267261667E+03  0.95296490750E+03  0.10100000352E+00 0. -1.
</event>
<event>
 5   0  0.7416638E-02  0.5011263E+03  0.7818609E-02  0.1013485E+00
        1   -1    0    0  501    0  0.00000000000E+00  0.00000000000E+00  0.63641673473E+03  0.63641673475E+03  0.50400001928E-02 0. -1.
       -1   -1    0    0    0  501  0.00000000000E+00  0.00000000000E+00 -0.98649029613E+02  0.98649029742E+02  0.50400001928E-02 0.  1.
    10030    2    1    2    0    0  0.00000000000E+00  0.00000000000E+00  0.53776770511E+03  0.73506576449E+03  0.50112630490E+03 0.  0.
        1    1    3    3  502    0 -0.92840995292E+02  0.55161527268E+02 -0.62760744813E+02  0.12490458603E+03  0.50400001928E-02 0.  1.
       -1    1    3    3    0  502  0.92840995292E+02 -0.55161527268E+02  0.60052844993E+03  0.61016117846E+03  0.50400001928E-02 0. -1.
</event>
<event>
 5   0  0.1211345E-01  0.4985407E+03  0.7818609E-02  0.1014161E+00
        2   -1    0    0  501    0  0.00000000000E+00  0.00000000000E+00  0.30267707943E+03  0.30267707944E+03  0.25500000920E-02 0.  1.
       -2   -1    0    0    0  501  0.00000000000E+00  0.00000000000E+00 -0.20528708516E+03  0.20528708517E+03  0.25500000920E-02 0. -1.
    10030    2    1    2    0    0  0.00000000000E+00  0.00000000000E+00  0.97389994273E+02  0.50796416461E+03  0.49854065185E+03 0.  0.
        5    1    3    3  502    0 -0.17800907654E+03  0.16246021617E+03  0.11340172231E+03  0.26638805114E+03  0.46999998093E+01 0. -1.
       -5    1    3    3    0  502  0.17800907654E+03 -0.16246021617E+03 -0.16011728040E+02  0.24157611347E+03  0.46999998093E+01 0.  1.
</event>
<event>
 5   0  0.7781754E-02  0.4993645E+03  0.7818609E-02  0.1013945E+00
        1   -1    0    0  501    0  0.00000000000E+00  0.00000000000E+00  0.70305665772E+03  0.70305665774E+03  0.50400001928E-02 0. -1.
       -1   -1    0    0    0  501  0.00000000000E+00  0.00000000000E+00 -0.88671702218E+02  0.88671702361E+02  0.50400001928E-02 0.  1.
    10030    2    1    2    0    0  0.00000000000E+00  0.00000000000E+00  0.61438495551E+03  0.79172836010E+03  0.49936451880E+03 0.  0.
        2    1    3    3  502    0 -0.18011495832E+03 -0.14416277257E+03  0.45857745151E+03  0.51333963635E+03  0.25500000920E-02 0.  1.
       -2    1    3    3    0  502  0.18011495832E+03  0.14416277257E+03  0.15580750400E+03  0.27838872376E+03  0.25500000920E-02 0. -1.
</event>
<event>
 5   0  0.1231822E-01  0.5009916E+03  0.7818609E-02  0.1013520E+00
       -2   -1    0    0    0  501  0.00000000000E+00  0.00000000000E+00  0.70508333399E+02  0.70508333445E+02  0.25500000920E-02 0. -1.
        2   -1    0    0  501    0  0.00000000000E+00  0.00000000000E+00 -0.88993946860E+03  0.88993946860E+03  0.25500000920E-02 0.  1.
    10030    2    1    2    0    0  0.00000000000E+00  0.00000000000E+00 -0.81943113520E+03  0.96044780204E+03  0.50099161183E+03 0.  0.
        1    1    3    3  502    0 -0.19532594258E+03 -0.15556238007E+03 -0.44787829087E+03  0.51278342543E+03  0.50400001928E-02 0. -1.
       -1    1    3    3    0  502  0.19532594258E+03  0.15556238007E+03 -0.37155284433E+03  0.44766437662E+03  0.50400001928E-02 0.  1.
</event>
<event>
 5   0  0.5006750E-02  0.4992866E+03  0.7818609E-02  0.1013965E+00
        3   -1    0    0  501    0  0.00000000000E+00  0.00000000000E+00  0.34124826393E+03  0.34124827888E+03  0.10100000352E+00 0. -1.
       -3   -1    0    0    0  501  0.00000000000E+00  0.00000000000E+00 -0.18262881858E+03  0.18262884650E+03  0.10100000352E+00 0.  1.
    10030    2    1    2    0    0  0.00000000000E+00  0.00000000000E+00  0.15861944535E+03  0.52387712538E+03  0.49928660512E+03 0.  0.
        3    1    3    3  502    0  0.52223143029E+02 -0.24267583849E+03  0.10712871840E+03  0.27036159446E+03  0.10100000352E+00 0. -1.
       -3    1    3    3    0  502 -0.52223143029E+02  0.24267583849E+03  0.51490726953E+02  0.25351553092E+03  0.10100000352E+00 0.  1.
</event>
<event>
 5   0  0.1191894E-01  0.4911482E+03  0.7818609E-02  0.1016116E+00
        2   -1    0    0  501    0  0.00000000000E+00  0.00000000000E+00  0.19498329443E+04  0.19498329443E+04  0.25500000920E-02 0. -1.
       -2   -1    0    0    0  501  0.00000000000E+00  0.00000000000E+00 -0.30929130247E+02  0.30929130352E+02  0.25500000920E-02 0.  1.
    10030    2    1    2    0    0  0.00000000000E+00  0.00000000000E+00  0.19189038141E+04  0.19807620747E+04  0.49114819434E+03 0.  0.
        3    1    3    3  502    0 -0.60109980219E+02 -0.47775080526E+01  0.19195124865E+04  0.19204593800E+04  0.10100000352E+00 0. -1.
       -3    1    3    3    0  502  0.60109980219E+02  0.47775080526E+01 -0.60867237299E+00  0.60302694701E+02  0.10100000352E+00 0.  1.
</event>
<event>
 5   0  0.5006750E-02  0.4793736E+03  0.7818609E-02  0.1019307E+00
        3   -1    0    0  501    0  0.00000000000E+00  0.00000000000E+00  0.75465656977E+03  0.75465657653E+03  0.10100000352E+00 0. -1.
       -3   -1    0    0    0  501  0.00000000000E+00  0.00000000000E+00 -0.76126972369E+02  0.76127039369E+02  0.10100000352E+00 0.  1.
    10030    2    1    2    0    0  0.00000000000E+00  0.00000000000E+00  0.67852959740E+03  0.83078361590E+03  0.47937355152E+03 0.  0.
        4    1    3    3  502    0 -0.20515599851E+03  0.70982899729E+02  0.16320267173E+03  0.27159580398E+03  0.12699999809E+01 0.  1.
       -4    1    3    3    0  502  0.20515599851E+03 -0.70982899729E+02  0.51532692567E+03  0.55918781192E+03  0.12699999809E+01 0. -1.
</event>
<event>
 5   0  0.7416638E-02  0.4603364E+03  0.7818609E-02  0.1024684E+00
       -1   -1    0    0    0  501  0.00000000000E+00  0.00000000000E+00  0.24277053270E+02  0.24277053794E+02  0.50400001928E-02 0.  1.
        1   -1    0    0  501    0  0.00000000000E+00  0.00000000000E+00 -0.21822003187E+04  0.21822003188E+04  0.50400001928E-02 0. -1.
    10030    2    1    2    0    0  0.00000000000E+00  0.00000000000E+00 -0.21579232655E+04  0.22064773725E+04  0.46033637253E+03 0.  0.
        1    1    3    3  502    0 -0.18981516458E+03  0.97075514259E+02 -0.14947256498E+04  0.15098537082E+04  0.50400001928E-02 0. -1.
       -1    1    3    3    0  502  0.18981516458E+03 -0.97075514259E+02 -0.66319761571E+03  0.69662366431E+03  0.50400001928E-02 0.  1.
</event>
<event>
 5   0  0.1191894E-01  0.4937792E+03  0.7818609E-02  0.1015416E+00
        2   -1    0    0  501    0  0.00000000000E+00  0.00000000000E+00  0.66142336225E+03  0.66142336226E+03  0.25500000920E-02 0. -1.
       -2   -1    0    0    0  501  0.00000000000E+00  0.00000000000E+00 -0.92156513246E+02  0.92156513281E+02  0.25500000920E-02 0.  1.
    10030    2    1    2    0    0  0.00000000000E+00  0.00000000000E+00  0.56926684901E+03  0.75357987554E+03  0.49377918490E+03 0.  0.
        3    1    3    3  502    0 -0.74970286464E+02  0.54129539298E+02  0.63399759135E+03  0.64070547595E+03  0.10100000352E+00 0. -1.
       -3    1    3    3    0  502  0.74970286464E+02 -0.54129539298E+02 -0.64730742342E+02  0.11287439959E+03  0.10100000352E+00 0.  1.
</event>
<event>
 5   0  0.1231822E-01  0.4942157E+03  0.7818609E-02  0.1015300E+00
        2   -1    0    0  501    0  0.00000000000E+00  0.00000000000E+00  0.52113223481E+03  0.52113223481E+03  0.25500000920E-02 0.  1.
       -2   -1    0    0    0  501  0.00000000000E+00  0.00000000000E+00 -0.11717236220E+03  0.11717236222E+03  0.25500000920E-02 0. -1.
    10030    2    1    2    0    0  0.00000000000E+00  0.00000000000E+00  0.40395987261E+03  0.63830459704E+03  0.49421572205E+03 0.  0.
        1    1    3    3  502    0 -0.15558414636E+03  0.34715779132E+01  0.44988975083E+03  0.47604544571E+03  0.50400001928E-02 0.  1.
       -1    1    3    3    0  502  0.15558414636E+03 -0.34715779132E+01 -0.45929878216E+02  0.16225915133E+03  0.50400001928E-02 0. -1.
</event>
<event>
 5   0  0.7781754E-02  0.4976017E+03  0.7818609E-02  0.1014407E+00
        1   -1    0    0  501    0  0.00000000000E+00  0.00000000000E+00  0.13579649895E+03  0.13579649904E+03  0.50400001928E-02 0.  1.
       -1   -1    0    0    0  501  0.00000000000E+00  0.00000000000E+00 -0.45584279957E+03  0.45584279960E+03  0.50400001928E-02 0. -1.
    10030    2    1    2    0    0  0.00000000000E+00  0.00000000000E+00 -0.32004630062E+03  0.59163929864E+03  0.49760167319E+03 0.  0.
        2    1    3    3  502    0  0.11336911749E+03  0.10420497901E+03  0.72332665072E+02  0.17012715508E+03  0.25500000920E-02 0.  1.
       -2    1    3    3    0  502 -0.11336911749E+03 -0.10420497901E+03 -0.39237896569E+03  0.42151214357E+03  0.25500000920E-02 0. -1.
</event>
<event>
 5   0  0.1243803E-01  0.4992200E+03  0.7818609E-02  0.1013983E+00
        2   -1    0    0  501    0  0.00000000000E+00  0.00000000000E+00  0.12004043114E+03  0.12004043117E+03  0.25500000920E-02 0.  1.
       -2   -1    0    0    0  501  0.00000000000E+00  0.00000000000E+00 -0.51903480951E+03  0.51903480952E+03  0.25500000920E-02 0. -1.
    10030    2    1    2    0    0  0.00000000000E+00  0.00000000000E+00 -0.39899437837E+03  0.63907524069E+03  0.49922004095E+03 0.  0.
        4    1    3    3  502    0  0.12893196103E+03  0.11310385988E+02  0.73724099319E+02  0.14895714527E+03  0.12699999809E+01 0.  1.
       -4    1    3    3    0  502 -0.12893196103E+03 -0.11310385988E+02 -0.47271847769E+03  0.49011809542E+03  0.12699999809E+01 0. -1.
</event>
<event>
 5   0  0.1279188E-01  0.5044343E+03  0.7818609E-02  0.1012628E+00
       -2   -1    0    0    0  501  0.00000000000E+00  0.00000000000E+00  0.87722554793E+02  0.87722554830E+02  0.25500000920E-02 0.  1.
        2   -1    0    0  501    0  0.00000000000E+00  0.00000000000E+00 -0.72516695459E+03  0.72516695459E+03  0.25500000920E-02 0. -1.
    10030    2    1    2    0    0  0.00000000000E+00  0.00000000000E+00 -0.63744439980E+03  0.81288950943E+03  0.50443432843E+03 0.  0.
        2    1    3    3  502    0 -0.38561633174E+02 -0.86155805431E+02  0.58185611821E+02  0.11088456968E+03  0.25500000920E-02 0.  1.
       -2    1    3    3    0  502  0.38561633174E+02  0.86155805431E+02 -0.69563001162E+03  0.70200493975E+03  0.25500000920E-02 0. -1.
</event>
<event>
 5   0  0.7531632E-02  0.5001701E+03  0.7818609E-02  0.1013735E+00
        1   -1    0    0  501    0  0.00000000000E+00  0.00000000000E+00  0.69677933034E+03  0.69677933036E+03  0.50400001928E-02 0.  1.
       -1   -1    0    0    0  501  0.00000000000E+00  0.00000000000E+00 -0.89759457967E+02  0.89759458108E+02  0.50400001928E-02 0. -1.
    10030    2    1    2    0    0  0.00000000000E+00  0.00000000000E+00  0.60701987237E+03  0.78653878846E+03  0.50017011137E+03 0.  0.
        3    1    3    3  502    0 -0.33932420700E+02 -0.18190735511E+01  0.69313193247E+03  0.69396441135E+03  0.10100000352E+00 0.  1.
       -3    1    3    3    0  502  0.33932420700E+02  0.18190735511E+01 -0.86112060100E+02  0.92574377118E+02  0.10100000352E+00 0. -1.
</event>
<event>
 5   0  0.7812547E-02  0.4957057E+03  0.7818609E-02  0.1014906E+00
       -1   -1    0    0    0  501  0.00000000000E+00  0.00000000000E+00  0.20488194908E+03  0.20488194915E+03  0.50400001928E-02 0. -1.
        1   -1    0    0  501    0  0.00000000000E+00  0.00000000000E+00 -0.29983626772E+03  0.29983626776E+03  0.50400001928E-02 0.  1.
    10030    2    1    2    0    0  0.00000000000E+00  0.00000000000E+00 -0.94954318631E+02  0.50471821690E+03  0.49570571496E+03 0.  0.
        4    1    3    3  502    0 -0.23025620444E+03  0.73353976753E+02  0.85755440051E+01  0.24181372675E+03  0.12699999809E+01 0. -1.
       -4    1    3    3    0  502  0.23025620444E+03 -0.73353976753E+02 -0.10352986264E+03  0.26290449016E+03  0.12699999809E+01 0.  1.
</event>
<event>
 5   0  0.7602288E-02  0.5031394E+03  0.7818609E-02  0.1012963E+00
        1   -1    0    0  501    0  0.00000000000E+00  0.00000000000E+00  0.67828948703E+03  0.67828948705E+03  0.50400001928E-02 0.  1.
       -1   -1    0    0    0  501  0.00000000000E+00  0.00000000000E+00 -0.93304282355E+02  0.93304282492E+02  0.50400001928E-02 0. -1.
    10030    2    1    2    0    0  0.00000000000E+00  0.00000000000E+00  0.58498520468E+03  0.77159376954E+03  0.50313939968E+03 0.  0.
        5    1    3    3  502    0  0.17354617374E+03 -0.17172561650E+03  0.19975018163E+03  0.31548405164E+03  0.46999998093E+01 0. -1.
       -5    1    3    3    0  502 -0.17354617374E+03  0.17172561650E+03  0.38523502305E+03  0.45610971790E+03  0.46999998093E+01 0.  1.
</event>
<event>
 5   0  0.7812547E-02  0.5007412E+03  0.7818609E-02  0.1013586E+00
       -1   -1    0    0    0  501  0.00000000000E+00  0.00000000000E+00  0.43137263729E+02  0.43137264024E+02  0.50400001928E-02 0.  1.
        1   -1    0    0  501    0  0.00000000000E+00  0.00000000000E+00 -0.14531618858E+04  0.14531618858E+04  0.50400001928E-02 0. -1.
    10030    2    1    2    0    0  0.00000000000E+00  0.00000000000E+00 -0.14100246220E+04  0.14962991498E+04  0.50074116162E+03 0.  0.
        4    1    3    3  502    0 -0.18529033656E+03 -0.15085370704E+03 -0.92851585840E+03  0.95876621861E+03  0.12699999809E+01 0.  1.
       -4    1    3    3    0  502  0.18529033656E+03  0.15085370704E+03 -0.48150876363E+03  0.53753293118E+03  0.12699999809E+01 0. -1.
</event>
<event>
 5   0  0.7416638E-02  0.5065638E+03  0.7818609E-02  0.1012080E+00
       -1   -1    0    0    0  501  0.00000000000E+00  0.00000000000E+00  0.56321372636E+02  0.56321372861E+02  0.50400001928E-02 0.  1.
        1   -1    0    0  501    0  0.00000000000E+00  0.00000000000E+00 -0.11390298515E+04  0.11390298515E+04  0.50400001928E-02 0. -1.
    10030    2    1    2    0    0  0.00000000000E+00  0.00000000000E+00 -0.10827084788E+04  0.11953512243E+04  0.50656381572E+03 0.  0.
        1    1    3    3  502    0 -0.13310877358E+03 -0.15144616661E+03 -0.17963191132E+03  0.27003983146E+03  0.50400001928E-02 0.  1.
       -1    1    3    3    0  502  0.13310877358E+03  0.15144616661E+03 -0.90307656752E+03  0.92531139289E+03  0.50400001928E-02 0. -1.
</event>
<event>
 5   0  0.1211345E-01  0.4924035E+03  0.7818609E-02  0.1015781E+00
       -2   -1    0    0    0  501  0.00000000000E+00  0.00000000000E+00  0.66395299735E+02  0.66395299784E+02  0.25500000920E-02 0.  1.
        2   -1    0    0  501    0  0.00000000000E+00  0.00000000000E+00 -0.91294580239E+03  0.91294580239E+03  0.25500000920E-02 0. -1.
    10030    2    1    2    0    0  0.00000000000E+00  0.00000000000E+00 -0.84655050265E+03  0.97934110218E+03  0.49240353458E+03 0.  0.
        5    1    3    3  502    0 -0.10715001752E+03  0.14745827027E+03 -0.94245203434E+02  0.20525427180E+03  0.46999998093E+01 0.  1.
       -5    1    3    3    0  502  0.10715001752E+03 -0.14745827027E+03 -0.75230529922E+03  0.77408683037E+03  0.46999998093E+01 0. -1.
</event>
<event>
 5   0  0.7812547E-02  0.4969963E+03  0.7818609E-02  0.1014566E+00
        1   -1    0    0  501    0  0.00000000000E+00  0.00000000000E+00  0.68752647969E+03  0.68752647971E+03  0.50400001928E-02 0.  1.
       -1   -1    0    0    0  501  0.00000000000E+00  0.00000000000E+00 -0.89816664878E+02  0.89816665019E+02  0.50400001928E-02 0. -1.
    10030    2    1    2    0    0  0.00000000000E+00  0.00000000000E+00  0.59770981482E+03  0.77734314473E+03  0.49699631984E+03 0.  0.
        4    1    3    3  502    0  0.99828159224E+01  0.22493583130E+03  0.13441087883E+03  0.26222830142E+03  0.12699999809E+01 0. -1.
       -4    1    3    3    0  502 -0.99828159224E+01 -0.22493583130E+03  0.46329893598E+03  0.51511484331E+03  0.12699999809E+01 0.  1.
</event>
<event>
 5   0  0.5006750E-02  0.5093530E+03  0.7818609E-02  0.1011366E+00
       -4   -1    0    0    0  501  0.00000000000E+00  0.00000000000E+00  0.59374440503E+03  0.59374576327E+03  0.12699999809E+01 0. -1.
        4   -1    0    0  501    0  0.00000000000E+00  0.00000000000E+00 -0.10923394231E+03  0.10924132484E+03  0.12699999809E+01 0.  1.
    10030    2    1    2    0    0  0.00000000000E+00  0.00000000000E+00  0.48451046272E+03  0.70298708811E+03  0.50935297934E+03 0.  0.
        2    1    3    3  502    0  0.89629771801E+02 -0.73780069962E+02 -0.70596621725E+02  0.13587081262E+03  0.25500000920E-02 0.  1.
       -2    1    3    3    0  502 -0.89629771801E+02  0.73780069962E+02  0.55510708445E+03  0.56711627549E+03  0.25500000920E-02 0. -1.
</event>
<event>
 5   0  0.1191894E-01  0.4996932E+03  0.7818609E-02  0.1013859E+00
       -2   -1    0    0    0  501  0.00000000000E+00  0.00000000000E+00  0.72416121956E+02  0.72416122001E+02  0.25500000920E-02 0.  1.
        2   -1    0    0  501    0  0.00000000000E+00  0.00000000000E+00 -0.86200855673E+03  0.86200855673E+03  0.25500000920E-02 0. -1.
    10030    2    1    2    0    0  0.00000000000E+00  0.00000000000E+00 -0.78959243477E+03  0.93442467873E+03  0.49969317303E+03 0.  0.
        3    1    3    3  502    0  0.20654302753E+02 -0.21348588687E+03 -0.15517027121E+03  0.26472749646E+03  0.10100000352E+00 0.  1.
       -3    1    3    3    0  502 -0.20654302753E+02  0.21348588687E+03 -0.63442216356E+03  0.66969718227E+03  0.10100000352E+00 0. -1.
</event>
<event>
 5   0  0.1191894E-01  0.4994332E+03  0.7818609E-02  0.1013927E+00
        2   -1    0    0  501    0  0.00000000000E+00  0.00000000000E+00  0.13649666739E+04  0.13649666739E+04  0.25500000920E-02 0. -1.
       -2   -1    0    0    0  501  0.00000000000E+00  0.00000000000E+00 -0.45684918707E+02  0.45684918778E+02  0.25500000920E-02 0.  1.
    10030    2    1    2    0    0  0.00000000000E+00  0.00000000000E+00  0.13192817552E+04  0.14106515926E+04  0.49943324513E+03 0.  0.
        3    1    3    3  502    0 -0.28097168127E+02  0.54654821230E+01  0.13603176828E+04  0.13606188043E+04  0.10100000352E+00 0. -1.
       -3    1    3    3    0  502  0.28097168127E+02 -0.54654821230E+01 -0.41035927624E+02  0.50032788335E+02  0.10100000352E+00 0.  1.
</event>
<event>
 5   0  0.7602288E-02  0.5016660E+03  0.7818609E-02  0.1013345E+00
       -1   -1    0    0    0  501  0.00000000000E+00  0.00000000000E+00  0.52361276994E+03  0.52361276996E+03  0.50400001928E-02 0.  1.
        1   -1    0    0  501    0  0.00000000000E+00  0.00000000000E+00 -0.12015978775E+03  0.12015978786E+03  0.50400001928E-02 0. -1.
    10030    2    1    2    0    0  0.00000000000E+00  0.00000000000E+00  0.40345298218E+03  0.64377255782E+03  0.50166602174E+03 0.  0.
        5    1    3    3  502    0 -0.15543725675E+02  0.19461522760E+03 -0.27498147388E+00  0.19529173007E+03  0.46999998093E+01 0. -1.
       -5    1    3    3    0  502  0.15543725675E+02 -0.19461522760E+03  0.40372796366E+03  0.44848082775E+03  0.46999998093E+01 0.  1.
</event>
<event>
 5   0  0.1211345E-01  0.4959240E+03  0.7818609E-02  0.1014848E+00
       -2   -1    0    0    0  501  0.00000000000E+00  0.00000000000E+00  0.12754871055E+03  0.12754871058E+03  0.25500000920E-02 0. -1.
        2   -1    0    0  501    0  0.00000000000E+00  0.00000000000E+00 -0.48205236840E+03  0.48205236841E+03  0.25500000920E-02 0.  1.
    10030    2    1    2    0    0  0.00000000000E+00  0.00000000000E+00 -0.35450365785E+03  0.60960107899E+03  0.49592401845E+03 0.  0.
        5    1    3    3  502    0  0.21299191637E+02 -0.19328137477E+03 -0.36629542635E+03  0.41473578910E+03  0.46999998093E+01 0.  1.
       -5    1    3    3    0  502 -0.21299191637E+02  0.19328137477E+03  0.11791768505E+02  0.19486528988E+03  0.46999998093E+01 0. -1.
</event>
<event>
 5   0  0.1191894E-01  0.4613150E+03  0.7818609E-02  0.1024401E+00
        2   -1    0    0  501    0  0.00000000000E+00  0.00000000000E+00  0.33646326523E+03  0.33646326524E+03  0.25500000920E-02 0.  1.
       -2   -1    0    0    0  501  0.00000000000E+00  0.00000000000E+00 -0.15812386179E+03  0.15812386181E+03  0.25500000920E-02 0. -1.
    10030    2    1    2    0    0  0.00000000000E+00  0.00000000000E+00  0.17833940345E+03  0.49458712705E+03  0.46131495036E+03 0.  0.
        3    1    3    3  502    0  0.16787179866E+03  0.95107405462E+02  0.22468431138E+03  0.29615774402E+03  0.10100000352E+00 0.  1.
       -3    1    3    3    0  502 -0.16787179866E+03 -0.95107405462E+02 -0.46344907929E+02  0.19842938303E+03  0.10100000352E+00 0. -1.
</event>
<event>
 5   0  0.7416638E-02  0.4922897E+03  0.7818609E-02  0.1015811E+00
       -1   -1    0    0    0  501  0.00000000000E+00  0.00000000000E+00  0.83096286439E+02  0.83096286592E+02  0.50400001928E-02 0.  1.
        1   -1    0    0  501    0  0.00000000000E+00  0.00000000000E+00 -0.72912144803E+03  0.72912144805E+03  0.50400001928E-02 0. -1.
    10030    2    1    2    0    0  0.00000000000E+00  0.00000000000E+00 -0.64602516159E+03  0.81221773464E+03  0.49228969018E+03 0.  0.
        1    1    3    3  502    0 -0.19834157678E+03  0.13412858515E+03 -0.41717747590E+03  0.48100613806E+03  0.50400001928E-02 0.  1.
       -1    1    3    3    0  502  0.19834157678E+03 -0.13412858515E+03 -0.22884768569E+03  0.33121159658E+03  0.50400001928E-02 0. -1.
</event>
<event>
 5   0  0.7531632E-02  0.4970590E+03  0.7818609E-02  0.1014549E+00
       -1   -1    0    0    0  501  0.00000000000E+00  0.00000000000E+00  0.95859376840E+02  0.95859376972E+02  0.50400001928E-02 0. -1.
        1   -1    0    0  501    0  0.00000000000E+00  0.00000000000E+00 -0.64434921959E+03  0.64434921961E+03  0.50400001928E-02 0.  1.
    10030    2    1    2    0    0  0.00000000000E+00  0.00000000000E+00 -0.54848984275E+03  0.74020859658E+03  0.49705900943E+03 0.  0.
        3    1    3    3  502    0 -0.10216607779E+01 -0.14021321482E+03 -0.57982058337E+03  0.59653391228E+03  0.10100000352E+00 0.  1.
       -3    1    3    3    0  502  0.10216607779E+01  0.14021321482E+03  0.31330740622E+02  0.14367468430E+03  0.10100000352E+00 0. -1.
</event>
<event>
 5   0  0.7781754E-02  0.5047559E+03  0.7818609E-02  0.1012545E+00
       -1   -1    0    0    0  501  0.00000000000E+00  0.00000000000E+00  0.21047173480E+03  0.21047173486E+03  0.50400001928E-02 0. -1.
        1   -1    0    0  501    0  0.00000000000E+00  0.00000000000E+00 -0.30262795943E+03  0.30262795948E+03  0.50400001928E-02 0.  1.
    10030    2    1    2    0    0  0.00000000000E+00  0.00000000000E+00 -0.92156224630E+02  0.51309969434E+03  0.50475590793E+03 0.  0.
        2    1    3    3  502    0  0.14503165997E+03  0.16968379850E+03  0.73630400267E+02  0.23504937719E+03  0.25500000920E-02 0. -1.
       -2    1    3    3    0  502 -0.14503165997E+03 -0.16968379850E+03 -0.16578662490E+03  0.27805031715E+03  0.25500000920E-02 0.  1.
</event>
<event>
 5   0  0.5006750E-02  0.4941458E+03  0.7818609E-02  0.1015318E+00
       -3   -1    0    0    0  501  0.00000000000E+00  0.00000000000E+00  0.91467757700E+02  0.91467813463E+02  0.10100000352E+00 0.  1.
        3   -1    0    0  501    0  0.00000000000E+00  0.00000000000E+00 -0.66739364481E+03  0.66739365245E+03  0.10100000352E+00 0. -1.
    10030    2    1    2    0    0  0.00000000000E+00  0.00000000000E+00 -0.57592588711E+03  0.75886146592E+03  0.49414582565E+03 0.  0.
        4    1    3    3  502    0 -0.10264415736E+03  0.22114782736E+03 -0.34941462777E+03  0.42606851513E+03  0.12699999809E+01 0. -1.
       -4    1    3    3    0  502  0.10264415736E+03 -0.22114782736E+03 -0.22651125934E+03  0.33279295079E+03  0.12699999809E+01 0.  1.
</event>
<event>
 5   0  0.1231822E-01  0.5012625E+03  0.7818609E-02  0.1013450E+00
       -2   -1    0    0    0  501  0.00000000000E+00  0.00000000000E+00  0.52884274716E+03  0.52884274717E+03  0.25500000920E-02 0. -1.
        2   -1    0    0  501    0  0.00000000000E+00  0.00000000000E+00 -0.11878013701E+03  0.11878013704E+03  0.25500000920E-02 0.  1.
    10030    2    1    2    0    0  0.00000000000E+00  0.00000000000E+00  0.41006261015E+03  0.64762288421E+03  0.50126246209E+03 0.  0.
        1    1    3    3  502    0 -0.12943550162E+02  0.24881330838E+03  0.16987567300E+03  0.30155155814E+03  0.50400001928E-02 0.  1.
       -1    1    3    3    0  502  0.12943550162E+02 -0.24881330838E+03  0.24018693716E+03  0.34607132606E+03  0.50400001928E-02 0. -1.
</event>
<event>
 5   0  0.1211345E-01  0.4955198E+03  0.7818609E-02  0.1014955E+00
       -2   -1    0    0    0  501  0.00000000000E+00  0.00000000000E+00  0.13448670667E+03  0.13448670669E+03  0.25500000920E-02 0. -1.
        2   -1    0    0  501    0  0.00000000000E+00  0.00000000000E+00 -0.45643896322E+03  0.45643896322E+03  0.25500000920E-02 0.  1.
    10030    2    1    2    0    0  0.00000000000E+00  0.00000000000E+00 -0.32195225655E+03  0.59092566992E+03  0.49551981986E+03 0.  0.
        5    1    3    3  502    0  0.36188557755E+02 -0.18766529415E+01 -0.45320789649E+03  0.45467859085E+03  0.46999998093E+01 0.  1.
       -5    1    3    3    0  502 -0.36188557755E+02  0.18766529415E+01  0.13125563994E+03  0.13624707907E+03  0.46999998093E+01 0. -1.
</event>
<event>
 5   0  0.1279188E-01  0.4956855E+03  0.7818609E-02  0.1014911E+00
       -2   -1    0    0    0  501  0.00000000000E+00  0.00000000000E+00  0.12887737791E+03  0.12887737793E+03  0.25500000920E-02 0.  1.
        2   -1    0    0  501    0  0.00000000000E+00  0.00000000000E+00 -0.47662391414E+03  0.47662391415E+03  0.25500000920E-02 0. -1.
    10030    2    1    2    0    0  0.00000000000E+00  0.00000000000E+00 -0.34774653623E+03  0.60550129208E+03  0.49568554674E+03 0.  0.
        2    1    3    3  502    0  0.24692742511E+01  0.11177972129E+03 -0.44406701068E+03  0.45792610036E+03  0.25500000920E-02 0. -1.
       -2    1    3    3    0  502 -0.24692742511E+01 -0.11177972129E+03  0.96320474449E+02  0.14757519172E+03  0.25500000920E-02 0.  1.
</event>
<event>
 5   0  0.1191894E-01  0.5021620E+03  0.7818609E-02  0.1013216E+00
        2   -1    0    0  501    0  0.00000000000E+00  0.00000000000E+00  0.38249767237E+03  0.38249767238E+03  0.25500000920E-02 0.  1.
       -2   -1    0    0    0  501  0.00000000000E+00  0.00000000000E+00 -0.16481583363E+03  0.16481583365E+03  0.25500000920E-02 0. -1.
    10030    2    1    2    0    0  0.00000000000E+00  0.00000000000E+00  0.21768183874E+03  0.54731350603E+03  0.50216201664E+03 0.  0.
        3    1    3    3  502    0 -0.80429188744E+02 -0.20848473868E+03  0.23362025272E+03  0.32328497234E+03  0.10100000352E+00 0.  1.
       -3    1    3    3    0  502  0.80429188744E+02  0.20848473868E+03 -0.15938413973E+02  0.22402853368E+03  0.10100000352E+00 0. -1.
</event>
<event>
 5   0  0.7781754E-02  0.4997355E+03  0.7818609E-02  0.1013848E+00
       -1   -1    0    0    0  501  0.00000000000E+00  0.00000000000E+00  0.30622255494E+03  0.30622255499E+03  0.50400001928E-02 0. -1.
        1   -1    0    0  501    0  0.00000000000E+00  0.00000000000E+00 -0.20388407764E+03  0.20388407771E+03  0.50400001928E-02 0.  1.
    10030    2    1    2    0    0  0.00000000000E+00  0.00000000000E+00  0.10233847730E+03  0.51010663269E+03  0.49973554284E+03 0.  0.
        2    1    3    3  502    0 -0.93467905818E+02 -0.84527297687E+02 -0.16906943721E+03  0.21086865125E+03  0.25500000920E-02 0.  1.
       -2    1    3    3    0  502  0.93467905818E+02  0.84527297687E+02  0.27140791451E+03  0.29923798145E+03  0.25500000920E-02 0. -1.
</event>
<event>
 5   0  0.7416638E-02  0.5121054E+03  0.7818609E-02  0.1010667E+00
        1   -1    0    0  501    0  0.00000000000E+00  0.00000000000E+00  0.65098415239E+03  0.65098415241E+03  0.50400001928E-02 0.  1.
       -1   -1    0    0    0  501  0.00000000000E+00  0.00000000000E+00 -0.10071362330E+03  0.10071362343E+03  0.50400001928E-02 0. -1.
    10030    2    1    2    0    0  0.00000000000E+00  0.00000000000E+00  0.55027052908E+03  0.75169777584E+03  0.51210535149E+03 0.  0.
        1    1    3    3  502    0  0.88117013184E+02  0.60767854023E+02  0.61656802611E+03  0.62579027712E+03  0.50400001928E-02 0.  1.
       -1    1    3    3    0  502 -0.88117013184E+02 -0.60767854023E+02 -0.66297497027E+02  0.12590749871E+03  0.50400001928E-02 0. -1.
</event>
<event>
 5   0  0.1191894E-01  0.4998651E+03  0.7818609E-02  0.1013814E+00
        2   -1    0    0  501    0  0.00000000000E+00  0.00000000000E+00  0.41529702410E+03  0.41529702411E+03  0.25500000920E-02 0.  1.
       -2   -1    0    0    0  501  0.00000000000E+00  0.00000000000E+00 -0.15041350284E+03  0.15041350286E+03  0.25500000920E-02 0. -1.
    10030    2    1    2    0    0  0.00000000000E+00  0.00000000000E+00  0.26488352126E+03  0.56571052696E+03  0.49986510229E+03 0.  0.
        3    1    3    3  502    0  0.32655527840E+02 -0.80408149055E+02 -0.13281331229E+03  0.15865446749E+03  0.10100000352E+00 0. -1.
       -3    1    3    3    0  502 -0.32655527840E+02  0.80408149055E+02  0.39769683355E+03  0.40705605947E+03  0.10100000352E+00 0.  1.
</event>
<event>
 5   0  0.1211345E-01  0.4963627E+03  0.7818609E-02  0.1014733E+00
       -2   -1    0    0    0  501  0.00000000000E+00  0.00000000000E+00  0.45960520578E+02  0.45960520649E+02  0.25500000920E-02 0. -1.
        2   -1    0    0  501    0  0.00000000000E+00  0.00000000000E+00 -0.13401498866E+04  0.13401498866E+04  0.25500000920E-02 0.  1.
    10030    2    1    2    0    0  0.00000000000E+00  0.00000000000E+00 -0.12941893660E+04  0.13861104072E+04  0.49636271613E+03 0.  0.
        5    1    3    3  502    0 -0.82473950746E+02 -0.18431261684E+03 -0.10498282651E+04  0.10690811800E+04  0.46999998093E+01 0.  1.
       -5    1    3    3    0  502  0.82473950746E+02  0.18431261684E+03 -0.24436110094E+03  0.31702922724E+03  0.46999998093E+01 0. -1.
</event>
<event>
 5   0  0.7531632E-02  0.4992890E+03  0.7818609E-02  0.1013965E+00
        1   -1    0    0  501    0  0.00000000000E+00  0.00000000000E+00  0.44250578561E+03  0.44250578564E+03  0.50400001928E-02 0.  1.
       -1   -1    0    0    0  501  0.00000000000E+00  0.00000000000E+00 -0.14083970015E+03  0.14083970024E+03  0.50400001928E-02 0. -1.
    10030    2    1    2    0    0  0.00000000000E+00  0.00000000000E+00  0.30166608546E+03  0.58334548588E+03  0.49928902329E+03 0.  0.
        3    1    3    3  502    0  0.22224153567E+03  0.28857516973E+02  0.27934285131E+03  0.35812915999E+03  0.10100000352E+00 0.  1.
       -3    1    3    3    0  502 -0.22224153567E+03 -0.28857516973E+02  0.22323234152E+02  0.22521632588E+03  0.10100000352E+00 0. -1.
</event>
<event>
 5   0  0.7781754E-02  0.5678016E+03  0.7818609E-02  0.9974555E-01
        1   -1    0    0  501    0  0.00000000000E+00  0.00000000000E+00  0.10875017163E+04  0.10875017163E+04  0.50400001928E-02 0. -1.
       -1   -1    0    0    0  501  0.00000000000E+00  0.00000000000E+00 -0.74114509356E+02  0.74114509528E+02  0.50400001928E-02 0.  1.
    10030    2    1    2    0    0  0.00000000000E+00  0.00000000000E+00  0.10133872069E+04  0.11616162258E+04  0.56780157179E+03 0.  0.
        2    1    3    3  502    0 -0.18436618588E+03 -0.13706170077E+03  0.84793910313E+03  0.87850869258E+03  0.25500000920E-02 0. -1.
       -2    1    3    3    0  502  0.18436618588E+03  0.13706170077E+03  0.16544810376E+03  0.28310753321E+03  0.25500000920E-02 0.  1.
</event>
<event>
 5   0  0.7781754E-02  0.5134190E+03  0.7818609E-02  0.1010335E+00
       -1   -1    0    0    0  501  0.00000000000E+00  0.00000000000E+00  0.15030021906E+03  0.15030021914E+03  0.50400001928E-02 0. -1.
        1   -1    0    0  501    0  0.00000000000E+00  0.00000000000E+00 -0.43845426241E+03  0.43845426244E+03  0.50400001928E-02 0.  1.
    10030    2    1    2    0    0  0.00000000000E+00  0.00000000000E+00 -0.28815404335E+03  0.58875448158E+03  0.51341901686E+03 0.  0.
        2    1    3    3  502    0  0.62860379839E+02  0.17464525404E+03  0.59277815217E+02  0.19484930458E+03  0.25500000920E-02 0. -1.
       -2    1    3    3    0  502 -0.62860379839E+02 -0.17464525404E+03 -0.34743185857E+03  0.39390517700E+03  0.25500000920E-02 0.  1.
</event>
<event>
 5   0  0.5006750E-02  0.4805255E+03  0.7818609E-02  0.1018991E+00
       -3   -1    0    0    0  501  0.00000000000E+00  0.00000000000E+00  0.28235263046E+04  0.28235263064E+04  0.10100000352E+00 0.  1.
        3   -1    0    0  501    0  0.00000000000E+00  0.00000000000E+00 -0.20444586093E+02  0.20444835570E+02  0.10100000352E+00 0. -1.
    10030    2    1    2    0    0  0.00000000000E+00  0.00000000000E+00  0.28030817185E+04  0.28439711420E+04  0.48052547879E+03 0.  0.
        5    1    3    3  502    0  0.17814190723E+03  0.11303713732E+03  0.20813182673E+04  0.20919894248E+04  0.46999998093E+01 0.  1.
       -5    1    3    3    0  502 -0.17814190723E+03 -0.11303713732E+03  0.72176345119E+03  0.75198171719E+03  0.46999998093E+01 0. -1.
</event>
<event>
 5   0  0.1243803E-01  0.5006017E+03  0.7818609E-02  0.1013622E+00
        2   -1    0    0  501    0  0.00000000000E+00  0.00000000000E+00  0.96934272393E+03  0.96934272394E+03  0.25500000920E-02 0.  1.
       -2   -1    0    0    0  501  0.00000000000E+00  0.00000000000E+00 -0.64631961240E+02  0.64631961290E+02  0.25500000920E-02 0. -1.
    10030    2    1    2    0    0  0.00000000000E+00  0.00000000000E+00  0.90471076269E+03  0.10339746852E+04  0.50060172349E+03 0.  0.
        4    1    3    3  502    0 -0.17449551476E+03 -0.91521271233E+02  0.13355000143E+03  0.23803790359E+03  0.12699999809E+01 0. -1.
       -4    1    3    3    0  502  0.17449551476E+03  0.91521271233E+02  0.77116076126E+03  0.79593678164E+03  0.12699999809E+01 0.  1.
</event>
<event>
 5   0  0.5006750E-02  0.5000113E+03  0.7818609E-02  0.1013776E+00
       -3   -1    0    0    0  501  0.00000000000E+00  0.00000000000E+00  0.65850330540E+02  0.65850407996E+02  0.10100000352E+00 0. -1.
        3   -1    0    0  501    0  0.00000000000E+00  0.00000000000E+00 -0.94916421729E+03  0.94916422266E+03  0.10100000352E+00 0.  1.
    10030    2    1    2    0    0  0.00000000000E+00  0.00000000000E+00 -0.88331388675E+03  0.10150146307E+04  0.50001127780E+03 0.  0.
        1    1    3    3  502    0 -0.23059188162E+02 -0.11446528202E+03  0.70970294766E+01  0.11698031800E+03  0.50400001928E-02 0. -1.
       -1    1    3    3    0  502  0.23059188162E+02  0.11446528202E+03 -0.89041091622E+03  0.89803431265E+03  0.50400001928E-02 0.  1.
</event>
<event>
 5   0  0.7602288E-02  0.5002195E+03  0.7818609E-02  0.1013722E+00
       -1   -1    0    0    0  501  0.00000000000E+00  0.00000000000E+00  0.59031990554E+03  0.59031990556E+03  0.50400001928E-02 0.  1.
        1   -1    0    0  501    0  0.00000000000E+00  0.00000000000E+00 -0.10596775661E+03  0.10596775673E+03  0.50400001928E-02 0. -1.
    10030    2    1    2    0    0  0.00000000000E+00  0.00000000000E+00  0.48435214893E+03  0.69628766229E+03  0.50021945633E+03 0.  0.
        5    1    3    3  502    0  0.21472608870E+03 -0.11824868068E+03  0.17337947664E+03  0.30028748987E+03  0.46999998093E+01 0. -1.
       -5    1    3    3    0  502 -0.21472608870E+03  0.11824868068E+03  0.31097267229E+03  0.39600017242E+03  0.46999998093E+01 0.  1.
</event>
<event>
 5   0  0.1211345E-01  0.5038237E+03  0.7818609E-02  0.1012786E+00
        2   -1    0    0  501    0  0.00000000000E+00  0.00000000000E+00  0.50944726046E+03  0.50944726047E+03  0.25500000920E-02 0. -1.
       -2   -1    0    0    0  501  0.00000000000E+00  0.00000000000E+00 -0.12456553198E+03  0.12456553200E+03  0.25500000920E-02 0.  1.
    10030    2    1    2    0    0  0.00000000000E+00  0.00000000000E+00  0.38488172849E+03  0.63401279247E+03  0.50382365575E+03 0.  0.
        5    1    3    3  502    0 -0.72394931189E+02  0.20700680400E+03  0.34832350776E+03  0.41163600307E+03  0.46999998093E+01 0. -1.
       -5    1    3    3    0  502  0.72394931189E+02 -0.20700680400E+03  0.36558220729E+02  0.22237678940E+03  0.46999998093E+01 0.  1.
</event>
<event>
 5   0  0.5006750E-02  0.4999530E+03  0.7818609E-02  0.1013791E+00
       -4   -1    0    0    0  501  0.00000000000E+00  0.00000000000E+00  0.55902412622E+02  0.55916836793E+02  0.12699999809E+01 0. -1.
        4   -1    0    0  501    0  0.00000000000E+00  0.00000000000E+00 -0.11176503551E+04  0.11176510767E+04  0.12699999809E+01 0.  1.
    10030    2    1    2    0    0  0.00000000000E+00  0.00000000000E+00 -0.10617479425E+04  0.11735679135E+04  0.49995295192E+03 0.  0.
        5    1    3    3  502    0  0.15885249416E+03 -0.41890427636E+01 -0.98370387606E+03  0.99646729437E+03  0.46999998093E+01 0. -1.
       -5    1    3    3    0  502 -0.15885249416E+03  0.41890427636E+01 -0.78044066433E+02  0.17710061909E+03  0.46999998093E+01 0.  1.
</event>
<event>
 5   0  0.5006750E-02  0.4503934E+03  0.7818609E-02  0.1027605E+00
       -3   -1    0    0    0  501  0.00000000000E+00  0.00000000000E+00  0.15612268282E+03  0.15612271549E+03  0.10100000352E+00 0. -1.
        3   -1    0    0  501    0  0.00000000000E+00  0.00000000000E+00 -0.32483136890E+03  0.32483138460E+03  0.10100000352E+00 0.  1.
    10030    2    1    2    0    0  0.00000000000E+00  0.00000000000E+00 -0.16870868608E+03  0.48095410009E+03  0.45039341206E+03 0.  0.
        5    1    3    3  502    0  0.12410470118E+03  0.18777244629E+03 -0.78408982215E+02  0.23839154123E+03  0.46999998093E+01 0. -1.
       -5    1    3    3    0  502 -0.12410470118E+03 -0.18777244629E+03 -0.90299703862E+02  0.24256255885E+03  0.46999998093E+01 0.  1.
</event>
<event>
 5   0  0.5006750E-02  0.4965461E+03  0.7818609E-02  0.1014684E+00
       -3   -1    0    0    0  501  0.00000000000E+00  0.00000000000E+00  0.51480403436E+03  0.51480404427E+03  0.10100000352E+00 0.  1.
        3   -1    0    0  501    0  0.00000000000E+00  0.00000000000E+00 -0.11973389376E+03  0.11973393636E+03  0.10100000352E+00 0. -1.
    10030    2    1    2    0    0  0.00000000000E+00  0.00000000000E+00  0.39507014060E+03  0.63453798062E+03  0.49654610346E+03 0.  0.
        1    1    3    3  502    0 -0.72025838110E+02  0.22507882113E+03  0.10028576849E+03  0.25672053378E+03  0.50400001928E-02 0. -1.
       -1    1    3    3    0  502  0.72025838110E+02 -0.22507882113E+03  0.29478437211E+03  0.37781744685E+03  0.50400001928E-02 0.  1.
</event>
<event>
 5   0  0.1231822E-01  0.4982745E+03  0.7818609E-02  0.1014230E+00
       -2   -1    0    0    0  501  0.00000000000E+00  0.00000000000E+00  0.16921031790E+03  0.16921031792E+03  0.25500000920E-02 0. -1.
        2   -1    0    0  501    0  0.00000000000E+00  0.00000000000E+00 -0.36681789172E+03  0.36681789173E+03  0.25500000920E-02 0.  1.
    10030    2    1    2    0    0  0.00000000000E+00  0.00000000000E+00 -0.19760757382E+03  0.53602820965E+03  0.49827451100E+03 0.  0.
        1    1    3    3  502    0 -0.45231744841E+02  0.14894130674E+03 -0.30806765201E+03  0.34515953099E+03  0.50400001928E-02 0. -1.
       -1    1    3    3    0  502  0.45231744841E+02 -0.14894130674E+03  0.11046007819E+03  0.19086867866E+03  0.50400001928E-02 0.  1.
</event>
<event>
 5   0  0.7531632E-02  0.4973601E+03  0.7818609E-02  0.1014470E+00
       -1   -1    0    0    0  501  0.00000000000E+00  0.00000000000E+00  0.33434083688E+02  0.33434084068E+02  0.50400001928E-02 0. -1.
        1   -1    0    0  501    0  0.00000000000E+00  0.00000000000E+00 -0.18496622841E+04  0.18496622841E+04  0.50400001928E-02 0.  1.
    10030    2    1    2    0    0  0.00000000000E+00  0.00000000000E+00 -0.18162282004E+04  0.18830963682E+04  0.49736008672E+03 0.  0.
        3    1    3    3  502    0 -0.18777391413E+03  0.35214045901E+02 -0.15108511693E+04  0.15228822469E+04  0.10100000352E+00 0. -1.
       -3    1    3    3    0  502  0.18777391413E+03 -0.35214045901E+02 -0.30537703111E+03  0.36021412130E+03  0.10100000352E+00 0.  1.
</event>
<event>
 5   0  0.5006750E-02  0.4956156E+03  0.7818609E-02  0.1014930E+00
       -4   -1    0    0    0  501  0.00000000000E+00  0.00000000000E+00  0.31891959636E+03  0.31892212504E+03  0.12699999809E+01 0.  1.
        4   -1    0    0  501    0  0.00000000000E+00  0.00000000000E+00 -0.19254695528E+03  0.19255114357E+03  0.12699999809E+01 0. -1.
    10030    2    1    2    0    0  0.00000000000E+00  0.00000000000E+00  0.12637264107E+03  0.51147326861E+03  0.49561563745E+03 0.  0.
        4    1    3    3  502    0 -0.80573109068E+02 -0.22985988879E+03  0.11024700193E+03  0.26736418742E+03  0.12699999809E+01 0.  1.
       -4    1    3    3    0  502  0.80573109068E+02  0.22985988879E+03  0.16125639140E+02  0.24410908119E+03  0.12699999809E+01 0. -1.
</event>
<event>
 5   0  0.1279188E-01  0.5038037E+03  0.7818609E-02  0.1012791E+00
        2   -1    0    0  501    0  0.00000000000E+00  0.00000000000E+00  0.12636185744E+04  0.12636185744E+04  0.25500000920E-02 0.  1.
       -2   -1    0    0    0  501  0.00000000000E+00  0.00000000000E+00 -0.50216535518E+02  0.50216535583E+02  0.25500000920E-02 0. -1.
    10030    2    1    2    0    0  0.00000000000E+00  0.00000000000E+00  0.12134020389E+04  0.13138351100E+04  0.50380371999E+03 0.  0.
        2    1    3    3  502    0 -0.74138804063E+02  0.13157462421E+02 -0.20182061444E+02  0.77955094098E+02  0.25500000920E-02 0. -1.
       -2    1    3    3    0  502  0.74138804063E+02 -0.13157462421E+02  0.12335841004E+04  0.12358800159E+04  0.25500000920E-02 0.  1.
</event>
<event>
 5   0  0.1279188E-01  0.5010609E+03  0.7818609E-02  0.1013502E+00
        2   -1    0    0  501    0  0.00000000000E+00  0.00000000000E+00  0.49554509750E+03  0.49554509751E+03  0.25500000920E-02 0.  1.
       -2   -1    0    0    0  501  0.00000000000E+00  0.00000000000E+00 -0.12665951216E+03  0.12665951219E+03  0.25500000920E-02 0. -1.
    10030    2    1    2    0    0  0.00000000000E+00  0.00000000000E+00  0.36888558534E+03  0.62220460970E+03  0.50106087580E+03 0.  0.
        2    1    3    3  502    0  0.74054335911E+02  0.23792845588E+03  0.15226416450E+03  0.29202460613E+03  0.25500000920E-02 0.  1.
       -2    1    3    3    0  502 -0.74054335911E+02 -0.23792845588E+03  0.21662142084E+03  0.33018000357E+03  0.25500000920E-02 0. -1.
</event>
<event>
 5   0  0.1243803E-01  0.4996968E+03  0.7818609E-02  0.1013858E+00
       -2   -1    0    0    0  501  0.00000000000E+00  0.00000000000E+00  0.26492553912E+03  0.26492553913E+03  0.25500000920E-02 0. -1.
        2   -1    0    0  501    0  0.00000000000E+00  0.00000000000E+00 -0.23562927976E+03  0.23562927978E+03  0.25500000920E-02 0.  1.
    10030    2    1    2    0    0  0.00000000000E+00  0.00000000000E+00  0.29296259356E+02  0.50055481891E+03  0.49969676397E+03 0.  0.
        4    1    3    3  502    0 -0.97327831757E+02 -0.13834124818E+03 -0.16954690890E+03  0.23949692065E+03  0.12699999809E+01 0.  1.
       -4    1    3    3    0  502  0.97327831757E+02  0.13834124818E+03  0.19884316826E+03  0.26105789826E+03  0.12699999809E+01 0. -1.
</event>
<event>
 5   0  0.1279188E-01  0.5336312E+03  0.7818609E-02  0.1005355E+00
        2   -1    0    0  501    0  0.00000000000E+00  0.00000000000E+00  0.20020891054E+04  0.20020891054E+04  0.25500000920E-02 0.  1.
       -2   -1    0    0    0  501  0.00000000000E+00  0.00000000000E+00 -0.35558135651E+02  0.35558135743E+02  0.25500000920E-02 0. -1.
    10030    2    1    2    0    0  0.00000000000E+00  0.00000000000E+00  0.19665309698E+04  0.20376472412E+04  0.53363116885E+03 0.  0.
        2    1    3    3  502    0 -0.12540612099E+03  0.33170153134E+02  0.92954106044E+02  0.15958514993E+03  0.25500000920E-02 0. -1.
       -2    1    3    3    0  502  0.12540612099E+03 -0.33170153134E+02  0.18735768637E+04  0.18780620912E+04  0.25500000920E-02 0.  1.
</event>
<event>
 5   0  0.1279188E-01  0.4977012E+03  0.7818609E-02  0.1014381E+00
        2   -1    0    0  501    0  0.00000000000E+00  0.00000000000E+00  0.21018046447E+04  0.21018046447E+04  0.25500000920E-02 0.  1.
       -2   -1    0    0    0  501  0.00000000000E+00  0.00000000000E+00 -0.29463547117E+02  0.29463547227E+02  0.25500000920E-02 0. -1.
    10030    2    1    2    0    0  0.00000000000E+00  0.00000000000E+00  0.20723410976E+04  0.21312681919E+04  0.49770119670E+03 0.  0.
        2    1    3    3  502    0  0.34150464161E+02 -0.23279260521E+03  0.68912620769E+03  0.72818512850E+03  0.25500000920E-02 0. -1.
       -2    1    3    3    0  502 -0.34150464161E+02  0.23279260521E+03  0.13832148899E+04  0.14030830634E+04  0.25500000920E-02 0.  1.
</event>
<event>
 5   0  0.1191894E-01  0.4232368E+03  0.7818609E-02  0.1036018E+00
        2   -1    0    0  501    0  0.00000000000E+00  0.00000000000E+00  0.59373822169E+03  0.59373822170E+03  0.25500000920E-02 0. -1.
       -2   -1    0    0    0  501  0.00000000000E+00  0.00000000000E+00 -0.75424412029E+02  0.75424412072E+02  0.25500000920E-02 0.  1.
    10030    2    1    2    0    0  0.00000000000E+00  0.00000000000E+00  0.51831380966E+03  0.66916263377E+03  0.42323684285E+03 0.  0.
        3    1    3    3  502    0  0.12251472665E+03  0.15239867426E+03  0.13122650368E+03  0.23549016887E+03  0.10100000352E+00 0.  1.
       -3    1    3    3    0  502 -0.12251472665E+03 -0.15239867426E+03  0.38708730598E+03  0.43367246490E+03  0.10100000352E+00 0. -1.
</event>
<event>
 5   0  0.7781754E-02  0.4997073E+03  0.7818609E-02  0.1013855E+00
       -1   -1    0    0    0  501  0.00000000000E+00  0.00000000000E+00  0.22131513091E+03  0.22131513097E+03  0.50400001928E-02 0.  1.
        1   -1    0    0  501    0  0.00000000000E+00  0.00000000000E+00 -0.28207221995E+03  0.28207221999E+03  0.50400001928E-02 0. -1.
    10030    2    1    2    0    0  0.00000000000E+00  0.00000000000E+00 -0.60757089037E+02  0.50338735097E+03  0.49970731558E+03 0.  0.
        2    1    3    3  502    0 -0.95915957990E+02  0.27083213387E+02  0.20042329651E+03  0.22383670216E+03  0.25500000920E-02 0.  1.
       -2    1    3    3    0  502  0.95915957990E+02 -0.27083213387E+02 -0.26118038555E+03  0.27955064880E+03  0.25500000920E-02 0. -1.
</event>
<event>
 5   0  0.7416638E-02  0.5073420E+03  0.7818609E-02  0.1011880E+00
        1   -1    0    0  501    0  0.00000000000E+00  0.00000000000E+00  0.64689085486E+03  0.64689085488E+03  0.50400001928E-02 0. -1.
       -1   -1    0    0    0  501  0.00000000000E+00  0.00000000000E+00 -0.99474238272E+02  0.99474238400E+02  0.50400001928E-02 0.  1.
    10030    2    1    2    0    0  0.00000000000E+00  0.00000000000E+00  0.54741661659E+03  0.74636509328E+03  0.50734199545E+03 0.  0.
        1    1    3    3  502    0  0.16663885357E+02  0.11111937078E+03  0.60828494850E+03  0.61857560430E+03  0.50400001928E-02 0. -1.
       -1    1    3    3    0  502 -0.16663885357E+02 -0.11111937078E+03 -0.60868331912E+02  0.12778948898E+03  0.50400001928E-02 0.  1.
</event>
<event>
 5   0  0.7531632E-02  0.4994843E+03  0.7818609E-02  0.1013914E+00
        1   -1    0    0  501    0  0.00000000000E+00  0.00000000000E+00  0.29692526508E+03  0.29692526512E+03  0.50400001928E-02 0. -1.
       -1   -1    0    0    0  501  0.00000000000E+00  0.00000000000E+00 -0.21005668019E+03  0.21005668025E+03  0.50400001928E-02 0.  1.
    10030    2    1    2    0    0  0.00000000000E+00  0.00000000000E+00  0.86868584883E+02  0.50698194537E+03  0.49948427592E+03 0.  0.
        3    1    3    3  502    0  0.24645135058E+02  0.10698218760E+03 -0.18425088020E+03  0.21447836301E+03  0.10100000352E+00 0.  1.
       -3    1    3    3    0  502 -0.24645135058E+02 -0.10698218760E+03  0.27111946508E+03  0.29250358236E+03  0.10100000352E+00 0. -1.
</event>
<event>
 5   0  0.5006750E-02  0.4870772E+03  0.7818609E-02  0.1017208E+00
       -3   -1    0    0    0  501  0.00000000000E+00  0.00000000000E+00  0.13555790981E+03  0.13555794744E+03  0.10100000352E+00 0.  1.
        3   -1    0    0  501    0  0.00000000000E+00  0.00000000000E+00 -0.43753281338E+03  0.43753282504E+03  0.10100000352E+00 0. -1.
    10030    2    1    2    0    0  0.00000000000E+00  0.00000000000E+00 -0.30197490357E+03  0.57309077248E+03  0.48707719215E+03 0.  0.
        4    1    3    3  502    0 -0.20646945890E+03  0.12905894635E+03 -0.15670159062E+03  0.28955629935E+03  0.12699999809E+01 0.  1.
       -4    1    3    3    0  502  0.20646945890E+03 -0.12905894635E+03 -0.14527331296E+03  0.28353447313E+03  0.12699999809E+01 0. -1.
</event>
<event>
 5   0  0.7781754E-02  0.4849323E+03  0.7818609E-02  0.1017788E+00
       -1   -1    0    0    0  501  0.00000000000E+00  0.00000000000E+00  0.82239636059E+02  0.82239636214E+02  0.50400001928E-02 0. -1.
        1   -1    0    0  501    0  0.00000000000E+00  0.00000000000E+00 -0.71485998456E+03  0.71485998457E+03  0.50400001928E-02 0.  1.
    10030    2    1    2    0    0  0.00000000000E+00  0.00000000000E+00 -0.63262034850E+03  0.79709962079E+03  0.48493226344E+03 0.  0.
        2    1    3    3  502    0  0.20550228171E+03  0.78516065979E+02 -0.48388935039E+03  0.53154949330E+03  0.25500000920E-02 0.  1.
       -2    1    3    3    0  502 -0.20550228171E+03 -0.78516065979E+02 -0.14873099811E+03  0.26555012749E+03  0.25500000920E-02 0. -1.
</event>
<event>
 5   0  0.7416638E-02  0.4980104E+03  0.7818609E-02  0.1014300E+00
        1   -1    0    0  501    0  0.00000000000E+00  0.00000000000E+00  0.41759164696E+03  0.41759164699E+03  0.50400001928E-02 0. -1.
       -1   -1    0    0    0  501  0.00000000000E+00  0.00000000000E+00 -0.14847897184E+03  0.14847897193E+03  0.50400001928E-02 0.  1.
    10030    2    1    2    0    0  0.00000000000E+00  0.00000000000E+00  0.26911267511E+03  0.56607061892E+03  0.49801035501E+03 0.  0.
        1    1    3    3  502    0  0.65541670170E+01 -0.22003365847E+03  0.22639855525E+01  0.22014289365E+03  0.50400001928E-02 0.  1.
       -1    1    3    3    0  502 -0.65541670170E+01  0.22003365847E+03  0.26684868956E+03  0.34592772527E+03  0.50400001928E-02 0. -1.
</event>
<event>
 5   0  0.1243803E-01  0.5006531E+03  0.7818609E-02  0.1013609E+00
       -2   -1    0    0    0  501  0.00000000000E+00  0.00000000000E+00  0.22511018954E+03  0.22511018956E+03  0.25500000920E-02 0. -1.
        2   -1    0    0  501    0  0.00000000000E+00  0.00000000000E+00 -0.27836756340E+03  0.27836756341E+03  0.25500000920E-02 0.  1.
    10030    2    1    2    0    0  0.00000000000E+00  0.00000000000E+00 -0.53257373852E+02  0.50347775296E+03  0.50065307336E+03 0.  0.
        4    1    3    3  502    0 -0.10443979472E+03  0.19517139608E+03 -0.14417364250E+03  0.26417266448E+03  0.12699999809E+01 0.  1.
       -4    1    3    3    0  502  0.10443979472E+03 -0.19517139608E+03  0.90916268647E+02  0.23930508848E+03  0.12699999809E+01 0. -1.
</event>
<event>
 5   0  0.1243803E-01  0.4981764E+03  0.7818609E-02  0.1014256E+00
       -2   -1    0    0    0  501  0.00000000000E+00  0.00000000000E+00  0.22809502187E+03  0.22809502189E+03  0.25500000920E-02 0.  1.
        2   -1    0    0  501    0  0.00000000000E+00  0.00000000000E+00 -0.27201357366E+03  0.27201357368E+03  0.25500000920E-02 0. -1.
    10030    2    1    2    0    0  0.00000000000E+00  0.00000000000E+00 -0.43918551789E+02  0.50010859556E+03  0.49817644280E+03 0.  0.
        4    1    3    3  502    0  0.17305992570E+03 -0.65280277434E+02  0.14551724775E+03  0.23534683936E+03  0.12699999809E+01 0.  1.
       -4    1    3    3    0  502 -0.17305992570E+03  0.65280277434E+02 -0.18943579954E+03  0.26476175621E+03  0.12699999809E+01 0. -1.
</event>
<event>
 5   0  0.1279188E-01  0.5249876E+03  0.7818609E-02  0.1007455E+00
       -2   -1    0    0    0  501  0.00000000000E+00  0.00000000000E+00  0.54834886058E+03  0.54834886059E+03  0.25500000920E-02 0.  1.
        2   -1    0    0  501    0  0.00000000000E+00  0.00000000000E+00 -0.12565539012E+03  0.12565539014E+03  0.25500000920E-02 0. -1.
    10030    2    1    2    0    0  0.00000000000E+00  0.00000000000E+00  0.42269347046E+03  0.67400425073E+03  0.52498758083E+03 0.  0.
        2    1    3    3  502    0 -0.87136107169E+02  0.24759997579E+03  0.21408251148E+03  0.33871783377E+03  0.25500000920E-02 0.  1.
       -2    1    3    3    0  502  0.87136107169E+02 -0.24759997579E+03  0.20861095898E+03  0.33528641696E+03  0.25500000920E-02 0. -1.
</event>
<event>
 5   0  0.7602288E-02  0.4954401E+03  0.7818609E-02  0.1014976E+00
       -1   -1    0    0    0  501  0.00000000000E+00  0.00000000000E+00  0.47565063335E+03  0.47565063338E+03  0.50400001928E-02 0. -1.
        1   -1    0    0  501    0  0.00000000000E+00  0.00000000000E+00 -0.12901322324E+03  0.12901322334E+03  0.50400001928E-02 0.  1.
    10030    2    1    2    0    0  0.00000000000E+00  0.00000000000E+00  0.34663741011E+03  0.60466385671E+03  0.49544009277E+03 0.  0.
        5    1    3    3  502    0  0.24427176084E+03  0.18988891354E+02  0.21755690503E+03  0.32769249009E+03  0.46999998093E+01 0. -1.
       -5    1    3    3    0  502 -0.24427176084E+03 -0.18988891354E+02  0.12908050508E+03  0.27697136662E+03  0.46999998093E+01 0.  1.
</event>
<event>
 5   0  0.7812547E-02  0.4967285E+03  0.7818609E-02  0.1014636E+00
        1   -1    0    0  501    0  0.00000000000E+00  0.00000000000E+00  0.16858349692E+03  0.16858349699E+03  0.50400001928E-02 0. -1.
       -1   -1    0    0    0  501  0.00000000000E+00  0.00000000000E+00 -0.36590051883E+03  0.36590051887E+03  0.50400001928E-02 0.  1.
    10030    2    1    2    0    0  0.00000000000E+00  0.00000000000E+00 -0.19731702191E+03  0.53448401586E+03  0.49672845305E+03 0.  0.
        4    1    3    3  502    0  0.22771335756E+03  0.97080997447E+02 -0.77002043958E+02  0.25924702689E+03  0.12699999809E+01 0.  1.
       -4    1    3    3    0  502 -0.22771335756E+03 -0.97080997447E+02 -0.12031497796E+03  0.27523698897E+03  0.12699999809E+01 0. -1.
</event>
<event>
 5   0  0.7531632E-02  0.4960270E+03  0.7818609E-02  0.1014821E+00
        1   -1    0    0  501    0  0.00000000000E+00  0.00000000000E+00  0.14361028370E+04  0.14361028370E+04  0.50400001928E-02 0. -1.
       -1   -1    0    0    0  501  0.00000000000E+00  0.00000000000E+00 -0.42831678380E+02  0.42831678677E+02  0.50400001928E-02 0.  1.
    10030    2    1    2    0    0  0.00000000000E+00  0.00000000000E+00  0.13932711586E+04  0.14789345157E+04  0.49602699548E+03 0.  0.
        3    1    3    3  502    0 -0.11090234554E+02 -0.20229752813E+03  0.11231488478E+04  0.11412758771E+04  0.10100000352E+00 0. -1.
       -3    1    3    3    0  502  0.11090234554E+02  0.20229752813E+03  0.27012231080E+03  0.33765863854E+03  0.10100000352E+00 0.  1.
</event>
<event>
 5   0  0.5006750E-02  0.4975968E+03  0.7818609E-02  0.1014408E+00
       -3   -1    0    0    0  501  0.00000000000E+00  0.00000000000E+00  0.80774745666E+03  0.80774746297E+03  0.10100000352E+00 0.  1.
        3   -1    0    0  501    0  0.00000000000E+00  0.00000000000E+00 -0.76633622639E+02  0.76633689196E+02  0.10100000352E+00 0. -1.
    10030    2    1    2    0    0  0.00000000000E+00  0.00000000000E+00  0.73111383402E+03  0.88438115217E+03  0.49759680869E+03 0.  0.
        2    1    3    3  502    0  0.17417871915E+03 -0.17374329632E+03  0.29963623780E+03  0.38769425354E+03  0.25500000920E-02 0. -1.
       -2    1    3    3    0  502 -0.17417871915E+03  0.17374329632E+03  0.43147759622E+03  0.49668689863E+03  0.25500000920E-02 0.  1.
</event>
<event>
 5   0  0.7812547E-02  0.5023012E+03  0.7818609E-02  0.1013180E+00
       -1   -1    0    0    0  501  0.00000000000E+00  0.00000000000E+00  0.40347791695E+03  0.40347791698E+03  0.50400001928E-02 0. -1.
        1   -1    0    0  501    0  0.00000000000E+00  0.00000000000E+00 -0.15633225181E+03  0.15633225189E+03  0.50400001928E-02 0.  1.
    10030    2    1    2    0    0  0.00000000000E+00  0.00000000000E+00  0.24714566515E+03  0.55981016887E+03  0.50230115008E+03 0.  0.
        4    1    3    3  502    0 -0.20511957324E+03 -0.54240090206E+02  0.27334224281E+03  0.34602546340E+03  0.12699999809E+01 0. -1.
       -4    1    3    3    0  502  0.20511957324E+03  0.54240090206E+02 -0.26196577665E+02  0.21378470547E+03  0.12699999809E+01 0.  1.
</event>
<event>
 5   0  0.7781754E-02  0.5001620E+03  0.7818609E-02  0.1013737E+00
        1   -1    0    0  501    0  0.00000000000E+00  0.00000000000E+00  0.12594350706E+03  0.12594350716E+03  0.50400001928E-02 0.  1.
       -1   -1    0    0    0  501  0.00000000000E+00  0.00000000000E+00 -0.49657577370E+03  0.49657577372E+03  0.50400001928E-02 0. -1.
    10030    2    1    2    0    0  0.00000000000E+00  0.00000000000E+00 -0.37063226664E+03  0.62251928088E+03  0.50016195177E+03 0.  0.
        2    1    3    3  502    0  0.15760231146E+02 -0.96361110179E+02 -0.47187068995E+03  0.48186699045E+03  0.25500000920E-02 0. -1.
       -2    1    3    3    0  502 -0.15760231146E+02  0.96361110179E+02  0.10123842332E+03  0.14065229043E+03  0.25500000920E-02 0.  1.
</event>
<event>
 5   0  0.1231822E-01  0.5501444E+03  0.7818609E-02  0.1001461E+00
        2   -1    0    0  501    0  0.00000000000E+00  0.00000000000E+00  0.34765464472E+03  0.34765464473E+03  0.25500000920E-02 0. -1.
       -2   -1    0    0    0  501  0.00000000000E+00  0.00000000000E+00 -0.21764335331E+03  0.21764335332E+03  0.25500000920E-02 0.  1.
    10030    2    1    2    0    0  0.00000000000E+00  0.00000000000E+00  0.13001129141E+03  0.56529799805E+03  0.55014442713E+03 0.  0.
        1    1    3    3  502    0  0.55196550858E+02 -0.61902148579E+01 -0.21182135506E+03  0.21898233827E+03  0.50400001928E-02 0.  1.
       -1    1    3    3    0  502 -0.55196550858E+02  0.61902148579E+01  0.34183264648E+03  0.34631565978E+03  0.50400001928E-02 0. -1.
</event>
<event>
 5   0  0.1279188E-01  0.4980873E+03  0.7818609E-02  0.1014279E+00
        2   -1    0    0  501    0  0.00000000000E+00  0.00000000000E+00  0.99277244056E+03  0.99277244056E+03  0.25500000920E-02 0. -1.
       -2   -1    0    0    0  501  0.00000000000E+00  0.00000000000E+00 -0.62474276730E+02  0.62474276782E+02  0.25500000920E-02 0.  1.
    10030    2    1    2    0    0  0.00000000000E+00  0.00000000000E+00  0.93029816383E+03  0.10552467173E+04  0.49808730243E+03 0.  0.
        2    1    3    3  502    0 -0.36673887572E+02  0.17052633056E+03  0.88547599374E+02  0.19561411198E+03  0.25500000920E-02 0.  1.
       -2    1    3    3    0  502  0.36673887572E+02 -0.17052633056E+03  0.84175056445E+03  0.85963260537E+03  0.25500000920E-02 0. -1.
</event>
<event>
 5   0  0.1191894E-01  0.5072690E+03  0.7818609E-02  0.1011899E+00
       -2   -1    0    0    0  501  0.00000000000E+00  0.00000000000E+00  0.84376610350E+02  0.84376610388E+02  0.25500000920E-02 0.  1.
        2   -1    0    0  501    0  0.00000000000E+00  0.00000000000E+00 -0.76242046607E+03  0.76242046608E+03  0.25500000920E-02 0. -1.
    10030    2    1    2    0    0  0.00000000000E+00  0.00000000000E+00 -0.67804385572E+03  0.84679707646E+03  0.50726898035E+03 0.  0.
        3    1    3    3  502    0  0.15865220529E+03  0.85480260069E+01 -0.89896635002E+01  0.15913646735E+03  0.10100000352E+00 0.  1.
       -3    1    3    3    0  502 -0.15865220529E+03 -0.85480260069E+01 -0.66905419222E+03  0.68766060911E+03  0.10100000352E+00 0. -1.
</event>
<event>
 5   0  0.1211345E-01  0.4481901E+03  0.7818609E-02  0.1028263E+00
        2   -1    0    0  501    0  0.00000000000E+00  0.00000000000E+00  0.10060202313E+04  0.10060202313E+04  0.25500000920E-02 0.  1.
       -2   -1    0    0    0  501  0.00000000000E+00  0.00000000000E+00 -0.49918064440E+02  0.49918064505E+02  0.25500000920E-02 0. -1.
    10030    2    1    2    0    0  0.00000000000E+00  0.00000000000E+00  0.95610216687E+03  0.10559382958E+04  0.44819006134E+03 0.  0.
        5    1    3    3  502    0 -0.21095753259E+03 -0.87084601963E+01  0.30146732501E+03  0.36808090943E+03  0.46999998093E+01 0. -1.
       -5    1    3    3    0  502  0.21095753259E+03  0.87084601963E+01  0.65463484186E+03  0.68785738640E+03  0.46999998093E+01 0.  1.
</event>
<event>
 5   0  0.5006750E-02  0.4976917E+03  0.7818609E-02  0.1014383E+00
        3   -1    0    0  501    0  0.00000000000E+00  0.00000000000E+00  0.55215079129E+03  0.55215080053E+03  0.10100000352E+00 0.  1.
       -3   -1    0    0    0  501  0.00000000000E+00  0.00000000000E+00 -0.11215095057E+03  0.11215099605E+03  0.10100000352E+00 0. -1.
    10030    2    1    2    0    0  0.00000000000E+00  0.00000000000E+00  0.43999984072E+03  0.66430179658E+03  0.49769168880E+03 0.  0.
        1    1    3    3  502    0  0.36431233532E+02 -0.11902113439E+03  0.50761324750E+03  0.52265138886E+03  0.50400001928E-02 0.  1.
       -1    1    3    3    0  502 -0.36431233532E+02  0.11902113439E+03 -0.67613406780E+02  0.14165040773E+03  0.50400001928E-02 0. -1.
</event>
<event>
 5   0  0.7531632E-02  0.5057536E+03  0.7818609E-02  0.1012288E+00
       -1   -1    0    0    0  501  0.00000000000E+00  0.00000000000E+00  0.54541622562E+02  0.54541622795E+02  0.50400001928E-02 0.  1.
        1   -1    0    0  501    0  0.00000000000E+00  0.00000000000E+00 -0.11724382068E+04  0.11724382069E+04  0.50400001928E-02 0. -1.
    10030    2    1    2    0    0  0.00000000000E+00  0.00000000000E+00 -0.11178965843E+04  0.12269798297E+04  0.50575362502E+03 0.  0.
        3    1    3    3  502    0  0.89265932688E+02 -0.11941733543E+03 -0.63430859702E+02  0.16202589578E+03  0.10100000352E+00 0.  1.
       -3    1    3    3    0  502 -0.89265932688E+02  0.11941733543E+03 -0.10544657246E+04  0.10649539339E+04  0.10100000352E+00 0. -1.
</event>
<event>
 5   0  0.5006750E-02  0.4963383E+03  0.7818609E-02  0.1014739E+00
       -3   -1    0    0    0  501  0.00000000000E+00  0.00000000000E+00  0.54910388675E+03  0.54910389604E+03  0.10100000352E+00 0.  1.
        3   -1    0    0  501    0  0.00000000000E+00  0.00000000000E+00 -0.11216075426E+03  0.11216079974E+03  0.10100000352E+00 0. -1.
    10030    2    1    2    0    0  0.00000000000E+00  0.00000000000E+00  0.43694313249E+03  0.66126469578E+03  0.49633828872E+03 0.  0.
        5    1    3    3  502    0  0.21983824896E+02 -0.24064551651E+03  0.14343319730E+03  0.28104932887E+03  0.46999998093E+01 0.  1.
       -5    1    3    3    0  502 -0.21983824896E+02  0.24064551651E+03  0.29350993519E+03  0.38021536690E+03  0.46999998093E+01 0. -1.
</event>
<event>
 5   0  0.7781754E-02  0.5075980E+03  0.7818609E-02  0.1011815E+00
       -1   -1    0    0    0  501  0.00000000000E+00  0.00000000000E+00  0.24795671510E+03  0.24795671516E+03  0.50400001928E-02 0. -1.
        1   -1    0    0  501    0  0.00000000000E+00  0.00000000000E+00 -0.25977890585E+03  0.25977890590E+03  0.50400001928E-02 0.  1.
    10030    2    1    2    0    0  0.00000000000E+00  0.00000000000E+00 -0.11822190748E+02  0.50773562106E+03  0.50759796758E+03 0.  0.
        2    1    3    3  502    0  0.33489425015E+02  0.24995174613E+03  0.22671243513E+02  0.25320229515E+03  0.25500000920E-02 0.  1.
       -2    1    3    3    0  502 -0.33489425015E+02 -0.24995174613E+03 -0.34493434261E+02  0.25453332590E+03  0.25500000920E-02 0. -1.
</event>
<event>
 5   0  0.7531632E-02  0.4992734E+03  0.7818609E-02  0.1013969E+00
       -1   -1    0    0    0  501  0.00000000000E+00  0.00000000000E+00  0.77728920806E+02  0.77728920969E+02  0.50400001928E-02 0.  1.
        1   -1    0    0  501    0  0.00000000000E+00  0.00000000000E+00 -0.80174110186E+03  0.80174110188E+03  0.50400001928E-02 0. -1.
    10030    2    1    2    0    0  0.00000000000E+00  0.00000000000E+00 -0.72401218105E+03  0.87947002285E+03  0.49927335476E+03 0.  0.
        3    1    3    3  502    0 -0.82907265572E+02 -0.16810253406E+03 -0.65244739185E+03  0.67883700987E+03  0.10100000352E+00 0. -1.
       -3    1    3    3    0  502  0.82907265572E+02  0.16810253406E+03 -0.71564789209E+02  0.20063301298E+03  0.10100000352E+00 0.  1.
</event>
<event>
 5   0  0.1279188E-01  0.4965034E+03  0.7818609E-02  0.1014696E+00
        2   -1    0    0  501    0  0.00000000000E+00  0.00000000000E+00  0.69908501105E+03  0.69908501105E+03  0.25500000920E-02 0. -1.
       -2   -1    0    0    0  501  0.00000000000E+00  0.00000000000E+00 -0.88156513427E+02  0.88156513463E+02  0.25500000920E-02 0.  1.
    10030    2    1    2    0    0  0.00000000000E+00  0.00000000000E+00  0.61092849762E+03  0.78724152451E+03  0.49650336224E+03 0.  0.
        2    1    3    3  502    0 -0.63483169862E+02 -0.19944968606E+03  0.51711639426E+03  0.55787064392E+03  0.25500000920E-02 0. -1.
       -2    1    3    3    0  502  0.63483169862E+02  0.19944968606E+03  0.93812103358E+02  0.22937088060E+03  0.25500000920E-02 0.  1.
</event>
<event>
 5   0  0.1231822E-01  0.4935139E+03  0.7818609E-02  0.1015486E+00
       -2   -1    0    0    0  501  0.00000000000E+00  0.00000000000E+00  0.58183388713E+02  0.58183388769E+02  0.25500000920E-02 0.  1.
        2   -1    0    0  501    0  0.00000000000E+00  0.00000000000E+00 -0.10465012236E+04  0.10465012236E+04  0.25500000920E-02 0. -1.
    10030    2    1    2    0    0  0.00000000000E+00  0.00000000000E+00 -0.98831783493E+03  0.11046846124E+04  0.49351388032E+03 0.  0.
        1    1    3    3  502    0  0.38925402580E+02  0.19442574328E+03 -0.16539172295E+03  0.25820723976E+03  0.50400001928E-02 0.  1.
       -1    1    3    3    0  502 -0.38925402580E+02 -0.19442574328E+03 -0.82292611198E+03  0.84647737266E+03  0.50400001928E-02 0. -1.
</event>
<event>
 5   0  0.1231822E-01  0.4577633E+03  0.7818609E-02  0.1025432E+00
       -2   -1    0    0    0  501  0.00000000000E+00  0.00000000000E+00  0.90184291003E+02  0.90184291039E+02  0.25500000920E-02 0.  1.
        2   -1    0    0  501    0  0.00000000000E+00  0.00000000000E+00 -0.58088627599E+03  0.58088627600E+03  0.25500000920E-02 0. -1.
    10030    2    1    2    0    0  0.00000000000E+00  0.00000000000E+00 -0.49070198499E+03  0.67107056704E+03  0.45776333172E+03 0.  0.
        1    1    3    3  502    0 -0.71261251953E+02  0.21526300777E+03 -0.19968190185E+03  0.30214101094E+03  0.50400001928E-02 0.  1.
       -1    1    3    3    0  502  0.71261251953E+02 -0.21526300777E+03 -0.29102008314E+03  0.36892955609E+03  0.50400001928E-02 0. -1.
</event>
<event>
 5   0  0.1191894E-01  0.5056835E+03  0.7818609E-02  0.1012306E+00
       -2   -1    0    0    0  501  0.00000000000E+00  0.00000000000E+00  0.82539128829E+02  0.82539128868E+02  0.25500000920E-02 0.  1.
        2   -1    0    0  501    0  0.00000000000E+00  0.00000000000E+00 -0.77452913687E+03  0.77452913687E+03  0.25500000920E-02 0. -1.
    10030    2    1    2    0    0  0.00000000000E+00  0.00000000000E+00 -0.69199000804E+03  0.85706826574E+03  0.50568353831E+03 0.  0.
        3    1    3    3  502    0  0.18070493752E+03  0.17632643248E+03 -0.32302560914E+03  0.40998882862E+03  0.10100000352E+00 0.  1.
       -3    1    3    3    0  502 -0.18070493752E+03 -0.17632643248E+03 -0.36896439890E+03  0.44707943712E+03  0.10100000352E+00 0. -1.
</event>
<event>
 5   0  0.7781754E-02  0.5006748E+03  0.7818609E-02  0.1013603E+00
       -1   -1    0    0    0  501  0.00000000000E+00  0.00000000000E+00  0.10897219548E+03  0.10897219560E+03  0.50400001928E-02 0.  1.
        1   -1    0    0  501    0  0.00000000000E+00  0.00000000000E+00 -0.57508994952E+03  0.57508994954E+03  0.50400001928E-02 0. -1.
    10030    2    1    2    0    0  0.00000000000E+00  0.00000000000E+00 -0.46611775404E+03  0.68406214514E+03  0.50067480242E+03 0.  0.
        2    1    3    3  502    0  0.15905090240E+03  0.68280174331E+02  0.14043199535E+02  0.17365650929E+03  0.25500000920E-02 0.  1.
       -2    1    3    3    0  502 -0.15905090240E+03 -0.68280174331E+02 -0.48016095358E+03  0.51040563585E+03  0.25500000920E-02 0. -1.
</event>
<event>
 5   0  0.1191894E-01  0.4896403E+03  0.7818609E-02  0.1016519E+00
        2   -1    0    0  501    0  0.00000000000E+00  0.00000000000E+00  0.48076858871E+03  0.48076858872E+03  0.25500000920E-02 0.  1.
       -2   -1    0    0    0  501  0.00000000000E+00  0.00000000000E+00 -0.12466891937E+03  0.12466891940E+03  0.25500000920E-02 0. -1.
    10030    2    1    2    0    0  0.00000000000E+00  0.00000000000E+00  0.35609966934E+03  0.60543750811E+03  0.48964027789E+03 0.  0.
        3    1    3    3  502    0  0.43405898044E+02 -0.13871321271E+03 -0.65547309954E+02  0.15944242663E+03  0.10100000352E+00 0. -1.
       -3    1    3    3    0  502 -0.43405898044E+02  0.13871321271E+03  0.42164697929E+03  0.44599508149E+03  0.10100000352E+00 0.  1.
</event>
<event>
 5   0  0.7781754E-02  0.5003526E+03  0.7818609E-02  0.1013687E+00
       -1   -1    0    0    0  501  0.00000000000E+00  0.00000000000E+00  0.19954023105E+03  0.19954023112E+03  0.50400001928E-02 0.  1.
        1   -1    0    0  501    0  0.00000000000E+00  0.00000000000E+00 -0.31366193295E+03  0.31366193299E+03  0.50400001928E-02 0. -1.
    10030    2    1    2    0    0  0.00000000000E+00  0.00000000000E+00 -0.11412170190E+03  0.51320216411E+03  0.50035257410E+03 0.  0.
        2    1    3    3  502    0 -0.20415771932E+03 -0.13694406940E+03 -0.94564068634E+01  0.24601519494E+03  0.25500000920E-02 0.  1.
       -2    1    3    3    0  502  0.20415771932E+03  0.13694406940E+03 -0.10466529504E+03  0.26718696917E+03  0.25500000920E-02 0. -1.
</event>
<event>
 5   0  0.1211345E-01  0.5055952E+03  0.7818609E-02  0.1012329E+00
       -2   -1    0    0    0  501  0.00000000000E+00  0.00000000000E+00  0.89301592600E+02  0.89301592636E+02  0.25500000920E-02 0. -1.
        2   -1    0    0  501    0  0.00000000000E+00  0.00000000000E+00 -0.71562704395E+03  0.71562704396E+03  0.25500000920E-02 0.  1.
    10030    2    1    2    0    0  0.00000000000E+00  0.00000000000E+00 -0.62632545135E+03  0.80492863659E+03  0.50559523237E+03 0.  0.
        5    1    3    3  502    0  0.14526028830E+03 -0.16956973263E+02 -0.64135681645E+03  0.65783641303E+03  0.46999998093E+01 0.  1.
       -5    1    3    3    0  502 -0.14526028830E+03  0.16956973263E+02  0.15031365099E+02  0.14709222357E+03  0.46999998093E+01 0. -1.
</event>
<event>
 5   0  0.1191894E-01  0.5013516E+03  0.7818609E-02  0.1013427E+00
        2   -1    0    0  501    0  0.00000000000E+00  0.00000000000E+00  0.15257181580E+04  0.15257181580E+04  0.25500000920E-02 0. -1.
       -2   -1    0    0    0  501  0.00000000000E+00  0.00000000000E+00 -0.41186090288E+02  0.41186090367E+02  0.25500000920E-02 0.  1.
    10030    2    1    2    0    0  0.00000000000E+00  0.00000000000E+00  0.14845320677E+04  0.15669042484E+04  0.50135163657E+03 0.  0.
        3    1    3    3  502    0 -0.83371187204E+02  0.36007769207E+02  0.12034286012E+02  0.91608670659E+02  0.10100000352E+00 0.  1.
       -3    1    3    3    0  502  0.83371187204E+02 -0.36007769207E+02  0.14724977817E+04  0.14752955777E+04  0.10100000352E+00 0. -1.
</event>
<event>
 5   0  0.7781754E-02  0.5071160E+03  0.7818609E-02  0.1011938E+00
       -1   -1    0    0    0  501  0.00000000000E+00  0.00000000000E+00  0.10961757519E+03  0.10961757531E+03  0.50400001928E-02 0. -1.
        1   -1    0    0  501    0  0.00000000000E+00  0.00000000000E+00 -0.58650863179E+03  0.58650863181E+03  0.50400001928E-02 0.  1.
    10030    2    1    2    0    0  0.00000000000E+00  0.00000000000E+00 -0.47689105660E+03  0.69612620712E+03  0.50711597922E+03 0.  0.
        2    1    3    3  502    0  0.19836699057E+02 -0.13628752130E+03 -0.53068857443E+03  0.54826831581E+03  0.25500000920E-02 0.  1.
       -2    1    3    3    0  502 -0.19836699057E+02  0.13628752130E+03  0.53797517828E+02  0.14785789131E+03  0.25500000920E-02 0. -1.
</event>
<event>
 5   0  0.7781754E-02  0.4989422E+03  0.7818609E-02  0.1014055E+00
        1   -1    0    0  501    0  0.00000000000E+00  0.00000000000E+00  0.10985287786E+03  0.10985287798E+03  0.50400001928E-02 0. -1.
       -1   -1    0    0    0  501  0.00000000000E+00  0.00000000000E+00 -0.56653802784E+03  0.56653802786E+03  0.50400001928E-02 0.  1.
    10030    2    1    2    0    0  0.00000000000E+00  0.00000000000E+00 -0.45668514998E+03  0.67639090584E+03  0.49894221238E+03 0.  0.
        2    1    3    3  502    0  0.10106642457E+03 -0.22804979364E+03 -0.22314453495E+03  0.33468584380E+03  0.25500000920E-02 0. -1.
       -2    1    3    3    0  502 -0.10106642457E+03  0.22804979364E+03 -0.23354061503E+03  0.34170506204E+03  0.25500000920E-02 0.  1.
</event>
<event>
 5   0  0.5006750E-02  0.5022865E+03  0.7818609E-02  0.1013184E+00
       -3   -1    0    0    0  501  0.00000000000E+00  0.00000000000E+00  0.78382622766E+02  0.78382687838E+02  0.10100000352E+00 0. -1.
        3   -1    0    0  501    0  0.00000000000E+00  0.00000000000E+00 -0.80467977083E+03  0.80467977717E+03  0.10100000352E+00 0.  1.
    10030    2    1    2    0    0  0.00000000000E+00  0.00000000000E+00 -0.72629714806E+03  0.88306246501E+03  0.50228654155E+03 0.  0.
        4    1    3    3  502    0 -0.14945195386E+03 -0.14083453348E+03 -0.10897861525E+03  0.23248269573E+03  0.12699999809E+01 0. -1.
       -4    1    3    3    0  502  0.14945195386E+03  0.14083453348E+03 -0.61731853282E+03  0.65057976928E+03  0.12699999809E+01 0.  1.
</event>
<event>
 5   0  0.7602288E-02  0.5040886E+03  0.7818609E-02  0.1012717E+00
        1   -1    0    0  501    0  0.00000000000E+00  0.00000000000E+00  0.31379118998E+03  0.31379119002E+03  0.50400001928E-02 0. -1.
       -1   -1    0    0    0  501  0.00000000000E+00  0.00000000000E+00 -0.20244774648E+03  0.20244774654E+03  0.50400001928E-02 0.  1.
    10030    2    1    2    0    0  0.00000000000E+00  0.00000000000E+00  0.11134344350E+03  0.51623893656E+03  0.50408856088E+03 0.  0.
        5    1    3    3  502    0 -0.23775332681E+03 -0.89654097415E+01  0.14072293712E+03  0.27646348405E+03  0.46999998093E+01 0. -1.
       -5    1    3    3    0  502  0.23775332681E+03  0.89654097415E+01 -0.29379493625E+02  0.23977545251E+03  0.46999998093E+01 0.  1.
</event>
<event>
 5   0  0.1279188E-01  0.4996602E+03  0.7818609E-02  0.1013868E+00
        2   -1    0    0  501    0  0.00000000000E+00  0.00000000000E+00  0.25499815554E+03  0.25499815555E+03  0.25500000920E-02 0. -1.
       -2   -1    0    0    0  501  0.00000000000E+00  0.00000000000E+00 -0.24476676007E+03  0.24476676008E+03  0.25500000920E-02 0.  1.
    10030    2    1    2    0    0  0.00000000000E+00  0.00000000000E+00  0.10231395474E+02  0.49976491563E+03  0.49966017396E+03 0.  0.
        2    1    3    3  502    0 -0.12461422407E+03 -0.85925591482E+02 -0.19367998567E+03  0.24581262980E+03  0.25500000920E-02 0.  1.
       -2    1    3    3    0  502  0.12461422407E+03  0.85925591482E+02  0.20391138115E+03  0.25395228583E+03  0.25500000920E-02 0. -1.
</event>
<event>
 5   0  0.1279188E-01  0.4910430E+03  0.7818609E-02  0.1016144E+00
        2   -1    0    0  501    0  0.00000000000E+00  0.00000000000E+00  0.60466312662E+03  0.60466312662E+03  0.25500000920E-02 0. -1.
       -2   -1    0    0    0  501  0.00000000000E+00  0.00000000000E+00 -0.99693209095E+02  0.99693209127E+02  0.25500000920E-02 0.  1.
    10030    2    1    2    0    0  0.00000000000E+00  0.00000000000E+00  0.50496991752E+03  0.70435633575E+03  0.49104300230E+03 0.  0.
        2    1    3    3  502    0  0.95399961748E+01 -0.24397777342E+03  0.21550496680E+03  0.32566632643E+03  0.25500000920E-02 0.  1.
       -2    1    3    3    0  502 -0.95399961748E+01  0.24397777342E+03  0.28946495072E+03  0.37869000931E+03  0.25500000920E-02 0. -1.
</event>
<event>
 5   0  0.7531632E-02  0.5020290E+03  0.7818609E-02  0.1013251E+00
        1   -1    0    0  501    0  0.00000000000E+00  0.00000000000E+00  0.97559605393E+02  0.97559605523E+02  0.50400001928E-02 0.  1.
       -1   -1    0    0    0  501  0.00000000000E+00  0.00000000000E+00 -0.64584404258E+03  0.64584404260E+03  0.50400001928E-02 0. -1.
    10030    2    1    2    0    0  0.00000000000E+00  0.00000000000E+00 -0.54828443719E+03  0.74340364813E+03  0.50202904297E+03 0.  0.
        3    1    3    3  502    0 -0.43559387497E+02  0.17697628329E+02  0.90980834837E+02  0.10241166338E+03  0.10100000352E+00 0.  1.
       -3    1    3    3    0  502  0.43559387497E+02 -0.17697628329E+02 -0.63926527203E+03  0.64099198475E+03  0.10100000352E+00 0. -1.
</event>
<event>
 5   0  0.1243803E-01  0.5000607E+03  0.7818609E-02  0.1013763E+00
       -2   -1    0    0    0  501  0.00000000000E+00  0.00000000000E+00  0.71735691618E+02  0.71735691664E+02  0.25500000920E-02 0. -1.
        2   -1    0    0  501    0  0.00000000000E+00  0.00000000000E+00 -0.87146535285E+03  0.87146535285E+03  0.25500000920E-02 0.  1.
    10030    2    1    2    0    0  0.00000000000E+00  0.00000000000E+00 -0.79972966123E+03  0.94320104451E+03  0.50006067564E+03 0.  0.
        4    1    3    3  502    0  0.22993821319E+03 -0.10805661808E+02 -0.58395004655E+03  0.62768432670E+03  0.12699999809E+01 0.  1.
       -4    1    3    3    0  502 -0.22993821319E+03  0.10805661808E+02 -0.21577961467E+03  0.31551671782E+03  0.12699999809E+01 0. -1.
</event>
<event>
 5   0  0.7416638E-02  0.4994813E+03  0.7818609E-02  0.1013914E+00
        1   -1    0    0  501    0  0.00000000000E+00  0.00000000000E+00  0.17586805104E+03  0.17586805111E+03  0.50400001928E-02 0.  1.
       -1   -1    0    0    0  501  0.00000000000E+00  0.00000000000E+00 -0.35464310683E+03  0.35464310687E+03  0.50400001928E-02 0. -1.
    10030    2    1    2    0    0  0.00000000000E+00  0.00000000000E+00 -0.17877505579E+03  0.53051115798E+03  0.49948129911E+03 0.  0.
        1    1    3    3  502    0 -0.48856411170E+02 -0.20366886058E+03  0.55086497259E+02  0.21656979450E+03  0.50400001928E-02 0.  1.
       -1    1    3    3    0  502  0.48856411170E+02  0.20366886058E+03 -0.23386155305E+03  0.31394136348E+03  0.50400001928E-02 0. -1.
</event>
<event>
 5   0  0.1279188E-01  0.5007512E+03  0.7818609E-02  0.1013583E+00
        2   -1    0    0  501    0  0.00000000000E+00  0.00000000000E+00  0.98545282531E+03  0.98545282531E+03  0.25500000920E-02 0.  1.
       -2   -1    0    0    0  501  0.00000000000E+00  0.00000000000E+00 -0.63613325515E+02  0.63613325567E+02  0.25500000920E-02 0. -1.
    10030    2    1    2    0    0  0.00000000000E+00  0.00000000000E+00  0.92183949979E+03  0.10490661509E+04  0.50075116130E+03 0.  0.
        2    1    3    3  502    0 -0.19743538169E+03 -0.14142358701E+03  0.58846580772E+03  0.63661084484E+03  0.25500000920E-02 0.  1.
       -2    1    3    3    0  502  0.19743538169E+03  0.14142358701E+03  0.33337369208E+03  0.41245530604E+03  0.25500000920E-02 0. -1.
</event>
<event>
 5   0  0.7531632E-02  0.4986028E+03  0.7818609E-02  0.1014144E+00
       -1   -1    0    0    0  501  0.00000000000E+00  0.00000000000E+00  0.30956311565E+03  0.30956311569E+03  0.50400001928E-02 0. -1.
        1   -1    0    0  501    0  0.00000000000E+00  0.00000000000E+00 -0.20077064278E+03  0.20077064284E+03  0.50400001928E-02 0.  1.
    10030    2    1    2    0    0  0.00000000000E+00  0.00000000000E+00  0.10879247287E+03  0.51033375853E+03  0.49860279075E+03 0.  0.
        3    1    3    3  502    0 -0.18323339854E+03 -0.18718219660E+02 -0.11756349776E+03  0.21850866412E+03  0.10100000352E+00 0.  1.
       -3    1    3    3    0  502  0.18323339854E+03  0.18718219660E+02  0.22635597063E+03  0.29182509441E+03  0.10100000352E+00 0. -1.
</event>
<event>
 5   0  0.5006750E-02  0.4996373E+03  0.7818609E-02  0.1013874E+00
       -3   -1    0    0    0  501  0.00000000000E+00  0.00000000000E+00  0.67001536775E+02  0.67001612900E+02  0.10100000352E+00 0.  1.
        3   -1    0    0  501    0  0.00000000000E+00  0.00000000000E+00 -0.93146088177E+03  0.93146088725E+03  0.10100000352E+00 0. -1.
    10030    2    1    2    0    0  0.00000000000E+00  0.00000000000E+00 -0.86445934500E+03  0.99846250015E+03  0.49963727348E+03 0.  0.
        4    1    3    3  502    0 -0.70787224137E+01 -0.23366478249E+03 -0.60825006998E+03  0.65162803763E+03  0.12699999809E+01 0. -1.
       -4    1    3    3    0  502  0.70787224137E+01  0.23366478249E+03 -0.25620927502E+03  0.34683446252E+03  0.12699999809E+01 0.  1.
</event>
<event>
 5   0  0.1231822E-01  0.4983430E+03  0.7818609E-02  0.1014212E+00
       -2   -1    0    0    0  501  0.00000000000E+00  0.00000000000E+00  0.15127917869E+03  0.15127917871E+03  0.25500000920E-02 0.  1.
        2   -1    0    0  501    0  0.00000000000E+00  0.00000000000E+00 -0.41040965093E+03  0.41040965093E+03  0.25500000920E-02 0. -1.
    10030    2    1    2    0    0  0.00000000000E+00  0.00000000000E+00 -0.25913047224E+03  0.56168882964E+03  0.49834299403E+03 0.  0.
        1    1    3    3  502    0 -0.10113853684E+02 -0.18179163924E+03 -0.32129355460E+03  0.36929668072E+03  0.50400001928E-02 0. -1.
       -1    1    3    3    0  502  0.10113853684E+02  0.18179163924E+03  0.62163082360E+02  0.19239214893E+03  0.50400001928E-02 0.  1.
</event>
<event>
 5   0  0.1211345E-01  0.4918266E+03  0.7818609E-02  0.1015935E+00
        2   -1    0    0  501    0  0.00000000000E+00  0.00000000000E+00  0.59434539517E+03  0.59434539518E+03  0.25500000920E-02 0.  1.
       -2   -1    0    0    0  501  0.00000000000E+00  0.00000000000E+00 -0.10174783129E+03  0.10174783132E+03  0.25500000920E-02 0. -1.
    10030    2    1    2    0    0  0.00000000000E+00  0.00000000000E+00  0.49259756388E+03  0.69609322650E+03  0.49182661583E+03 0.  0.
        5    1    3    3  502    0  0.16212741750E+03 -0.11855435429E+03  0.44700941654E+03  0.49008156760E+03  0.46999998093E+01 0.  1.
       -5    1    3    3    0  502 -0.16212741750E+03  0.11855435429E+03  0.45588147333E+02  0.20601165890E+03  0.46999998093E+01 0. -1.
</event>
<event>
 5   0  0.7416638E-02  0.4998798E+03  0.7818609E-02  0.1013810E+00
       -1   -1    0    0    0  501  0.00000000000E+00  0.00000000000E+00  0.85533728728E+02  0.85533728877E+02  0.50400001928E-02 0.  1.
        1   -1    0    0  501    0  0.00000000000E+00  0.00000000000E+00 -0.73035473053E+03  0.73035473055E+03  0.50400001928E-02 0. -1.
    10030    2    1    2    0    0  0.00000000000E+00  0.00000000000E+00 -0.64482100180E+03  0.81588845942E+03  0.49987983942E+03 0.  0.
        1    1    3    3  502    0 -0.17716436112E+02 -0.24835327963E+03 -0.35804789065E+03  0.43610952252E+03  0.50400001928E-02 0.  1.
       -1    1    3    3    0  502  0.17716436112E+02  0.24835327963E+03 -0.28677311115E+03  0.37977893690E+03  0.50400001928E-02 0. -1.
</event>
<event>
 5   0  0.7781754E-02  0.5332682E+03  0.7818609E-02  0.1005443E+00
        1   -1    0    0  501    0  0.00000000000E+00  0.00000000000E+00  0.29555634528E+03  0.29555634532E+03  0.50400001928E-02 0.  1.
       -1   -1    0    0    0  501  0.00000000000E+00  0.00000000000E+00 -0.24054209790E+03  0.24054209796E+03  0.50400001928E-02 0. -1.
    10030    2    1    2    0    0  0.00000000000E+00  0.00000000000E+00  0.55014247375E+02  0.53609844328E+03  0.53326820032E+03 0.  0.
        2    1    3    3  502    0  0.10786681659E+03 -0.12730079015E+03 -0.18157022654E+03  0.24659377216E+03  0.25500000920E-02 0. -1.
       -2    1    3    3    0  502 -0.10786681659E+03  0.12730079015E+03  0.23658447392E+03  0.28950467112E+03  0.25500000920E-02 0.  1.
</event>
<event>
 5   0  0.7812547E-02  0.5058794E+03  0.7818609E-02  0.1012256E+00
       -1   -1    0    0    0  501  0.00000000000E+00  0.00000000000E+00  0.11986929413E+03  0.11986929424E+03  0.50400001928E-02 0. -1.
        1   -1    0    0  501    0  0.00000000000E+00  0.00000000000E+00 -0.53373544963E+03  0.53373544966E+03  0.50400001928E-02 0.  1.
    10030    2    1    2    0    0  0.00000000000E+00  0.00000000000E+00 -0.41386615550E+03  0.65360474390E+03  0.50587939924E+03 0.  0.
        4    1    3    3  502    0 -0.14866751325E+03  0.16623731668E+03 -0.36111137818E+03  0.42442892845E+03  0.12699999809E+01 0.  1.
       -4    1    3    3    0  502  0.14866751325E+03 -0.16623731668E+03 -0.52754777315E+02  0.22917581544E+03  0.12699999809E+01 0. -1.
</event>
<event>
 5   0  0.1279188E-01  0.5031203E+03  0.7818609E-02  0.1012968E+00
        2   -1    0    0  501    0  0.00000000000E+00  0.00000000000E+00  0.65257836393E+03  0.65257836394E+03  0.25500000920E-02 0. -1.
       -2   -1    0    0    0  501  0.00000000000E+00  0.00000000000E+00 -0.96973023434E+02  0.96973023467E+02  0.25500000920E-02 0.  1.
    10030    2    1    2    0    0  0.00000000000E+00  0.00000000000E+00  0.55560534050E+03  0.74955138740E+03  0.50312025200E+03 0.  0.
        2    1    3    3  502    0 -0.11834144433E+03  0.12122802846E+03  0.55484870121E+03  0.58013620260E+03  0.25500000920E-02 0. -1.
       -2    1    3    3    0  502  0.11834144433E+03 -0.12122802846E+03  0.75663928873E+00  0.16941518480E+03  0.25500000920E-02 0.  1.
</event>
<event>
 5   0  0.1279188E-01  0.4908063E+03  0.7818609E-02  0.1016207E+00
       -2   -1    0    0    0  501  0.00000000000E+00  0.00000000000E+00  0.20779641446E+03  0.20779641448E+03  0.25500000920E-02 0.  1.
        2   -1    0    0  501    0  0.00000000000E+00  0.00000000000E+00 -0.28981592573E+03  0.28981592575E+03  0.25500000920E-02 0. -1.
    10030    2    1    2    0    0  0.00000000000E+00  0.00000000000E+00 -0.82019511270E+02  0.49761234023E+03  0.49080631711E+03 0.  0.
        2    1    3    3  502    0  0.10400844248E+03 -0.94063725476E+02 -0.24519001302E+03  0.28246040971E+03  0.25500000920E-02 0. -1.
       -2    1    3    3    0  502 -0.10400844248E+03  0.94063725476E+02  0.16317050175E+03  0.21515193052E+03  0.25500000920E-02 0.  1.
</event>
<event>
 5   0  0.1243803E-01  0.5063155E+03  0.7818609E-02  0.1012144E+00
        2   -1    0    0  501    0  0.00000000000E+00  0.00000000000E+00  0.38384665047E+03  0.38384665047E+03  0.25500000920E-02 0.  1.
       -2   -1    0    0    0  501  0.00000000000E+00  0.00000000000E+00 -0.16696470520E+03  0.16696470522E+03  0.25500000920E-02 0. -1.
    10030    2    1    2    0    0  0.00000000000E+00  0.00000000000E+00  0.21688194527E+03  0.55081135569E+03  0.50631548601E+03 0.  0.
        4    1    3    3  502    0 -0.11578597730E+03  0.45096344907E+02  0.34838525584E+03  0.36988372802E+03  0.12699999809E+01 0.  1.
       -4    1    3    3    0  502  0.11578597730E+03 -0.45096344907E+02 -0.13150331057E+03  0.18092762767E+03  0.12699999809E+01 0. -1.
</event>
<event>
 5   0  0.5006750E-02  0.4959621E+03  0.7818609E-02  0.1014838E+00
        3   -1    0    0  501    0  0.00000000000E+00  0.00000000000E+00  0.66977834261E+02  0.66977910413E+02  0.10100000352E+00 0.  1.
       -3   -1    0    0    0  501  0.00000000000E+00  0.00000000000E+00 -0.91813303407E+03  0.91813303962E+03  0.10100000352E+00 0. -1.
    10030    2    1    2    0    0  0.00000000000E+00  0.00000000000E+00 -0.85115519981E+03  0.98511095004E+03  0.49596210513E+03 0.  0.
        3    1    3    3  502    0  0.99627155740E+02  0.59843335253E+02  0.95354007093E+01  0.11660930067E+03  0.10100000352E+00 0.  1.
       -3    1    3    3    0  502 -0.99627155740E+02 -0.59843335253E+02 -0.86069060051E+03  0.86850164937E+03  0.10100000352E+00 0. -1.
</event>
<event>
 5   0  0.1211345E-01  0.5060904E+03  0.7818609E-02  0.1012201E+00
       -2   -1    0    0    0  501  0.00000000000E+00  0.00000000000E+00  0.21183973495E+03  0.21183973497E+03  0.25500000920E-02 0.  1.
        2   -1    0    0  501    0  0.00000000000E+00  0.00000000000E+00 -0.30226564040E+03  0.30226564041E+03  0.25500000920E-02 0. -1.
    10030    2    1    2    0    0  0.00000000000E+00  0.00000000000E+00 -0.90425905450E+02  0.51410537538E+03  0.50609039965E+03 0.  0.
        5    1    3    3  502    0  0.13709413732E+03 -0.12344334629E+03 -0.22109281149E+03  0.28798816559E+03  0.46999998093E+01 0. -1.
       -5    1    3    3    0  502 -0.13709413732E+03  0.12344334629E+03  0.13066690604E+03  0.22611720979E+03  0.46999998093E+01 0.  1.
</event>
<event>
 5   0  0.1279188E-01  0.5014468E+03  0.7818609E-02  0.1013402E+00
       -2   -1    0    0    0  501  0.00000000000E+00  0.00000000000E+00  0.56020670066E+03  0.56020670067E+03  0.25500000920E-02 0.  1.
        2   -1    0    0  501    0  0.00000000000E+00  0.00000000000E+00 -0.11221254637E+03  0.11221254640E+03  0.25500000920E-02 0. -1.
    10030    2    1    2    0    0  0.00000000000E+00  0.00000000000E+00  0.44799415430E+03  0.67241924707E+03  0.50144678834E+03 0.  0.
        2    1    3    3  502    0 -0.76845726347E+02  0.19673287050E+03  0.40516611744E+03  0.45691210393E+03  0.25500000920E-02 0.  1.
       -2    1    3    3    0  502  0.76845726347E+02 -0.19673287050E+03  0.42828036862E+02  0.21550714313E+03  0.25500000920E-02 0. -1.
</event>
<event>
 5   0  0.1231822E-01  0.4745861E+03  0.7818609E-02  0.1020634E+00
       -2   -1    0    0    0  501  0.00000000000E+00  0.00000000000E+00  0.29148731726E+03  0.29148731727E+03  0.25500000920E-02 0.  1.
        2   -1    0    0  501    0  0.00000000000E+00  0.00000000000E+00 -0.19317472174E+03  0.19317472176E+03  0.25500000920E-02 0. -1.
    10030    2    1    2    0    0  0.00000000000E+00  0.00000000000E+00  0.98312595515E+02  0.48466203903E+03  0.47458605715E+03 0.  0.
        1    1    3    3  502    0  0.22027651320E+03 -0.73676359520E+02  0.98746854557E+02  0.25239035150E+03  0.50400001928E-02 0.  1.
       -1    1    3    3    0  502 -0.22027651320E+03  0.73676359520E+02 -0.43425904202E+00  0.23227168753E+03  0.50400001928E-02 0. -1.
</event>
<event>
 5   0  0.1243803E-01  0.4902053E+03  0.7818609E-02  0.1016368E+00
       -2   -1    0    0    0  501  0.00000000000E+00  0.00000000000E+00  0.35436852962E+03  0.35436852962E+03  0.25500000920E-02 0. -1.
        2   -1    0    0  501    0  0.00000000000E+00  0.00000000000E+00 -0.16952777685E+03  0.16952777687E+03  0.25500000920E-02 0.  1.
    10030    2    1    2    0    0  0.00000000000E+00  0.00000000000E+00  0.18484075276E+03  0.52389630649E+03  0.49020529993E+03 0.  0.
        4    1    3    3  502    0 -0.60394418178E+02 -0.21919887030E+03 -0.54022262555E+01  0.22743444646E+03  0.12699999809E+01 0.  1.
       -4    1    3    3    0  502  0.60394418178E+02  0.21919887030E+03  0.19024297902E+03  0.29646186003E+03  0.12699999809E+01 0. -1.
</event>
<event>
 5   0  0.1243803E-01  0.5004326E+03  0.7818609E-02  0.1013666E+00
        2   -1    0    0  501    0  0.00000000000E+00  0.00000000000E+00  0.16014364233E+04  0.16014364233E+04  0.25500000920E-02 0.  1.
       -2   -1    0    0    0  501  0.00000000000E+00  0.00000000000E+00 -0.39095025412E+02  0.39095025495E+02  0.25500000920E-02 0. -1.
    10030    2    1    2    0    0  0.00000000000E+00  0.00000000000E+00  0.15623413978E+04  0.16405314488E+04  0.50043260378E+03 0.  0.
        4    1    3    3  502    0 -0.12884318734E+03 -0.30295801829E+02  0.14772686046E+04  0.14831866186E+04  0.12699999809E+01 0.  1.
       -4    1    3    3    0  502  0.12884318734E+03  0.30295801829E+02  0.85072793272E+02  0.15734483019E+03  0.12699999809E+01 0. -1.
</event>
<event>
 5   0  0.1211345E-01  0.4429153E+03  0.7818609E-02  0.1029856E+00
        2   -1    0    0  501    0  0.00000000000E+00  0.00000000000E+00  0.58017677260E+03  0.58017677261E+03  0.25500000920E-02 0.  1.
       -2   -1    0    0    0  501  0.00000000000E+00  0.00000000000E+00 -0.84531983962E+02  0.84531984000E+02  0.25500000920E-02 0. -1.
    10030    2    1    2    0    0  0.00000000000E+00  0.00000000000E+00  0.49564478864E+03  0.66470875661E+03  0.44291531313E+03 0.  0.
        5    1    3    3  502    0 -0.14908843872E+03 -0.21944762438E+02  0.43826400269E+01  0.15083180264E+03  0.46999998093E+01 0. -1.
       -5    1    3    3    0  502  0.14908843872E+03  0.21944762438E+02  0.49126214861E+03  0.51387695397E+03  0.46999998093E+01 0.  1.
</event>
<event>
 5   0  0.7781754E-02  0.4990484E+03  0.7818609E-02  0.1014028E+00
        1   -1    0    0  501    0  0.00000000000E+00  0.00000000000E+00  0.46438791486E+03  0.46438791489E+03  0.50400001928E-02 0. -1.
       -1   -1    0    0    0  501  0.00000000000E+00  0.00000000000E+00 -0.13407395359E+03  0.13407395368E+03  0.50400001928E-02 0.  1.
    10030    2    1    2    0    0  0.00000000000E+00  0.00000000000E+00  0.33031396128E+03  0.59846186858E+03  0.49904838956E+03 0.  0.
        2    1    3    3  502    0 -0.85883332582E+02  0.44633547692E+02 -0.11064536046E+03  0.14700508900E+03  0.25500000920E-02 0.  1.
       -2    1    3    3    0  502  0.85883332582E+02 -0.44633547692E+02  0.44095932173E+03  0.45145677957E+03  0.25500000920E-02 0. -1.
</event>
<event>
 5   0  0.1211345E-01  0.5018993E+03  0.7818609E-02  0.1013284E+00
       -2   -1    0    0    0  501  0.00000000000E+00  0.00000000000E+00  0.17006183713E+04  0.17006183713E+04  0.25500000920E-02 0. -1.
        2   -1    0    0  501    0  0.00000000000E+00  0.00000000000E+00 -0.37031078690E+02  0.37031078778E+02  0.25500000920E-02 0.  1.
    10030    2    1    2    0    0  0.00000000000E+00  0.00000000000E+00  0.16635872926E+04  0.17376494501E+04  0.50189932380E+03 0.  0.
        5    1    3    3  502    0 -0.98944086483E+02  0.15379027309E+03  0.23702672190E+03  0.29940797792E+03  0.46999998093E+01 0.  1.
       -5    1    3    3    0  502  0.98944086483E+02 -0.15379027309E+03  0.14265605707E+04  0.14382414722E+04  0.46999998093E+01 0. -1.
</event>
<event>
 5   0  0.1191894E-01  0.4977905E+03  0.7818609E-02  0.1014357E+00
        2   -1    0    0  501    0  0.00000000000E+00  0.00000000000E+00  0.83022184006E+03  0.83022184006E+03  0.25500000920E-02 0. -1.
       -2   -1    0    0    0  501  0.00000000000E+00  0.00000000000E+00 -0.74617231732E+02  0.74617231775E+02  0.25500000920E-02 0.  1.
    10030    2    1    2    0    0  0.00000000000E+00  0.00000000000E+00  0.75560460833E+03  0.90483907184E+03  0.49779054009E+03 0.  0.
        3    1    3    3  502    0  0.72855171754E+02 -0.21049915581E+03  0.57965063809E+03  0.62097716793E+03  0.10100000352E+00 0. -1.
       -3    1    3    3    0  502 -0.72855171754E+02  0.21049915581E+03  0.17595397023E+03  0.28386190391E+03  0.10100000352E+00 0.  1.
</event>
<event>
 5   0  0.5006750E-02  0.5080747E+03  0.7818609E-02  0.1011693E+00
       -4   -1    0    0    0  501  0.00000000000E+00  0.00000000000E+00  0.44845460897E+03  0.44845640725E+03  0.12699999809E+01 0.  1.
        4   -1    0    0  501    0  0.00000000000E+00  0.00000000000E+00 -0.14390037126E+03  0.14390597537E+03  0.12699999809E+01 0. -1.
    10030    2    1    2    0    0  0.00000000000E+00  0.00000000000E+00  0.30455423771E+03  0.59236238262E+03  0.50807470773E+03 0.  0.
        2    1    3    3  502    0 -0.21924972258E+03 -0.46875077352E+02  0.29153835161E+03  0.36778026618E+03  0.25500000920E-02 0.  1.
       -2    1    3    3    0  502  0.21924972258E+03  0.46875077352E+02  0.13015886096E+02  0.22458211644E+03  0.25500000920E-02 0. -1.
</event>
<event>
 5   0  0.7812547E-02  0.4970658E+03  0.7818609E-02  0.1014548E+00
       -1   -1    0    0    0  501  0.00000000000E+00  0.00000000000E+00  0.89227705596E+03  0.89227705597E+03  0.50400001928E-02 0.  1.
        1   -1    0    0  501    0  0.00000000000E+00  0.00000000000E+00 -0.69225818091E+02  0.69225818274E+02  0.50400001928E-02 0. -1.
    10030    2    1    2    0    0  0.00000000000E+00  0.00000000000E+00  0.82305123787E+03  0.96150287425E+03  0.49706582766E+03 0.  0.
        4    1    3    3  502    0 -0.11016533608E+03  0.21574095484E+03  0.51899018306E+03  0.57274163798E+03  0.12699999809E+01 0.  1.
       -4    1    3    3    0  502  0.11016533608E+03 -0.21574095484E+03  0.30406105481E+03  0.38876123626E+03  0.12699999809E+01 0. -1.
</event>
<event>
 5   0  0.7602288E-02  0.4995224E+03  0.7818609E-02  0.1013904E+00
        1   -1    0    0  501    0  0.00000000000E+00  0.00000000000E+00  0.31636774786E+03  0.31636774790E+03  0.50400001928E-02 0.  1.
       -1   -1    0    0    0  501  0.00000000000E+00  0.00000000000E+00 -0.19717771097E+03  0.19717771103E+03  0.50400001928E-02 0. -1.
    10030    2    1    2    0    0  0.00000000000E+00  0.00000000000E+00  0.11919003689E+03  0.51354545893E+03  0.49952244544E+03 0.  0.
        5    1    3    3  502    0 -0.59388420307E+02 -0.99287661355E+02 -0.16791718555E+03  0.20396885881E+03  0.46999998093E+01 0. -1.
       -5    1    3    3    0  502  0.59388420307E+02  0.99287661355E+02  0.28710722244E+03  0.30957660012E+03  0.46999998093E+01 0.  1.
</event>
<event>
 5   0  0.7602288E-02  0.4920229E+03  0.7818609E-02  0.1015882E+00
        1   -1    0    0  501    0  0.00000000000E+00  0.00000000000E+00  0.38165721374E+03  0.38165721377E+03  0.50400001928E-02 0.  1.
       -1   -1    0    0    0  501  0.00000000000E+00  0.00000000000E+00 -0.15857587258E+03  0.15857587266E+03  0.50400001928E-02 0. -1.
    10030    2    1    2    0    0  0.00000000000E+00  0.00000000000E+00  0.22308134116E+03  0.54023308643E+03  0.49202286827E+03 0.  0.
        5    1    3    3  502    0 -0.19203493565E+03  0.13876409489E+03  0.18409608764E+03  0.30007724009E+03  0.46999998093E+01 0. -1.
       -5    1    3    3    0  502  0.19203493565E+03 -0.13876409489E+03  0.38985253522E+02  0.24015584634E+03  0.46999998093E+01 0.  1.
</event>
<event>
 5   0  0.5006750E-02  0.4588079E+03  0.7818609E-02  0.1025128E+00
        3   -1    0    0  501    0  0.00000000000E+00  0.00000000000E+00  0.12018727959E+03  0.12018732203E+03  0.10100000352E+00 0.  1.
       -3   -1    0    0    0  501  0.00000000000E+00  0.00000000000E+00 -0.43786800616E+03  0.43786801781E+03  0.10100000352E+00 0. -1.
    10030    2    1    2    0    0  0.00000000000E+00  0.00000000000E+00 -0.31768072657E+03  0.55805533984E+03  0.45880793181E+03 0.  0.
        5    1    3    3  502    0 -0.14808580503E+03 -0.39118951714E+02  0.48805769492E+02  0.16082223469E+03  0.46999998093E+01 0.  1.
       -5    1    3    3    0  502  0.14808580503E+03  0.39118951714E+02 -0.36648649606E+03  0.39723310515E+03  0.46999998093E+01 0. -1.
</event>
<event>
 5   0  0.5006750E-02  0.5054023E+03  0.7818609E-02  0.1012378E+00
       -3   -1    0    0    0  501  0.00000000000E+00  0.00000000000E+00  0.22536570339E+03  0.22536572602E+03  0.10100000352E+00 0.  1.
        3   -1    0    0  501    0  0.00000000000E+00  0.00000000000E+00 -0.28335213596E+03  0.28335215396E+03  0.10100000352E+00 0. -1.
    10030    2    1    2    0    0  0.00000000000E+00  0.00000000000E+00 -0.57986432572E+02  0.50871787998E+03  0.50540227052E+03 0.  0.
        4    1    3    3  502    0  0.10374853989E+03 -0.47807609924E+02 -0.25587585451E+03  0.28022025787E+03  0.12699999809E+01 0. -1.
       -4    1    3    3    0  502 -0.10374853989E+03  0.47807609924E+02  0.19788942194E+03  0.22849762211E+03  0.12699999809E+01 0.  1.
</event>
<event>
 5   0  0.1231822E-01  0.4954725E+03  0.7818609E-02  0.1014967E+00
       -2   -1    0    0    0  501  0.00000000000E+00  0.00000000000E+00  0.34182352818E+03  0.34182352819E+03  0.25500000920E-02 0.  1.
        2   -1    0    0  501    0  0.00000000000E+00  0.00000000000E+00 -0.17954659740E+03  0.17954659742E+03  0.25500000920E-02 0. -1.
    10030    2    1    2    0    0  0.00000000000E+00  0.00000000000E+00  0.16227693078E+03  0.52137012561E+03  0.49547250743E+03 0.  0.
        1    1    3    3  502    0 -0.81762175103E+02  0.12069180687E+03 -0.12963511243E+03  0.19508159299E+03  0.50400001928E-02 0. -1.
       -1    1    3    3    0  502  0.81762175103E+02 -0.12069180687E+03  0.29191204321E+03  0.32628853262E+03  0.50400001928E-02 0.  1.
</event>
<event>
 5   0  0.1231822E-01  0.5015225E+03  0.7818609E-02  0.1013382E+00
       -2   -1    0    0    0  501  0.00000000000E+00  0.00000000000E+00  0.10630550607E+03  0.10630550610E+03  0.25500000920E-02 0. -1.
        2   -1    0    0  501    0  0.00000000000E+00  0.00000000000E+00 -0.59151416013E+03  0.59151416014E+03  0.25500000920E-02 0.  1.
    10030    2    1    2    0    0  0.00000000000E+00  0.00000000000E+00 -0.48520865406E+03  0.69781966623E+03  0.50152253051E+03 0.  0.
        1    1    3    3  502    0 -0.52644863457E+02  0.10244304326E+03 -0.55253169330E+03  0.56440883310E+03  0.50400001928E-02 0.  1.
       -1    1    3    3    0  502  0.52644863457E+02 -0.10244304326E+03  0.67323039233E+02  0.13341083313E+03  0.50400001928E-02 0. -1.
</event>
<event>
 5   0  0.7812547E-02  0.4714751E+03  0.7818609E-02  0.1021505E+00
        1   -1    0    0  501    0  0.00000000000E+00  0.00000000000E+00  0.14455846397E+03  0.14455846405E+03  0.50400001928E-02 0. -1.
       -1   -1    0    0    0  501  0.00000000000E+00  0.00000000000E+00 -0.38442709536E+03  0.38442709540E+03  0.50400001928E-02 0.  1.
    10030    2    1    2    0    0  0.00000000000E+00  0.00000000000E+00 -0.23986863140E+03  0.52898555945E+03  0.47147509137E+03 0.  0.
        4    1    3    3  502    0 -0.22181818476E+03  0.14167414416E+02 -0.31828137809E+02  0.22454101180E+03  0.12699999809E+01 0. -1.
       -4    1    3    3    0  502  0.22181818476E+03 -0.14167414416E+02 -0.20804049359E+03  0.30444454765E+03  0.12699999809E+01 0.  1.
</event>
<event>
 5   0  0.1279188E-01  0.4967232E+03  0.7818609E-02  0.1014638E+00
       -2   -1    0    0    0  501  0.00000000000E+00  0.00000000000E+00  0.90514290015E+02  0.90514290051E+02  0.25500000920E-02 0.  1.
        2   -1    0    0  501    0  0.00000000000E+00  0.00000000000E+00 -0.68147781983E+03  0.68147781984E+03  0.25500000920E-02 0. -1.
    10030    2    1    2    0    0  0.00000000000E+00  0.00000000000E+00 -0.59096352982E+03  0.77199210989E+03  0.49672318665E+03 0.  0.
        2    1    3    3  502    0 -0.22184950065E+03  0.11110825709E+03 -0.27836928416E+03  0.37289637181E+03  0.25500000920E-02 0.  1.
       -2    1    3    3    0  502  0.22184950065E+03 -0.11110825709E+03 -0.31259424566E+03  0.39909573808E+03  0.25500000920E-02 0. -1.
</event>
<event>
 5   0  0.7602288E-02  0.5030975E+03  0.7818609E-02  0.1012974E+00
        1   -1    0    0  501    0  0.00000000000E+00  0.00000000000E+00  0.13070189888E+04  0.13070189889E+04  0.50400001928E-02 0.  1.
       -1   -1    0    0    0  501  0.00000000000E+00  0.00000000000E+00 -0.48413050183E+02  0.48413050445E+02  0.50400001928E-02 0. -1.
    10030    2    1    2    0    0  0.00000000000E+00  0.00000000000E+00  0.12586059387E+04  0.13554320393E+04  0.50309750976E+03 0.  0.
        5    1    3    3  502    0  0.23996391646E+03 -0.47831352663E+02  0.78603272106E+03  0.82324968757E+03  0.46999998093E+01 0.  1.
       -5    1    3    3    0  502 -0.23996391646E+03  0.47831352663E+02  0.47257321759E+03  0.53218235172E+03  0.46999998093E+01 0. -1.
</event>
<event>
 5   0  0.1211345E-01  0.4560356E+03  0.7818609E-02  0.1025937E+00
       -2   -1    0    0    0  501  0.00000000000E+00  0.00000000000E+00  0.27343759516E+03  0.27343759517E+03  0.25500000920E-02 0.  1.
        2   -1    0    0  501    0  0.00000000000E+00  0.00000000000E+00 -0.19014253259E+03  0.19014253261E+03  0.25500000920E-02 0. -1.
    10030    2    1    2    0    0  0.00000000000E+00  0.00000000000E+00  0.83295062568E+02  0.46358012778E+03  0.45603559886E+03 0.  0.
        5    1    3    3  502    0 -0.19142718670E+03  0.16552721692E+02 -0.83067373091E+02  0.20938156288E+03  0.46999998093E+01 0. -1.
       -5    1    3    3    0  502  0.19142718670E+03 -0.16552721692E+02  0.16636243566E+03  0.25419856490E+03  0.46999998093E+01 0.  1.
</event>
<event>
 5   0  0.1211345E-01  0.5031345E+03  0.7818609E-02  0.1012964E+00
        2   -1    0    0  501    0  0.00000000000E+00  0.00000000000E+00  0.43276614500E+03  0.43276614500E+03  0.25500000920E-02 0. -1.
       -2   -1    0    0    0  501  0.00000000000E+00  0.00000000000E+00 -0.14623622374E+03  0.14623622376E+03  0.25500000920E-02 0.  1.
    10030    2    1    2    0    0  0.00000000000E+00  0.00000000000E+00  0.28652992126E+03  0.57900236876E+03  0.50313452203E+03 0.  0.
        5    1    3    3  502    0  0.11834156580E+03 -0.13966622890E+03 -0.55234255300E+02  0.19127021370E+03  0.46999998093E+01 0.  1.
       -5    1    3    3    0  502 -0.11834156580E+03  0.13966622890E+03  0.34176417656E+03  0.38773215506E+03  0.46999998093E+01 0. -1.
</event>
<event>
 5   0  0.7416638E-02  0.5227941E+03  0.7818609E-02  0.1007995E+00
       -1   -1    0    0    0  501  0.00000000000E+00  0.00000000000E+00  0.10843307788E+03  0.10843307800E+03  0.50400001928E-02 0.  1.
        1   -1    0    0  501    0  0.00000000000E+00  0.00000000000E+00 -0.63014371438E+03  0.63014371440E+03  0.50400001928E-02 0. -1.
    10030    2    1    2    0    0  0.00000000000E+00  0.00000000000E+00 -0.52171063650E+03  0.73857679240E+03  0.52279411821E+03 0.  0.
        1    1    3    3  502    0 -0.60469812698E+02 -0.66215906283E+01 -0.62000480581E+03  0.62298186407E+03  0.50400001928E-02 0. -1.
       -1    1    3    3    0  502  0.60469812698E+02  0.66215906283E+01  0.98294169307E+02  0.11559492833E+03  0.50400001928E-02 0.  1.
</event>
<event>
 5   0  0.7781754E-02  0.5060937E+03  0.7818609E-02  0.1012201E+00
        1   -1    0    0  501    0  0.00000000000E+00  0.00000000000E+00  0.57063306669E+03  0.57063306672E+03  0.50400001928E-02 0. -1.
       -1   -1    0    0    0  501  0.00000000000E+00  0.00000000000E+00 -0.11221343691E+03  0.11221343702E+03  0.50400001928E-02 0.  1.
    10030    2    1    2    0    0  0.00000000000E+00  0.00000000000E+00  0.45841962979E+03  0.68284650374E+03  0.50609365802E+03 0.  0.
        2    1    3    3  502    0  0.10452583449E+03  0.22274862481E+03  0.30891948092E+03  0.39493524232E+03  0.25500000920E-02 0.  1.
       -2    1    3    3    0  502 -0.10452583449E+03 -0.22274862481E+03  0.14950014887E+03  0.28791126141E+03  0.25500000920E-02 0. -1.
</event>
<event>
 5   0  0.1191894E-01  0.4987015E+03  0.7818609E-02  0.1014118E+00
       -2   -1    0    0    0  501  0.00000000000E+00  0.00000000000E+00  0.14415390209E+03  0.14415390211E+03  0.25500000920E-02 0.  1.
        2   -1    0    0  501    0  0.00000000000E+00  0.00000000000E+00 -0.43131535951E+03  0.43131535952E+03  0.25500000920E-02 0. -1.
    10030    2    1    2    0    0  0.00000000000E+00  0.00000000000E+00 -0.28716145742E+03  0.57546926163E+03  0.49870148231E+03 0.  0.
        3    1    3    3  502    0 -0.20453704581E+03 -0.10794744113E+03 -0.36024739585E+02  0.23406376314E+03  0.10100000352E+00 0.  1.
       -3    1    3    3    0  502  0.20453704581E+03  0.10794744113E+03 -0.25113671783E+03  0.34140549849E+03  0.10100000352E+00 0. -1.
</event>
<event>
 5   0  0.1231822E-01  0.4507522E+03  0.7818609E-02  0.1027498E+00
        2   -1    0    0  501    0  0.00000000000E+00  0.00000000000E+00  0.24068365120E+03  0.24068365121E+03  0.25500000920E-02 0. -1.
       -2   -1    0    0    0  501  0.00000000000E+00  0.00000000000E+00 -0.21104211806E+03  0.21104211808E+03  0.25500000920E-02 0.  1.
    10030    2    1    2    0    0  0.00000000000E+00  0.00000000000E+00  0.29641533134E+02  0.45172576929E+03  0.45075220482E+03 0.  0.
        1    1    3    3  502    0 -0.19325584244E+03  0.61109540809E+02 -0.83942537705E+02  0.21938219225E+03  0.50400001928E-02 0.  1.
       -1    1    3    3    0  502  0.19325584244E+03 -0.61109540809E+02  0.11358407084E+03  0.23234357704E+03  0.50400001928E-02 0. -1.
</event>
<event>
 5   0  0.1211345E-01  0.5009529E+03  0.7818609E-02  0.1013530E+00
       -2   -1    0    0    0  501  0.00000000000E+00  0.00000000000E+00  0.17968836710E+03  0.17968836712E+03  0.25500000920E-02 0.  1.
        2   -1    0    0  501    0  0.00000000000E+00  0.00000000000E+00 -0.34915150326E+03  0.34915150327E+03  0.25500000920E-02 0. -1.
    10030    2    1    2    0    0  0.00000000000E+00  0.00000000000E+00 -0.16946313616E+03  0.52883987039E+03  0.50095294590E+03 0.  0.
        5    1    3    3  502    0 -0.14225088252E+03 -0.11789286834E+03 -0.26320603003E+03  0.32161086149E+03  0.46999998093E+01 0. -1.
       -5    1    3    3    0  502  0.14225088252E+03  0.11789286834E+03  0.93742893875E+02  0.20722900891E+03  0.46999998093E+01 0.  1.
</event>
<event>
 5   0  0.5006750E-02  0.5050238E+03  0.7818609E-02  0.1012476E+00
        4   -1    0    0  501    0  0.00000000000E+00  0.00000000000E+00  0.18607277242E+03  0.18607710643E+03  0.12699999809E+01 0. -1.
       -4   -1    0    0    0  501  0.00000000000E+00  0.00000000000E+00 -0.34266421596E+03  0.34266656942E+03  0.12699999809E+01 0.  1.
    10030    2    1    2    0    0  0.00000000000E+00  0.00000000000E+00 -0.15659144354E+03  0.52874367585E+03  0.50502375643E+03 0.  0.
        2    1    3    3  502    0 -0.18411745152E+03 -0.76900970130E+02 -0.24031972869E+03  0.31235647451E+03  0.25500000920E-02 0.  1.
       -2    1    3    3    0  502  0.18411745152E+03  0.76900970130E+02  0.83728285151E+02  0.21638720134E+03  0.25500000920E-02 0. -1.
</event>
<event>
 5   0  0.1191894E-01  0.5058140E+03  0.7818609E-02  0.1012272E+00
       -2   -1    0    0    0  501  0.00000000000E+00  0.00000000000E+00  0.12591965730E+03  0.12591965732E+03  0.25500000920E-02 0.  1.
        2   -1    0    0  501    0  0.00000000000E+00  0.00000000000E+00 -0.50795851421E+03  0.50795851421E+03  0.25500000920E-02 0. -1.
    10030    2    1    2    0    0  0.00000000000E+00  0.00000000000E+00 -0.38203885691E+03  0.63387817153E+03  0.50581404504E+03 0.  0.
        3    1    3    3  502    0 -0.16369051855E+03 -0.44002696239E+02  0.44202708215E+02  0.17517052479E+03  0.10100000352E+00 0.  1.
       -3    1    3    3    0  502  0.16369051855E+03  0.44002696239E+02 -0.42624156512E+03  0.45870764674E+03  0.10100000352E+00 0. -1.
</event>
<event>
 5   0  0.1243803E-01  0.4990168E+03  0.7818609E-02  0.1014036E+00
       -2   -1    0    0    0  501  0.00000000000E+00  0.00000000000E+00  0.92066501124E+02  0.92066501159E+02  0.25500000920E-02 0. -1.
        2   -1    0    0  501    0  0.00000000000E+00  0.00000000000E+00 -0.67618996203E+03  0.67618996203E+03  0.25500000920E-02 0.  1.
    10030    2    1    2    0    0  0.00000000000E+00  0.00000000000E+00 -0.58412346090E+03  0.76825646319E+03  0.49901680899E+03 0.  0.
        4    1    3    3  502    0 -0.20292025460E+03  0.12311379039E+03 -0.41050827749E+03  0.47418592756E+03  0.12699999809E+01 0.  1.
       -4    1    3    3    0  502  0.20292025460E+03 -0.12311379039E+03 -0.17361518341E+03  0.29407053563E+03  0.12699999809E+01 0. -1.
</event>
<event>
 5   0  0.7602288E-02  0.5035194E+03  0.7818609E-02  0.1012864E+00
       -1   -1    0    0    0  501  0.00000000000E+00  0.00000000000E+00  0.43673894610E+02  0.43673894901E+02  0.50400001928E-02 0.  1.
        1   -1    0    0  501    0  0.00000000000E+00  0.00000000000E+00 -0.14512777887E+04  0.14512777887E+04  0.50400001928E-02 0. -1.
    10030    2    1    2    0    0  0.00000000000E+00  0.00000000000E+00 -0.14076038941E+04  0.14949516836E+04  0.50351942731E+03 0.  0.
        5    1    3    3  502    0 -0.41328750538E+02 -0.12458929915E+03 -0.13414838394E+04  0.13478989356E+04  0.46999998093E+01 0. -1.
       -5    1    3    3    0  502  0.41328750538E+02  0.12458929915E+03 -0.66120054691E+02  0.14705274806E+03  0.46999998093E+01 0.  1.
</event>
<event>
 5   0  0.1191894E-01  0.5055796E+03  0.7818609E-02  0.1012333E+00
        2   -1    0    0  501    0  0.00000000000E+00  0.00000000000E+00  0.53633762955E+03  0.53633762955E+03  0.25500000920E-02 0.  1.
       -2   -1    0    0    0  501  0.00000000000E+00  0.00000000000E+00 -0.11914638117E+03  0.11914638120E+03  0.25500000920E-02 0. -1.
    10030    2    1    2    0    0  0.00000000000E+00  0.00000000000E+00  0.41719124838E+03  0.65548401075E+03  0.50557961848E+03 0.  0.
        3    1    3    3  502    0 -0.22726713041E+03  0.31349694956E+02  0.70961741945E+02  0.24014314681E+03  0.10100000352E+00 0. -1.
       -3    1    3    3    0  502  0.22726713041E+03 -0.31349694956E+02  0.34622950643E+03  0.41534086394E+03  0.10100000352E+00 0.  1.
</event>
<event>
 5   0  0.1243803E-01  0.4985405E+03  0.7818609E-02  0.1014161E+00
       -2   -1    0    0    0  501  0.00000000000E+00  0.00000000000E+00  0.49119988388E+02  0.49119988454E+02  0.25500000920E-02 0. -1.
        2   -1    0    0  501    0  0.00000000000E+00  0.00000000000E+00 -0.12649769039E+04  0.12649769039E+04  0.25500000920E-02 0.  1.
    10030    2    1    2    0    0  0.00000000000E+00  0.00000000000E+00 -0.12158569155E+04  0.13140968924E+04  0.49854047329E+03 0.  0.
        4    1    3    3  502    0  0.67708781586E+02  0.60860738258E+02  0.37198693718E+01  0.91126060451E+02  0.12699999809E+01 0. -1.
       -4    1    3    3    0  502 -0.67708781586E+02 -0.60860738258E+02 -0.12195767849E+04  0.12229708319E+04  0.12699999809E+01 0.  1.
</event>
<event>
 5   0  0.1231822E-01  0.5025215E+03  0.7818609E-02  0.1013123E+00
        2   -1    0    0  501    0  0.00000000000E+00  0.00000000000E+00  0.49446609373E+03  0.49446609374E+03  0.25500000920E-02 0. -1.
       -2   -1    0    0    0  501  0.00000000000E+00  0.00000000000E+00 -0.12767704945E+03  0.12767704948E+03  0.25500000920E-02 0.  1.
    10030    2    1    2    0    0  0.00000000000E+00  0.00000000000E+00  0.36678904428E+03  0.62214314321E+03  0.50252152953E+03 0.  0.
        1    1    3    3  502    0 -0.21032811323E+03 -0.18304958185E+02  0.35205477944E+03  0.41050646092E+03  0.50400001928E-02 0. -1.
       -1    1    3    3    0  502  0.21032811323E+03  0.18304958185E+02  0.14734264842E+02  0.21163668230E+03  0.50400001928E-02 0.  1.
</event>
<event>
 5   0  0.7812547E-02  0.5152284E+03  0.7818609E-02  0.1009879E+00
        1   -1    0    0  501    0  0.00000000000E+00  0.00000000000E+00  0.33140523807E+03  0.33140523810E+03  0.50400001928E-02 0. -1.
       -1   -1    0    0    0  501  0.00000000000E+00  0.00000000000E+00 -0.20025353602E+03  0.20025353609E+03  0.50400001928E-02 0.  1.
    10030    2    1    2    0    0  0.00000000000E+00  0.00000000000E+00  0.13115170204E+03  0.53165877419E+03  0.51522837968E+03 0.  0.
        4    1    3    3  502    0  0.12914374427E+03 -0.54892738102E+02 -0.15735083467E+03  0.21083694518E+03  0.12699999809E+01 0.  1.
       -4    1    3    3    0  502 -0.12914374427E+03  0.54892738102E+02  0.28850253671E+03  0.32082182901E+03  0.12699999809E+01 0. -1.
</event>
<event>
 5   0  0.1191894E-01  0.4972153E+03  0.7818609E-02  0.1014508E+00
        2   -1    0    0  501    0  0.00000000000E+00  0.00000000000E+00  0.54832537829E+03  0.54832537830E+03  0.25500000920E-02 0.  1.
       -2   -1    0    0    0  501  0.00000000000E+00  0.00000000000E+00 -0.11271731996E+03  0.11271731999E+03  0.25500000920E-02 0. -1.
    10030    2    1    2    0    0  0.00000000000E+00  0.00000000000E+00  0.43560805833E+03  0.66104269828E+03  0.49721531399E+03 0.  0.
        3    1    3    3  502    0  0.10897625793E+03 -0.21660511896E+03  0.14483750769E+03  0.28243851754E+03  0.10100000352E+00 0.  1.
       -3    1    3    3    0  502 -0.10897625793E+03  0.21660511896E+03  0.29077055064E+03  0.37860418074E+03  0.10100000352E+00 0. -1.
</event>
<event>
 5   0  0.1211345E-01  0.5053278E+03  0.7818609E-02  0.1012398E+00
       -2   -1    0    0    0  501  0.00000000000E+00  0.00000000000E+00  0.31462550968E+03  0.31462550969E+03  0.25500000920E-02 0. -1.
        2   -1    0    0  501    0  0.00000000000E+00  0.00000000000E+00 -0.20290483065E+03  0.20290483067E+03  0.25500000920E-02 0.  1.
    10030    2    1    2    0    0  0.00000000000E+00  0.00000000000E+00  0.11172067902E+03  0.51753034036E+03  0.50532775806E+03 0.  0.
        5    1    3    3  502    0  0.64324280337E+02 -0.24273076035E+03  0.27605907783E+02  0.25266580933E+03  0.46999998093E+01 0.  1.
       -5    1    3    3    0  502 -0.64324280337E+02  0.24273076035E+03  0.84114771242E+02  0.26486453103E+03  0.46999998093E+01 0. -1.
</event>
<event>
 5   0  0.7416638E-02  0.4946622E+03  0.7818609E-02  0.1015182E+00
        1   -1    0    0  501    0  0.00000000000E+00  0.00000000000E+00  0.94819144092E+03  0.94819144093E+03  0.50400001928E-02 0.  1.
       -1   -1    0    0    0  501  0.00000000000E+00  0.00000000000E+00 -0.64515096617E+02  0.64515096814E+02  0.50400001928E-02 0. -1.
    10030    2    1    2    0    0  0.00000000000E+00  0.00000000000E+00  0.88367634430E+03  0.10127065377E+04  0.49466215755E+03 0.  0.
        1    1    3    3  502    0 -0.62844372367E+02 -0.94123077889E+02 -0.83939249132E+01  0.11348580057E+03  0.50400001928E-02 0. -1.
       -1    1    3    3    0  502  0.62844372367E+02  0.94123077889E+02  0.89207026921E+03  0.89922073718E+03  0.50400001928E-02 0.  1.
</event>
<event>
 5   0  0.5006750E-02  0.5029014E+03  0.7818609E-02  0.1013024E+00
        3   -1    0    0  501    0  0.00000000000E+00  0.00000000000E+00  0.16805172564E+04  0.16805172595E+04  0.10100000352E+00 0. -1.
       -3   -1    0    0    0  501  0.00000000000E+00  0.00000000000E+00 -0.37623741212E+02  0.37623876778E+02  0.10100000352E+00 0.  1.
    10030    2    1    2    0    0  0.00000000000E+00  0.00000000000E+00  0.16428935152E+04  0.17181411363E+04  0.50290144334E+03 0.  0.
        2    1    3    3  502    0 -0.12983721785E+03  0.13938017829E+03  0.26065922398E+03  0.32284325654E+03  0.25500000920E-02 0.  1.
       -2    1    3    3    0  502  0.12983721785E+03 -0.13938017829E+03  0.13822342913E+04  0.13952978797E+04  0.25500000920E-02 0. -1.
</event>
<event>
 5   0  0.7781754E-02  0.4278900E+03  0.7818609E-02  0.1034529E+00
        1   -1    0    0  501    0  0.00000000000E+00  0.00000000000E+00  0.31662012733E+03  0.31662012737E+03  0.50400001928E-02 0. -1.
       -1   -1    0    0    0  501  0.00000000000E+00  0.00000000000E+00 -0.14456586308E+03  0.14456586317E+03  0.50400001928E-02 0.  1.
    10030    2    1    2    0    0  0.00000000000E+00  0.00000000000E+00  0.17205426424E+03  0.46118599054E+03  0.42788999524E+03 0.  0.
        2    1    3    3  502    0  0.65478522575E+02  0.15513571594E+03  0.22827386603E+03  0.28366086299E+03  0.25500000920E-02 0. -1.
       -2    1    3    3    0  502 -0.65478522575E+02 -0.15513571594E+03 -0.56219601785E+02  0.17752512754E+03  0.25500000920E-02 0.  1.
</event>
<event>
 5   0  0.1243803E-01  0.5105204E+03  0.7818609E-02  0.1011069E+00
        2   -1    0    0  501    0  0.00000000000E+00  0.00000000000E+00  0.10365756004E+03  0.10365756007E+03  0.25500000920E-02 0. -1.
       -2   -1    0    0    0  501  0.00000000000E+00  0.00000000000E+00 -0.62858682309E+03  0.62858682310E+03  0.25500000920E-02 0.  1.
    10030    2    1    2    0    0  0.00000000000E+00  0.00000000000E+00 -0.52492926306E+03  0.73224438317E+03  0.51052042610E+03 0.  0.
        4    1    3    3  502    0 -0.32603012603E+02  0.15881006036E+03 -0.54525496692E+03  0.56884811993E+03  0.12699999809E+01 0.  1.
       -4    1    3    3    0  502  0.32603012603E+02 -0.15881006036E+03  0.20325703862E+02  0.16339626324E+03  0.12699999809E+01 0. -1.
</event>
<event>
 5   0  0.7531632E-02  0.4985074E+03  0.7818609E-02  0.1014169E+00
       -1   -1    0    0    0  501  0.00000000000E+00  0.00000000000E+00  0.48421983372E+03  0.48421983375E+03  0.50400001928E-02 0.  1.
        1   -1    0    0  501    0  0.00000000000E+00  0.00000000000E+00 -0.12830411447E+03  0.12830411457E+03  0.50400001928E-02 0. -1.
    10030    2    1    2    0    0  0.00000000000E+00  0.00000000000E+00  0.35591571925E+03  0.61252394832E+03  0.49850736008E+03 0.  0.
        3    1    3    3  502    0  0.11332531390E+03  0.22047245500E+03  0.14599573293E+03  0.28768992756E+03  0.10100000352E+00 0.  1.
       -3    1    3    3    0  502 -0.11332531390E+03 -0.22047245500E+03  0.20991998633E+03  0.32483402076E+03  0.10100000352E+00 0. -1.
</event>
<event>
 5   0  0.1211345E-01  0.4870111E+03  0.7818609E-02  0.1017226E+00
        2   -1    0    0  501    0  0.00000000000E+00  0.00000000000E+00  0.46250432650E+03  0.46250432651E+03  0.25500000920E-02 0. -1.
       -2   -1    0    0    0  501  0.00000000000E+00  0.00000000000E+00 -0.12820411224E+03  0.12820411226E+03  0.25500000920E-02 0.  1.
    10030    2    1    2    0    0  0.00000000000E+00  0.00000000000E+00  0.33430021427E+03  0.59070843877E+03  0.48701111525E+03 0.  0.
        5    1    3    3  502    0 -0.27200347702E+02  0.24185647660E+03  0.15962875245E+03  0.29109765165E+03  0.46999998093E+01 0. -1.
       -5    1    3    3    0  502  0.27200347702E+02 -0.24185647660E+03  0.17467146181E+03  0.29961078712E+03  0.46999998093E+01 0.  1.
</event>
<event>
 5   0  0.1279188E-01  0.5004253E+03  0.7818609E-02  0.1013668E+00
       -2   -1    0    0    0  501  0.00000000000E+00  0.00000000000E+00  0.37425965142E+02  0.37425965229E+02  0.25500000920E-02 0. -1.
        2   -1    0    0  501    0  0.00000000000E+00  0.00000000000E+00 -0.16728058452E+04  0.16728058452E+04  0.25500000920E-02 0.  1.
    10030    2    1    2    0    0  0.00000000000E+00  0.00000000000E+00 -0.16353798800E+04  0.17102318104E+04  0.50042531242E+03 0.  0.
        2    1    3    3  502    0 -0.84789369451E+01  0.44329772901E+02 -0.16587793705E+04  0.16593932690E+04  0.25500000920E-02 0.  1.
       -2    1    3    3    0  502  0.84789369451E+01 -0.44329772901E+02  0.23399490443E+02  0.50838541449E+02  0.25500000920E-02 0. -1.
</event>
<event>
 5   0  0.1211345E-01  0.4990084E+03  0.7818609E-02  0.1014038E+00
        2   -1    0    0  501    0  0.00000000000E+00  0.00000000000E+00  0.66594363685E+03  0.66594363686E+03  0.25500000920E-02 0.  1.
       -2   -1    0    0    0  501  0.00000000000E+00  0.00000000000E+00 -0.93479908942E+02  0.93479908977E+02  0.25500000920E-02 0. -1.
    10030    2    1    2    0    0  0.00000000000E+00  0.00000000000E+00  0.57246372791E+03  0.75942354583E+03  0.49900841896E+03 0.  0.
        5    1    3    3  502    0  0.21396060659E+03 -0.12115924588E+03  0.35028696067E+03  0.42799737014E+03  0.46999998093E+01 0.  1.
       -5    1    3    3    0  502 -0.21396060659E+03  0.12115924588E+03  0.22217676724E+03  0.33142617570E+03  0.46999998093E+01 0. -1.
</event>
<event>
 5   0  0.7531632E-02  0.4962333E+03  0.7818609E-02  0.1014767E+00
        1   -1    0    0  501    0  0.00000000000E+00  0.00000000000E+00  0.41175019130E+03  0.41175019133E+03  0.50400001928E-02 0. -1.
       -1   -1    0    0    0  501  0.00000000000E+00  0.00000000000E+00 -0.14951265018E+03  0.14951265026E+03  0.50400001928E-02 0.  1.
    10030    2    1    2    0    0  0.00000000000E+00  0.00000000000E+00  0.26223754112E+03  0.56126284160E+03  0.49623326106E+03 0.  0.
        3    1    3    3  502    0 -0.81576323721E+02  0.15563742596E+03 -0.67005394341E+02  0.18806232484E+03  0.10100000352E+00 0.  1.
       -3    1    3    3    0  502  0.81576323721E+02 -0.15563742596E+03  0.32924293547E+03  0.37320051676E+03  0.10100000352E+00 0. -1.
</event>
<event>
 5   0  0.7781754E-02  0.5021185E+03  0.7818609E-02  0.1013227E+00
       -1   -1    0    0    0  501  0.00000000000E+00  0.00000000000E+00  0.10519447335E+03  0.10519447347E+03  0.50400001928E-02 0.  1.
        1   -1    0    0  501    0  0.00000000000E+00  0.00000000000E+00 -0.59918295460E+03  0.59918295463E+03  0.50400001928E-02 0. -1.
    10030    2    1    2    0    0  0.00000000000E+00  0.00000000000E+00 -0.49398848126E+03  0.70437742809E+03  0.50211845375E+03 0.  0.
        2    1    3    3  502    0  0.98789231950E+02 -0.26988080847E+02  0.74562009559E+02  0.12667739393E+03  0.25500000920E-02 0.  1.
       -2    1    3    3    0  502 -0.98789231950E+02  0.26988080847E+02 -0.56855049082E+03  0.57770003416E+03  0.25500000920E-02 0. -1.
</event>
<event>
 5   0  0.1191894E-01  0.5049636E+03  0.7818609E-02  0.1012491E+00
       -2   -1    0    0    0  501  0.00000000000E+00  0.00000000000E+00  0.48293710116E+02  0.48293710183E+02  0.25500000920E-02 0.  1.
        2   -1    0    0  501    0  0.00000000000E+00  0.00000000000E+00 -0.13199867492E+04  0.13199867492E+04  0.25500000920E-02 0. -1.
    10030    2    1    2    0    0  0.00000000000E+00  0.00000000000E+00 -0.12716930391E+04  0.13682804594E+04  0.50496359263E+03 0.  0.
        3    1    3    3  502    0  0.37227782640E+02 -0.24728751562E+03 -0.73010318361E+03  0.77174328121E+03  0.10100000352E+00 0. -1.
       -3    1    3    3    0  502 -0.37227782640E+02  0.24728751562E+03 -0.54158985547E+03  0.59653717816E+03  0.10100000352E+00 0.  1.
</event>
<event>
 5   0  0.7781754E-02  0.4988550E+03  0.7818609E-02  0.1014078E+00
        1   -1    0    0  501    0  0.00000000000E+00  0.00000000000E+00  0.12137644768E+04  0.12137644768E+04  0.50400001928E-02 0.  1.
       -1   -1    0    0    0  501  0.00000000000E+00  0.00000000000E+00 -0.51257114961E+02  0.51257115209E+02  0.50400001928E-02 0. -1.
    10030    2    1    2    0    0  0.00000000000E+00  0.00000000000E+00  0.11625073618E+04  0.12650215920E+04  0.49885495081E+03 0.  0.
        2    1    3    3  502    0  0.77385090182E+02  0.95999381005E+02  0.11310698911E+04  0.11377712564E+04  0.25500000920E-02 0.  1.
       -2    1    3    3    0  502 -0.77385090182E+02 -0.95999381005E+02  0.31437470709E+02  0.12725033559E+03  0.25500000920E-02 0. -1.
</event>
<event>
 5   0  0.1243803E-01  0.5140682E+03  0.7818609E-02  0.1010171E+00
        2   -1    0    0  501    0  0.00000000000E+00  0.00000000000E+00  0.95669026350E+03  0.95669026350E+03  0.25500000920E-02 0.  1.
       -2   -1    0    0    0  501  0.00000000000E+00  0.00000000000E+00 -0.69057391949E+02  0.69057391996E+02  0.25500000920E-02 0. -1.
    10030    2    1    2    0    0  0.00000000000E+00  0.00000000000E+00  0.88763287155E+03  0.10257476555E+04  0.51406822320E+03 0.  0.
        4    1    3    3  502    0  0.48810427496E+02  0.25231946940E+03  0.45212754438E+03  0.52006586290E+03  0.12699999809E+01 0.  1.
       -4    1    3    3    0  502 -0.48810427496E+02 -0.25231946940E+03  0.43550532717E+03  0.50568179260E+03  0.12699999809E+01 0. -1.
</event>
<event>
 5   0  0.5006750E-02  0.5027053E+03  0.7818609E-02  0.1013075E+00
       -3   -1    0    0    0  501  0.00000000000E+00  0.00000000000E+00  0.19300615347E+03  0.19300617990E+03  0.10100000352E+00 0.  1.
        3   -1    0    0  501    0  0.00000000000E+00  0.00000000000E+00 -0.32733750435E+03  0.32733751993E+03  0.10100000352E+00 0. -1.
    10030    2    1    2    0    0  0.00000000000E+00  0.00000000000E+00 -0.13433135088E+03  0.52034369983E+03  0.50270533528E+03 0.  0.
        5    1    3    3  502    0 -0.92666799117E+02 -0.17643857069E+03 -0.22563328125E+03  0.30108167080E+03  0.46999998093E+01 0. -1.
       -5    1    3    3    0  502  0.92666799117E+02  0.17643857069E+03  0.91301930370E+02  0.21926202903E+03  0.46999998093E+01 0.  1.
</event>
<event>
 5   0  0.7812547E-02  0.5079932E+03  0.7818609E-02  0.1011713E+00
       -1   -1    0    0    0  501  0.00000000000E+00  0.00000000000E+00  0.13107032864E+04  0.13107032864E+04  0.50400001928E-02 0.  1.
        1   -1    0    0  501    0  0.00000000000E+00  0.00000000000E+00 -0.49221112120E+02  0.49221112378E+02  0.50400001928E-02 0. -1.
    10030    2    1    2    0    0  0.00000000000E+00  0.00000000000E+00  0.12614821742E+04  0.13599243988E+04  0.50799320309E+03 0.  0.
        4    1    3    3  502    0  0.99607331839E+02  0.51978028558E+01  0.12560722267E+04  0.12600268605E+04  0.12699999809E+01 0.  1.
       -4    1    3    3    0  502 -0.99607331839E+02 -0.51978028558E+01  0.54099475612E+01  0.99897538223E+02  0.12699999809E+01 0. -1.
</event>
<event>
 5   0  0.7416638E-02  0.5016006E+03  0.7818609E-02  0.1013362E+00
        1   -1    0    0  501    0  0.00000000000E+00  0.00000000000E+00  0.20072523479E+03  0.20072523485E+03  0.50400001928E-02 0. -1.
       -1   -1    0    0    0  501  0.00000000000E+00  0.00000000000E+00 -0.31336760676E+03  0.31336760680E+03  0.50400001928E-02 0.  1.
    10030    2    1    2    0    0  0.00000000000E+00  0.00000000000E+00 -0.11264237197E+03  0.51409284166E+03  0.50160058401E+03 0.  0.
        1    1    3    3  502    0  0.22200992809E+02  0.17623948468E+01  0.19970978796E+03  0.20094772840E+03  0.50400001928E-02 0. -1.
       -1    1    3    3    0  502 -0.22200992809E+02 -0.17623948468E+01 -0.31235215993E+03  0.31314511326E+03  0.50400001928E-02 0.  1.
</event>
<event>
 5   0  0.7531632E-02  0.4852634E+03  0.7818609E-02  0.1017699E+00
       -1   -1    0    0    0  501  0.00000000000E+00  0.00000000000E+00  0.10498945023E+03  0.10498945035E+03  0.50400001928E-02 0.  1.
        1   -1    0    0  501    0  0.00000000000E+00  0.00000000000E+00 -0.56072430768E+03  0.56072430770E+03  0.50400001928E-02 0. -1.
    10030    2    1    2    0    0  0.00000000000E+00  0.00000000000E+00 -0.45573485745E+03  0.66571375805E+03  0.48526337937E+03 0.  0.
        3    1    3    3  502    0  0.13263711408E+03 -0.14718274900E+03 -0.35734623126E+02  0.20132644915E+03  0.10100000352E+00 0.  1.
       -3    1    3    3    0  502 -0.13263711408E+03  0.14718274900E+03 -0.42000023433E+03  0.46438730890E+03  0.10100000352E+00 0. -1.
</event>
<event>
 5   0  0.7416638E-02  0.5042185E+03  0.7818609E-02  0.1012684E+00
        1   -1    0    0  501    0  0.00000000000E+00  0.00000000000E+00  0.17660161171E+04  0.17660161171E+04  0.50400001928E-02 0.  1.
       -1   -1    0    0    0  501  0.00000000000E+00  0.00000000000E+00 -0.35990093593E+02  0.35990093946E+02  0.50400001928E-02 0. -1.
    10030    2    1    2    0    0  0.00000000000E+00  0.00000000000E+00  0.17300260235E+04  0.18020062110E+04  0.50421854652E+03 0.  0.
        1    1    3    3  502    0 -0.13175319264E+03  0.58387525250E+02  0.16043017405E+04  0.16107613360E+04  0.50400001928E-02 0.  1.
       -1    1    3    3    0  502  0.13175319264E+03 -0.58387525250E+02  0.12572428298E+03  0.19124487505E+03  0.50400001928E-02 0. -1.
</event>
<event>
 5   0  0.1279188E-01  0.4969718E+03  0.7818609E-02  0.1014572E+00
        2   -1    0    0  501    0  0.00000000000E+00  0.00000000000E+00  0.69966404613E+03  0.69966404613E+03  0.25500000920E-02 0. -1.
       -2   -1    0    0    0  501  0.00000000000E+00  0.00000000000E+00 -0.88249846083E+02  0.88249846120E+02  0.25500000920E-02 0.  1.
    10030    2    1    2    0    0  0.00000000000E+00  0.00000000000E+00  0.61141420005E+03  0.78791389225E+03  0.49697180764E+03 0.  0.
        2    1    3    3  502    0 -0.62613934838E+02 -0.83496026308E+02  0.66323171571E+03  0.67139288049E+03  0.25500000920E-02 0. -1.
       -2    1    3    3    0  502  0.62613934838E+02  0.83496026308E+02 -0.51817515666E+02  0.11652101176E+03  0.25500000920E-02 0.  1.
</event>
<event>
 5   0  0.7812547E-02  0.5038712E+03  0.7818609E-02  0.1012773E+00
        1   -1    0    0  501    0  0.00000000000E+00  0.00000000000E+00  0.23367661459E+03  0.23367661465E+03  0.50400001928E-02 0.  1.
       -1   -1    0    0    0  501  0.00000000000E+00  0.00000000000E+00 -0.27162126928E+03  0.27162126932E+03  0.50400001928E-02 0. -1.
    10030    2    1    2    0    0  0.00000000000E+00  0.00000000000E+00 -0.37944654683E+02  0.50529788397E+03  0.50387116878E+03 0.  0.
        4    1    3    3  502    0  0.10599538081E+03  0.14747613503E+02  0.20974672609E+03  0.23547359695E+03  0.12699999809E+01 0.  1.
       -4    1    3    3    0  502 -0.10599538081E+03 -0.14747613503E+02 -0.24769138077E+03  0.26982428702E+03  0.12699999809E+01 0. -1.
</event>
<event>
 5   0  0.1211345E-01  0.5007986E+03  0.7818609E-02  0.1013571E+00
        2   -1    0    0  501    0  0.00000000000E+00  0.00000000000E+00  0.51623669982E+02  0.51623670045E+02  0.25500000920E-02 0.  1.
       -2   -1    0    0    0  501  0.00000000000E+00  0.00000000000E+00 -0.12145555968E+04  0.12145555968E+04  0.25500000920E-02 0. -1.
    10030    2    1    2    0    0  0.00000000000E+00  0.00000000000E+00 -0.11629319269E+04  0.12661792669E+04  0.50079863158E+03 0.  0.
        5    1    3    3  502    0 -0.11377448798E+03 -0.64787096811E+02 -0.41945162039E+02  0.13756267170E+03  0.46999998093E+01 0.  1.
       -5    1    3    3    0  502  0.11377448798E+03  0.64787096811E+02 -0.11209867648E+04  0.11286165952E+04  0.46999998093E+01 0. -1.
</event>
<event>
 5   0  0.5006750E-02  0.5025445E+03  0.7818609E-02  0.1013117E+00
        3   -1    0    0  501    0  0.00000000000E+00  0.00000000000E+00  0.86647080459E+03  0.86647081048E+03  0.10100000352E+00 0.  1.
       -3   -1    0    0    0  501  0.00000000000E+00  0.00000000000E+00 -0.72867675837E+02  0.72867745833E+02  0.10100000352E+00 0. -1.
    10030    2    1    2    0    0  0.00000000000E+00  0.00000000000E+00  0.79360312875E+03  0.93933855631E+03  0.50254452281E+03 0.  0.
        2    1    3    3  502    0  0.14834660632E+03  0.11222409520E+03  0.71255649107E+03  0.73643581942E+03  0.25500000920E-02 0.  1.
       -2    1    3    3    0  502 -0.14834660632E+03 -0.11222409520E+03  0.81046637679E+02  0.20290273689E+03  0.25500000920E-02 0. -1.
</event>
<event>
 5   0  0.1243803E-01  0.4986350E+03  0.7818609E-02  0.1014136E+00
        2   -1    0    0  501    0  0.00000000000E+00  0.00000000000E+00  0.97955415886E+03  0.97955415886E+03  0.25500000920E-02 0. -1.
       -2   -1    0    0    0  501  0.00000000000E+00  0.00000000000E+00 -0.63456640421E+02  0.63456640472E+02  0.25500000920E-02 0.  1.
    10030    2    1    2    0    0  0.00000000000E+00  0.00000000000E+00  0.91609751844E+03  0.10430107993E+04  0.49863500102E+03 0.  0.
        4    1    3    3  502    0 -0.10111563456E+03 -0.22629818758E+03  0.40182971441E+03  0.47212707350E+03  0.12699999809E+01 0. -1.
       -4    1    3    3    0  502  0.10111563456E+03  0.22629818758E+03  0.51426780403E+03  0.57088372583E+03  0.12699999809E+01 0.  1.
</event>
<event>
 5   0  0.7416638E-02  0.4999353E+03  0.7818609E-02  0.1013796E+00
        1   -1    0    0  501    0  0.00000000000E+00  0.00000000000E+00  0.74727961571E+03  0.74727961573E+03  0.50400001928E-02 0.  1.
       -1   -1    0    0    0  501  0.00000000000E+00  0.00000000000E+00 -0.83615061731E+02  0.83615061882E+02  0.50400001928E-02 0. -1.
    10030    2    1    2    0    0  0.00000000000E+00  0.00000000000E+00  0.66366455398E+03  0.83089467761E+03  0.49993532089E+03 0.  0.
        1    1    3    3  502    0 -0.19060242483E+03  0.44377186323E+02  0.73364083606E+02  0.20899977944E+03  0.50400001928E-02 0. -1.
       -1    1    3    3    0  502  0.19060242483E+03 -0.44377186323E+02  0.59030047038E+03  0.62189489817E+03  0.50400001928E-02 0.  1.
</event>
<event>
 5   0  0.1211345E-01  0.5009643E+03  0.7818609E-02  0.1013528E+00
        2   -1    0    0  501    0  0.00000000000E+00  0.00000000000E+00  0.92117477795E+03  0.92117477796E+03  0.25500000920E-02 0. -1.
       -2   -1    0    0    0  501  0.00000000000E+00  0.00000000000E+00 -0.68110109926E+02  0.68110109974E+02  0.25500000920E-02 0.  1.
    10030    2    1    2    0    0  0.00000000000E+00  0.00000000000E+00  0.85306466803E+03  0.98928488793E+03  0.50096433172E+03 0.  0.
        5    1    3    3  502    0 -0.88178819907E+02  0.23407233132E+03  0.45102771892E+03  0.51576492107E+03  0.46999998093E+01 0. -1.
       -5    1    3    3    0  502  0.88178819907E+02 -0.23407233132E+03  0.40203694910E+03  0.47351996686E+03  0.46999998093E+01 0.  1.
</event>
<event>
 5   0  0.7602288E-02  0.5046811E+03  0.7818609E-02  0.1012564E+00
       -1   -1    0    0    0  501  0.00000000000E+00  0.00000000000E+00  0.99429064204E+02  0.99429064332E+02  0.50400001928E-02 0.  1.
        1   -1    0    0  501    0  0.00000000000E+00  0.00000000000E+00 -0.64041378941E+03  0.64041378943E+03  0.50400001928E-02 0. -1.
    10030    2    1    2    0    0  0.00000000000E+00  0.00000000000E+00 -0.54098472520E+03  0.73984285376E+03  0.50468106301E+03 0.  0.
        5    1    3    3  502    0  0.37454301556E+02 -0.24942193565E+03 -0.27970895190E+03  0.37666074186E+03  0.46999998093E+01 0. -1.
       -5    1    3    3    0  502 -0.37454301556E+02  0.24942193565E+03 -0.26127577330E+03  0.36318211190E+03  0.46999998093E+01 0.  1.
</event>
<event>
 5   0  0.1231822E-01  0.5033258E+03  0.7818609E-02  0.1012914E+00
        2   -1    0    0  501    0  0.00000000000E+00  0.00000000000E+00  0.69359715988E+02  0.69359716035E+02  0.25500000920E-02 0.  1.
       -2   -1    0    0    0  501  0.00000000000E+00  0.00000000000E+00 -0.91312673262E+03  0.91312673262E+03  0.25500000920E-02 0. -1.
    10030    2    1    2    0    0  0.00000000000E+00  0.00000000000E+00 -0.84376701663E+03  0.98248644866E+03  0.50332578261E+03 0.  0.
        1    1    3    3  502    0  0.24871684584E+03 -0.12611035474E+02 -0.35109588832E+03  0.43045026477E+03  0.50400001928E-02 0.  1.
       -1    1    3    3    0  502 -0.24871684584E+03  0.12611035474E+02 -0.49267112831E+03  0.55203618388E+03  0.50400001928E-02 0. -1.
</event>
<event>
 5   0  0.1191894E-01  0.5032229E+03  0.7818609E-02  0.1012941E+00
        2   -1    0    0  501    0  0.00000000000E+00  0.00000000000E+00  0.84224660003E+03  0.84224660004E+03  0.25500000920E-02 0.  1.
       -2   -1    0    0    0  501  0.00000000000E+00  0.00000000000E+00 -0.75166004296E+02  0.75166004340E+02  0.25500000920E-02 0. -1.
    10030    2    1    2    0    0  0.00000000000E+00  0.00000000000E+00  0.76708059574E+03  0.91741260438E+03  0.50322285949E+03 0.  0.
        3    1    3    3  502    0  0.23519747861E+03  0.53766375788E+02  0.51372903999E+03  0.56756163881E+03  0.10100000352E+00 0.  1.
       -3    1    3    3    0  502 -0.23519747861E+03 -0.53766375788E+02  0.25335155575E+03  0.34985096557E+03  0.10100000352E+00 0. -1.
</event>
<event>
 5   0  0.7812547E-02  0.4898537E+03  0.7818609E-02  0.1016462E+00
        1   -1    0    0  501    0  0.00000000000E+00  0.00000000000E+00  0.86997780100E+02  0.86997780246E+02  0.50400001928E-02 0.  1.
       -1   -1    0    0    0  501  0.00000000000E+00  0.00000000000E+00 -0.68954832181E+03  0.68954832183E+03  0.50400001928E-02 0. -1.
    10030    2    1    2    0    0  0.00000000000E+00  0.00000000000E+00 -0.60255054171E+03  0.77654610208E+03  0.48985374688E+03 0.  0.
        4    1    3    3  502    0 -0.68460521002E+02  0.67867725750E+02 -0.65820444129E+03  0.66522745776E+03  0.12699999809E+01 0. -1.
       -4    1    3    3    0  502  0.68460521002E+02 -0.67867725750E+02  0.55653899572E+02  0.11131864431E+03  0.12699999809E+01 0.  1.
</event>
<event>
 5   0  0.5006750E-02  0.5011391E+03  0.7818609E-02  0.1013482E+00
        4   -1    0    0  501    0  0.00000000000E+00  0.00000000000E+00  0.97484692650E+02  0.97492964879E+02  0.12699999809E+01 0.  1.
       -4   -1    0    0    0  501  0.00000000000E+00  0.00000000000E+00 -0.64401473632E+03  0.64401598854E+03  0.12699999809E+01 0. -1.
    10030    2    1    2    0    0  0.00000000000E+00  0.00000000000E+00 -0.54653004367E+03  0.74150895342E+03  0.50113914172E+03 0.  0.
        1    1    3    3  502    0  0.14737237476E+03 -0.18109269447E+03 -0.40783911843E+03  0.46994247242E+03  0.50400001928E-02 0. -1.
       -1    1    3    3    0  502 -0.14737237476E+03  0.18109269447E+03 -0.13869092523E+03  0.27156648100E+03  0.50400001928E-02 0.  1.
</event>
<event>
 5   0  0.1231822E-01  0.4840405E+03  0.7818609E-02  0.1018031E+00
        2   -1    0    0  501    0  0.00000000000E+00  0.00000000000E+00  0.76966525754E+03  0.76966525755E+03  0.25500000920E-02 0. -1.
       -2   -1    0    0    0  501  0.00000000000E+00  0.00000000000E+00 -0.76102967675E+02  0.76102967718E+02  0.25500000920E-02 0.  1.
    10030    2    1    2    0    0  0.00000000000E+00  0.00000000000E+00  0.69356228987E+03  0.84576822526E+03  0.48404053646E+03 0.  0.
        1    1    3    3  502    0 -0.72560788820E+02  0.20358538922E+03  0.15647900374E+03  0.26682907903E+03  0.50400001928E-02 0.  1.
       -1    1    3    3    0  502  0.72560788820E+02 -0.20358538922E+03  0.53708328613E+03  0.57893914623E+03  0.50400001928E-02 0. -1.
</event>
<event>
 5   0  0.1191894E-01  0.5046702E+03  0.7818609E-02  0.1012567E+00
        2   -1    0    0  501    0  0.00000000000E+00  0.00000000000E+00  0.18559207469E+03  0.18559207471E+03  0.25500000920E-02 0. -1.
       -2   -1    0    0    0  501  0.00000000000E+00  0.00000000000E+00 -0.34308036263E+03  0.34308036263E+03  0.25500000920E-02 0.  1.
    10030    2    1    2    0    0  0.00000000000E+00  0.00000000000E+00 -0.15748828793E+03  0.52867243734E+03  0.50467017464E+03 0.  0.
        3    1    3    3  502    0 -0.20508247697E+03  0.24804948267E+02 -0.23054599859E+03  0.30955706338E+03  0.10100000352E+00 0.  1.
       -3    1    3    3    0  502  0.20508247697E+03 -0.24804948267E+02  0.73057710660E+02  0.21911537396E+03  0.10100000352E+00 0. -1.
</event>
<event>
 5   0  0.7602288E-02  0.4985434E+03  0.7818609E-02  0.1014160E+00
        1   -1    0    0  501    0  0.00000000000E+00  0.00000000000E+00  0.43624156388E+03  0.43624156391E+03  0.50400001928E-02 0.  1.
       -1   -1    0    0    0  501  0.00000000000E+00  0.00000000000E+00 -0.14243573214E+03  0.14243573223E+03  0.50400001928E-02 0. -1.
    10030    2    1    2    0    0  0.00000000000E+00  0.00000000000E+00  0.29380583174E+03  0.57867729614E+03  0.49854342469E+03 0.  0.
        5    1    3    3  502    0 -0.15386235313E+03  0.15737775761E+03  0.28262921158E+03  0.35824955483E+03  0.46999998093E+01 0.  1.
       -5    1    3    3    0  502  0.15386235313E+03 -0.15737775761E+03  0.11176620162E+02  0.22042774131E+03  0.46999998093E+01 0. -1.
</event>
<event>
 5   0  0.1191894E-01  0.4982859E+03  0.7818609E-02  0.1014227E+00
        2   -1    0    0  501    0  0.00000000000E+00  0.00000000000E+00  0.86622503479E+03  0.86622503479E+03  0.25500000920E-02 0. -1.
       -2   -1    0    0    0  501  0.00000000000E+00  0.00000000000E+00 -0.71658293456E+02  0.71658293501E+02  0.25500000920E-02 0.  1.
    10030    2    1    2    0    0  0.00000000000E+00  0.00000000000E+00  0.79456674133E+03  0.93788332830E+03  0.49828589290E+03 0.  0.
        3    1    3    3  502    0  0.27755646432E+02  0.12971537824E+03  0.79422973326E+03  0.80523123055E+03  0.10100000352E+00 0. -1.
       -3    1    3    3    0  502 -0.27755646432E+02 -0.12971537824E+03  0.33700807382E+00  0.13265209774E+03  0.10100000352E+00 0.  1.
</event>
<event>
 5   0  0.7781754E-02  0.5019560E+03  0.7818609E-02  0.1013270E+00
        1   -1    0    0  501    0  0.00000000000E+00  0.00000000000E+00  0.26490119894E+03  0.26490119899E+03  0.50400001928E-02 0.  1.
       -1   -1    0    0    0  501  0.00000000000E+00  0.00000000000E+00 -0.23778658716E+03  0.23778658721E+03  0.50400001928E-02 0. -1.
    10030    2    1    2    0    0  0.00000000000E+00  0.00000000000E+00  0.27114611786E+02  0.50268778620E+03  0.50195598236E+03 0.  0.
        2    1    3    3  502    0  0.12777974552E+03  0.21534216600E+03 -0.34980904724E+01  0.25042393749E+03  0.25500000920E-02 0.  1.
       -2    1    3    3    0  502 -0.12777974552E+03 -0.21534216600E+03  0.30612702258E+02  0.25226384872E+03  0.25500000920E-02 0. -1.
</event>
<event>
 5   0  0.7812547E-02  0.5035058E+03  0.7818609E-02  0.1012868E+00
       -1   -1    0    0    0  501  0.00000000000E+00  0.00000000000E+00  0.21246564333E+03  0.21246564339E+03  0.50400001928E-02 0. -1.
        1   -1    0    0  501    0  0.00000000000E+00  0.00000000000E+00 -0.29830484923E+03  0.29830484927E+03  0.50400001928E-02 0.  1.
    10030    2    1    2    0    0  0.00000000000E+00  0.00000000000E+00 -0.85839205896E+02  0.51077049266E+03  0.50350583602E+03 0.  0.
        4    1    3    3  502    0  0.15646230032E+03  0.16576060602E+03 -0.15133007729E+03  0.27360452321E+03  0.12699999809E+01 0.  1.
       -4    1    3    3    0  502 -0.15646230032E+03 -0.16576060602E+03  0.65490871393E+02  0.23716596945E+03  0.12699999809E+01 0. -1.
</event>
<event>
 5   0  0.1191894E-01  0.4999938E+03  0.7818609E-02  0.1013781E+00
       -2   -1    0    0    0  501  0.00000000000E+00  0.00000000000E+00  0.18278503643E+03  0.18278503645E+03  0.25500000920E-02 0. -1.
        2   -1    0    0  501    0  0.00000000000E+00  0.00000000000E+00 -0.34192321606E+03  0.34192321606E+03  0.25500000920E-02 0.  1.
    10030    2    1    2    0    0  0.00000000000E+00  0.00000000000E+00 -0.15913817963E+03  0.52470825251E+03  0.49999379000E+03 0.  0.
        3    1    3    3  502    0 -0.10085665274E+02 -0.19557854610E+03  0.83500742642E+02  0.21289685898E+03  0.10100000352E+00 0. -1.
       -3    1    3    3    0  502  0.10085665274E+02  0.19557854610E+03 -0.24263892227E+03  0.31181139354E+03  0.10100000352E+00 0.  1.
</event>
<event>
 5   0  0.7531632E-02  0.5000466E+03  0.7818609E-02  0.1013767E+00
       -1   -1    0    0    0  501  0.00000000000E+00  0.00000000000E+00  0.22462592237E+03  0.22462592243E+03  0.50400001928E-02 0.  1.
        1   -1    0    0  501    0  0.00000000000E+00  0.00000000000E+00 -0.27829226725E+03  0.27829226730E+03  0.50400001928E-02 0. -1.
    10030    2    1    2    0    0  0.00000000000E+00  0.00000000000E+00 -0.53666344883E+02  0.50291818972E+03  0.50004662681E+03 0.  0.
        3    1    3    3  502    0 -0.21297813722E+03  0.59155292804E+02  0.90682206893E+02  0.23891904162E+03  0.10100000352E+00 0.  1.
       -3    1    3    3    0  502  0.21297813722E+03 -0.59155292804E+02 -0.14434855178E+03  0.26399914811E+03  0.10100000352E+00 0. -1.
</event>
<event>
 5   0  0.7416638E-02  0.5019029E+03  0.7818609E-02  0.1013283E+00
       -1   -1    0    0    0  501  0.00000000000E+00  0.00000000000E+00  0.42390038791E+02  0.42390039091E+02  0.50400001928E-02 0.  1.
        1   -1    0    0  501    0  0.00000000000E+00  0.00000000000E+00 -0.14856469699E+04  0.14856469699E+04  0.50400001928E-02 0. -1.
    10030    2    1    2    0    0  0.00000000000E+00  0.00000000000E+00 -0.14432569311E+04  0.15280370090E+04  0.50190291060E+03 0.  0.
        1    1    3    3  502    0 -0.16441207399E+03  0.18411699061E+03 -0.85934690151E+03  0.89409590842E+03  0.50400001928E-02 0. -1.
       -1    1    3    3    0  502  0.16441207399E+03 -0.18411699061E+03 -0.58391002956E+03  0.63394110053E+03  0.50400001928E-02 0.  1.
</event>
<event>
 5   0  0.7781754E-02  0.4810767E+03  0.7818609E-02  0.1018840E+00
        1   -1    0    0  501    0  0.00000000000E+00  0.00000000000E+00  0.40311985397E+03  0.40311985400E+03  0.50400001928E-02 0.  1.
       -1   -1    0    0    0  501  0.00000000000E+00  0.00000000000E+00 -0.14352730863E+03  0.14352730871E+03  0.50400001928E-02 0. -1.
    10030    2    1    2    0    0  0.00000000000E+00  0.00000000000E+00  0.25959254534E+03  0.54664716271E+03  0.48107674118E+03 0.  0.
        2    1    3    3  502    0  0.10585272656E+03  0.21167649695E+03  0.80962250245E+02  0.25013321462E+03  0.25500000920E-02 0.  1.
       -2    1    3    3    0  502 -0.10585272656E+03 -0.21167649695E+03  0.17863029510E+03  0.29651394810E+03  0.25500000920E-02 0. -1.
</event>
<event>
 5   0  0.1279188E-01  0.5000200E+03  0.7818609E-02  0.1013774E+00
       -2   -1    0    0    0  501  0.00000000000E+00  0.00000000000E+00  0.91159443818E+02  0.91159443854E+02  0.25500000920E-02 0. -1.
        2   -1    0    0  501    0  0.00000000000E+00  0.00000000000E+00 -0.68566669305E+03  0.68566669305E+03  0.25500000920E-02 0.  1.
    10030    2    1    2    0    0  0.00000000000E+00  0.00000000000E+00 -0.59450724923E+03  0.77682613690E+03  0.50001997719E+03 0.  0.
        2    1    3    3  502    0 -0.24033159091E+03 -0.21895656615E+02 -0.39872936321E+03  0.46607273945E+03  0.25500000920E-02 0.  1.
       -2    1    3    3    0  502  0.24033159091E+03  0.21895656615E+02 -0.19577788602E+03  0.31075339745E+03  0.25500000920E-02 0. -1.
</event>
<event>
 5   0  0.1279188E-01  0.4955223E+03  0.7818609E-02  0.1014954E+00
        2   -1    0    0  501    0  0.00000000000E+00  0.00000000000E+00  0.95057233938E+03  0.95057233938E+03  0.25500000920E-02 0. -1.
       -2   -1    0    0    0  501  0.00000000000E+00  0.00000000000E+00 -0.64577510221E+02  0.64577510272E+02  0.25500000920E-02 0.  1.
    10030    2    1    2    0    0  0.00000000000E+00  0.00000000000E+00  0.88599482916E+03  0.10151498497E+04  0.49552233043E+03 0.  0.
        2    1    3    3  502    0 -0.14846896982E+03 -0.10445092655E+03  0.97555576176E+02  0.20608280255E+03  0.25500000920E-02 0.  1.
       -2    1    3    3    0  502  0.14846896982E+03  0.10445092655E+03  0.78843925298E+03  0.80906704710E+03  0.25500000920E-02 0. -1.
</event>
<event>
 5   0  0.1279188E-01  0.5032148E+03  0.7818609E-02  0.1012943E+00
        2   -1    0    0  501    0  0.00000000000E+00  0.00000000000E+00  0.83102810506E+02  0.83102810545E+02  0.25500000920E-02 0. -1.
       -2   -1    0    0    0  501  0.00000000000E+00  0.00000000000E+00 -0.76178283262E+03  0.76178283263E+03  0.25500000920E-02 0.  1.
    10030    2    1    2    0    0  0.00000000000E+00  0.00000000000E+00 -0.67868002212E+03  0.84488564317E+03  0.50321484240E+03 0.  0.
        2    1    3    3  502    0  0.19772786248E+03 -0.14793924853E+03 -0.42027928987E+03  0.48745975255E+03  0.25500000920E-02 0. -1.
       -2    1    3    3    0  502 -0.19772786248E+03  0.14793924853E+03 -0.25840073225E+03  0.35742589062E+03  0.25500000920E-02 0.  1.
</event>
<event>
 5   0  0.5006750E-02  0.4941180E+03  0.7818609E-02  0.1015326E+00
        4   -1    0    0  501    0  0.00000000000E+00  0.00000000000E+00  0.17960525955E+03  0.17960974962E+03  0.12699999809E+01 0. -1.
       -4   -1    0    0    0  501  0.00000000000E+00  0.00000000000E+00 -0.33983615555E+03  0.33983852859E+03  0.12699999809E+01 0.  1.
    10030    2    1    2    0    0  0.00000000000E+00  0.00000000000E+00 -0.16023089600E+03  0.51944827821E+03  0.49411797549E+03 0.  0.
        1    1    3    3  502    0  0.21402275961E+03  0.49373865135E+02  0.38796476567E+02  0.22304413646E+03  0.50400001928E-02 0. -1.
       -1    1    3    3    0  502 -0.21402275961E+03 -0.49373865135E+02 -0.19902737257E+03  0.29640414175E+03  0.50400001928E-02 0.  1.
</event>
<event>
 5   0  0.7812547E-02  0.5006361E+03  0.7818609E-02  0.1013613E+00
        1   -1    0    0  501    0  0.00000000000E+00  0.00000000000E+00  0.10948796390E+03  0.10948796402E+03  0.50400001928E-02 0. -1.
       -1   -1    0    0    0  501  0.00000000000E+00  0.00000000000E+00 -0.57229240940E+03  0.57229240942E+03  0.50400001928E-02 0.  1.
    10030    2    1    2    0    0  0.00000000000E+00  0.00000000000E+00 -0.46280444549E+03  0.68178037344E+03  0.50063611819E+03 0.  0.
        4    1    3    3  502    0  0.17240948898E+03  0.63384802668E+02 -0.46297249633E+03  0.49808413983E+03  0.12699999809E+01 0.  1.
       -4    1    3    3    0  502 -0.17240948898E+03 -0.63384802668E+02  0.16805083463E+00  0.18369623360E+03  0.12699999809E+01 0. -1.
</event>
<event>
 5   0  0.7531632E-02  0.4992918E+03  0.7818609E-02  0.1013964E+00
       -1   -1    0    0    0  501  0.00000000000E+00  0.00000000000E+00  0.41077940487E+02  0.41077940797E+02  0.50400001928E-02 0. -1.
        1   -1    0    0  501    0  0.00000000000E+00  0.00000000000E+00 -0.15171910383E+04  0.15171910383E+04  0.50400001928E-02 0.  1.
    10030    2    1    2    0    0  0.00000000000E+00  0.00000000000E+00 -0.14761130978E+04  0.15582689791E+04  0.49929183220E+03 0.  0.
        3    1    3    3  502    0 -0.16807464105E+03 -0.11790989093E+02 -0.13129821391E+04  0.13237485487E+04  0.10100000352E+00 0.  1.
       -3    1    3    3    0  502  0.16807464105E+03  0.11790989093E+02 -0.16313095872E+03  0.23452043041E+03  0.10100000352E+00 0. -1.
</event>
<event>
 5   0  0.1211345E-01  0.5019319E+03  0.7818609E-02  0.1013276E+00
       -2   -1    0    0    0  501  0.00000000000E+00  0.00000000000E+00  0.53756331039E+03  0.53756331040E+03  0.25500000920E-02 0.  1.
        2   -1    0    0  501    0  0.00000000000E+00  0.00000000000E+00 -0.11716556710E+03  0.11716556713E+03  0.25500000920E-02 0. -1.
    10030    2    1    2    0    0  0.00000000000E+00  0.00000000000E+00  0.42039774330E+03  0.65472887753E+03  0.50193190823E+03 0.  0.
        5    1    3    3  502    0 -0.29834943600E+02  0.19967102347E+03  0.15831094466E+02  0.20256197823E+03  0.46999998093E+01 0. -1.
       -5    1    3    3    0  502  0.29834943600E+02 -0.19967102347E+03  0.40456664883E+03  0.45216689930E+03  0.46999998093E+01 0.  1.
</event>
<event>
 5   0  0.7781754E-02  0.5292831E+03  0.7818609E-02  0.1006406E+00
       -1   -1    0    0    0  501  0.00000000000E+00  0.00000000000E+00  0.13736428004E+03  0.13736428014E+03  0.50400001928E-02 0. -1.
        1   -1    0    0  501    0  0.00000000000E+00  0.00000000000E+00 -0.50984976635E+03  0.50984976637E+03  0.50400001928E-02 0.  1.
    10030    2    1    2    0    0  0.00000000000E+00  0.00000000000E+00 -0.37248548631E+03  0.64721404651E+03  0.52928308540E+03 0.  0.
        2    1    3    3  502    0  0.11461729715E+03  0.17443522414E+03  0.12705430573E+02  0.20910810649E+03  0.25500000920E-02 0. -1.
       -2    1    3    3    0  502 -0.11461729715E+03 -0.17443522414E+03 -0.38519091688E+03  0.43810594002E+03  0.25500000920E-02 0.  1.
</event>
<event>
 5   0  0.1211345E-01  0.4923878E+03  0.7818609E-02  0.1015785E+00
       -2   -1    0    0    0  501  0.00000000000E+00  0.00000000000E+00  0.35099633838E+03  0.35099633839E+03  0.25500000920E-02 0.  1.
        2   -1    0    0  501    0  0.00000000000E+00  0.00000000000E+00 -0.17268396568E+03  0.17268396570E+03  0.25500000920E-02 0. -1.
    10030    2    1    2    0    0  0.00000000000E+00  0.00000000000E+00  0.17831237270E+03  0.52368030409E+03  0.49238781325E+03 0.  0.
        5    1    3    3  502    0 -0.15119463965E+03 -0.16550999752E+03 -0.18970922935E+02  0.22502303050E+03  0.46999998093E+01 0.  1.
       -5    1    3    3    0  502  0.15119463965E+03  0.16550999752E+03  0.19728329563E+03  0.29865727360E+03  0.46999998093E+01 0. -1.
</event>
<event>
 5   0  0.7812547E-02  0.4906284E+03  0.7818609E-02  0.1016254E+00
       -1   -1    0    0    0  501  0.00000000000E+00  0.00000000000E+00  0.14983302198E+03  0.14983302207E+03  0.50400001928E-02 0. -1.
        1   -1    0    0  501    0  0.00000000000E+00  0.00000000000E+00 -0.40164073827E+03  0.40164073830E+03  0.50400001928E-02 0.  1.
    10030    2    1    2    0    0  0.00000000000E+00  0.00000000000E+00 -0.25180771629E+03  0.55147376037E+03  0.49062835466E+03 0.  0.
        4    1    3    3  502    0 -0.18524063241E+02 -0.32622507978E+02 -0.39839368345E+03  0.40015810482E+03  0.12699999809E+01 0.  1.
       -4    1    3    3    0  502  0.18524063241E+02  0.32622507978E+02  0.14658596716E+03  0.15131565555E+03  0.12699999809E+01 0. -1.
</event>
<event>
 5   0  0.7602288E-02  0.4930580E+03  0.7818609E-02  0.1015607E+00
        1   -1    0    0  501    0  0.00000000000E+00  0.00000000000E+00  0.71508634685E+03  0.71508634687E+03  0.50400001928E-02 0.  1.
       -1   -1    0    0    0  501  0.00000000000E+00  0.00000000000E+00 -0.84991899336E+02  0.84991899486E+02  0.50400001928E-02 0. -1.
    10030    2    1    2    0    0  0.00000000000E+00  0.00000000000E+00  0.63009444751E+03  0.80007824635E+03  0.49305799608E+03 0.  0.
        5    1    3    3  502    0  0.27810768648E+02  0.18021708960E+03  0.58415302403E+03  0.61197098274E+03  0.46999998093E+01 0.  1.
       -5    1    3    3    0  502 -0.27810768648E+02 -0.18021708960E+03  0.45941423489E+02  0.18810726362E+03  0.46999998093E+01 0. -1.
</event>
<event>
 5   0  0.7531632E-02  0.5022671E+03  0.7818609E-02  0.1013189E+00
        1   -1    0    0  501    0  0.00000000000E+00  0.00000000000E+00  0.47993386076E+02  0.47993386341E+02  0.50400001928E-02 0. -1.
       -1   -1    0    0    0  501  0.00000000000E+00  0.00000000000E+00 -0.13140989572E+04  0.13140989572E+04  0.50400001928E-02 0.  1.
    10030    2    1    2    0    0  0.00000000000E+00  0.00000000000E+00 -0.12661055711E+04  0.13620923436E+04  0.50226709541E+03 0.  0.
        3    1    3    3  502    0  0.24281719721E+03 -0.59353876824E+02 -0.69864319439E+03  0.74201441848E+03  0.10100000352E+00 0.  1.
       -3    1    3    3    0  502 -0.24281719721E+03  0.59353876824E+02 -0.56746237675E+03  0.62007792509E+03  0.10100000352E+00 0. -1.
</event>
<event>
 5   0  0.7416638E-02  0.4909288E+03  0.7818609E-02  0.1016174E+00
        1   -1    0    0  501    0  0.00000000000E+00  0.00000000000E+00  0.35354008268E+03  0.35354008271E+03  0.50400001928E-02 0.  1.
       -1   -1    0    0    0  501  0.00000000000E+00  0.00000000000E+00 -0.17042700362E+03  0.17042700369E+03  0.50400001928E-02 0. -1.
    10030    2    1    2    0    0  0.00000000000E+00  0.00000000000E+00  0.18311307906E+03  0.52396708640E+03  0.49092882164E+03 0.  0.
        1    1    3    3  502    0  0.19713580573E+03 -0.14190330816E+02  0.24691665498E+03  0.31627792512E+03  0.50400001928E-02 0.  1.
       -1    1    3    3    0  502 -0.19713580573E+03  0.14190330816E+02 -0.63803575924E+02  0.20768916128E+03  0.50400001928E-02 0. -1.
</event>
<event>
 5   0  0.1243803E-01  0.5091744E+03  0.7818609E-02  0.1011412E+00
       -2   -1    0    0    0  501  0.00000000000E+00  0.00000000000E+00  0.19651750235E+03  0.19651750237E+03  0.25500000920E-02 0. -1.
        2   -1    0    0  501    0  0.00000000000E+00  0.00000000000E+00 -0.32981618707E+03  0.32981618708E+03  0.25500000920E-02 0.  1.
    10030    2    1    2    0    0  0.00000000000E+00  0.00000000000E+00 -0.13329868472E+03  0.52633368945E+03  0.50917444290E+03 0.  0.
        4    1    3    3  502    0  0.27920274385E+02 -0.17505324478E+03  0.12223757222E+03  0.21532955485E+03  0.12699999809E+01 0. -1.
       -4    1    3    3    0  502 -0.27920274385E+02  0.17505324478E+03 -0.25553625694E+03  0.31100413460E+03  0.12699999809E+01 0.  1.
</event>
<event>
 5   0  0.1279188E-01  0.4838457E+03  0.7818609E-02  0.1018084E+00
        2   -1    0    0  501    0  0.00000000000E+00  0.00000000000E+00  0.54222549741E+03  0.54222549741E+03  0.25500000920E-02 0.  1.
       -2   -1    0    0    0  501  0.00000000000E+00  0.00000000000E+00 -0.10793787314E+03  0.10793787317E+03  0.25500000920E-02 0. -1.
    10030    2    1    2    0    0  0.00000000000E+00  0.00000000000E+00  0.43428762427E+03  0.65016337058E+03  0.48384570666E+03 0.  0.
        2    1    3    3  502    0  0.65386855609E+02  0.19443079510E+03  0.38947771718E+03  0.44019503309E+03  0.25500000920E-02 0.  1.
       -2    1    3    3    0  502 -0.65386855609E+02 -0.19443079510E+03  0.44809907086E+02  0.20996833749E+03  0.25500000920E-02 0. -1.
</event>
<event>
 5   0  0.7531632E-02  0.5220977E+03  0.7818609E-02  0.1008167E+00
        1   -1    0    0  501    0  0.00000000000E+00  0.00000000000E+00  0.13058526181E+04  0.13058526181E+04  0.50400001928E-02 0. -1.
       -1   -1    0    0    0  501  0.00000000000E+00  0.00000000000E+00 -0.52185448520E+02  0.52185448763E+02  0.50400001928E-02 0.  1.
    10030    2    1    2    0    0  0.00000000000E+00  0.00000000000E+00  0.12536671695E+04  0.13580380668E+04  0.52209771019E+03 0.  0.
        3    1    3    3  502    0 -0.13335166018E+03 -0.16914859257E+03  0.10104662434E+04  0.10331679200E+04  0.10100000352E+00 0.  1.
       -3    1    3    3    0  502  0.13335166018E+03  0.16914859257E+03  0.24320092618E+03  0.32487014689E+03  0.10100000352E+00 0. -1.
</event>
<event>
 5   0  0.1191894E-01  0.5015772E+03  0.7818609E-02  0.1013368E+00
        2   -1    0    0  501    0  0.00000000000E+00  0.00000000000E+00  0.66784387041E+03  0.66784387041E+03  0.25500000920E-02 0. -1.
       -2   -1    0    0    0  501  0.00000000000E+00  0.00000000000E+00 -0.94176093562E+02  0.94176093597E+02  0.25500000920E-02 0.  1.
    10030    2    1    2    0    0  0.00000000000E+00  0.00000000000E+00  0.57366777684E+03  0.76201996401E+03  0.50157721974E+03 0.  0.
        3    1    3    3  502    0  0.22835705086E+03  0.24834397062E+02  0.13391555297E+03  0.26588921657E+03  0.10100000352E+00 0.  1.
       -3    1    3    3    0  502 -0.22835705086E+03 -0.24834397062E+02  0.43975222387E+03  0.49613074744E+03  0.10100000352E+00 0. -1.
</event>
<event>
 5   0  0.7416638E-02  0.4959581E+03  0.7818609E-02  0.1014839E+00
        1   -1    0    0  501    0  0.00000000000E+00  0.00000000000E+00  0.13987003593E+03  0.13987003602E+03  0.50400001928E-02 0.  1.
       -1   -1    0    0    0  501  0.00000000000E+00  0.00000000000E+00 -0.43964826877E+03  0.43964826880E+03  0.50400001928E-02 0. -1.
    10030    2    1    2    0    0  0.00000000000E+00  0.00000000000E+00 -0.29977823284E+03  0.57951830482E+03  0.49595814010E+03 0.  0.
        1    1    3    3  502    0  0.17597468679E+03  0.39002460661E+02 -0.34889278938E+03  0.39270149075E+03  0.50400001928E-02 0. -1.
       -1    1    3    3    0  502 -0.17597468679E+03 -0.39002460661E+02  0.49114556541E+02  0.18681681407E+03  0.50400001928E-02 0.  1.
</event>
<event>
 5   0  0.7812547E-02  0.5138242E+03  0.7818609E-02  0.1010232E+00
        1   -1    0    0  501    0  0.00000000000E+00  0.00000000000E+00  0.14877628951E+03  0.14877628960E+03  0.50400001928E-02 0. -1.
       -1   -1    0    0    0  501  0.00000000000E+00  0.00000000000E+00 -0.44364487179E+03  0.44364487181E+03  0.50400001928E-02 0.  1.
    10030    2    1    2    0    0  0.00000000000E+00  0.00000000000E+00 -0.29486858228E+03  0.59242116141E+03  0.51382424201E+03 0.  0.
        4    1    3    3  502    0  0.69163644190E+02 -0.19062329904E+03 -0.32930097403E+03  0.38673194361E+03  0.12699999809E+01 0.  1.
       -4    1    3    3    0  502 -0.69163644190E+02  0.19062329904E+03  0.34432391751E+02  0.20568921780E+03  0.12699999809E+01 0. -1.
</event>
<event>
 5   0  0.7602288E-02  0.4986216E+03  0.7818609E-02  0.1014139E+00
       -1   -1    0    0    0  501  0.00000000000E+00  0.00000000000E+00  0.56889847425E+02  0.56889847648E+02  0.50400001928E-02 0.  1.
        1   -1    0    0  501    0  0.00000000000E+00  0.00000000000E+00 -0.10925654383E+04  0.10925654383E+04  0.50400001928E-02 0. -1.
    10030    2    1    2    0    0  0.00000000000E+00  0.00000000000E+00 -0.10356755909E+04  0.11494552859E+04  0.49862162496E+03 0.  0.
        5    1    3    3  502    0 -0.23168326522E+03 -0.89019111215E+02 -0.46465388006E+03  0.52680817742E+03  0.46999998093E+01 0. -1.
       -5    1    3    3    0  502  0.23168326522E+03  0.89019111215E+02 -0.57102171080E+03  0.62264710852E+03  0.46999998093E+01 0.  1.
</event>
<event>
 5   0  0.1191894E-01  0.5041535E+03  0.7818609E-02  0.1012700E+00
        2   -1    0    0  501    0  0.00000000000E+00  0.00000000000E+00  0.82939449756E+03  0.82939449756E+03  0.25500000920E-02 0. -1.
       -2   -1    0    0    0  501  0.00000000000E+00  0.00000000000E+00 -0.76613356141E+02  0.76613356184E+02  0.25500000920E-02 0.  1.
    10030    2    1    2    0    0  0.00000000000E+00  0.00000000000E+00  0.75278114142E+03  0.90600785374E+03  0.50415353234E+03 0.  0.
        3    1    3    3  502    0 -0.63298171181E+02 -0.15397793293E+03  0.36238358093E+02  0.17037925667E+03  0.10100000352E+00 0.  1.
       -3    1    3    3    0  502  0.63298171181E+02  0.15397793293E+03  0.71654278332E+03  0.73562859708E+03  0.10100000352E+00 0. -1.
</event>
<event>
 5   0  0.7812547E-02  0.5022506E+03  0.7818609E-02  0.1013193E+00
        1   -1    0    0  501    0  0.00000000000E+00  0.00000000000E+00  0.68450447914E+03  0.68450447916E+03  0.50400001928E-02 0. -1.
       -1   -1    0    0    0  501  0.00000000000E+00  0.00000000000E+00 -0.92130756895E+02  0.92130757033E+02  0.50400001928E-02 0.  1.
    10030    2    1    2    0    0  0.00000000000E+00  0.00000000000E+00  0.59237372225E+03  0.77663523619E+03  0.50225059810E+03 0.  0.
        4    1    3    3  502    0  0.21567086665E+03  0.12861836485E+03  0.29249625423E+03  0.38550263052E+03  0.12699999809E+01 0. -1.
       -4    1    3    3    0  502 -0.21567086665E+03 -0.12861836485E+03  0.29987746802E+03  0.39113260568E+03  0.12699999809E+01 0.  1.
</event>
<event>
 5   0  0.1231822E-01  0.5169449E+03  0.7818609E-02  0.1009448E+00
        2   -1    0    0  501    0  0.00000000000E+00  0.00000000000E+00  0.46959854463E+03  0.46959854464E+03  0.25500000920E-02 0.  1.
       -2   -1    0    0    0  501  0.00000000000E+00  0.00000000000E+00 -0.14226619552E+03  0.14226619555E+03  0.25500000920E-02 0. -1.
    10030    2    1    2    0    0  0.00000000000E+00  0.00000000000E+00  0.32733234911E+03  0.61186474019E+03  0.51694486506E+03 0.  0.
        1    1    3    3  502    0 -0.20976512512E+03 -0.11168404471E+03  0.28398400174E+03  0.37029940161E+03  0.50400001928E-02 0. -1.
       -1    1    3    3    0  502  0.20976512512E+03  0.11168404471E+03  0.43348347366E+02  0.24156533858E+03  0.50400001928E-02 0.  1.
</event>
<event>
 5   0  0.7812547E-02  0.4990814E+03  0.7818609E-02  0.1014019E+00
        1   -1    0    0  501    0  0.00000000000E+00  0.00000000000E+00  0.26195486672E+03  0.26195486677E+03  0.50400001928E-02 0. -1.
       -1   -1    0    0    0  501  0.00000000000E+00  0.00000000000E+00 -0.23771484786E+03  0.23771484791E+03  0.50400001928E-02 0.  1.
    10030    2    1    2    0    0  0.00000000000E+00  0.00000000000E+00  0.24240018859E+02  0.49966971468E+03  0.49908140143E+03 0.  0.
        4    1    3    3  502    0 -0.84922163723E+02 -0.18016117291E+03 -0.13838725633E+03  0.24253343631E+03  0.12699999809E+01 0.  1.
       -4    1    3    3    0  502  0.84922163723E+02  0.18016117291E+03  0.16262727519E+03  0.25713627836E+03  0.12699999809E+01 0. -1.
</event>
<event>
 5   0  0.7602288E-02  0.5004662E+03  0.7818609E-02  0.1013657E+00
       -1   -1    0    0    0  501  0.00000000000E+00  0.00000000000E+00  0.37603334370E+03  0.37603334373E+03  0.50400001928E-02 0.  1.
        1   -1    0    0  501    0  0.00000000000E+00  0.00000000000E+00 -0.16651877412E+03  0.16651877419E+03  0.50400001928E-02 0. -1.
    10030    2    1    2    0    0  0.00000000000E+00  0.00000000000E+00  0.20951456958E+03  0.54255211793E+03  0.50046622843E+03 0.  0.
        5    1    3    3  502    0  0.31215492896E+02  0.14433212057E+03  0.32370215460E+03  0.35582487675E+03  0.46999998093E+01 0.  1.
       -5    1    3    3    0  502 -0.31215492896E+02 -0.14433212057E+03 -0.11418758502E+03  0.18672724117E+03  0.46999998093E+01 0. -1.
</event>
<event>
 5   0  0.5006750E-02  0.4999730E+03  0.7818609E-02  0.1013786E+00
        3   -1    0    0  501    0  0.00000000000E+00  0.00000000000E+00  0.68110027602E+03  0.68110028351E+03  0.10100000352E+00 0.  1.
       -3   -1    0    0    0  501  0.00000000000E+00  0.00000000000E+00 -0.91753354944E+02  0.91753410533E+02  0.10100000352E+00 0. -1.
    10030    2    1    2    0    0  0.00000000000E+00  0.00000000000E+00  0.58934692107E+03  0.77285369404E+03  0.49997303828E+03 0.  0.
        4    1    3    3  502    0  0.26442303617E+02  0.16510725677E+03  0.58192466100E+03  0.60547297680E+03  0.12699999809E+01 0.  1.
       -4    1    3    3    0  502 -0.26442303617E+02 -0.16510725677E+03  0.74222600769E+01  0.16738071724E+03  0.12699999809E+01 0. -1.
</event>
<event>
 5   0  0.5006750E-02  0.5210254E+03  0.7818609E-02  0.1008432E+00
        3   -1    0    0  501    0  0.00000000000E+00  0.00000000000E+00  0.17599901540E+03  0.17599904438E+03  0.10100000352E+00 0.  1.
       -3   -1    0    0    0  501  0.00000000000E+00  0.00000000000E+00 -0.38560927488E+03  0.38560928811E+03  0.10100000352E+00 0. -1.
    10030    2    1    2    0    0  0.00000000000E+00  0.00000000000E+00 -0.20961025948E+03  0.56160833249E+03  0.52102539117E+03 0.  0.
        3    1    3    3  502    0  0.17181086433E+03  0.92754574791E+02 -0.29070443754E+03  0.35018775600E+03  0.10100000352E+00 0. -1.
       -3    1    3    3    0  502 -0.17181086433E+03 -0.92754574791E+02  0.81094178066E+02  0.21142057649E+03  0.10100000352E+00 0.  1.
</event>
<event>
 5   0  0.5006750E-02  0.4881604E+03  0.7818609E-02  0.1016916E+00
       -4   -1    0    0    0  501  0.00000000000E+00  0.00000000000E+00  0.10190932709E+03  0.10191724019E+03  0.12699999809E+01 0.  1.
        4   -1    0    0  501    0  0.00000000000E+00  0.00000000000E+00 -0.58455840958E+03  0.58455978917E+03  0.12699999809E+01 0. -1.
    10030    2    1    2    0    0  0.00000000000E+00  0.00000000000E+00 -0.48264908249E+03  0.68647702936E+03  0.48816039885E+03 0.  0.
        5    1    3    3  502    0  0.59529853663E+02 -0.22743114268E+03 -0.33337049450E+03  0.40795429246E+03  0.46999998093E+01 0. -1.
       -5    1    3    3    0  502 -0.59529853663E+02  0.22743114268E+03 -0.14927858799E+03  0.27852273690E+03  0.46999998093E+01 0.  1.
</event>
<event>
 5   0  0.5006750E-02  0.5138393E+03  0.7818609E-02  0.1010228E+00
       -3   -1    0    0    0  501  0.00000000000E+00  0.00000000000E+00  0.44702185291E+02  0.44702299391E+02  0.10100000352E+00 0. -1.
        3   -1    0    0  501    0  0.00000000000E+00  0.00000000000E+00 -0.14766081545E+04  0.14766081579E+04  0.10100000352E+00 0.  1.
    10030    2    1    2    0    0  0.00000000000E+00  0.00000000000E+00 -0.14319059692E+04  0.15213104573E+04  0.51383927737E+03 0.  0.
        1    1    3    3  502    0 -0.25019876857E+02 -0.22076501840E+02 -0.14701658633E+04  0.14705444678E+04  0.50400001928E-02 0.  1.
       -1    1    3    3    0  502  0.25019876857E+02  0.22076501840E+02  0.38259894095E+02  0.50765989530E+02  0.50400001928E-02 0. -1.
</event>
<event>
 5   0  0.7781754E-02  0.5008699E+03  0.7818609E-02  0.1013552E+00
       -1   -1    0    0    0  501  0.00000000000E+00  0.00000000000E+00  0.12583446914E+03  0.12583446924E+03  0.50400001928E-02 0. -1.
        1   -1    0    0  501    0  0.00000000000E+00  0.00000000000E+00 -0.49841411442E+03  0.49841411445E+03  0.50400001928E-02 0.  1.
    10030    2    1    2    0    0  0.00000000000E+00  0.00000000000E+00 -0.37257964528E+03  0.62424858369E+03  0.50086994535E+03 0.  0.
        2    1    3    3  502    0 -0.61178430436E+01  0.24031414189E+03 -0.98785825110E+02  0.25989796853E+03  0.25500000920E-02 0.  1.
       -2    1    3    3    0  502  0.61178430436E+01 -0.24031414189E+03 -0.27379382017E+03  0.36435061516E+03  0.25500000920E-02 0. -1.
</event>
<event>
 5   0  0.5006750E-02  0.5018446E+03  0.7818609E-02  0.1013299E+00
        3   -1    0    0  501    0  0.00000000000E+00  0.00000000000E+00  0.16736590915E+03  0.16736593962E+03  0.10100000352E+00 0. -1.
       -3   -1    0    0    0  501  0.00000000000E+00  0.00000000000E+00 -0.37619366689E+03  0.37619368045E+03  0.10100000352E+00 0.  1.
    10030    2    1    2    0    0  0.00000000000E+00  0.00000000000E+00 -0.20882775774E+03  0.54355962007E+03  0.50184462553E+03 0.  0.
        4    1    3    3  502    0  0.38771494267E+02  0.10226671646E+03  0.14018665129E+03  0.17780781806E+03  0.12699999809E+01 0. -1.
       -4    1    3    3    0  502 -0.38771494267E+02 -0.10226671646E+03 -0.34901440903E+03  0.36575180201E+03  0.12699999809E+01 0.  1.
</event>
<event>
 5   0  0.7602288E-02  0.5075257E+03  0.7818609E-02  0.1011833E+00
        1   -1    0    0  501    0  0.00000000000E+00  0.00000000000E+00  0.55127517786E+03  0.55127517788E+03  0.50400001928E-02 0.  1.
       -1   -1    0    0    0  501  0.00000000000E+00  0.00000000000E+00 -0.11681204414E+03  0.11681204425E+03  0.50400001928E-02 0. -1.
    10030    2    1    2    0    0  0.00000000000E+00  0.00000000000E+00  0.43446313372E+03  0.66808722214E+03  0.50752568587E+03 0.  0.
        5    1    3    3  502    0 -0.60535049887E+02 -0.22624185643E+03  0.88769122522E+02  0.25050332728E+03  0.46999998093E+01 0. -1.
       -5    1    3    3    0  502  0.60535049887E+02  0.22624185643E+03  0.34569401120E+03  0.41758389485E+03  0.46999998093E+01 0.  1.
</event>
<event>
 5   0  0.5006750E-02  0.4985414E+03  0.7818609E-02  0.1014160E+00
       -3   -1    0    0    0  501  0.00000000000E+00  0.00000000000E+00  0.31298241142E+03  0.31298242771E+03  0.10100000352E+00 0.  1.
        3   -1    0    0  501    0  0.00000000000E+00  0.00000000000E+00 -0.19852829595E+03  0.19852832165E+03  0.10100000352E+00 0. -1.
    10030    2    1    2    0    0  0.00000000000E+00  0.00000000000E+00  0.11445411546E+03  0.51151074936E+03  0.49854137457E+03 0.  0.
        5    1    3    3  502    0 -0.51548095143E+01 -0.52654760081E+02 -0.19265477898E+03  0.19984256224E+03  0.46999998093E+01 0. -1.
       -5    1    3    3    0  502  0.51548095143E+01  0.52654760081E+02  0.30710889444E+03  0.31166818712E+03  0.46999998093E+01 0.  1.
</event>
<event>
 5   0  0.1279188E-01  0.4989079E+03  0.7818609E-02  0.1014064E+00
        2   -1    0    0  501    0  0.00000000000E+00  0.00000000000E+00  0.53086027597E+03  0.53086027598E+03  0.25500000920E-02 0.  1.
       -2   -1    0    0    0  501  0.00000000000E+00  0.00000000000E+00 -0.11721967063E+03  0.11721967066E+03  0.25500000920E-02 0. -1.
    10030    2    1    2    0    0  0.00000000000E+00  0.00000000000E+00  0.41364060534E+03  0.64807994663E+03  0.49890787410E+03 0.  0.
        2    1    3    3  502    0  0.15905926236E+03 -0.15908213818E+03  0.34684889676E+03  0.41341399688E+03  0.25500000920E-02 0.  1.
       -2    1    3    3    0  502 -0.15905926236E+03  0.15908213818E+03  0.66791708584E+02  0.23466594975E+03  0.25500000920E-02 0. -1.
</event>
<event>
 5   0  0.7812547E-02  0.4707045E+03  0.7818609E-02  0.1021722E+00
        1   -1    0    0  501    0  0.00000000000E+00  0.00000000000E+00  0.86974782337E+02  0.86974782483E+02  0.50400001928E-02 0. -1.
       -1   -1    0    0    0  501  0.00000000000E+00  0.00000000000E+00 -0.63685914802E+03  0.63685914804E+03  0.50400001928E-02 0.  1.
    10030    2    1    2    0    0  0.00000000000E+00  0.00000000000E+00 -0.54988436568E+03  0.72383393052E+03  0.47070451809E+03 0.  0.
        4    1    3    3  502    0 -0.10933861155E+03 -0.24640272372E+02  0.43293875481E+02  0.12015842689E+03  0.12699999809E+01 0. -1.
       -4    1    3    3    0  502  0.10933861155E+03  0.24640272372E+02 -0.59317824116E+03  0.60367550363E+03  0.12699999809E+01 0.  1.
</event>
<event>
 5   0  0.7416638E-02  0.4991737E+03  0.7818609E-02  0.1013995E+00
       -1   -1    0    0    0  501  0.00000000000E+00  0.00000000000E+00  0.19318172052E+03  0.19318172058E+03  0.50400001928E-02 0.  1.
        1   -1    0    0  501    0  0.00000000000E+00  0.00000000000E+00 -0.32246116581E+03  0.32246116585E+03  0.50400001928E-02 0. -1.
    10030    2    1    2    0    0  0.00000000000E+00  0.00000000000E+00 -0.12927944529E+03  0.51564288643E+03  0.49917372863E+03 0.  0.
        1    1    3    3  502    0  0.84082579750E+02  0.57696735892E+02  0.17068051069E+03  0.19882311311E+03  0.50400001928E-02 0.  1.
       -1    1    3    3    0  502 -0.84082579750E+02 -0.57696735892E+02 -0.29995995599E+03  0.31681977333E+03  0.50400001928E-02 0. -1.
</event>
<event>
 5   0  0.7416638E-02  0.4943217E+03  0.7818609E-02  0.1015272E+00
        1   -1    0    0  501    0  0.00000000000E+00  0.00000000000E+00  0.17582587319E+03  0.17582587326E+03  0.50400001928E-02 0.  1.
       -1   -1    0    0    0  501  0.00000000000E+00  0.00000000000E+00 -0.34743745767E+03  0.34743745771E+03  0.50400001928E-02 0. -1.
    10030    2    1    2    0    0  0.00000000000E+00  0.00000000000E+00 -0.17161158448E+03  0.52326333097E+03  0.49432173491E+03 0.  0.
        1    1    3    3  502    0 -0.13416376652E+03  0.38197457276E+02 -0.30178471035E+03  0.33246499578E+03  0.50400001928E-02 0. -1.
       -1    1    3    3    0  502  0.13416376652E+03 -0.38197457276E+02  0.13017312587E+03  0.19079833519E+03  0.50400001928E-02 0.  1.
</event>
<event>
 5   0  0.5006750E-02  0.4972440E+03  0.7818609E-02  0.1014501E+00
       -3   -1    0    0    0  501  0.00000000000E+00  0.00000000000E+00  0.75165843391E+02  0.75165911248E+02  0.10100000352E+00 0.  1.
        3   -1    0    0  501    0  0.00000000000E+00  0.00000000000E+00 -0.82235305263E+03  0.82235305883E+03  0.10100000352E+00 0. -1.
    10030    2    1    2    0    0  0.00000000000E+00  0.00000000000E+00 -0.74718720923E+03  0.89751897008E+03  0.49724398036E+03 0.  0.
        2    1    3    3  502    0  0.23327620131E+02  0.20859854816E+03 -0.61410677663E+03  0.64898741533E+03  0.25500000920E-02 0. -1.
       -2    1    3    3    0  502 -0.23327620131E+02 -0.20859854816E+03 -0.13308043261E+03  0.24853155474E+03  0.25500000920E-02 0.  1.
</event>
<event>
 5   0  0.1243803E-01  0.4974197E+03  0.7818609E-02  0.1014455E+00
        2   -1    0    0  501    0  0.00000000000E+00  0.00000000000E+00  0.41788567347E+03  0.41788567348E+03  0.25500000920E-02 0. -1.
       -2   -1    0    0    0  501  0.00000000000E+00  0.00000000000E+00 -0.14802275681E+03  0.14802275683E+03  0.25500000920E-02 0.  1.
    10030    2    1    2    0    0  0.00000000000E+00  0.00000000000E+00  0.26986291666E+03  0.56590843030E+03  0.49741969975E+03 0.  0.
        4    1    3    3  502    0  0.11256069446E+03  0.92828037170E+02 -0.94216029137E+02  0.17368139644E+03  0.12699999809E+01 0.  1.
       -4    1    3    3    0  502 -0.11256069446E+03 -0.92828037170E+02  0.36407894580E+03  0.39222703387E+03  0.12699999809E+01 0. -1.
</event>
<event>
 5   0  0.7416638E-02  0.4997641E+03  0.7818609E-02  0.1013841E+00
        1   -1    0    0  501    0  0.00000000000E+00  0.00000000000E+00  0.53348223200E+03  0.53348223203E+03  0.50400001928E-02 0. -1.
       -1   -1    0    0    0  501  0.00000000000E+00  0.00000000000E+00 -0.11704426044E+03  0.11704426055E+03  0.50400001928E-02 0.  1.
    10030    2    1    2    0    0  0.00000000000E+00  0.00000000000E+00  0.41643797156E+03  0.65052649258E+03  0.49976407773E+03 0.  0.
        1    1    3    3  502    0 -0.19664404612E+02  0.23734151518E+03  0.10974418928E+03  0.26222408498E+03  0.50400001928E-02 0.  1.
       -1    1    3    3    0  502  0.19664404612E+02 -0.23734151518E+03  0.30669378228E+03  0.38830240760E+03  0.50400001928E-02 0. -1.
</event>
<event>
 5   0  0.1243803E-01  0.4994041E+03  0.7818609E-02  0.1013935E+00
       -2   -1    0    0    0  501  0.00000000000E+00  0.00000000000E+00  0.93546433557E+02  0.93546433592E+02  0.25500000920E-02 0.  1.
        2   -1    0    0  501    0  0.00000000000E+00  0.00000000000E+00 -0.66652576138E+03  0.66652576138E+03  0.25500000920E-02 0. -1.
    10030    2    1    2    0    0  0.00000000000E+00  0.00000000000E+00 -0.57297932782E+03  0.76007219497E+03  0.49940407634E+03 0.  0.
        4    1    3    3  502    0  0.27151405098E+02 -0.63182477463E+02 -0.65182393120E+03  0.65544280791E+03  0.12699999809E+01 0. -1.
       -4    1    3    3    0  502 -0.27151405098E+02  0.63182477463E+02  0.78844603374E+02  0.10462938707E+03  0.12699999809E+01 0.  1.
</event>
<event>
 5   0  0.1191894E-01  0.4990225E+03  0.7818609E-02  0.1014034E+00
        2   -1    0    0  501    0  0.00000000000E+00  0.00000000000E+00  0.10458404051E+04  0.10458404051E+04  0.25500000920E-02 0. -1.
       -2   -1    0    0    0  501  0.00000000000E+00  0.00000000000E+00 -0.59527120818E+02  0.59527120873E+02  0.25500000920E-02 0.  1.
    10030    2    1    2    0    0  0.00000000000E+00  0.00000000000E+00  0.98631328427E+03  0.11053675260E+04  0.49902251726E+03 0.  0.
        3    1    3    3  502    0 -0.14445602567E+02  0.18534082001E+02 -0.57070560945E+02  0.61719095560E+02  0.10100000352E+00 0.  1.
       -3    1    3    3    0  502  0.14445602567E+02 -0.18534082001E+02  0.10433838452E+04  0.10436484304E+04  0.10100000352E+00 0. -1.
</event>
<event>
 5   0  0.1231822E-01  0.4974029E+03  0.7818609E-02  0.1014459E+00
       -2   -1    0    0    0  501  0.00000000000E+00  0.00000000000E+00  0.24745798570E+03  0.24745798572E+03  0.25500000920E-02 0. -1.
        2   -1    0    0  501    0  0.00000000000E+00  0.00000000000E+00 -0.24995120474E+03  0.24995120475E+03  0.25500000920E-02 0.  1.
    10030    2    1    2    0    0  0.00000000000E+00  0.00000000000E+00 -0.24932190388E+01  0.49740919047E+03  0.49740294191E+03 0.  0.
        1    1    3    3  502    0 -0.19556402314E+03 -0.11999813629E+03 -0.97203960003E+02  0.24918557286E+03  0.50400001928E-02 0.  1.
       -1    1    3    3    0  502  0.19556402314E+03  0.11999813629E+03  0.94710740964E+02  0.24822361761E+03  0.50400001928E-02 0. -1.
</event>
<event>
 5   0  0.1243803E-01  0.4996978E+03  0.7818609E-02  0.1013858E+00
        2   -1    0    0  501    0  0.00000000000E+00  0.00000000000E+00  0.12797819447E+04  0.12797819447E+04  0.25500000920E-02 0. -1.
       -2   -1    0    0    0  501  0.00000000000E+00  0.00000000000E+00 -0.48777434434E+02  0.48777434501E+02  0.25500000920E-02 0.  1.
    10030    2    1    2    0    0  0.00000000000E+00  0.00000000000E+00  0.12310045103E+04  0.13285593792E+04  0.49969782847E+03 0.  0.
        4    1    3    3  502    0  0.30077150150E+02 -0.12572854416E+03  0.47065955641E+02  0.13758313435E+03  0.12699999809E+01 0.  1.
       -4    1    3    3    0  502 -0.30077150150E+02  0.12572854416E+03  0.11839385546E+04  0.11909762449E+04  0.12699999809E+01 0. -1.
</event>
<event>
 5   0  0.7416638E-02  0.5042293E+03  0.7818609E-02  0.1012681E+00
       -1   -1    0    0    0  501  0.00000000000E+00  0.00000000000E+00  0.23403602190E+03  0.23403602195E+03  0.50400001928E-02 0. -1.
        1   -1    0    0  501    0  0.00000000000E+00  0.00000000000E+00 -0.27158985116E+03  0.27158985121E+03  0.50400001928E-02 0.  1.
    10030    2    1    2    0    0  0.00000000000E+00  0.00000000000E+00 -0.37553829263E+02  0.50562587316E+03  0.50422934615E+03 0.  0.
        1    1    3    3  502    0 -0.23651775326E+03  0.56869091077E+02 -0.85195300306E+02  0.25774596087E+03  0.50400001928E-02 0.  1.
       -1    1    3    3    0  502  0.23651775326E+03 -0.56869091077E+02  0.47641471043E+02  0.24787991229E+03  0.50400001928E-02 0. -1.
</event>
<event>
 5   0  0.1191894E-01  0.4951370E+03  0.7818609E-02  0.1015056E+00
       -2   -1    0    0    0  501  0.00000000000E+00  0.00000000000E+00  0.37664649398E+03  0.37664649399E+03  0.25500000920E-02 0.  1.
        2   -1    0    0  501    0  0.00000000000E+00  0.00000000000E+00 -0.16272595378E+03  0.16272595380E+03  0.25500000920E-02 0. -1.
    10030    2    1    2    0    0  0.00000000000E+00  0.00000000000E+00  0.21392054021E+03  0.53937244779E+03  0.49513699105E+03 0.  0.
        3    1    3    3  502    0  0.52711846602E+01  0.68519311586E+02  0.36604794651E+03  0.37244300342E+03  0.10100000352E+00 0.  1.
       -3    1    3    3    0  502 -0.52711846602E+01 -0.68519311586E+02 -0.15212740630E+03  0.16692944437E+03  0.10100000352E+00 0. -1.
</event>
<event>
 5   0  0.7416638E-02  0.4999324E+03  0.7818609E-02  0.1013797E+00
       -1   -1    0    0    0  501  0.00000000000E+00  0.00000000000E+00  0.19209120236E+03  0.19209120243E+03  0.50400001928E-02 0.  1.
        1   -1    0    0  501    0  0.00000000000E+00  0.00000000000E+00 -0.32527826479E+03  0.32527826483E+03  0.50400001928E-02 0. -1.
    10030    2    1    2    0    0  0.00000000000E+00  0.00000000000E+00 -0.13318706243E+03  0.51736946726E+03  0.49993236748E+03 0.  0.
        1    1    3    3  502    0 -0.32192144751E+02  0.24785619892E+03 -0.62712602525E+02  0.25768566135E+03  0.50400001928E-02 0. -1.
       -1    1    3    3    0  502  0.32192144751E+02 -0.24785619892E+03 -0.70474459903E+02  0.25968380591E+03  0.50400001928E-02 0.  1.
</event>
<event>
 5   0  0.1243803E-01  0.5040645E+03  0.7818609E-02  0.1012723E+00
       -2   -1    0    0    0  501  0.00000000000E+00  0.00000000000E+00  0.39802682979E+02  0.39802683060E+02  0.25500000920E-02 0.  1.
        2   -1    0    0  501    0  0.00000000000E+00  0.00000000000E+00 -0.15958787842E+04  0.15958787842E+04  0.25500000920E-02 0. -1.
    10030    2    1    2    0    0  0.00000000000E+00  0.00000000000E+00 -0.15560761012E+04  0.16356814673E+04  0.50406450932E+03 0.  0.
        4    1    3    3  502    0 -0.53756506373E+02  0.55039952733E+02 -0.15568308316E+04  0.15587312178E+04  0.12699999809E+01 0. -1.
       -4    1    3    3    0  502  0.53756506373E+02 -0.55039952733E+02  0.75473033217E+00  0.76950249461E+02  0.12699999809E+01 0.  1.
</event>
<event>
 5   0  0.1279188E-01  0.5039126E+03  0.7818609E-02  0.1012763E+00
       -2   -1    0    0    0  501  0.00000000000E+00  0.00000000000E+00  0.21598755559E+03  0.21598755561E+03  0.25500000920E-02 0.  1.
        2   -1    0    0  501    0  0.00000000000E+00  0.00000000000E+00 -0.29391497684E+03  0.29391497685E+03  0.25500000920E-02 0. -1.
    10030    2    1    2    0    0  0.00000000000E+00  0.00000000000E+00 -0.77927421242E+02  0.50990253246E+03  0.50391260118E+03 0.  0.
        2    1    3    3  502    0  0.30415242877E+02 -0.81980488331E+02  0.20014172505E+03  0.21840924335E+03  0.25500000920E-02 0.  1.
       -2    1    3    3    0  502 -0.30415242877E+02  0.81980488331E+02 -0.27806914630E+03  0.29149328911E+03  0.25500000920E-02 0. -1.
</event>
<event>
 5   0  0.1231822E-01  0.4958932E+03  0.7818609E-02  0.1014856E+00
        2   -1    0    0  501    0  0.00000000000E+00  0.00000000000E+00  0.50863702353E+03  0.50863702354E+03  0.25500000920E-02 0. -1.
       -2   -1    0    0    0  501  0.00000000000E+00  0.00000000000E+00 -0.12086716980E+03  0.12086716983E+03  0.25500000920E-02 0.  1.
    10030    2    1    2    0    0  0.00000000000E+00  0.00000000000E+00  0.38776985373E+03  0.62950419337E+03  0.49589320424E+03 0.  0.
        1    1    3    3  502    0 -0.19680054659E+03  0.44641802763E+02  0.11006206463E+02  0.20210017886E+03  0.50400001928E-02 0.  1.
       -1    1    3    3    0  502  0.19680054659E+03 -0.44641802763E+02  0.37676364727E+03  0.42740401451E+03  0.50400001928E-02 0. -1.
</event>
<event>
 5   0  0.1191894E-01  0.5035447E+03  0.7818609E-02  0.1012858E+00
       -2   -1    0    0    0  501  0.00000000000E+00  0.00000000000E+00  0.24151182164E+03  0.24151182166E+03  0.25500000920E-02 0. -1.
        2   -1    0    0  501    0  0.00000000000E+00  0.00000000000E+00 -0.26246874796E+03  0.26246874797E+03  0.25500000920E-02 0.  1.
    10030    2    1    2    0    0  0.00000000000E+00  0.00000000000E+00 -0.20956926314E+02  0.50398056963E+03  0.50354465720E+03 0.  0.
        3    1    3    3  502    0  0.14680220008E+03 -0.39869650594E+02  0.19031629834E+03  0.24364067518E+03  0.10100000352E+00 0. -1.
       -3    1    3    3    0  502 -0.14680220008E+03  0.39869650594E+02 -0.21127322465E+03  0.26033989445E+03  0.10100000352E+00 0.  1.
</event>
<event>
 5   0  0.5006750E-02  0.5068280E+03  0.7818609E-02  0.1012012E+00
        3   -1    0    0  501    0  0.00000000000E+00  0.00000000000E+00  0.52841535894E+02  0.52841632419E+02  0.10100000352E+00 0. -1.
       -3   -1    0    0    0  501  0.00000000000E+00  0.00000000000E+00 -0.12153052390E+04  0.12153052431E+04  0.10100000352E+00 0.  1.
    10030    2    1    2    0    0  0.00000000000E+00  0.00000000000E+00 -0.11624637031E+04  0.12681468756E+04  0.50682801529E+03 0.  0.
        2    1    3    3  502    0 -0.88733733228E+02  0.13553007217E+03 -0.10688354347E+04  0.10810417487E+04  0.25500000920E-02 0.  1.
       -2    1    3    3    0  502  0.88733733228E+02 -0.13553007217E+03 -0.93628268367E+02  0.18710512691E+03  0.25500000920E-02 0. -1.
</event>
<event>
 5   0  0.1279188E-01  0.5178452E+03  0.7818609E-02  0.1009223E+00
       -2   -1    0    0    0  501  0.00000000000E+00  0.00000000000E+00  0.11183398501E+03  0.11183398504E+03  0.25500000920E-02 0.  1.
        2   -1    0    0  501    0  0.00000000000E+00  0.00000000000E+00 -0.59946819539E+03  0.59946819539E+03  0.25500000920E-02 0. -1.
    10030    2    1    2    0    0  0.00000000000E+00  0.00000000000E+00 -0.48763421038E+03  0.71130218043E+03  0.51784521698E+03 0.  0.
        2    1    3    3  502    0 -0.21445756950E+02 -0.82571218343E+02  0.91974884319E+02  0.12544841945E+03  0.25500000920E-02 0.  1.
       -2    1    3    3    0  502  0.21445756950E+02  0.82571218343E+02 -0.57960909470E+03  0.58585376098E+03  0.25500000920E-02 0. -1.
</event>
<event>
 5   0  0.7781754E-02  0.5073632E+03  0.7818609E-02  0.1011875E+00
        1   -1    0    0  501    0  0.00000000000E+00  0.00000000000E+00  0.68591820177E+03  0.68591820179E+03  0.50400001928E-02 0. -1.
       -1   -1    0    0    0  501  0.00000000000E+00  0.00000000000E+00 -0.93822181728E+02  0.93822181864E+02  0.50400001928E-02 0.  1.
    10030    2    1    2    0    0  0.00000000000E+00  0.00000000000E+00  0.59209602004E+03  0.77974038365E+03  0.50736315293E+03 0.  0.
        2    1    3    3  502    0  0.19942391802E+03 -0.76688105216E+02  0.50622788318E+03  0.54947032156E+03  0.25500000920E-02 0. -1.
       -2    1    3    3    0  502 -0.19942391802E+03  0.76688105216E+02  0.85868136866E+02  0.23027006209E+03  0.25500000920E-02 0.  1.
</event>
<event>
 5   0  0.7781754E-02  0.5004030E+03  0.7818609E-02  0.1013674E+00
        1   -1    0    0  501    0  0.00000000000E+00  0.00000000000E+00  0.86703477516E+03  0.86703477517E+03  0.50400001928E-02 0. -1.
       -1   -1    0    0    0  501  0.00000000000E+00  0.00000000000E+00 -0.72201026310E+02  0.72201026486E+02  0.50400001928E-02 0.  1.
    10030    2    1    2    0    0  0.00000000000E+00  0.00000000000E+00  0.79483374885E+03  0.93923580166E+03  0.50040304037E+03 0.  0.
        2    1    3    3  502    0  0.79779834054E+02  0.19059038845E+03  0.13256422784E+03  0.24548481135E+03  0.25500000920E-02 0.  1.
       -2    1    3    3    0  502 -0.79779834054E+02 -0.19059038845E+03  0.66226952101E+03  0.69375099032E+03  0.25500000920E-02 0. -1.
</event>
<event>
 5   0  0.7812547E-02  0.5012076E+03  0.7818609E-02  0.1013464E+00
        1   -1    0    0  501    0  0.00000000000E+00  0.00000000000E+00  0.35679467348E+03  0.35679467351E+03  0.50400001928E-02 0. -1.
       -1   -1    0    0    0  501  0.00000000000E+00  0.00000000000E+00 -0.17601793147E+03  0.17601793155E+03  0.50400001928E-02 0.  1.
    10030    2    1    2    0    0  0.00000000000E+00  0.00000000000E+00  0.18077674200E+03  0.53281260506E+03  0.50120758340E+03 0.  0.
        4    1    3    3  502    0  0.13056173073E+03 -0.86701353257E+02  0.29826212366E+03  0.33693530165E+03  0.12699999809E+01 0. -1.
       -4    1    3    3    0  502 -0.13056173073E+03  0.86701353257E+02 -0.11748538166E+03  0.19587730341E+03  0.12699999809E+01 0.  1.
</event>
<event>
 5   0  0.7602288E-02  0.4973867E+03  0.7818609E-02  0.1014463E+00
        1   -1    0    0  501    0  0.00000000000E+00  0.00000000000E+00  0.59063806616E+03  0.59063806618E+03  0.50400001928E-02 0.  1.
       -1   -1    0    0    0  501  0.00000000000E+00  0.00000000000E+00 -0.10471451119E+03  0.10471451131E+03  0.50400001928E-02 0. -1.
    10030    2    1    2    0    0  0.00000000000E+00  0.00000000000E+00  0.48592355497E+03  0.69535257749E+03  0.49738667628E+03 0.  0.
        5    1    3    3  502    0 -0.21161028618E+03  0.13044126844E+03  0.23499817404E+03  0.34211119469E+03  0.46999998093E+01 0. -1.
       -5    1    3    3    0  502  0.21161028618E+03 -0.13044126844E+03  0.25092538093E+03  0.35324138280E+03  0.46999998093E+01 0.  1.
</event>
<event>
 5   0  0.7602288E-02  0.5028452E+03  0.7818609E-02  0.1013039E+00
        1   -1    0    0  501    0  0.00000000000E+00  0.00000000000E+00  0.19736513672E+03  0.19736513679E+03  0.50400001928E-02 0.  1.
       -1   -1    0    0    0  501  0.00000000000E+00  0.00000000000E+00 -0.32028616222E+03  0.32028616226E+03  0.50400001928E-02 0. -1.
    10030    2    1    2    0    0  0.00000000000E+00  0.00000000000E+00 -0.12292102549E+03  0.51765129904E+03  0.50284519377E+03 0.  0.
        5    1    3    3  502    0  0.20657510449E+03 -0.14236169486E+03 -0.45147589944E+02  0.25495199712E+03  0.46999998093E+01 0.  1.
       -5    1    3    3    0  502 -0.20657510449E+03  0.14236169486E+03 -0.77773435548E+02  0.26269930193E+03  0.46999998093E+01 0. -1.
</event>
<event>
 5   0  0.1191894E-01  0.4983238E+03  0.7818609E-02  0.1014217E+00
        2   -1    0    0  501    0  0.00000000000E+00  0.00000000000E+00  0.16821386759E+03  0.16821386761E+03  0.25500000920E-02 0.  1.
       -2   -1    0    0    0  501  0.00000000000E+00  0.00000000000E+00 -0.36906387124E+03  0.36906387125E+03  0.25500000920E-02 0. -1.
    10030    2    1    2    0    0  0.00000000000E+00  0.00000000000E+00 -0.20085000365E+03  0.53727773886E+03  0.49832383518E+03 0.  0.
        3    1    3    3  502    0 -0.24001806187E+03 -0.63258635418E+02 -0.77017887073E+02  0.25988861096E+03  0.10100000352E+00 0.  1.
       -3    1    3    3    0  502  0.24001806187E+03  0.63258635418E+02 -0.12383211657E+03  0.27738912789E+03  0.10100000352E+00 0. -1.
</event>
<event>
 5   0  0.1191894E-01  0.5020491E+03  0.7818609E-02  0.1013245E+00
        2   -1    0    0  501    0  0.00000000000E+00  0.00000000000E+00  0.65703998797E+03  0.65703998798E+03  0.25500000920E-02 0.  1.
       -2   -1    0    0    0  501  0.00000000000E+00  0.00000000000E+00 -0.95904842639E+02  0.95904842673E+02  0.25500000920E-02 0. -1.
    10030    2    1    2    0    0  0.00000000000E+00  0.00000000000E+00  0.56113514534E+03  0.75294483065E+03  0.50204906800E+03 0.  0.
        3    1    3    3  502    0  0.47759649504E+02 -0.18445789238E+02 -0.87991381934E+02  0.10180238090E+03  0.10100000352E+00 0. -1.
       -3    1    3    3    0  502 -0.47759649504E+02  0.18445789238E+02  0.64912652727E+03  0.65114244975E+03  0.10100000352E+00 0.  1.
</event>
<event>
 5   0  0.7602288E-02  0.5339768E+03  0.7818609E-02  0.1005272E+00
       -1   -1    0    0    0  501  0.00000000000E+00  0.00000000000E+00  0.69723083655E+03  0.69723083657E+03  0.50400001928E-02 0.  1.
        1   -1    0    0  501    0  0.00000000000E+00  0.00000000000E+00 -0.10223701755E+03  0.10223701767E+03  0.50400001928E-02 0. -1.
    10030    2    1    2    0    0  0.00000000000E+00  0.00000000000E+00  0.59499381900E+03  0.79946785424E+03  0.53397678349E+03 0.  0.
        5    1    3    3  502    0 -0.17979786079E+03  0.11180441347E+03  0.54091542783E+03  0.58089507458E+03  0.46999998093E+01 0.  1.
       -5    1    3    3    0  502  0.17979786079E+03 -0.11180441347E+03  0.54078391177E+02  0.21857277965E+03  0.46999998093E+01 0. -1.
</event>
<event>
 5   0  0.1231822E-01  0.5195235E+03  0.7818609E-02  0.1008805E+00
        2   -1    0    0  501    0  0.00000000000E+00  0.00000000000E+00  0.17655418819E+04  0.17655418819E+04  0.25500000920E-02 0.  1.
       -2   -1    0    0    0  501  0.00000000000E+00  0.00000000000E+00 -0.38218385354E+02  0.38218385439E+02  0.25500000920E-02 0. -1.
    10030    2    1    2    0    0  0.00000000000E+00  0.00000000000E+00  0.17273234965E+04  0.18037602673E+04  0.51952347427E+03 0.  0.
        1    1    3    3  502    0 -0.49377170257E+02 -0.24382159996E+03  0.11232254152E+04  0.11504444406E+04  0.50400001928E-02 0. -1.
       -1    1    3    3    0  502  0.49377170257E+02  0.24382159996E+03  0.60409808134E+03  0.65331582673E+03  0.50400001928E-02 0.  1.
</event>
<event>
 5   0  0.7781754E-02  0.5026214E+03  0.7818609E-02  0.1013097E+00
        1   -1    0    0  501    0  0.00000000000E+00  0.00000000000E+00  0.11416456750E+04  0.11416456750E+04  0.50400001928E-02 0.  1.
       -1   -1    0    0    0  501  0.00000000000E+00  0.00000000000E+00 -0.55321068673E+02  0.55321068903E+02  0.50400001928E-02 0. -1.
    10030    2    1    2    0    0  0.00000000000E+00  0.00000000000E+00  0.10863246064E+04  0.11969667439E+04  0.50262136418E+03 0.  0.
        2    1    3    3  502    0  0.12277539778E+03 -0.21805257159E+03  0.59831412672E+03  0.64853721290E+03  0.25500000920E-02 0.  1.
       -2    1    3    3    0  502 -0.12277539778E+03  0.21805257159E+03  0.48801047964E+03  0.54842953104E+03  0.25500000920E-02 0. -1.
</event>
<event>
 5   0  0.1191894E-01  0.4874564E+03  0.7818609E-02  0.1017106E+00
        2   -1    0    0  501    0  0.00000000000E+00  0.00000000000E+00  0.35348046094E+03  0.35348046095E+03  0.25500000920E-02 0.  1.
       -2   -1    0    0    0  501  0.00000000000E+00  0.00000000000E+00 -0.16805292143E+03  0.16805292144E+03  0.25500000920E-02 0. -1.
    10030    2    1    2    0    0  0.00000000000E+00  0.00000000000E+00  0.18542753952E+03  0.52153338240E+03  0.48745635347E+03 0.  0.
        3    1    3    3  502    0  0.14356255489E+03 -0.19618396199E+03  0.11140073971E+03  0.26741071242E+03  0.10100000352E+00 0. -1.
       -3    1    3    3    0  502 -0.14356255489E+03  0.19618396199E+03  0.74026799809E+02  0.25412266998E+03  0.10100000352E+00 0.  1.
</event>
<event>
 5   0  0.1243803E-01  0.4998249E+03  0.7818609E-02  0.1013825E+00
        2   -1    0    0  501    0  0.00000000000E+00  0.00000000000E+00  0.19096322572E+03  0.19096322574E+03  0.25500000920E-02 0.  1.
       -2   -1    0    0    0  501  0.00000000000E+00  0.00000000000E+00 -0.32705892328E+03  0.32705892329E+03  0.25500000920E-02 0. -1.
    10030    2    1    2    0    0  0.00000000000E+00  0.00000000000E+00 -0.13609569756E+03  0.51802214903E+03  0.49982487732E+03 0.  0.
        4    1    3    3  502    0 -0.43259807450E+02  0.73628641466E+00 -0.32314442742E+03  0.32603050000E+03  0.12699999809E+01 0. -1.
       -4    1    3    3    0  502  0.43259807450E+02 -0.73628641466E+00  0.18704872985E+03  0.19199164903E+03  0.12699999809E+01 0.  1.
</event>
<event>
 5   0  0.1211345E-01  0.4982460E+03  0.7818609E-02  0.1014238E+00
       -2   -1    0    0    0  501  0.00000000000E+00  0.00000000000E+00  0.49275725956E+02  0.49275726022E+02  0.25500000920E-02 0.  1.
        2   -1    0    0  501    0  0.00000000000E+00  0.00000000000E+00 -0.12594897615E+04  0.12594897615E+04  0.25500000920E-02 0. -1.
    10030    2    1    2    0    0  0.00000000000E+00  0.00000000000E+00 -0.12102140356E+04  0.13087654876E+04  0.49824601305E+03 0.  0.
        5    1    3    3  502    0  0.45229849158E+02 -0.14200776075E+02 -0.12474136092E+04  0.12483229564E+04  0.46999998093E+01 0. -1.
       -5    1    3    3    0  502 -0.45229849158E+02  0.14200776075E+02  0.37199573569E+02  0.60442531117E+02  0.46999998093E+01 0.  1.
</event>
<event>
 5   0  0.7416638E-02  0.4992730E+03  0.7818609E-02  0.1013969E+00
        1   -1    0    0  501    0  0.00000000000E+00  0.00000000000E+00  0.70337202386E+03  0.70337202388E+03  0.50400001928E-02 0. -1.
       -1   -1    0    0    0  501  0.00000000000E+00  0.00000000000E+00 -0.88599477716E+02  0.88599477860E+02  0.50400001928E-02 0.  1.
    10030    2    1    2    0    0  0.00000000000E+00  0.00000000000E+00  0.61477254614E+03  0.79197150174E+03  0.49927304761E+03 0.  0.
        1    1    3    3  502    0 -0.21498478485E+02 -0.33504607893E+02  0.69830468492E+03  0.69943847216E+03  0.50400001928E-02 0. -1.
       -1    1    3    3    0  502  0.21498478485E+02  0.33504607893E+02 -0.83532138782E+02  0.92533029574E+02  0.50400001928E-02 0.  1.
</event>
<event>
 5   0  0.5006750E-02  0.5027880E+03  0.7818609E-02  0.1013054E+00
       -3   -1    0    0    0  501  0.00000000000E+00  0.00000000000E+00  0.18635287487E+03  0.18635290224E+03  0.10100000352E+00 0. -1.
        3   -1    0    0  501    0  0.00000000000E+00  0.00000000000E+00 -0.33913576739E+03  0.33913578243E+03  0.10100000352E+00 0.  1.
    10030    2    1    2    0    0  0.00000000000E+00  0.00000000000E+00 -0.15278289252E+03  0.52548868468E+03  0.50278797268E+03 0.  0.
        1    1    3    3  502    0 -0.24146092687E+03 -0.42781210390E+02 -0.18526338705E+02  0.24592038634E+03  0.50400001928E-02 0.  1.
       -1    1    3    3    0  502  0.24146092687E+03  0.42781210390E+02 -0.13425655382E+03  0.27956829834E+03  0.50400001928E-02 0. -1.
</event>
<event>
 5   0  0.5006750E-02  0.4938076E+03  0.7818609E-02  0.1015408E+00
       -3   -1    0    0    0  501  0.00000000000E+00  0.00000000000E+00  0.38574811335E+03  0.38574812657E+03  0.10100000352E+00 0.  1.
        3   -1    0    0  501    0  0.00000000000E+00  0.00000000000E+00 -0.15803441123E+03  0.15803444351E+03  0.10100000352E+00 0. -1.
    10030    2    1    2    0    0  0.00000000000E+00  0.00000000000E+00  0.22771370212E+03  0.54378257008E+03  0.49380760767E+03 0.  0.
        5    1    3    3  502    0  0.11734401737E+03  0.78184392110E+02  0.33698841588E+03  0.36532957726E+03  0.46999998093E+01 0.  1.
       -5    1    3    3    0  502 -0.11734401737E+03 -0.78184392110E+02 -0.10927471376E+03  0.17845299282E+03  0.46999998093E+01 0. -1.
</event>
<event>
 5   0  0.7416638E-02  0.5011803E+03  0.7818609E-02  0.1013471E+00
        1   -1    0    0  501    0  0.00000000000E+00  0.00000000000E+00  0.62071452549E+03  0.62071452551E+03  0.50400001928E-02 0. -1.
       -1   -1    0    0    0  501  0.00000000000E+00  0.00000000000E+00 -0.10116636281E+03  0.10116636294E+03  0.50400001928E-02 0.  1.
    10030    2    1    2    0    0  0.00000000000E+00  0.00000000000E+00  0.51954816268E+03  0.72188088844E+03  0.50118033058E+03 0.  0.
        1    1    3    3  502    0 -0.11853223581E+03 -0.14676500739E+03  0.22199232633E+02  0.18995437419E+03  0.50400001928E-02 0.  1.
       -1    1    3    3    0  502  0.11853223581E+03  0.14676500739E+03  0.49734893004E+03  0.53192651425E+03  0.50400001928E-02 0. -1.
</event>
<event>
 5   0  0.5006750E-02  0.5019703E+03  0.7818609E-02  0.1013266E+00
       -3   -1    0    0    0  501  0.00000000000E+00  0.00000000000E+00  0.69284462479E+03  0.69284463215E+03  0.10100000352E+00 0.  1.
        3   -1    0    0  501    0  0.00000000000E+00  0.00000000000E+00 -0.90920122873E+02  0.90920178972E+02  0.10100000352E+00 0. -1.
    10030    2    1    2    0    0  0.00000000000E+00  0.00000000000E+00  0.60192450191E+03  0.78376481112E+03  0.50197029110E+03 0.  0.
        5    1    3    3  502    0 -0.56119495000E+02  0.24014491143E+03  0.22852248894E+03  0.33624930358E+03  0.46999998093E+01 0. -1.
       -5    1    3    3    0  502  0.56119495000E+02 -0.24014491143E+03  0.37340201297E+03  0.44751550755E+03  0.46999998093E+01 0.  1.
</event>
<event>
 5   0  0.7812547E-02  0.4956000E+03  0.7818609E-02  0.1014934E+00
       -1   -1    0    0    0  501  0.00000000000E+00  0.00000000000E+00  0.30303928481E+03  0.30303928485E+03  0.50400001928E-02 0. -1.
        1   -1    0    0  501    0  0.00000000000E+00  0.00000000000E+00 -0.20262993700E+03  0.20262993706E+03  0.50400001928E-02 0.  1.
    10030    2    1    2    0    0  0.00000000000E+00  0.00000000000E+00  0.10040934781E+03  0.50566922192E+03  0.49559996455E+03 0.  0.
        4    1    3    3  502    0  0.12461917729E+03  0.21349669381E+03  0.67653015806E+02  0.25629928026E+03  0.12699999809E+01 0. -1.
       -4    1    3    3    0  502 -0.12461917729E+03 -0.21349669381E+03  0.32756332007E+02  0.24936994166E+03  0.12699999809E+01 0.  1.
</event>
<event>
 5   0  0.7531632E-02  0.4871307E+03  0.7818609E-02  0.1017194E+00
       -1   -1    0    0    0  501  0.00000000000E+00  0.00000000000E+00  0.77145226424E+02  0.77145226589E+02  0.50400001928E-02 0. -1.
        1   -1    0    0  501    0  0.00000000000E+00  0.00000000000E+00 -0.76899236075E+03  0.76899236076E+03  0.50400001928E-02 0.  1.
    10030    2    1    2    0    0  0.00000000000E+00  0.00000000000E+00 -0.69184713432E+03  0.84613758735E+03  0.48713074165E+03 0.  0.
        3    1    3    3  502    0  0.47698766001E+02 -0.73604007254E+02 -0.74061002181E+03  0.74578544956E+03  0.10100000352E+00 0.  1.
       -3    1    3    3    0  502 -0.47698766001E+02  0.73604007254E+02  0.48762887492E+02  0.10035213779E+03  0.10100000352E+00 0. -1.
</event>
<event>
 5   0  0.1191894E-01  0.5025465E+03  0.7818609E-02  0.1013116E+00
        2   -1    0    0  501    0  0.00000000000E+00  0.00000000000E+00  0.18725594490E+04  0.18725594490E+04  0.25500000920E-02 0.  1.
       -2   -1    0    0    0  501  0.00000000000E+00  0.00000000000E+00 -0.33717617416E+02  0.33717617512E+02  0.25500000920E-02 0. -1.
    10030    2    1    2    0    0  0.00000000000E+00  0.00000000000E+00  0.18388418316E+04  0.19062770665E+04  0.50254648813E+03 0.  0.
        3    1    3    3  502    0 -0.23700300588E+02 -0.10405368884E+03  0.17823244868E+04  0.17855165810E+04  0.10100000352E+00 0.  1.
       -3    1    3    3    0  502  0.23700300588E+02  0.10405368884E+03  0.56517344771E+02  0.12076048555E+03  0.10100000352E+00 0. -1.
</event>
<event>
 5   0  0.7781754E-02  0.4903539E+03  0.7818609E-02  0.1016328E+00
       -1   -1    0    0    0  501  0.00000000000E+00  0.00000000000E+00  0.45792470830E+03  0.45792470833E+03  0.50400001928E-02 0. -1.
        1   -1    0    0  501    0  0.00000000000E+00  0.00000000000E+00 -0.13126988888E+03  0.13126988897E+03  0.50400001928E-02 0.  1.
    10030    2    1    2    0    0  0.00000000000E+00  0.00000000000E+00  0.32665481942E+03  0.58919459730E+03  0.49035385431E+03 0.  0.
        2    1    3    3  502    0 -0.12916355001E+03  0.17805351581E+03  0.29343837340E+03  0.36673199497E+03  0.25500000920E-02 0. -1.
       -2    1    3    3    0  502  0.12916355001E+03 -0.17805351581E+03  0.33216446025E+02  0.22246260233E+03  0.25500000920E-02 0.  1.
</event>
<event>
 5   0  0.7781754E-02  0.4938949E+03  0.7818609E-02  0.1015385E+00
        1   -1    0    0  501    0  0.00000000000E+00  0.00000000000E+00  0.31907374302E+03  0.31907374306E+03  0.50400001928E-02 0.  1.
       -1   -1    0    0    0  501  0.00000000000E+00  0.00000000000E+00 -0.19112522428E+03  0.19112522435E+03  0.50400001928E-02 0. -1.
    10030    2    1    2    0    0  0.00000000000E+00  0.00000000000E+00  0.12794851874E+03  0.51019896741E+03  0.49389489053E+03 0.  0.
        2    1    3    3  502    0 -0.83039250216E+02  0.58310292060E+02  0.29654506261E+03  0.31342396430E+03  0.25500000920E-02 0.  1.
       -2    1    3    3    0  502  0.83039250216E+02 -0.58310292060E+02 -0.16859654387E+03  0.19677500310E+03  0.25500000920E-02 0. -1.
</event>
<event>
 5   0  0.7531632E-02  0.4733835E+03  0.7818609E-02  0.1020970E+00
       -1   -1    0    0    0  501  0.00000000000E+00  0.00000000000E+00  0.63244488552E+03  0.63244488554E+03  0.50400001928E-02 0.  1.
        1   -1    0    0  501    0  0.00000000000E+00  0.00000000000E+00 -0.88581617497E+02  0.88581617640E+02  0.50400001928E-02 0. -1.
    10030    2    1    2    0    0  0.00000000000E+00  0.00000000000E+00  0.54386326803E+03  0.72102650318E+03  0.47338352737E+03 0.  0.
        3    1    3    3  502    0  0.95923288975E+02 -0.58391415043E+02 -0.45422174832E+02  0.12113636484E+03  0.10100000352E+00 0. -1.
       -3    1    3    3    0  502 -0.95923288975E+02  0.58391415043E+02  0.58928544286E+03  0.59989013835E+03  0.10100000352E+00 0.  1.
</event>
<event>
 5   0  0.7812547E-02  0.5003871E+03  0.7818609E-02  0.1013678E+00
       -1   -1    0    0    0  501  0.00000000000E+00  0.00000000000E+00  0.91461533769E+02  0.91461533907E+02  0.50400001928E-02 0. -1.
        1   -1    0    0  501    0  0.00000000000E+00  0.00000000000E+00 -0.68440594354E+03  0.68440594356E+03  0.50400001928E-02 0.  1.
    10030    2    1    2    0    0  0.00000000000E+00  0.00000000000E+00 -0.59294440977E+03  0.77586747747E+03  0.50038711965E+03 0.  0.
        4    1    3    3  502    0 -0.76983276939E+02 -0.22240539541E+03 -0.42808161858E+03  0.48851414504E+03  0.12699999809E+01 0.  1.
       -4    1    3    3    0  502  0.76983276939E+02  0.22240539541E+03 -0.16486279119E+03  0.28735333243E+03  0.12699999809E+01 0. -1.
</event>
<event>
 5   0  0.1279188E-01  0.5006903E+03  0.7818609E-02  0.1013599E+00
        2   -1    0    0  501    0  0.00000000000E+00  0.00000000000E+00  0.24519327728E+03  0.24519327730E+03  0.25500000920E-02 0.  1.
       -2   -1    0    0    0  501  0.00000000000E+00  0.00000000000E+00 -0.25560528634E+03  0.25560528635E+03  0.25500000920E-02 0. -1.
    10030    2    1    2    0    0  0.00000000000E+00  0.00000000000E+00 -0.10412009058E+02  0.50079856365E+03  0.50069031488E+03 0.  0.
        2    1    3    3  502    0  0.15459736606E+03 -0.61466105909E+02 -0.19231400321E+03  0.25428940915E+03  0.25500000920E-02 0. -1.
       -2    1    3    3    0  502 -0.15459736606E+03  0.61466105909E+02  0.18190199415E+03  0.24650915450E+03  0.25500000920E-02 0.  1.
</event>
<event>
 5   0  0.1211345E-01  0.5145176E+03  0.7818609E-02  0.1010058E+00
        2   -1    0    0  501    0  0.00000000000E+00  0.00000000000E+00  0.54195979696E+03  0.54195979697E+03  0.25500000920E-02 0. -1.
       -2   -1    0    0    0  501  0.00000000000E+00  0.00000000000E+00 -0.12211623132E+03  0.12211623135E+03  0.25500000920E-02 0.  1.
    10030    2    1    2    0    0  0.00000000000E+00  0.00000000000E+00  0.41984356564E+03  0.66407602831E+03  0.51451759131E+03 0.  0.
        5    1    3    3  502    0 -0.18341712067E+03 -0.14111796593E+03  0.35482220874E+03  0.42364727106E+03  0.46999998093E+01 0. -1.
       -5    1    3    3    0  502  0.18341712067E+03  0.14111796593E+03  0.65021356903E+02  0.24042875725E+03  0.46999998093E+01 0.  1.
</event>
<event>
 5   0  0.1191894E-01  0.5049014E+03  0.7818609E-02  0.1012507E+00
        2   -1    0    0  501    0  0.00000000000E+00  0.00000000000E+00  0.76506613475E+03  0.76506613476E+03  0.25500000920E-02 0.  1.
       -2   -1    0    0    0  501  0.00000000000E+00  0.00000000000E+00 -0.83301771143E+02  0.83301771182E+02  0.25500000920E-02 0. -1.
    10030    2    1    2    0    0  0.00000000000E+00  0.00000000000E+00  0.68176436361E+03  0.84836790594E+03  0.50490143230E+03 0.  0.
        3    1    3    3  502    0 -0.17401051700E+03  0.73092956475E+02  0.59172869755E+02  0.19779706527E+03  0.10100000352E+00 0. -1.
       -3    1    3    3    0  502  0.17401051700E+03 -0.73092956475E+02  0.62259149386E+03  0.65057084067E+03  0.10100000352E+00 0.  1.
</event>
<event>
 5   0  0.1211345E-01  0.5007327E+03  0.7818609E-02  0.1013588E+00
        2   -1    0    0  501    0  0.00000000000E+00  0.00000000000E+00  0.11720117174E+04  0.11720117174E+04  0.25500000920E-02 0. -1.
       -2   -1    0    0    0  501  0.00000000000E+00  0.00000000000E+00 -0.53483509259E+02  0.53483509319E+02  0.25500000920E-02 0.  1.
    10030    2    1    2    0    0  0.00000000000E+00  0.00000000000E+00  0.11185282081E+04  0.12254952267E+04  0.50073266151E+03 0.  0.
        5    1    3    3  502    0  0.61508685084E+02  0.74177748681E+02  0.11246915650E+04  0.11288218917E+04  0.46999998093E+01 0. -1.
       -5    1    3    3    0  502 -0.61508685084E+02 -0.74177748681E+02 -0.61633568745E+01  0.96673335033E+02  0.46999998093E+01 0.  1.
</event>
<event>
 5   0  0.7812547E-02  0.4976784E+03  0.7818609E-02  0.1014387E+00
        1   -1    0    0  501    0  0.00000000000E+00  0.00000000000E+00  0.19510230841E+03  0.19510230848E+03  0.50400001928E-02 0.  1.
       -1   -1    0    0    0  501  0.00000000000E+00  0.00000000000E+00 -0.31737676401E+03  0.31737676405E+03  0.50400001928E-02 0. -1.
    10030    2    1    2    0    0  0.00000000000E+00  0.00000000000E+00 -0.12227445559E+03  0.51247907253E+03  0.49767836731E+03 0.  0.
        4    1    3    3  502    0 -0.18524022038E+03  0.73893186164E+02 -0.21437542020E+03  0.29280125665E+03  0.12699999809E+01 0. -1.
       -4    1    3    3    0  502  0.18524022038E+03 -0.73893186164E+02  0.92100964607E+02  0.21967781588E+03  0.12699999809E+01 0.  1.
</event>
<event>
 5   0  0.7531632E-02  0.5032888E+03  0.7818609E-02  0.1012924E+00
       -1   -1    0    0    0  501  0.00000000000E+00  0.00000000000E+00  0.95751914123E+03  0.95751914124E+03  0.50400001928E-02 0.  1.
        1   -1    0    0  501    0  0.00000000000E+00  0.00000000000E+00 -0.66134349387E+02  0.66134349579E+02  0.50400001928E-02 0. -1.
    10030    2    1    2    0    0  0.00000000000E+00  0.00000000000E+00  0.89138479184E+03  0.10236534908E+04  0.50328880590E+03 0.  0.
        3    1    3    3  502    0 -0.20941091094E+03  0.50506750034E+02  0.18111718636E+03  0.28143792711E+03  0.10100000352E+00 0. -1.
       -3    1    3    3    0  502  0.20941091094E+03 -0.50506750034E+02  0.71026760548E+03  0.74221556372E+03  0.10100000352E+00 0.  1.
</event>
<event>
 5   0  0.7531632E-02  0.4974021E+03  0.7818609E-02  0.1014459E+00
        1   -1    0    0  501    0  0.00000000000E+00  0.00000000000E+00  0.79467121577E+03  0.79467121579E+03  0.50400001928E-02 0. -1.
       -1   -1    0    0    0  501  0.00000000000E+00  0.00000000000E+00 -0.77833701500E+02  0.77833701663E+02  0.50400001928E-02 0.  1.
    10030    2    1    2    0    0  0.00000000000E+00  0.00000000000E+00  0.71683751427E+03  0.87250491745E+03  0.49740205981E+03 0.  0.
        3    1    3    3  502    0  0.73021868219E+02 -0.13191723014E+03  0.11484044988E+02  0.15121587991E+03  0.10100000352E+00 0.  1.
       -3    1    3    3    0  502 -0.73021868219E+02  0.13191723014E+03  0.70535346928E+03  0.72128903754E+03  0.10100000352E+00 0. -1.
</event>
<event>
 5   0  0.7602288E-02  0.5086413E+03  0.7818609E-02  0.1011548E+00
       -1   -1    0    0    0  501  0.00000000000E+00  0.00000000000E+00  0.20975191764E+03  0.20975191770E+03  0.50400001928E-02 0.  1.
        1   -1    0    0  501    0  0.00000000000E+00  0.00000000000E+00 -0.30835954001E+03  0.30835954005E+03  0.50400001928E-02 0. -1.
    10030    2    1    2    0    0  0.00000000000E+00  0.00000000000E+00 -0.98607622372E+02  0.51811145775E+03  0.50864134659E+03 0.  0.
        5    1    3    3  502    0 -0.32824227867E+02  0.36014569624E+01 -0.30612197431E+03  0.30793368374E+03  0.46999998093E+01 0. -1.
       -5    1    3    3    0  502  0.32824227867E+02 -0.36014569624E+01  0.20751435194E+03  0.21017777401E+03  0.46999998093E+01 0.  1.
</event>
<event>
 5   0  0.1279188E-01  0.5044444E+03  0.7818609E-02  0.1012625E+00
        2   -1    0    0  501    0  0.00000000000E+00  0.00000000000E+00  0.56575747762E+03  0.56575747763E+03  0.25500000920E-02 0.  1.
       -2   -1    0    0    0  501  0.00000000000E+00  0.00000000000E+00 -0.11244400881E+03  0.11244400884E+03  0.25500000920E-02 0. -1.
    10030    2    1    2    0    0  0.00000000000E+00  0.00000000000E+00  0.45331346881E+03  0.67820148647E+03  0.50444440252E+03 0.  0.
        2    1    3    3  502    0  0.14699933443E+03 -0.20495602334E+03  0.22734618526E+03  0.33956157584E+03  0.25500000920E-02 0.  1.
       -2    1    3    3    0  502 -0.14699933443E+03  0.20495602334E+03  0.22596728356E+03  0.33863991063E+03  0.25500000920E-02 0. -1.
</event>
<event>
 5   0  0.1191894E-01  0.4752860E+03  0.7818609E-02  0.1020439E+00
       -2   -1    0    0    0  501  0.00000000000E+00  0.00000000000E+00  0.21415828056E+03  0.21415828058E+03  0.25500000920E-02 0.  1.
        2   -1    0    0  501    0  0.00000000000E+00  0.00000000000E+00 -0.26370303801E+03  0.26370303802E+03  0.25500000920E-02 0. -1.
    10030    2    1    2    0    0  0.00000000000E+00  0.00000000000E+00 -0.49544757450E+02  0.47786131860E+03  0.47528597373E+03 0.  0.
        3    1    3    3  502    0 -0.31592710377E+02 -0.16611452639E+03  0.14311157236E+03  0.22152441755E+03  0.10100000352E+00 0.  1.
       -3    1    3    3    0  502  0.31592710377E+02  0.16611452639E+03 -0.19265632981E+03  0.25633690105E+03  0.10100000352E+00 0. -1.
</event>
<event>
 5   0  0.1191894E-01  0.4980541E+03  0.7818609E-02  0.1014288E+00
       -2   -1    0    0    0  501  0.00000000000E+00  0.00000000000E+00  0.80599556806E+03  0.80599556807E+03  0.25500000920E-02 0. -1.
        2   -1    0    0  501    0  0.00000000000E+00  0.00000000000E+00 -0.76941452917E+02  0.76941452959E+02  0.25500000920E-02 0.  1.
    10030    2    1    2    0    0  0.00000000000E+00  0.00000000000E+00  0.72905411515E+03  0.88293702103E+03  0.49805409374E+03 0.  0.
        3    1    3    3  502    0 -0.14739529946E+03  0.18400513634E+03  0.50669414438E+03  0.55885797001E+03  0.10100000352E+00 0. -1.
       -3    1    3    3    0  502  0.14739529946E+03 -0.18400513634E+03  0.22235997077E+03  0.32407905101E+03  0.10100000352E+00 0.  1.
</event>
<event>
 5   0  0.7781754E-02  0.4953705E+03  0.7818609E-02  0.1014994E+00
        1   -1    0    0  501    0  0.00000000000E+00  0.00000000000E+00  0.99396183999E+03  0.99396184000E+03  0.50400001928E-02 0.  1.
       -1   -1    0    0    0  501  0.00000000000E+00  0.00000000000E+00 -0.61720672767E+02  0.61720672973E+02  0.50400001928E-02 0. -1.
    10030    2    1    2    0    0  0.00000000000E+00  0.00000000000E+00  0.93224116722E+03  0.10556825130E+04  0.49537054246E+03 0.  0.
        2    1    3    3  502    0  0.22972052662E+03 -0.55750209593E+02  0.30852908493E+03  0.38867698989E+03  0.25500000920E-02 0. -1.
       -2    1    3    3    0  502 -0.22972052662E+03  0.55750209593E+02  0.62371208229E+03  0.66700552308E+03  0.25500000920E-02 0.  1.
</event>
<event>
 5   0  0.1243803E-01  0.5094720E+03  0.7818609E-02  0.1011336E+00
       -2   -1    0    0    0  501  0.00000000000E+00  0.00000000000E+00  0.83241062659E+02  0.83241062698E+02  0.25500000920E-02 0.  1.
        2   -1    0    0  501    0  0.00000000000E+00  0.00000000000E+00 -0.77954821278E+03  0.77954821278E+03  0.25500000920E-02 0. -1.
    10030    2    1    2    0    0  0.00000000000E+00  0.00000000000E+00 -0.69630715012E+03  0.86278927548E+03  0.50947196839E+03 0.  0.
        4    1    3    3  502    0 -0.23868377672E+03 -0.62140209915E+02 -0.24028089977E+03  0.34433686218E+03  0.12699999809E+01 0. -1.
       -4    1    3    3    0  502  0.23868377672E+03  0.62140209915E+02 -0.45602625035E+03  0.51845241331E+03  0.12699999809E+01 0.  1.
</event>
<event>
 5   0  0.1191894E-01  0.5012748E+03  0.7818609E-02  0.1013447E+00
       -2   -1    0    0    0  501  0.00000000000E+00  0.00000000000E+00  0.37450796878E+02  0.37450796965E+02  0.25500000920E-02 0.  1.
        2   -1    0    0  501    0  0.00000000000E+00  0.00000000000E+00 -0.16773772786E+04  0.16773772786E+04  0.25500000920E-02 0. -1.
    10030    2    1    2    0    0  0.00000000000E+00  0.00000000000E+00 -0.16399264817E+04  0.17148280756E+04  0.50127483809E+03 0.  0.
        3    1    3    3  502    0 -0.19749604481E+03 -0.96061953907E+01 -0.13468552381E+04  0.13612920368E+04  0.10100000352E+00 0. -1.
       -3    1    3    3    0  502  0.19749604481E+03  0.96061953907E+01 -0.29307124361E+03  0.35353603881E+03  0.10100000352E+00 0.  1.
</event>
<event>
 5   0  0.1191894E-01  0.4724092E+03  0.7818609E-02  0.1021242E+00
       -2   -1    0    0    0  501  0.00000000000E+00  0.00000000000E+00  0.93998132832E+02  0.93998132866E+02  0.25500000920E-02 0. -1.
        2   -1    0    0  501    0  0.00000000000E+00  0.00000000000E+00 -0.59355030455E+03  0.59355030455E+03  0.25500000920E-02 0.  1.
    10030    2    1    2    0    0  0.00000000000E+00  0.00000000000E+00 -0.49955217172E+03  0.68754843742E+03  0.47240923100E+03 0.  0.
        3    1    3    3  502    0 -0.76492971038E+02 -0.12757304065E+03  0.17268798330E+02  0.14974737699E+03  0.10100000352E+00 0. -1.
       -3    1    3    3    0  502  0.76492971038E+02  0.12757304065E+03 -0.51682097005E+03  0.53780106043E+03  0.10100000352E+00 0.  1.
</event>
<event>
 5   0  0.5006750E-02  0.4953229E+03  0.7818609E-02  0.1015007E+00
       -3   -1    0    0    0  501  0.00000000000E+00  0.00000000000E+00  0.94135353731E+02  0.94135407914E+02  0.10100000352E+00 0. -1.
        3   -1    0    0  501    0  0.00000000000E+00  0.00000000000E+00 -0.65157431710E+03  0.65157432493E+03  0.10100000352E+00 0.  1.
    10030    2    1    2    0    0  0.00000000000E+00  0.00000000000E+00 -0.55743896337E+03  0.74570973285E+03  0.49532293282E+03 0.  0.
        4    1    3    3  502    0 -0.71619580488E+02  0.23687361417E+03 -0.29347921165E+03  0.38388817899E+03  0.12699999809E+01 0.  1.
       -4    1    3    3    0  502  0.71619580488E+02 -0.23687361417E+03 -0.26395975172E+03  0.36182155385E+03  0.12699999809E+01 0. -1.
</event>
<event>
 5   0  0.1191894E-01  0.4940880E+03  0.7818609E-02  0.1015334E+00
       -2   -1    0    0    0  501  0.00000000000E+00  0.00000000000E+00  0.14839186101E+03  0.14839186103E+03  0.25500000920E-02 0. -1.
        2   -1    0    0  501    0  0.00000000000E+00  0.00000000000E+00 -0.41128092417E+03  0.41128092418E+03  0.25500000920E-02 0.  1.
    10030    2    1    2    0    0  0.00000000000E+00  0.00000000000E+00 -0.26288906317E+03  0.55967278521E+03  0.49408801541E+03 0.  0.
        3    1    3    3  502    0  0.20264234575E+03  0.14103476150E+03 -0.14131999579E+03  0.28447508793E+03  0.10100000352E+00 0.  1.
       -3    1    3    3    0  502 -0.20264234575E+03 -0.14103476150E+03 -0.12156906738E+03  0.27519769728E+03  0.10100000352E+00 0. -1.
</event>
<event>
 5   0  0.1211345E-01  0.5024532E+03  0.7818609E-02  0.1013141E+00
       -2   -1    0    0    0  501  0.00000000000E+00  0.00000000000E+00  0.18332547557E+03  0.18332547559E+03  0.25500000920E-02 0.  1.
        2   -1    0    0  501    0  0.00000000000E+00  0.00000000000E+00 -0.34427732313E+03  0.34427732313E+03  0.25500000920E-02 0. -1.
    10030    2    1    2    0    0  0.00000000000E+00  0.00000000000E+00 -0.16095184755E+03  0.52760279872E+03  0.50245319781E+03 0.  0.
        5    1    3    3  502    0  0.27929764609E+02  0.20676991218E+03 -0.22732901270E+03  0.30860077502E+03  0.46999998093E+01 0.  1.
       -5    1    3    3    0  502 -0.27929764609E+02 -0.20676991218E+03  0.66377165141E+02  0.21900202370E+03  0.46999998093E+01 0. -1.
</event>
<event>
 5   0  0.7531632E-02  0.5011037E+03  0.7818609E-02  0.1013491E+00
        1   -1    0    0  501    0  0.00000000000E+00  0.00000000000E+00  0.29414238514E+03  0.29414238519E+03  0.50400001928E-02 0.  1.
       -1   -1    0    0    0  501  0.00000000000E+00  0.00000000000E+00 -0.21342120699E+03  0.21342120705E+03  0.50400001928E-02 0. -1.
    10030    2    1    2    0    0  0.00000000000E+00  0.00000000000E+00  0.80721178154E+02  0.50756359224E+03  0.50110367347E+03 0.  0.
        3    1    3    3  502    0 -0.97221158946E+02  0.20531331571E+03 -0.66693459515E+02  0.23675628629E+03  0.10100000352E+00 0. -1.
       -3    1    3    3    0  502  0.97221158946E+02 -0.20531331571E+03  0.14741463767E+03  0.27080730595E+03  0.10100000352E+00 0.  1.
</event>
<event>
 5   0  0.5006750E-02  0.4319814E+03  0.7818609E-02  0.1033236E+00
       -3   -1    0    0    0  501  0.00000000000E+00  0.00000000000E+00  0.22887961094E+03  0.22887963322E+03  0.10100000352E+00 0. -1.
        3   -1    0    0  501    0  0.00000000000E+00  0.00000000000E+00 -0.20382758012E+03  0.20382760514E+03  0.10100000352E+00 0.  1.
    10030    2    1    2    0    0  0.00000000000E+00  0.00000000000E+00  0.25052030820E+02  0.43270723837E+03  0.43198142308E+03 0.  0.
        2    1    3    3  502    0 -0.18885685814E+03  0.91565496594E+02  0.63610079642E+02  0.21931118365E+03  0.25500000920E-02 0. -1.
       -2    1    3    3    0  502  0.18885685814E+03 -0.91565496594E+02 -0.38558048822E+02  0.21339605472E+03  0.25500000920E-02 0.  1.
</event>
<event>
 5   0  0.7781754E-02  0.4945369E+03  0.7818609E-02  0.1015215E+00
       -1   -1    0    0    0  501  0.00000000000E+00  0.00000000000E+00  0.96124356306E+02  0.96124356438E+02  0.50400001928E-02 0.  1.
        1   -1    0    0  501    0  0.00000000000E+00  0.00000000000E+00 -0.63606868910E+03  0.63606868912E+03  0.50400001928E-02 0. -1.
    10030    2    1    2    0    0  0.00000000000E+00  0.00000000000E+00 -0.53994433280E+03  0.73219304556E+03  0.49453692830E+03 0.  0.
        2    1    3    3  502    0  0.55586485498E+01 -0.21911350711E+03 -0.43943076513E+03  0.49106112137E+03  0.25500000920E-02 0. -1.
       -2    1    3    3    0  502 -0.55586485498E+01  0.21911350711E+03 -0.10051356767E+03  0.24113192419E+03  0.25500000920E-02 0.  1.
</event>
<event>
 5   0  0.7812547E-02  0.5037762E+03  0.7818609E-02  0.1012798E+00
        1   -1    0    0  501    0  0.00000000000E+00  0.00000000000E+00  0.13584900147E+03  0.13584900156E+03  0.50400001928E-02 0.  1.
       -1   -1    0    0    0  501  0.00000000000E+00  0.00000000000E+00 -0.46704521353E+03  0.46704521356E+03  0.50400001928E-02 0. -1.
    10030    2    1    2    0    0  0.00000000000E+00  0.00000000000E+00 -0.33119621207E+03  0.60289421512E+03  0.50377624372E+03 0.  0.
        4    1    3    3  502    0 -0.35747275671E+02  0.18367171365E+02 -0.46317954451E+03  0.46492163217E+03  0.12699999809E+01 0. -1.
       -4    1    3    3    0  502  0.35747275671E+02 -0.18367171365E+02  0.13198333245E+03  0.13797258295E+03  0.12699999809E+01 0.  1.
</event>
<event>
 5   0  0.1191894E-01  0.4268078E+03  0.7818609E-02  0.1034873E+00
       -2   -1    0    0    0  501  0.00000000000E+00  0.00000000000E+00  0.69121233836E+03  0.69121233837E+03  0.25500000920E-02 0.  1.
        2   -1    0    0  501    0  0.00000000000E+00  0.00000000000E+00 -0.65886023420E+02  0.65886023469E+02  0.25500000920E-02 0. -1.
    10030    2    1    2    0    0  0.00000000000E+00  0.00000000000E+00  0.62532631494E+03  0.75709836184E+03  0.42680783654E+03 0.  0.
        3    1    3    3  502    0 -0.16788093913E+03  0.82073747132E+02  0.49547525218E+03  0.52954305341E+03  0.10100000352E+00 0.  1.
       -3    1    3    3    0  502  0.16788093913E+03 -0.82073747132E+02  0.12985106276E+03  0.22755530842E+03  0.10100000352E+00 0. -1.
</event>
<event>
 5   0  0.1191894E-01  0.4832259E+03  0.7818609E-02  0.1018252E+00
       -2   -1    0    0    0  501  0.00000000000E+00  0.00000000000E+00  0.17155666699E+03  0.17155666701E+03  0.25500000920E-02 0.  1.
        2   -1    0    0  501    0  0.00000000000E+00  0.00000000000E+00 -0.34027722834E+03  0.34027722835E+03  0.25500000920E-02 0. -1.
    10030    2    1    2    0    0  0.00000000000E+00  0.00000000000E+00 -0.16872056134E+03  0.51183389536E+03  0.48322593952E+03 0.  0.
        3    1    3    3  502    0 -0.29840156197E+02 -0.23663344257E+03 -0.43460872196E+02  0.24243489575E+03  0.10100000352E+00 0.  1.
       -3    1    3    3    0  502  0.29840156197E+02  0.23663344257E+03 -0.12525968915E+03  0.26939899961E+03  0.10100000352E+00 0. -1.
</event>
<event>
 5   0  0.1231822E-01  0.5052087E+03  0.7818609E-02  0.1012428E+00
       -2   -1    0    0    0  501  0.00000000000E+00  0.00000000000E+00  0.28054122808E+02  0.28054122924E+02  0.25500000920E-02 0. -1.
        2   -1    0    0  501    0  0.00000000000E+00  0.00000000000E+00 -0.22744952767E+04  0.22744952767E+04  0.25500000920E-02 0.  1.
    10030    2    1    2    0    0  0.00000000000E+00  0.00000000000E+00 -0.22464411539E+04  0.23025493997E+04  0.50520874876E+03 0.  0.
        1    1    3    3  502    0 -0.10348924824E+03 -0.17294867500E+03 -0.42920863755E+03  0.47417435955E+03  0.50400001928E-02 0. -1.
       -1    1    3    3    0  502  0.10348924824E+03  0.17294867500E+03 -0.18172325164E+04  0.18283750401E+04  0.50400001928E-02 0.  1.
</event>
<event>
 5   0  0.7416638E-02  0.4894885E+03  0.7818609E-02  0.1016560E+00
        1   -1    0    0  501    0  0.00000000000E+00  0.00000000000E+00  0.46275820164E+03  0.46275820167E+03  0.50400001928E-02 0. -1.
       -1   -1    0    0    0  501  0.00000000000E+00  0.00000000000E+00 -0.12944072012E+03  0.12944072022E+03  0.50400001928E-02 0.  1.
    10030    2    1    2    0    0  0.00000000000E+00  0.00000000000E+00  0.33331748152E+03  0.59219892188E+03  0.48948852856E+03 0.  0.
        1    1    3    3  502    0  0.23623247251E+03 -0.24429026339E+02  0.23820469992E+03  0.33636890088E+03  0.50400001928E-02 0. -1.
       -1    1    3    3    0  502 -0.23623247251E+03  0.24429026339E+02  0.95112781605E+02  0.25583002100E+03  0.50400001928E-02 0.  1.
</event>
<event>
 5   0  0.1279188E-01  0.4831905E+03  0.7818609E-02  0.1018262E+00
        2   -1    0    0  501    0  0.00000000000E+00  0.00000000000E+00  0.35207845351E+03  0.35207845352E+03  0.25500000920E-02 0.  1.
       -2   -1    0    0    0  501  0.00000000000E+00  0.00000000000E+00 -0.16578198378E+03  0.16578198380E+03  0.25500000920E-02 0. -1.
    10030    2    1    2    0    0  0.00000000000E+00  0.00000000000E+00  0.18629646973E+03  0.51786043732E+03  0.48319049857E+03 0.  0.
        2    1    3    3  502    0  0.83966056687E+02 -0.50186974517E+02 -0.14360768543E+03  0.17375902396E+03  0.25500000920E-02 0. -1.
       -2    1    3    3    0  502 -0.83966056687E+02  0.50186974517E+02  0.32990415515E+03  0.34410141336E+03  0.25500000920E-02 0.  1.
</event>
<event>
 5   0  0.1191894E-01  0.5012467E+03  0.7818609E-02  0.1013454E+00
       -2   -1    0    0    0  501  0.00000000000E+00  0.00000000000E+00  0.54940246233E+02  0.54940246292E+02  0.25500000920E-02 0.  1.
        2   -1    0    0  501    0  0.00000000000E+00  0.00000000000E+00 -0.11432795406E+04  0.11432795406E+04  0.25500000920E-02 0. -1.
    10030    2    1    2    0    0  0.00000000000E+00  0.00000000000E+00 -0.10883392943E+04  0.11982197869E+04  0.50124668381E+03 0.  0.
        3    1    3    3  502    0  0.13401090755E+03  0.20693408098E+03 -0.43642790553E+03  0.50124840563E+03  0.10100000352E+00 0. -1.
       -3    1    3    3    0  502 -0.13401090755E+03 -0.20693408098E+03 -0.65191138880E+03  0.69697138123E+03  0.10100000352E+00 0.  1.
</event>
<event>
 5   0  0.7416638E-02  0.4846679E+03  0.7818609E-02  0.1017860E+00
        1   -1    0    0  501    0  0.00000000000E+00  0.00000000000E+00  0.10752790816E+04  0.10752790816E+04  0.50400001928E-02 0.  1.
       -1   -1    0    0    0  501  0.00000000000E+00  0.00000000000E+00 -0.54614428001E+02  0.54614428234E+02  0.50400001928E-02 0. -1.
    10030    2    1    2    0    0  0.00000000000E+00  0.00000000000E+00  0.10206646536E+04  0.11298935098E+04  0.48466793630E+03 0.  0.
        1    1    3    3  502    0  0.11549013576E+03  0.32837362920E+02  0.10010611775E+04  0.10082359570E+04  0.50400001928E-02 0.  1.
       -1    1    3    3    0  502 -0.11549013576E+03 -0.32837362920E+02  0.19603476086E+02  0.12165755283E+03  0.50400001928E-02 0. -1.
</event>
<event>
 5   0  0.1243803E-01  0.5046272E+03  0.7818609E-02  0.1012578E+00
        2   -1    0    0  501    0  0.00000000000E+00  0.00000000000E+00  0.17472491624E+03  0.17472491626E+03  0.25500000920E-02 0. -1.
       -2   -1    0    0    0  501  0.00000000000E+00  0.00000000000E+00 -0.36435644735E+03  0.36435644736E+03  0.25500000920E-02 0.  1.
    10030    2    1    2    0    0  0.00000000000E+00  0.00000000000E+00 -0.18963153111E+03  0.53908136362E+03  0.50462718814E+03 0.  0.
        4    1    3    3  502    0 -0.23084487175E+03 -0.50058936843E+02 -0.74124853417E-01  0.23621361173E+03  0.12699999809E+01 0. -1.
       -4    1    3    3    0  502  0.23084487175E+03  0.50058936843E+02 -0.18955740626E+03  0.30286775189E+03  0.12699999809E+01 0.  1.
</event>
<event>
 5   0  0.7602288E-02  0.4787483E+03  0.7818609E-02  0.1019480E+00
       -1   -1    0    0    0  501  0.00000000000E+00  0.00000000000E+00  0.38328116820E+03  0.38328116824E+03  0.50400001928E-02 0. -1.
        1   -1    0    0  501    0  0.00000000000E+00  0.00000000000E+00 -0.14949857068E+03  0.14949857077E+03  0.50400001928E-02 0.  1.
    10030    2    1    2    0    0  0.00000000000E+00  0.00000000000E+00  0.23378259752E+03  0.53277973900E+03  0.47874831320E+03 0.  0.
        5    1    3    3  502    0  0.11495489992E+03  0.20946870268E+03  0.10170859441E+03  0.25972773166E+03  0.46999998093E+01 0. -1.
       -5    1    3    3    0  502 -0.11495489992E+03 -0.20946870268E+03  0.13207400312E+03  0.27305200735E+03  0.46999998093E+01 0.  1.
</event>
<event>
 5   0  0.1211345E-01  0.4756173E+03  0.7818609E-02  0.1020347E+00
        2   -1    0    0  501    0  0.00000000000E+00  0.00000000000E+00  0.23799186139E+03  0.23799186141E+03  0.25500000920E-02 0. -1.
       -2   -1    0    0    0  501  0.00000000000E+00  0.00000000000E+00 -0.23762556607E+03  0.23762556608E+03  0.25500000920E-02 0.  1.
    10030    2    1    2    0    0  0.00000000000E+00  0.00000000000E+00  0.36629532310E+00  0.47561742749E+03  0.47561728644E+03 0.  0.
        5    1    3    3  502    0  0.18626639764E+03  0.13320048451E+03 -0.63795936862E+02  0.23775944045E+03  0.46999998093E+01 0.  1.
       -5    1    3    3    0  502 -0.18626639764E+03 -0.13320048451E+03  0.64162232185E+02  0.23785798704E+03  0.46999998093E+01 0. -1.
</event>
<event>
 5   0  0.1243803E-01  0.4953430E+03  0.7818609E-02  0.1015002E+00
       -2   -1    0    0    0  501  0.00000000000E+00  0.00000000000E+00  0.12140663499E+03  0.12140663501E+03  0.25500000920E-02 0.  1.
        2   -1    0    0  501    0  0.00000000000E+00  0.00000000000E+00 -0.50525386618E+03  0.50525386619E+03  0.25500000920E-02 0. -1.
    10030    2    1    2    0    0  0.00000000000E+00  0.00000000000E+00 -0.38384723119E+03  0.62666050120E+03  0.49534299921E+03 0.  0.
        4    1    3    3  502    0 -0.10070875472E+03  0.21241791675E+03 -0.93310921775E+02  0.25292719438E+03  0.12699999809E+01 0. -1.
       -4    1    3    3    0  502  0.10070875472E+03 -0.21241791675E+03 -0.29053630942E+03  0.37373330682E+03  0.12699999809E+01 0.  1.
</event>
<event>
 5   0  0.1191894E-01  0.5001962E+03  0.7818609E-02  0.1013728E+00
        2   -1    0    0  501    0  0.00000000000E+00  0.00000000000E+00  0.22695498744E+03  0.22695498745E+03  0.25500000920E-02 0.  1.
       -2   -1    0    0    0  501  0.00000000000E+00  0.00000000000E+00 -0.27560118252E+03  0.27560118253E+03  0.25500000920E-02 0. -1.
    10030    2    1    2    0    0  0.00000000000E+00  0.00000000000E+00 -0.48646195081E+02  0.50255616998E+03  0.50019621319E+03 0.  0.
        3    1    3    3  502    0 -0.71151876945E+02  0.21528059105E+03  0.81724550030E+02  0.24101293483E+03  0.10100000352E+00 0.  1.
       -3    1    3    3    0  502  0.71151876945E+02 -0.21528059105E+03 -0.13037074511E+03  0.26154323516E+03  0.10100000352E+00 0. -1.
</event>
<event>
 5   0  0.1191894E-01  0.4934576E+03  0.7818609E-02  0.1015501E+00
        2   -1    0    0  501    0  0.00000000000E+00  0.00000000000E+00  0.30896772073E+03  0.30896772074E+03  0.25500000920E-02 0. -1.
       -2   -1    0    0    0  501  0.00000000000E+00  0.00000000000E+00 -0.19702737715E+03  0.19702737716E+03  0.25500000920E-02 0.  1.
    10030    2    1    2    0    0  0.00000000000E+00  0.00000000000E+00  0.11194034359E+03  0.50599509791E+03  0.49345759553E+03 0.  0.
        3    1    3    3  502    0 -0.15046107550E+03  0.10323119621E+03 -0.11432118772E+03  0.21532431185E+03  0.10100000352E+00 0.  1.
       -3    1    3    3    0  502  0.15046107550E+03 -0.10323119621E+03  0.22626153131E+03  0.29067078605E+03  0.10100000352E+00 0. -1.
</event>
<event>
 5   0  0.5006750E-02  0.5063568E+03  0.7818609E-02  0.1012133E+00
       -3   -1    0    0    0  501  0.00000000000E+00  0.00000000000E+00  0.10299103702E+03  0.10299108654E+03  0.10100000352E+00 0. -1.
        3   -1    0    0  501    0  0.00000000000E+00  0.00000000000E+00 -0.62237731400E+03  0.62237732220E+03  0.10100000352E+00 0.  1.
    10030    2    1    2    0    0  0.00000000000E+00  0.00000000000E+00 -0.51938627698E+03  0.72536840874E+03  0.50635681459E+03 0.  0.
        3    1    3    3  502    0  0.24648586188E+02 -0.20343390956E+03 -0.46702328091E+02  0.21017617850E+03  0.10100000352E+00 0. -1.
       -3    1    3    3    0  502 -0.24648586188E+02  0.20343390956E+03 -0.47268394889E+03  0.51519223024E+03  0.10100000352E+00 0.  1.
</event>
<event>
 5   0  0.1243803E-01  0.4961292E+03  0.7818609E-02  0.1014794E+00
        2   -1    0    0  501    0  0.00000000000E+00  0.00000000000E+00  0.26004965456E+03  0.26004965458E+03  0.25500000920E-02 0. -1.
       -2   -1    0    0    0  501  0.00000000000E+00  0.00000000000E+00 -0.23663186860E+03  0.23663186861E+03  0.25500000920E-02 0.  1.
    10030    2    1    2    0    0  0.00000000000E+00  0.00000000000E+00  0.23417785969E+02  0.49668152319E+03  0.49612915937E+03 0.  0.
        4    1    3    3  502    0  0.76576527009E+02 -0.10780545160E+03  0.22181976823E+03  0.25824717300E+03  0.12699999809E+01 0. -1.
       -4    1    3    3    0  502 -0.76576527009E+02  0.10780545160E+03 -0.19840198226E+03  0.23843435019E+03  0.12699999809E+01 0.  1.
</event>
<event>
 5   0  0.1191894E-01  0.4983070E+03  0.7818609E-02  0.1014222E+00
        2   -1    0    0  501    0  0.00000000000E+00  0.00000000000E+00  0.79334157829E+03  0.79334157829E+03  0.25500000920E-02 0.  1.
       -2   -1    0    0    0  501  0.00000000000E+00  0.00000000000E+00 -0.78248098214E+02  0.78248098255E+02  0.25500000920E-02 0. -1.
    10030    2    1    2    0    0  0.00000000000E+00  0.00000000000E+00  0.71509348007E+03  0.87158967655E+03  0.49830701281E+03 0.  0.
        3    1    3    3  502    0 -0.20758268550E+03 -0.12579954732E+03  0.45589172126E+03  0.51648172198E+03  0.10100000352E+00 0. -1.
       -3    1    3    3    0  502  0.20758268550E+03  0.12579954732E+03  0.25920175881E+03  0.35510795457E+03  0.10100000352E+00 0.  1.
</event>
<event>
 5   0  0.5006750E-02  0.4967556E+03  0.7818609E-02  0.1014629E+00
       -3   -1    0    0    0  501  0.00000000000E+00  0.00000000000E+00  0.80729401398E+02  0.80729464578E+02  0.10100000352E+00 0.  1.
        3   -1    0    0  501    0  0.00000000000E+00  0.00000000000E+00 -0.76417634035E+03  0.76417634702E+03  0.10100000352E+00 0. -1.
    10030    2    1    2    0    0  0.00000000000E+00  0.00000000000E+00 -0.68344693895E+03  0.84490581160E+03  0.49675558589E+03 0.  0.
        2    1    3    3  502    0 -0.14530338145E+03 -0.76193260371E+02 -0.24557280864E+02  0.16589618934E+03  0.25500000920E-02 0.  1.
       -2    1    3    3    0  502  0.14530338145E+03  0.76193260371E+02 -0.65888965808E+03  0.67900962226E+03  0.25500000920E-02 0. -1.
</event>
<event>
 5   0  0.7531632E-02  0.4939152E+03  0.7818609E-02  0.1015379E+00
       -1   -1    0    0    0  501  0.00000000000E+00  0.00000000000E+00  0.10070388646E+03  0.10070388658E+03  0.50400001928E-02 0.  1.
        1   -1    0    0  501    0  0.00000000000E+00  0.00000000000E+00 -0.60561761513E+03  0.60561761515E+03  0.50400001928E-02 0. -1.
    10030    2    1    2    0    0  0.00000000000E+00  0.00000000000E+00 -0.50491372868E+03  0.70632150174E+03  0.49391516520E+03 0.  0.
        3    1    3    3  502    0  0.52621518009E+02 -0.52553021412E+02  0.84309732948E+02  0.11242324265E+03  0.10100000352E+00 0.  1.
       -3    1    3    3    0  502 -0.52621518009E+02  0.52553021412E+02 -0.58922346162E+03  0.59389825909E+03  0.10100000352E+00 0. -1.
</event>
<event>
 5   0  0.1231822E-01  0.4967216E+03  0.7818609E-02  0.1014638E+00
       -2   -1    0    0    0  501  0.00000000000E+00  0.00000000000E+00  0.93490444144E+02  0.93490444178E+02  0.25500000920E-02 0. -1.
        2   -1    0    0  501    0  0.00000000000E+00  0.00000000000E+00 -0.65977960723E+03  0.65977960723E+03  0.25500000920E-02 0.  1.
    10030    2    1    2    0    0  0.00000000000E+00  0.00000000000E+00 -0.56628916308E+03  0.75327005141E+03  0.49672160626E+03 0.  0.
        1    1    3    3  502    0  0.13254814967E+03 -0.20925903868E+03 -0.31047206852E+03  0.39717913164E+03  0.50400001928E-02 0.  1.
       -1    1    3    3    0  502 -0.13254814967E+03  0.20925903868E+03 -0.25581709456E+03  0.35609091977E+03  0.50400001928E-02 0. -1.
</event>
<event>
 5   0  0.7416638E-02  0.4994859E+03  0.7818609E-02  0.1013913E+00
        1   -1    0    0  501    0  0.00000000000E+00  0.00000000000E+00  0.13080327496E+04  0.13080327496E+04  0.50400001928E-02 0. -1.
       -1   -1    0    0    0  501  0.00000000000E+00  0.00000000000E+00 -0.47683479353E+02  0.47683479619E+02  0.50400001928E-02 0.  1.
    10030    2    1    2    0    0  0.00000000000E+00  0.00000000000E+00  0.12603492702E+04  0.13557162292E+04  0.49948594693E+03 0.  0.
        1    1    3    3  502    0  0.91074575000E+02  0.10577985544E+03  0.11922717763E+04  0.12004149052E+04  0.50400001928E-02 0. -1.
       -1    1    3    3    0  502 -0.91074575000E+02 -0.10577985544E+03  0.68077493880E+02  0.15530132397E+03  0.50400001928E-02 0.  1.
</event>
<event>
 5   0  0.1243803E-01  0.5129393E+03  0.7818609E-02  0.1010456E+00
       -2   -1    0    0    0  501  0.00000000000E+00  0.00000000000E+00  0.52767943631E+02  0.52767943693E+02  0.25500000920E-02 0.  1.
        2   -1    0    0  501    0  0.00000000000E+00  0.00000000000E+00 -0.12465272215E+04  0.12465272215E+04  0.25500000920E-02 0. -1.
    10030    2    1    2    0    0  0.00000000000E+00  0.00000000000E+00 -0.11937592779E+04  0.12992951652E+04  0.51293928764E+03 0.  0.
        4    1    3    3  502    0  0.12020264051E+03  0.62934263791E+02 -0.11481614908E+04  0.11561512955E+04  0.12699999809E+01 0. -1.
       -4    1    3    3    0  502 -0.12020264051E+03 -0.62934263791E+02 -0.45597787130E+02  0.14314386971E+03  0.12699999809E+01 0.  1.
</event>
<event>
 5   0  0.1231822E-01  0.4999642E+03  0.7818609E-02  0.1013788E+00
        2   -1    0    0  501    0  0.00000000000E+00  0.00000000000E+00  0.54360696176E+03  0.54360696176E+03  0.25500000920E-02 0. -1.
       -2   -1    0    0    0  501  0.00000000000E+00  0.00000000000E+00 -0.11495630710E+03  0.11495630713E+03  0.25500000920E-02 0.  1.
    10030    2    1    2    0    0  0.00000000000E+00  0.00000000000E+00  0.42865065466E+03  0.65856326889E+03  0.49996419411E+03 0.  0.
        1    1    3    3  502    0 -0.79542729950E+00  0.50020269439E+02 -0.10829535136E+03  0.11929184051E+03  0.50400001928E-02 0.  1.
       -1    1    3    3    0  502  0.79542729950E+00 -0.50020269439E+02  0.53694600602E+03  0.53927142838E+03  0.50400001928E-02 0. -1.
</event>
<event>
 5   0  0.7602288E-02  0.4895310E+03  0.7818609E-02  0.1016548E+00
        1   -1    0    0  501    0  0.00000000000E+00  0.00000000000E+00  0.12449772952E+04  0.12449772952E+04  0.50400001928E-02 0. -1.
       -1   -1    0    0    0  501  0.00000000000E+00  0.00000000000E+00 -0.48121471944E+02  0.48121472208E+02  0.50400001928E-02 0.  1.
    10030    2    1    2    0    0  0.00000000000E+00  0.00000000000E+00  0.11968558232E+04  0.12930987674E+04  0.48953095983E+03 0.  0.
        5    1    3    3  502    0  0.16060838053E+02 -0.95250640484E+02  0.11923698131E+04  0.11962852905E+04  0.46999998093E+01 0. -1.
       -5    1    3    3    0  502 -0.16060838053E+02  0.95250640484E+02  0.44860101571E+01  0.96813476938E+02  0.46999998093E+01 0.  1.
</event>
<event>
 5   0  0.1243803E-01  0.5089644E+03  0.7818609E-02  0.1011465E+00
       -2   -1    0    0    0  501  0.00000000000E+00  0.00000000000E+00  0.48745572111E+02  0.48745572178E+02  0.25500000920E-02 0.  1.
        2   -1    0    0  501    0  0.00000000000E+00  0.00000000000E+00 -0.13285552421E+04  0.13285552421E+04  0.25500000920E-02 0. -1.
    10030    2    1    2    0    0  0.00000000000E+00  0.00000000000E+00 -0.12798096699E+04  0.13773008142E+04  0.50896438148E+03 0.  0.
        4    1    3    3  502    0 -0.12380629603E+02 -0.13155209709E+03 -0.51368152204E+02  0.14177282603E+03  0.12699999809E+01 0.  1.
       -4    1    3    3    0  502  0.12380629603E+02  0.13155209709E+03 -0.12284415177E+04  0.12355279882E+04  0.12699999809E+01 0. -1.
</event>
<event>
 5   0  0.1231822E-01  0.4972770E+03  0.7818609E-02  0.1014492E+00
       -2   -1    0    0    0  501  0.00000000000E+00  0.00000000000E+00  0.22743627418E+03  0.22743627420E+03  0.25500000920E-02 0.  1.
        2   -1    0    0  501    0  0.00000000000E+00  0.00000000000E+00 -0.27181726380E+03  0.27181726382E+03  0.25500000920E-02 0. -1.
    10030    2    1    2    0    0  0.00000000000E+00  0.00000000000E+00 -0.44380989622E+02  0.49925353801E+03  0.49727700829E+03 0.  0.
        1    1    3    3  502    0 -0.24582815865E+02  0.23623491758E+03 -0.96034555012E+02  0.25619111401E+03  0.50400001928E-02 0. -1.
       -1    1    3    3    0  502  0.24582815865E+02 -0.23623491758E+03  0.51653565390E+02  0.24306242400E+03  0.50400001928E-02 0.  1.
</event>
<event>
 5   0  0.7812547E-02  0.4998805E+03  0.7818609E-02  0.1013810E+00
        1   -1    0    0  501    0  0.00000000000E+00  0.00000000000E+00  0.19365992743E+03  0.19365992749E+03  0.50400001928E-02 0. -1.
       -1   -1    0    0    0  501  0.00000000000E+00  0.00000000000E+00 -0.32257638687E+03  0.32257638691E+03  0.50400001928E-02 0.  1.
    10030    2    1    2    0    0  0.00000000000E+00  0.00000000000E+00 -0.12891645944E+03  0.51623631440E+03  0.49988046450E+03 0.  0.
        4    1    3    3  502    0  0.75800592799E+02 -0.88662466634E+02  0.16382124710E+03  0.20111135413E+03  0.12699999809E+01 0. -1.
       -4    1    3    3    0  502 -0.75800592799E+02  0.88662466634E+02 -0.29273770654E+03  0.31512496027E+03  0.12699999809E+01 0.  1.
</event>
<event>
 5   0  0.7602288E-02  0.5071200E+03  0.7818609E-02  0.1011937E+00
        1   -1    0    0  501    0  0.00000000000E+00  0.00000000000E+00  0.10924974093E+03  0.10924974105E+03  0.50400001928E-02 0. -1.
       -1   -1    0    0    0  501  0.00000000000E+00  0.00000000000E+00 -0.58849267975E+03  0.58849267977E+03  0.50400001928E-02 0.  1.
    10030    2    1    2    0    0  0.00000000000E+00  0.00000000000E+00 -0.47924293881E+03  0.69774242082E+03  0.50711999705E+03 0.  0.
        5    1    3    3  502    0 -0.84183937359E+02 -0.21755942895E+03 -0.10305738187E+03  0.25507244929E+03  0.46999998093E+01 0. -1.
       -5    1    3    3    0  502  0.84183937359E+02  0.21755942895E+03 -0.37618555695E+03  0.44266997152E+03  0.46999998093E+01 0.  1.
</event>
<event>
 5   0  0.7531632E-02  0.5313839E+03  0.7818609E-02  0.1005897E+00
        1   -1    0    0  501    0  0.00000000000E+00  0.00000000000E+00  0.24665801653E+03  0.24665801659E+03  0.50400001928E-02 0.  1.
       -1   -1    0    0    0  501  0.00000000000E+00  0.00000000000E+00 -0.28619465395E+03  0.28619465399E+03  0.50400001928E-02 0. -1.
    10030    2    1    2    0    0  0.00000000000E+00  0.00000000000E+00 -0.39536637414E+02  0.53285267058E+03  0.53138387522E+03 0.  0.
        3    1    3    3  502    0  0.19126731229E+03  0.11530392667E+02 -0.20433156777E+03  0.28012057135E+03  0.10100000352E+00 0. -1.
       -3    1    3    3    0  502 -0.19126731229E+03 -0.11530392667E+02  0.16479493035E+03  0.25273209923E+03  0.10100000352E+00 0.  1.
</event>
<event>
 5   0  0.1243803E-01  0.5057318E+03  0.7818609E-02  0.1012294E+00
        2   -1    0    0  501    0  0.00000000000E+00  0.00000000000E+00  0.49069392886E+03  0.49069392886E+03  0.25500000920E-02 0. -1.
       -2   -1    0    0    0  501  0.00000000000E+00  0.00000000000E+00 -0.13030762811E+03  0.13030762813E+03  0.25500000920E-02 0.  1.
    10030    2    1    2    0    0  0.00000000000E+00  0.00000000000E+00  0.36038630075E+03  0.62100155700E+03  0.50573179456E+03 0.  0.
        4    1    3    3  502    0 -0.26774645614E+02  0.29009354864E+02 -0.12649643740E+03  0.13251937931E+03  0.12699999809E+01 0.  1.
       -4    1    3    3    0  502  0.26774645614E+02 -0.29009354864E+02  0.48688273814E+03  0.48848217769E+03  0.12699999809E+01 0. -1.
</event>
<event>
 5   0  0.1231822E-01  0.5191335E+03  0.7818609E-02  0.1008902E+00
       -2   -1    0    0    0  501  0.00000000000E+00  0.00000000000E+00  0.40388333058E+02  0.40388333138E+02  0.25500000920E-02 0.  1.
        2   -1    0    0  501    0  0.00000000000E+00  0.00000000000E+00 -0.16681774735E+04  0.16681774735E+04  0.25500000920E-02 0. -1.
    10030    2    1    2    0    0  0.00000000000E+00  0.00000000000E+00 -0.16277891404E+04  0.17085658066E+04  0.51913353761E+03 0.  0.
        1    1    3    3  502    0  0.18857214705E+03 -0.10783948997E+03 -0.12814992018E+04  0.12997803716E+04  0.50400001928E-02 0. -1.
       -1    1    3    3    0  502 -0.18857214705E+03  0.10783948997E+03 -0.34628993863E+03  0.40878543499E+03  0.50400001928E-02 0.  1.
</event>
<event>
 5   0  0.1243803E-01  0.5006412E+03  0.7818609E-02  0.1013612E+00
        2   -1    0    0  501    0  0.00000000000E+00  0.00000000000E+00  0.36548219395E+03  0.36548219396E+03  0.25500000920E-02 0. -1.
       -2   -1    0    0    0  501  0.00000000000E+00  0.00000000000E+00 -0.17144586464E+03  0.17144586466E+03  0.25500000920E-02 0.  1.
    10030    2    1    2    0    0  0.00000000000E+00  0.00000000000E+00  0.19403632931E+03  0.53692805862E+03  0.50064123186E+03 0.  0.
        4    1    3    3  502    0  0.22937589820E+03 -0.87115727474E+02  0.43864380745E+02  0.24925518940E+03  0.12699999809E+01 0.  1.
       -4    1    3    3    0  502 -0.22937589820E+03  0.87115727474E+02  0.15017194856E+03  0.28767286921E+03  0.12699999809E+01 0. -1.
</event>
<event>
 5   0  0.1211345E-01  0.5013993E+03  0.7818609E-02  0.1013414E+00
       -2   -1    0    0    0  501  0.00000000000E+00  0.00000000000E+00  0.64847862730E+02  0.64847862780E+02  0.25500000920E-02 0.  1.
        2   -1    0    0  501    0  0.00000000000E+00  0.00000000000E+00 -0.96919639517E+03  0.96919639517E+03  0.25500000920E-02 0. -1.
    10030    2    1    2    0    0  0.00000000000E+00  0.00000000000E+00 -0.90434853244E+03  0.10340442580E+04  0.50139930124E+03 0.  0.
        5    1    3    3  502    0  0.19050001000E+03 -0.35786522659E+02 -0.77992889080E+03  0.80366790014E+03  0.46999998093E+01 0. -1.
       -5    1    3    3    0  502 -0.19050001000E+03  0.35786522659E+02 -0.12441964164E+03  0.23037635781E+03  0.46999998093E+01 0.  1.
</event>
<event>
 5   0  0.1279188E-01  0.5027454E+03  0.7818609E-02  0.1013065E+00
       -2   -1    0    0    0  501  0.00000000000E+00  0.00000000000E+00  0.35227574351E+03  0.35227574352E+03  0.25500000920E-02 0. -1.
        2   -1    0    0  501    0  0.00000000000E+00  0.00000000000E+00 -0.17937151446E+03  0.17937151448E+03  0.25500000920E-02 0.  1.
    10030    2    1    2    0    0  0.00000000000E+00  0.00000000000E+00  0.17290422905E+03  0.53164725800E+03  0.50274539731E+03 0.  0.
        2    1    3    3  502    0 -0.53548880756E+02  0.11981210430E+03 -0.14026950592E+03  0.19208841002E+03  0.25500000920E-02 0.  1.
       -2    1    3    3    0  502  0.53548880756E+02 -0.11981210430E+03  0.31317373496E+03  0.33955884798E+03  0.25500000920E-02 0. -1.
</event>
<event>
 5   0  0.7531632E-02  0.4933301E+03  0.7818609E-02  0.1015535E+00
        1   -1    0    0  501    0  0.00000000000E+00  0.00000000000E+00  0.36893091971E+03  0.36893091975E+03  0.50400001928E-02 0. -1.
       -1   -1    0    0    0  501  0.00000000000E+00  0.00000000000E+00 -0.16491882014E+03  0.16491882021E+03  0.50400001928E-02 0.  1.
    10030    2    1    2    0    0  0.00000000000E+00  0.00000000000E+00  0.20401209958E+03  0.53384973996E+03  0.49333012079E+03 0.  0.
        3    1    3    3  502    0  0.21926952103E+03  0.27527566625E+02 -0.16569234323E+02  0.22161100943E+03  0.10100000352E+00 0.  1.
       -3    1    3    3    0  502 -0.21926952103E+03 -0.27527566625E+02  0.22058133390E+03  0.31223873053E+03  0.10100000352E+00 0. -1.
</event>
<event>
 5   0  0.1231822E-01  0.5047495E+03  0.7818609E-02  0.1012547E+00
       -2   -1    0    0    0  501  0.00000000000E+00  0.00000000000E+00  0.15425557863E+03  0.15425557865E+03  0.25500000920E-02 0. -1.
        2   -1    0    0  501    0  0.00000000000E+00  0.00000000000E+00 -0.41290580158E+03  0.41290580159E+03  0.25500000920E-02 0.  1.
    10030    2    1    2    0    0  0.00000000000E+00  0.00000000000E+00 -0.25865022295E+03  0.56716138024E+03  0.50474953531E+03 0.  0.
        1    1    3    3  502    0  0.10221650517E+03 -0.10910490253E+03 -0.35779072433E+03  0.38777093255E+03  0.50400001928E-02 0.  1.
       -1    1    3    3    0  502 -0.10221650517E+03  0.10910490253E+03  0.99140501379E+02  0.17939044769E+03  0.50400001928E-02 0. -1.
</event>
<event>
 5   0  0.7781754E-02  0.4853037E+03  0.7818609E-02  0.1017688E+00
       -1   -1    0    0    0  501  0.00000000000E+00  0.00000000000E+00  0.47949628751E+03  0.47949628754E+03  0.50400001928E-02 0.  1.
        1   -1    0    0  501    0  0.00000000000E+00  0.00000000000E+00 -0.12279537376E+03  0.12279537386E+03  0.50400001928E-02 0. -1.
    10030    2    1    2    0    0  0.00000000000E+00  0.00000000000E+00  0.35670091375E+03  0.60229166140E+03  0.48530372297E+03 0.  0.
        2    1    3    3  502    0 -0.18314736476E+03  0.11293075556E+03  0.31756862215E+03  0.38359632761E+03  0.25500000920E-02 0.  1.
       -2    1    3    3    0  502  0.18314736476E+03 -0.11293075556E+03  0.39132291600E+02  0.21869533380E+03  0.25500000920E-02 0. -1.
</event>
<event>
 5   0  0.7812547E-02  0.5213824E+03  0.7818609E-02  0.1008344E+00
       -1   -1    0    0    0  501  0.00000000000E+00  0.00000000000E+00  0.49231015945E+02  0.49231016203E+02  0.50400001928E-02 0.  1.
        1   -1    0    0  501    0  0.00000000000E+00  0.00000000000E+00 -0.13804284205E+04  0.13804284205E+04  0.50400001928E-02 0. -1.
    10030    2    1    2    0    0  0.00000000000E+00  0.00000000000E+00 -0.13311974046E+04  0.14296594367E+04  0.52138236937E+03 0.  0.
        4    1    3    3  502    0 -0.15312070613E+03  0.36043552712E+02 -0.12356112687E+04  0.12455849665E+04  0.12699999809E+01 0. -1.
       -4    1    3    3    0  502  0.15312070613E+03 -0.36043552712E+02 -0.95586135806E+02  0.18407447024E+03  0.12699999809E+01 0.  1.
</event>
<event>
 5   0  0.1191894E-01  0.5090471E+03  0.7818609E-02  0.1011444E+00
        2   -1    0    0  501    0  0.00000000000E+00  0.00000000000E+00  0.23046178034E+03  0.23046178036E+03  0.25500000920E-02 0.  1.
       -2   -1    0    0    0  501  0.00000000000E+00  0.00000000000E+00 -0.28109749581E+03  0.28109749582E+03  0.25500000920E-02 0. -1.
    10030    2    1    2    0    0  0.00000000000E+00  0.00000000000E+00 -0.50635715464E+02  0.51155927618E+03  0.50904706792E+03 0.  0.
        3    1    3    3  502    0  0.21838192961E+03 -0.69112185138E+02  0.86203038662E+02  0.24474095569E+03  0.10100000352E+00 0.  1.
       -3    1    3    3    0  502 -0.21838192961E+03  0.69112185138E+02 -0.13683875413E+03  0.26681832049E+03  0.10100000352E+00 0. -1.
</event>
<event>
 5   0  0.1211345E-01  0.4996025E+03  0.7818609E-02  0.1013883E+00
       -2   -1    0    0    0  501  0.00000000000E+00  0.00000000000E+00  0.22613419144E+03  0.22613419145E+03  0.25500000920E-02 0.  1.
        2   -1    0    0  501    0  0.00000000000E+00  0.00000000000E+00 -0.27594529342E+03  0.27594529343E+03  0.25500000920E-02 0. -1.
    10030    2    1    2    0    0  0.00000000000E+00  0.00000000000E+00 -0.49811101983E+02  0.50207948488E+03  0.49960250526E+03 0.  0.
        5    1    3    3  502    0  0.20390961501E+03  0.23181386753E+02 -0.16795617396E+03  0.26523173671E+03  0.46999998093E+01 0. -1.
       -5    1    3    3    0  502 -0.20390961501E+03 -0.23181386753E+02  0.11814507198E+03  0.23684774818E+03  0.46999998093E+01 0.  1.
</event>
<event>
 5   0  0.5006750E-02  0.5006175E+03  0.7818609E-02  0.1013618E+00
        3   -1    0    0  501    0  0.00000000000E+00  0.00000000000E+00  0.19325443116E+03  0.19325445755E+03  0.10100000352E+00 0.  1.
       -3   -1    0    0    0  501  0.00000000000E+00  0.00000000000E+00 -0.32420705355E+03  0.32420706928E+03  0.10100000352E+00 0. -1.
    10030    2    1    2    0    0  0.00000000000E+00  0.00000000000E+00 -0.13095262239E+03  0.51746152684E+03  0.50061746119E+03 0.  0.
        4    1    3    3  502    0 -0.18295296075E+03 -0.13153174319E+03  0.47188616988E+02  0.23021894750E+03  0.12699999809E+01 0.  1.
       -4    1    3    3    0  502  0.18295296075E+03  0.13153174319E+03 -0.17814123938E+03  0.28724257934E+03  0.12699999809E+01 0. -1.
</event>
<event>
 5   0  0.7602288E-02  0.4993767E+03  0.7818609E-02  0.1013942E+00
       -1   -1    0    0    0  501  0.00000000000E+00  0.00000000000E+00  0.11294169519E+03  0.11294169530E+03  0.50400001928E-02 0. -1.
        1   -1    0    0  501    0  0.00000000000E+00  0.00000000000E+00 -0.55200414273E+03  0.55200414275E+03  0.50400001928E-02 0.  1.
    10030    2    1    2    0    0  0.00000000000E+00  0.00000000000E+00 -0.43906244755E+03  0.66494583805E+03  0.49937674625E+03 0.  0.
        5    1    3    3  502    0 -0.86124052129E+02 -0.22860999563E+03 -0.15108492932E+03  0.28727796351E+03  0.46999998093E+01 0. -1.
       -5    1    3    3    0  502  0.86124052129E+02  0.22860999563E+03 -0.28797751823E+03  0.37766787454E+03  0.46999998093E+01 0.  1.
</event>
<event>
 5   0  0.1211345E-01  0.5041643E+03  0.7818609E-02  0.1012698E+00
        2   -1    0    0  501    0  0.00000000000E+00  0.00000000000E+00  0.32129490209E+03  0.32129490210E+03  0.25500000920E-02 0. -1.
       -2   -1    0    0    0  501  0.00000000000E+00  0.00000000000E+00 -0.19777906676E+03  0.19777906678E+03  0.25500000920E-02 0.  1.
    10030    2    1    2    0    0  0.00000000000E+00  0.00000000000E+00  0.12351583533E+03  0.51907396888E+03  0.50416428234E+03 0.  0.
        5    1    3    3  502    0 -0.18852706805E+03  0.15396757219E+02 -0.10973261555E+03  0.21873009037E+03  0.46999998093E+01 0.  1.
       -5    1    3    3    0  502  0.18852706805E+03 -0.15396757219E+02  0.23324845088E+03  0.30034387851E+03  0.46999998093E+01 0. -1.
</event>
<event>
 5   0  0.1231822E-01  0.4995283E+03  0.7818609E-02  0.1013902E+00
        2   -1    0    0  501    0  0.00000000000E+00  0.00000000000E+00  0.14185120050E+04  0.14185120050E+04  0.25500000920E-02 0. -1.
       -2   -1    0    0    0  501  0.00000000000E+00  0.00000000000E+00 -0.43977161454E+02  0.43977161528E+02  0.25500000920E-02 0.  1.
    10030    2    1    2    0    0  0.00000000000E+00  0.00000000000E+00  0.13745348436E+04  0.14624891665E+04  0.49952830360E+03 0.  0.
        1    1    3    3  502    0  0.69155338981E+02 -0.23661697552E+03  0.80481820123E+03  0.84172584080E+03  0.50400001928E-02 0. -1.
       -1    1    3    3    0  502 -0.69155338981E+02  0.23661697552E+03  0.56971664232E+03  0.62076332574E+03  0.50400001928E-02 0.  1.
</event>
<event>
 5   0  0.7812547E-02  0.5450288E+03  0.7818609E-02  0.1002651E+00
        1   -1    0    0  501    0  0.00000000000E+00  0.00000000000E+00  0.97718327386E+03  0.97718327388E+03  0.50400001928E-02 0.  1.
       -1   -1    0    0    0  501  0.00000000000E+00  0.00000000000E+00 -0.75998117660E+02  0.75998117827E+02  0.50400001928E-02 0. -1.
    10030    2    1    2    0    0  0.00000000000E+00  0.00000000000E+00  0.90118515620E+03  0.10531813917E+04  0.54502876811E+03 0.  0.
        4    1    3    3  502    0 -0.23821094602E+03 -0.12221056337E+03  0.35239238864E+03  0.44256286002E+03  0.12699999809E+01 0.  1.
       -4    1    3    3    0  502  0.23821094602E+03  0.12221056337E+03  0.54879276757E+03  0.61061853168E+03  0.12699999809E+01 0. -1.
</event>
<event>
 5   0  0.5006750E-02  0.5156940E+03  0.7818609E-02  0.1009762E+00
       -3   -1    0    0    0  501  0.00000000000E+00  0.00000000000E+00  0.15916533102E+03  0.15916536307E+03  0.10100000352E+00 0.  1.
        3   -1    0    0  501    0  0.00000000000E+00  0.00000000000E+00 -0.41771063300E+03  0.41771064521E+03  0.10100000352E+00 0. -1.
    10030    2    1    2    0    0  0.00000000000E+00  0.00000000000E+00 -0.25854530197E+03  0.57687600827E+03  0.51569395551E+03 0.  0.
        1    1    3    3  502    0  0.11502241209E+03  0.39416338943E+02 -0.38362807526E+03  0.40243546466E+03  0.50400001928E-02 0. -1.
       -1    1    3    3    0  502 -0.11502241209E+03 -0.39416338943E+02  0.12508277329E+03  0.17444054362E+03  0.50400001928E-02 0.  1.
</event>
<event>
 5   0  0.7602288E-02  0.5173769E+03  0.7818609E-02  0.1009340E+00
       -1   -1    0    0    0  501  0.00000000000E+00  0.00000000000E+00  0.21551786092E+03  0.21551786098E+03  0.50400001928E-02 0. -1.
        1   -1    0    0  501    0  0.00000000000E+00  0.00000000000E+00 -0.31050652387E+03  0.31050652391E+03  0.50400001928E-02 0.  1.
    10030    2    1    2    0    0  0.00000000000E+00  0.00000000000E+00 -0.94988662945E+02  0.52602438489E+03  0.51737685241E+03 0.  0.
        5    1    3    3  502    0  0.12520071960E+03  0.46923235632E+02  0.17761225446E+03  0.22236279627E+03  0.46999998093E+01 0. -1.
       -5    1    3    3    0  502 -0.12520071960E+03 -0.46923235632E+02 -0.27260091741E+03  0.30366158862E+03  0.46999998093E+01 0.  1.
</event>
<event>
 5   0  0.1211345E-01  0.4965536E+03  0.7818609E-02  0.1014682E+00
        2   -1    0    0  501    0  0.00000000000E+00  0.00000000000E+00  0.49743259065E+03  0.49743259066E+03  0.25500000920E-02 0. -1.
       -2   -1    0    0    0  501  0.00000000000E+00  0.00000000000E+00 -0.12391905412E+03  0.12391905415E+03  0.25500000920E-02 0.  1.
    10030    2    1    2    0    0  0.00000000000E+00  0.00000000000E+00  0.37351353653E+03  0.62135164480E+03  0.49655362704E+03 0.  0.
        5    1    3    3  502    0 -0.16559389022E+03 -0.16961967930E+03  0.94572721759E+02  0.25526116388E+03  0.46999998093E+01 0.  1.
       -5    1    3    3    0  502  0.16559389022E+03  0.16961967930E+03  0.27894081477E+03  0.36609048093E+03  0.46999998093E+01 0. -1.
</event>
<event>
 5   0  0.1279188E-01  0.4979140E+03  0.7818609E-02  0.1014325E+00
        2   -1    0    0  501    0  0.00000000000E+00  0.00000000000E+00  0.19101040689E+04  0.19101040689E+04  0.25500000920E-02 0. -1.
       -2   -1    0    0    0  501  0.00000000000E+00  0.00000000000E+00 -0.32448274850E+02  0.32448274950E+02  0.25500000920E-02 0.  1.
    10030    2    1    2    0    0  0.00000000000E+00  0.00000000000E+00  0.18776557941E+04  0.19425523439E+04  0.49791397618E+03 0.  0.
        2    1    3    3  502    0  0.94348203349E+02  0.33679249228E+02  0.18279980612E+04  0.18307410486E+04  0.25500000920E-02 0. -1.
       -2    1    3    3    0  502 -0.94348203349E+02 -0.33679249228E+02  0.49657732834E+02  0.11181129523E+03  0.25500000920E-02 0.  1.
</event>
<event>
 5   0  0.1191894E-01  0.4987983E+03  0.7818609E-02  0.1014093E+00
        2   -1    0    0  501    0  0.00000000000E+00  0.00000000000E+00  0.47574021049E+03  0.47574021049E+03  0.25500000920E-02 0.  1.
       -2   -1    0    0    0  501  0.00000000000E+00  0.00000000000E+00 -0.13074351544E+03  0.13074351547E+03  0.25500000920E-02 0. -1.
    10030    2    1    2    0    0  0.00000000000E+00  0.00000000000E+00  0.34499669504E+03  0.60648372596E+03  0.49879834629E+03 0.  0.
        3    1    3    3  502    0  0.20676660516E+03 -0.10539394479E+03  0.28353526630E+03  0.36640492633E+03  0.10100000352E+00 0.  1.
       -3    1    3    3    0  502 -0.20676660516E+03  0.10539394479E+03  0.61461428749E+02  0.24007879963E+03  0.10100000352E+00 0. -1.
</event>
<event>
 5   0  0.7416638E-02  0.4901429E+03  0.7818609E-02  0.1016384E+00
        1   -1    0    0  501    0  0.00000000000E+00  0.00000000000E+00  0.59035357192E+03  0.59035357194E+03  0.50400001928E-02 0.  1.
       -1   -1    0    0    0  501  0.00000000000E+00  0.00000000000E+00 -0.10173566316E+03  0.10173566328E+03  0.50400001928E-02 0. -1.
    10030    2    1    2    0    0  0.00000000000E+00  0.00000000000E+00  0.48861790876E+03  0.69208923522E+03  0.49014288605E+03 0.  0.
        1    1    3    3  502    0  0.18802768261E+03 -0.13252258602E+03  0.36365028340E+03  0.43030009746E+03  0.50400001928E-02 0.  1.
       -1    1    3    3    0  502 -0.18802768261E+03  0.13252258602E+03  0.12496762536E+03  0.26178913776E+03  0.50400001928E-02 0. -1.
</event>
<event>
 5   0  0.1191894E-01  0.4975445E+03  0.7818609E-02  0.1014422E+00
        2   -1    0    0  501    0  0.00000000000E+00  0.00000000000E+00  0.31667029284E+03  0.31667029285E+03  0.25500000920E-02 0.  1.
       -2   -1    0    0    0  501  0.00000000000E+00  0.00000000000E+00 -0.19543239079E+03  0.19543239081E+03  0.25500000920E-02 0. -1.
    10030    2    1    2    0    0  0.00000000000E+00  0.00000000000E+00  0.12123790205E+03  0.51210268366E+03  0.49754450024E+03 0.  0.
        3    1    3    3  502    0 -0.77414195414E+02  0.40217261711E+02  0.30041056197E+03  0.31282087803E+03  0.10100000352E+00 0.  1.
       -3    1    3    3    0  502  0.77414195414E+02 -0.40217261711E+02 -0.17917265991E+03  0.19928180562E+03  0.10100000352E+00 0. -1.
</event>
<event>
 5   0  0.1211345E-01  0.4950827E+03  0.7818609E-02  0.1015070E+00
       -2   -1    0    0    0  501  0.00000000000E+00  0.00000000000E+00  0.92655072076E+02  0.92655072111E+02  0.25500000920E-02 0. -1.
        2   -1    0    0  501    0  0.00000000000E+00  0.00000000000E+00 -0.66134235630E+03  0.66134235631E+03  0.25500000920E-02 0.  1.
    10030    2    1    2    0    0  0.00000000000E+00  0.00000000000E+00 -0.56868728423E+03  0.75399742842E+03  0.49508271513E+03 0.  0.
        5    1    3    3  502    0 -0.16020354109E+03  0.33327066122E+02 -0.56713618708E+03  0.59028926181E+03  0.46999998093E+01 0.  1.
       -5    1    3    3    0  502  0.16020354109E+03 -0.33327066122E+02 -0.15510971518E+01  0.16370816661E+03  0.46999998093E+01 0. -1.
</event>
<event>
 5   0  0.7812547E-02  0.4867007E+03  0.7818609E-02  0.1017310E+00
        1   -1    0    0  501    0  0.00000000000E+00  0.00000000000E+00  0.50675583434E+03  0.50675583436E+03  0.50400001928E-02 0.  1.
       -1   -1    0    0    0  501  0.00000000000E+00  0.00000000000E+00 -0.11685981872E+03  0.11685981883E+03  0.50400001928E-02 0. -1.
    10030    2    1    2    0    0  0.00000000000E+00  0.00000000000E+00  0.38989601562E+03  0.62361565319E+03  0.48670070876E+03 0.  0.
        4    1    3    3  502    0  0.23908750579E+02  0.24056205968E+03  0.15925364388E+03  0.28949105151E+03  0.12699999809E+01 0. -1.
       -4    1    3    3    0  502 -0.23908750579E+02 -0.24056205968E+03  0.23064237174E+03  0.33412460169E+03  0.12699999809E+01 0.  1.
</event>
<event>
 5   0  0.5006750E-02  0.5071504E+03  0.7818609E-02  0.1011929E+00
        4   -1    0    0  501    0  0.00000000000E+00  0.00000000000E+00  0.42951113504E+03  0.42951301263E+03  0.12699999809E+01 0.  1.
       -4   -1    0    0    0  501  0.00000000000E+00  0.00000000000E+00 -0.14970106994E+03  0.14970645692E+03  0.12699999809E+01 0. -1.
    10030    2    1    2    0    0  0.00000000000E+00  0.00000000000E+00  0.27981006509E+03  0.57921946955E+03  0.50715039326E+03 0.  0.
        5    1    3    3  502    0  0.17437756150E+02  0.25871360970E+02  0.42726416662E+03  0.42842754432E+03  0.46999998093E+01 0.  1.
       -5    1    3    3    0  502 -0.17437756150E+02 -0.25871360970E+02 -0.14745410153E+03  0.15079192523E+03  0.46999998093E+01 0. -1.
</event>
<event>
 5   0  0.1243803E-01  0.4998849E+03  0.7818609E-02  0.1013809E+00
        2   -1    0    0  501    0  0.00000000000E+00  0.00000000000E+00  0.85846377545E+03  0.85846377546E+03  0.25500000920E-02 0.  1.
       -2   -1    0    0    0  501  0.00000000000E+00  0.00000000000E+00 -0.72770956920E+02  0.72770956965E+02  0.25500000920E-02 0. -1.
    10030    2    1    2    0    0  0.00000000000E+00  0.00000000000E+00  0.78569281853E+03  0.93123473242E+03  0.49988490853E+03 0.  0.
        4    1    3    3  502    0 -0.58314100084E+02 -0.18502987845E+03  0.99281613814E+02  0.21793357229E+03  0.12699999809E+01 0. -1.
       -4    1    3    3    0  502  0.58314100084E+02  0.18502987845E+03  0.68641120472E+03  0.71330116014E+03  0.12699999809E+01 0.  1.
</event>
<event>
 5   0  0.1243803E-01  0.4996505E+03  0.7818609E-02  0.1013870E+00
       -2   -1    0    0    0  501  0.00000000000E+00  0.00000000000E+00  0.79193434084E+02  0.79193434125E+02  0.25500000920E-02 0. -1.
        2   -1    0    0  501    0  0.00000000000E+00  0.00000000000E+00 -0.78810379030E+03  0.78810379031E+03  0.25500000920E-02 0.  1.
    10030    2    1    2    0    0  0.00000000000E+00  0.00000000000E+00 -0.70891035622E+03  0.86729722443E+03  0.49965046018E+03 0.  0.
        4    1    3    3  502    0  0.12812093088E+03 -0.39252892303E+02 -0.72044018306E+03  0.73279699286E+03  0.12699999809E+01 0.  1.
       -4    1    3    3    0  502 -0.12812093088E+03  0.39252892303E+02  0.11529826841E+02  0.13450023157E+03  0.12699999809E+01 0. -1.
</event>
<event>
 5   0  0.1279188E-01  0.4993597E+03  0.7818609E-02  0.1013946E+00
       -2   -1    0    0    0  501  0.00000000000E+00  0.00000000000E+00  0.60429869842E+02  0.60429869896E+02  0.25500000920E-02 0.  1.
        2   -1    0    0  501    0  0.00000000000E+00  0.00000000000E+00 -0.10316096279E+04  0.10316096279E+04  0.25500000920E-02 0. -1.
    10030    2    1    2    0    0  0.00000000000E+00  0.00000000000E+00 -0.97117975808E+03  0.10920394978E+04  0.49935973235E+03 0.  0.
        2    1    3    3  502    0 -0.23587273185E+03  0.66900890317E+02 -0.38235710818E+03  0.45421210126E+03  0.25500000920E-02 0.  1.
       -2    1    3    3    0  502  0.23587273185E+03 -0.66900890317E+02 -0.58882264990E+03  0.63782739655E+03  0.25500000920E-02 0. -1.
</event>
<event>
 5   0  0.1231822E-01  0.5019586E+03  0.7818609E-02  0.1013269E+00
       -2   -1    0    0    0  501  0.00000000000E+00  0.00000000000E+00  0.14504464822E+03  0.14504464825E+03  0.25500000920E-02 0. -1.
        2   -1    0    0  501    0  0.00000000000E+00  0.00000000000E+00 -0.43428433145E+03  0.43428433146E+03  0.25500000920E-02 0.  1.
    10030    2    1    2    0    0  0.00000000000E+00  0.00000000000E+00 -0.28923968322E+03  0.57932897970E+03  0.50195863612E+03 0.  0.
        1    1    3    3  502    0  0.13893187065E+02 -0.19640550197E+03  0.35005080239E+02  0.19998374313E+03  0.50400001928E-02 0. -1.
       -1    1    3    3    0  502 -0.13893187065E+02  0.19640550197E+03 -0.32424476346E+03  0.37934523657E+03  0.50400001928E-02 0.  1.
</event>
<event>
 5   0  0.1243803E-01  0.4968703E+03  0.7818609E-02  0.1014599E+00
        2   -1    0    0  501    0  0.00000000000E+00  0.00000000000E+00  0.12914088330E+04  0.12914088330E+04  0.25500000920E-02 0. -1.
       -2   -1    0    0    0  501  0.00000000000E+00  0.00000000000E+00 -0.47792786234E+02  0.47792786302E+02  0.25500000920E-02 0.  1.
    10030    2    1    2    0    0  0.00000000000E+00  0.00000000000E+00  0.12436160468E+04  0.13392016194E+04  0.49687031043E+03 0.  0.
        4    1    3    3  502    0  0.22247334438E+02 -0.12322913300E+03  0.12001189267E+04  0.12066347477E+04  0.12699999809E+01 0. -1.
       -4    1    3    3    0  502 -0.22247334438E+02  0.12322913300E+03  0.43497120085E+02  0.13256687167E+03  0.12699999809E+01 0.  1.
</event>
<event>
 5   0  0.1191894E-01  0.4970737E+03  0.7818609E-02  0.1014546E+00
       -2   -1    0    0    0  501  0.00000000000E+00  0.00000000000E+00  0.26192493738E+02  0.26192493862E+02  0.25500000920E-02 0.  1.
        2   -1    0    0  501    0  0.00000000000E+00  0.00000000000E+00 -0.23583311532E+04  0.23583311532E+04  0.25500000920E-02 0. -1.
    10030    2    1    2    0    0  0.00000000000E+00  0.00000000000E+00 -0.23321386595E+04  0.23845236471E+04  0.49707373342E+03 0.  0.
        3    1    3    3  502    0  0.21337127349E+03 -0.59505299926E+02 -0.62541035310E+03  0.66348044510E+03  0.10100000352E+00 0.  1.
       -3    1    3    3    0  502 -0.21337127349E+03  0.59505299926E+02 -0.17067283064E+04  0.17210432020E+04  0.10100000352E+00 0. -1.
</event>
<event>
 5   0  0.5006750E-02  0.4702090E+03  0.7818609E-02  0.1021861E+00
        3   -1    0    0  501    0  0.00000000000E+00  0.00000000000E+00  0.43998561004E+03  0.43998562163E+03  0.10100000352E+00 0. -1.
       -3   -1    0    0    0  501  0.00000000000E+00  0.00000000000E+00 -0.12562711399E+03  0.12562715459E+03  0.10100000352E+00 0.  1.
    10030    2    1    2    0    0  0.00000000000E+00  0.00000000000E+00  0.31435849605E+03  0.56561277622E+03  0.47020904775E+03 0.  0.
        1    1    3    3  502    0 -0.17507955143E+02  0.17453976361E+03 -0.31117191929E+02  0.17815425123E+03  0.50400001928E-02 0.  1.
       -1    1    3    3    0  502  0.17507955143E+02 -0.17453976361E+03  0.34547568798E+03  0.38745852498E+03  0.50400001928E-02 0. -1.
</event>
<event>
 5   0  0.7416638E-02  0.5007812E+03  0.7818609E-02  0.1013575E+00
       -1   -1    0    0    0  501  0.00000000000E+00  0.00000000000E+00  0.50768160900E+02  0.50768161150E+02  0.50400001928E-02 0. -1.
        1   -1    0    0  501    0  0.00000000000E+00  0.00000000000E+00 -0.12349365118E+04  0.12349365118E+04  0.50400001928E-02 0.  1.
    10030    2    1    2    0    0  0.00000000000E+00  0.00000000000E+00 -0.11841683509E+04  0.12857046729E+04  0.50078121250E+03 0.  0.
        1    1    3    3  502    0 -0.21650475205E+03 -0.12575754156E+03 -0.59847114612E+03  0.64873490709E+03  0.50400001928E-02 0.  1.
       -1    1    3    3    0  502  0.21650475205E+03  0.12575754156E+03 -0.58569720476E+03  0.63696976585E+03  0.50400001928E-02 0. -1.
</event>
<event>
 5   0  0.7416638E-02  0.5086531E+03  0.7818609E-02  0.1011545E+00
        1   -1    0    0  501    0  0.00000000000E+00  0.00000000000E+00  0.36846247858E+03  0.36846247861E+03  0.50400001928E-02 0.  1.
       -1   -1    0    0    0  501  0.00000000000E+00  0.00000000000E+00 -0.17554570764E+03  0.17554570771E+03  0.50400001928E-02 0. -1.
    10030    2    1    2    0    0  0.00000000000E+00  0.00000000000E+00  0.19291677093E+03  0.54400818633E+03  0.50865314929E+03 0.  0.
        1    1    3    3  502    0  0.11348597491E+03  0.17856500823E+03 -0.54480406245E+02  0.21847801573E+03  0.50400001928E-02 0. -1.
       -1    1    3    3    0  502 -0.11348597491E+03 -0.17856500823E+03  0.24739717718E+03  0.32553017060E+03  0.50400001928E-02 0.  1.
</event>
<event>
 5   0  0.7812547E-02  0.5030025E+03  0.7818609E-02  0.1012998E+00
        1   -1    0    0  501    0  0.00000000000E+00  0.00000000000E+00  0.49172317997E+03  0.49172317999E+03  0.50400001928E-02 0. -1.
       -1   -1    0    0    0  501  0.00000000000E+00  0.00000000000E+00 -0.12863511859E+03  0.12863511868E+03  0.50400001928E-02 0.  1.
    10030    2    1    2    0    0  0.00000000000E+00  0.00000000000E+00  0.36308806138E+03  0.62035829868E+03  0.50300246363E+03 0.  0.
        4    1    3    3  502    0 -0.18514037475E+03 -0.41838723697E+02  0.38503587724E+03  0.42928041747E+03  0.12699999809E+01 0. -1.
       -4    1    3    3    0  502  0.18514037475E+03  0.41838723697E+02 -0.21947815857E+02  0.19107788120E+03  0.12699999809E+01 0.  1.
</event>
<event>
 5   0  0.7416638E-02  0.5122905E+03  0.7818609E-02  0.1010620E+00
       -1   -1    0    0    0  501  0.00000000000E+00  0.00000000000E+00  0.41603435487E+03  0.41603435490E+03  0.50400001928E-02 0. -1.
        1   -1    0    0  501    0  0.00000000000E+00  0.00000000000E+00 -0.15770426253E+03  0.15770426261E+03  0.50400001928E-02 0.  1.
    10030    2    1    2    0    0  0.00000000000E+00  0.00000000000E+00  0.25833009234E+03  0.57373861751E+03  0.51229050803E+03 0.  0.
        1    1    3    3  502    0  0.66328697130E+02  0.24731441842E+03  0.12153019637E+03  0.28343166068E+03  0.50400001928E-02 0. -1.
       -1    1    3    3    0  502 -0.66328697130E+02 -0.24731441842E+03  0.13679989597E+03  0.29030695683E+03  0.50400001928E-02 0.  1.
</event>
<event>
 5   0  0.1231822E-01  0.5029236E+03  0.7818609E-02  0.1013019E+00
       -2   -1    0    0    0  501  0.00000000000E+00  0.00000000000E+00  0.93266822086E+02  0.93266822121E+02  0.25500000920E-02 0.  1.
        2   -1    0    0  501    0  0.00000000000E+00  0.00000000000E+00 -0.67797989754E+03  0.67797989755E+03  0.25500000920E-02 0. -1.
    10030    2    1    2    0    0  0.00000000000E+00  0.00000000000E+00 -0.58471307546E+03  0.77124671967E+03  0.50292357470E+03 0.  0.
        1    1    3    3  502    0  0.88484404190E+02  0.23112433671E+03 -0.36068167693E+03  0.43742338861E+03  0.50400001928E-02 0.  1.
       -1    1    3    3    0  502 -0.88484404190E+02 -0.23112433671E+03 -0.22403139852E+03  0.33382333105E+03  0.50400001928E-02 0. -1.
</event>
<event>
 5   0  0.1243803E-01  0.4995075E+03  0.7818609E-02  0.1013908E+00
        2   -1    0    0  501    0  0.00000000000E+00  0.00000000000E+00  0.46216410448E+03  0.46216410449E+03  0.25500000920E-02 0.  1.
       -2   -1    0    0    0  501  0.00000000000E+00  0.00000000000E+00 -0.13496705511E+03  0.13496705514E+03  0.25500000920E-02 0. -1.
    10030    2    1    2    0    0  0.00000000000E+00  0.00000000000E+00  0.32719704937E+03  0.59713115963E+03  0.49950747009E+03 0.  0.
        4    1    3    3  502    0 -0.14069179299E+03 -0.20593488482E+03  0.17927465173E+03  0.30715528818E+03  0.12699999809E+01 0. -1.
       -4    1    3    3    0  502  0.14069179299E+03  0.20593488482E+03  0.14792239764E+03  0.28997587145E+03  0.12699999809E+01 0.  1.
</event>
<event>
 5   0  0.1279188E-01  0.5018140E+03  0.7818609E-02  0.1013307E+00
       -2   -1    0    0    0  501  0.00000000000E+00  0.00000000000E+00  0.69599876238E+02  0.69599876285E+02  0.25500000920E-02 0.  1.
        2   -1    0    0  501    0  0.00000000000E+00  0.00000000000E+00 -0.90451785876E+03  0.90451785876E+03  0.25500000920E-02 0. -1.
    10030    2    1    2    0    0  0.00000000000E+00  0.00000000000E+00 -0.83491798252E+03  0.97411773505E+03  0.50181403348E+03 0.  0.
        2    1    3    3  502    0 -0.11930196127E+03  0.13606594435E+02  0.10204014770E+02  0.12050817109E+03  0.25500000920E-02 0.  1.
       -2    1    3    3    0  502  0.11930196127E+03 -0.13606594435E+02 -0.84512199729E+03  0.85360956396E+03  0.25500000920E-02 0. -1.
</event>
<event>
 5   0  0.7602288E-02  0.4989375E+03  0.7818609E-02  0.1014057E+00
       -1   -1    0    0    0  501  0.00000000000E+00  0.00000000000E+00  0.85148920601E+03  0.85148920602E+03  0.50400001928E-02 0. -1.
        1   -1    0    0  501    0  0.00000000000E+00  0.00000000000E+00 -0.73089197671E+02  0.73089197845E+02  0.50400001928E-02 0.  1.
    10030    2    1    2    0    0  0.00000000000E+00  0.00000000000E+00  0.77840000834E+03  0.92457840387E+03  0.49893752306E+03 0.  0.
        5    1    3    3  502    0  0.44831126562E+02  0.28038287752E+02 -0.62501427912E+02  0.82003012006E+02  0.46999998093E+01 0.  1.
       -5    1    3    3    0  502 -0.44831126562E+02 -0.28038287752E+02  0.84090143625E+03  0.84257539186E+03  0.46999998093E+01 0. -1.
</event>
<event>
 5   0  0.7531632E-02  0.4964081E+03  0.7818609E-02  0.1014721E+00
        1   -1    0    0  501    0  0.00000000000E+00  0.00000000000E+00  0.97832735102E+03  0.97832735103E+03  0.50400001928E-02 0. -1.
       -1   -1    0    0    0  501  0.00000000000E+00  0.00000000000E+00 -0.62969973120E+02  0.62969973322E+02  0.50400001928E-02 0.  1.
    10030    2    1    2    0    0  0.00000000000E+00  0.00000000000E+00  0.91535737790E+03  0.10412973244E+04  0.49640808659E+03 0.  0.
        3    1    3    3  502    0 -0.47307995147E+01  0.19783337191E+03  0.14341521687E+03  0.24439385863E+03  0.10100000352E+00 0. -1.
       -3    1    3    3    0  502  0.47307995147E+01 -0.19783337191E+03  0.77194216103E+03  0.79690346572E+03  0.10100000352E+00 0.  1.
</event>
<event>
 5   0  0.1231822E-01  0.4995563E+03  0.7818609E-02  0.1013895E+00
       -2   -1    0    0    0  501  0.00000000000E+00  0.00000000000E+00  0.93421733706E+02  0.93421733741E+02  0.25500000920E-02 0. -1.
        2   -1    0    0  501    0  0.00000000000E+00  0.00000000000E+00 -0.66782232346E+03  0.66782232346E+03  0.25500000920E-02 0.  1.
    10030    2    1    2    0    0  0.00000000000E+00  0.00000000000E+00 -0.57440058975E+03  0.76124405720E+03  0.49955628023E+03 0.  0.
        1    1    3    3  502    0 -0.12832496248E+03  0.97123527171E+02  0.38845151985E+01  0.16098249908E+03  0.50400001928E-02 0. -1.
       -1    1    3    3    0  502  0.12832496248E+03 -0.97123527171E+02 -0.57828510495E+03  0.60026155812E+03  0.50400001928E-02 0.  1.
</event>
<event>
 5   0  0.5006750E-02  0.5032088E+03  0.7818609E-02  0.1012945E+00
       -3   -1    0    0    0  501  0.00000000000E+00  0.00000000000E+00  0.33503116494E+03  0.33503118016E+03  0.10100000352E+00 0.  1.
        3   -1    0    0  501    0  0.00000000000E+00  0.00000000000E+00 -0.18895189232E+03  0.18895191932E+03  0.10100000352E+00 0. -1.
    10030    2    1    2    0    0  0.00000000000E+00  0.00000000000E+00  0.14607927262E+03  0.52398309948E+03  0.50320883801E+03 0.  0.
        5    1    3    3  502    0 -0.12138069907E+03 -0.11810142624E+03  0.26673370011E+03  0.31599078746E+03  0.46999998093E+01 0.  1.
       -5    1    3    3    0  502  0.12138069907E+03  0.11810142624E+03 -0.12065442749E+03  0.20799231202E+03  0.46999998093E+01 0. -1.
</event>
<event>
 5   0  0.7812547E-02  0.5031039E+03  0.7818609E-02  0.1012972E+00
        1   -1    0    0  501    0  0.00000000000E+00  0.00000000000E+00  0.46818061530E+03  0.46818061532E+03  0.50400001928E-02 0. -1.
       -1   -1    0    0    0  501  0.00000000000E+00  0.00000000000E+00 -0.13515808543E+03  0.13515808552E+03  0.50400001928E-02 0.  1.
    10030    2    1    2    0    0  0.00000000000E+00  0.00000000000E+00  0.33302252987E+03  0.60333870084E+03  0.50310394804E+03 0.  0.
        4    1    3    3  502    0  0.37646211557E+02  0.11826891035E+03 -0.95876929591E+02  0.15683995322E+03  0.12699999809E+01 0.  1.
       -4    1    3    3    0  502 -0.37646211557E+02 -0.11826891035E+03  0.42889945946E+03  0.44649874762E+03  0.12699999809E+01 0. -1.
</event>
<event>
 5   0  0.7416638E-02  0.5002085E+03  0.7818609E-02  0.1013725E+00
       -1   -1    0    0    0  501  0.00000000000E+00  0.00000000000E+00  0.73696116369E+02  0.73696116542E+02  0.50400001928E-02 0. -1.
        1   -1    0    0  501    0  0.00000000000E+00  0.00000000000E+00 -0.84878473494E+03  0.84878473496E+03  0.50400001928E-02 0.  1.
    10030    2    1    2    0    0  0.00000000000E+00  0.00000000000E+00 -0.77508861857E+03  0.92248085150E+03  0.50020851126E+03 0.  0.
        1    1    3    3  502    0  0.16615397211E+03  0.42670311556E+02 -0.51900030449E+02  0.17922475031E+03  0.50400001928E-02 0. -1.
       -1    1    3    3    0  502 -0.16615397211E+03 -0.42670311556E+02 -0.72318858812E+03  0.74325610119E+03  0.50400001928E-02 0.  1.
</event>
<event>
 5   0  0.7416638E-02  0.5075921E+03  0.7818609E-02  0.1011816E+00
       -1   -1    0    0    0  501  0.00000000000E+00  0.00000000000E+00  0.15498084316E+03  0.15498084324E+03  0.50400001928E-02 0.  1.
        1   -1    0    0  501    0  0.00000000000E+00  0.00000000000E+00 -0.41561544488E+03  0.41561544491E+03  0.50400001928E-02 0. -1.
    10030    2    1    2    0    0  0.00000000000E+00  0.00000000000E+00 -0.26063460172E+03  0.57059628815E+03  0.50759208862E+03 0.  0.
        1    1    3    3  502    0 -0.26627501023E+00  0.20946243412E+03  0.30781231930E+02  0.21171222562E+03  0.50400001928E-02 0.  1.
       -1    1    3    3    0  502  0.26627501023E+00 -0.20946243412E+03 -0.29141583365E+03  0.35888406253E+03  0.50400001928E-02 0. -1.
</event>
<event>
 5   0  0.5006750E-02  0.4852736E+03  0.7818609E-02  0.1017696E+00
       -3   -1    0    0    0  501  0.00000000000E+00  0.00000000000E+00  0.16494628624E+03  0.16494631716E+03  0.10100000352E+00 0. -1.
        3   -1    0    0  501    0  0.00000000000E+00  0.00000000000E+00 -0.35691980560E+03  0.35691981989E+03  0.10100000352E+00 0.  1.
    10030    2    1    2    0    0  0.00000000000E+00  0.00000000000E+00 -0.19197351935E+03  0.52186613705E+03  0.48527356498E+03 0.  0.
        4    1    3    3  502    0  0.20167479857E+03 -0.37807562179E+02 -0.23524607064E+03  0.31216095654E+03  0.12699999809E+01 0.  1.
       -4    1    3    3    0  502 -0.20167479857E+03  0.37807562179E+02  0.43272551286E+02  0.20970518051E+03  0.12699999809E+01 0. -1.
</event>
<event>
 5   0  0.7602288E-02  0.5047976E+03  0.7818609E-02  0.1012534E+00
       -1   -1    0    0    0  501  0.00000000000E+00  0.00000000000E+00  0.10697855327E+04  0.10697855327E+04  0.50400001928E-02 0.  1.
        1   -1    0    0  501    0  0.00000000000E+00  0.00000000000E+00 -0.59549464356E+02  0.59549464570E+02  0.50400001928E-02 0. -1.
    10030    2    1    2    0    0  0.00000000000E+00  0.00000000000E+00  0.10102360683E+04  0.11293349972E+04  0.50479760528E+03 0.  0.
        5    1    3    3  502    0 -0.12655743745E+03  0.18595042258E+03  0.24916864050E+03  0.33571036034E+03  0.46999998093E+01 0. -1.
       -5    1    3    3    0  502  0.12655743745E+03 -0.18595042258E+03  0.76106742780E+03  0.79362463690E+03  0.46999998093E+01 0.  1.
</event>
<event>
 5   0  0.7531632E-02  0.5113157E+03  0.7818609E-02  0.1010867E+00
        1   -1    0    0  501    0  0.00000000000E+00  0.00000000000E+00  0.29276040106E+03  0.29276040110E+03  0.50400001928E-02 0. -1.
       -1   -1    0    0    0  501  0.00000000000E+00  0.00000000000E+00 -0.22325742987E+03  0.22325742993E+03  0.50400001928E-02 0.  1.
    10030    2    1    2    0    0  0.00000000000E+00  0.00000000000E+00  0.69502971187E+02  0.51601783104E+03  0.51131569401E+03 0.  0.
        3    1    3    3  502    0  0.36182427306E+02  0.18954002917E+03 -0.13449986759E+03  0.23521227708E+03  0.10100000352E+00 0.  1.
       -3    1    3    3    0  502 -0.36182427306E+02 -0.18954002917E+03  0.20400283878E+03  0.28080555396E+03  0.10100000352E+00 0. -1.
</event>
<event>
 5   0  0.1243803E-01  0.5007923E+03  0.7818609E-02  0.1013572E+00
        2   -1    0    0  501    0  0.00000000000E+00  0.00000000000E+00  0.31594592667E+03  0.31594592668E+03  0.25500000920E-02 0. -1.
       -2   -1    0    0    0  501  0.00000000000E+00  0.00000000000E+00 -0.19844609364E+03  0.19844609365E+03  0.25500000920E-02 0.  1.
    10030    2    1    2    0    0  0.00000000000E+00  0.00000000000E+00  0.11749983303E+03  0.51439202033E+03  0.50079231206E+03 0.  0.
        4    1    3    3  502    0 -0.14620557259E+03  0.30125639657E+02 -0.14773917175E+03  0.21002880610E+03  0.12699999809E+01 0.  1.
       -4    1    3    3    0  502  0.14620557259E+03 -0.30125639657E+02  0.26523900478E+03  0.30436321423E+03  0.12699999809E+01 0. -1.
</event>
<event>
 5   0  0.1231822E-01  0.4918117E+03  0.7818609E-02  0.1015939E+00
       -2   -1    0    0    0  501  0.00000000000E+00  0.00000000000E+00  0.70555460064E+02  0.70555460111E+02  0.25500000920E-02 0. -1.
        2   -1    0    0  501    0  0.00000000000E+00  0.00000000000E+00 -0.85705194753E+03  0.85705194754E+03  0.25500000920E-02 0.  1.
    10030    2    1    2    0    0  0.00000000000E+00  0.00000000000E+00 -0.78649648747E+03  0.92760740765E+03  0.49181173016E+03 0.  0.
        1    1    3    3  502    0  0.86773591098E+01  0.94120170412E+02 -0.82142175873E+03  0.82684194909E+03  0.50400001928E-02 0.  1.
       -1    1    3    3    0  502 -0.86773591098E+01 -0.94120170412E+02  0.34925271261E+02  0.10076545855E+03  0.50400001928E-02 0. -1.
</event>
<event>
 5   0  0.7812547E-02  0.5185619E+03  0.7818609E-02  0.1009044E+00
       -1   -1    0    0    0  501  0.00000000000E+00  0.00000000000E+00  0.15683212386E+03  0.15683212394E+03  0.50400001928E-02 0. -1.
        1   -1    0    0  501    0  0.00000000000E+00  0.00000000000E+00 -0.42865338368E+03  0.42865338371E+03  0.50400001928E-02 0.  1.
    10030    2    1    2    0    0  0.00000000000E+00  0.00000000000E+00 -0.27182125982E+03  0.58548550765E+03  0.51856193688E+03 0.  0.
        4    1    3    3  502    0 -0.10797537903E+03  0.14979003272E+03 -0.34141518639E+03  0.38815161828E+03  0.12699999809E+01 0.  1.
       -4    1    3    3    0  502  0.10797537903E+03 -0.14979003272E+03  0.69593926573E+02  0.19733388937E+03  0.12699999809E+01 0. -1.
</event>
<event>
 5   0  0.1211345E-01  0.5089191E+03  0.7818609E-02  0.1011477E+00
       -2   -1    0    0    0  501  0.00000000000E+00  0.00000000000E+00  0.28433632676E+03  0.28433632677E+03  0.25500000920E-02 0.  1.
        2   -1    0    0  501    0  0.00000000000E+00  0.00000000000E+00 -0.22772205039E+03  0.22772205040E+03  0.25500000920E-02 0. -1.
    10030    2    1    2    0    0  0.00000000000E+00  0.00000000000E+00  0.56614276365E+02  0.51205837717E+03  0.50891905579E+03 0.  0.
        5    1    3    3  502    0 -0.10367575427E+03 -0.22837519892E+03 -0.14660712621E+02  0.25127857051E+03  0.46999998093E+01 0. -1.
       -5    1    3    3    0  502  0.10367575427E+03  0.22837519892E+03  0.71274988986E+02  0.26077980666E+03  0.46999998093E+01 0.  1.
</event>
<event>
 5   0  0.7781754E-02  0.5156490E+03  0.7818609E-02  0.1009773E+00
       -1   -1    0    0    0  501  0.00000000000E+00  0.00000000000E+00  0.36019012332E+03  0.36019012335E+03  0.50400001928E-02 0. -1.
        1   -1    0    0  501    0  0.00000000000E+00  0.00000000000E+00 -0.18455104137E+03  0.18455104144E+03  0.50400001928E-02 0.  1.
    10030    2    1    2    0    0  0.00000000000E+00  0.00000000000E+00  0.17563908195E+03  0.54474116479E+03  0.51564895957E+03 0.  0.
        2    1    3    3  502    0 -0.40704630181E+02  0.25391316910E+03  0.68206025786E+02  0.26604666193E+03  0.25500000920E-02 0.  1.
       -2    1    3    3    0  502  0.40704630181E+02 -0.25391316910E+03  0.10743305616E+03  0.27869450286E+03  0.25500000920E-02 0. -1.
</event>
<event>
 5   0  0.7416638E-02  0.4892213E+03  0.7818609E-02  0.1016631E+00
       -1   -1    0    0    0  501  0.00000000000E+00  0.00000000000E+00  0.91571244220E+02  0.91571244359E+02  0.50400001928E-02 0.  1.
        1   -1    0    0  501    0  0.00000000000E+00  0.00000000000E+00 -0.65341889841E+03  0.65341889843E+03  0.50400001928E-02 0. -1.
    10030    2    1    2    0    0  0.00000000000E+00  0.00000000000E+00 -0.56184765419E+03  0.74499014279E+03  0.48922134697E+03 0.  0.
        1    1    3    3  502    0 -0.31998484159E+02  0.15240566708E+03 -0.56817800515E+03  0.58913295266E+03  0.50400001928E-02 0. -1.
       -1    1    3    3    0  502  0.31998484159E+02 -0.15240566708E+03  0.63303509541E+01  0.15585719013E+03  0.50400001928E-02 0.  1.
</event>
<event>
 5   0  0.7416638E-02  0.4967888E+03  0.7818609E-02  0.1014620E+00
        1   -1    0    0  501    0  0.00000000000E+00  0.00000000000E+00  0.19074937432E+04  0.19074937432E+04  0.50400001928E-02 0.  1.
       -1   -1    0    0    0  501  0.00000000000E+00  0.00000000000E+00 -0.32345991432E+02  0.32345991825E+02  0.50400001928E-02 0. -1.
    10030    2    1    2    0    0  0.00000000000E+00  0.00000000000E+00  0.18751477518E+04  0.19398397350E+04  0.49678879481E+03 0.  0.
        1    1    3    3  502    0 -0.23805466240E+03 -0.69856265593E+02  0.98537431175E+03  0.10161262000E+04  0.50400001928E-02 0. -1.
       -1    1    3    3    0  502  0.23805466240E+03  0.69856265593E+02  0.88977344003E+03  0.92371353500E+03  0.50400001928E-02 0.  1.
</event>
<event>
 5   0  0.7531632E-02  0.5025506E+03  0.7818609E-02  0.1013115E+00
        1   -1    0    0  501    0  0.00000000000E+00  0.00000000000E+00  0.85101378479E+03  0.85101378480E+03  0.50400001928E-02 0. -1.
       -1   -1    0    0    0  501  0.00000000000E+00  0.00000000000E+00 -0.74193022718E+02  0.74193022889E+02  0.50400001928E-02 0.  1.
    10030    2    1    2    0    0  0.00000000000E+00  0.00000000000E+00  0.77682076207E+03  0.92520680769E+03  0.50255063488E+03 0.  0.
        3    1    3    3  502    0  0.12152149082E+03  0.12365082011E+03  0.72326530532E+03  0.74375379672E+03  0.10100000352E+00 0. -1.
       -3    1    3    3    0  502 -0.12152149082E+03 -0.12365082011E+03  0.53555456747E+02  0.18145301098E+03  0.10100000352E+00 0.  1.
</event>
<event>
 5   0  0.5006750E-02  0.4996508E+03  0.7818609E-02  0.1013870E+00
        3   -1    0    0  501    0  0.00000000000E+00  0.00000000000E+00  0.13760863621E+03  0.13760867327E+03  0.10100000352E+00 0.  1.
       -3   -1    0    0    0  501  0.00000000000E+00  0.00000000000E+00 -0.45355237508E+03  0.45355238632E+03  0.10100000352E+00 0. -1.
    10030    2    1    2    0    0  0.00000000000E+00  0.00000000000E+00 -0.31594373887E+03  0.59116105960E+03  0.49965083034E+03 0.  0.
        5    1    3    3  502    0  0.50948404982E+02  0.23536472739E+03 -0.23643836485E+03  0.33751664439E+03  0.46999998093E+01 0. -1.
       -5    1    3    3    0  502 -0.50948404982E+02 -0.23536472739E+03 -0.79505374024E+02  0.25364441521E+03  0.46999998093E+01 0.  1.
</event>
<event>
 5   0  0.1211345E-01  0.5002007E+03  0.7818609E-02  0.1013727E+00
       -2   -1    0    0    0  501  0.00000000000E+00  0.00000000000E+00  0.89486772426E+02  0.89486772462E+02  0.25500000920E-02 0.  1.
        2   -1    0    0  501    0  0.00000000000E+00  0.00000000000E+00 -0.69898793858E+03  0.69898793858E+03  0.25500000920E-02 0. -1.
    10030    2    1    2    0    0  0.00000000000E+00  0.00000000000E+00 -0.60950116615E+03  0.78847471105E+03  0.50020065815E+03 0.  0.
        5    1    3    3  502    0  0.11516082015E+03 -0.13472811965E+03 -0.26699716957E+02  0.17930043393E+03  0.46999998093E+01 0.  1.
       -5    1    3    3    0  502 -0.11516082015E+03  0.13472811965E+03 -0.58280144920E+03  0.60917427712E+03  0.46999998093E+01 0. -1.
</event>
<event>
 5   0  0.1231822E-01  0.4941002E+03  0.7818609E-02  0.1015330E+00
       -2   -1    0    0    0  501  0.00000000000E+00  0.00000000000E+00  0.25903977755E+03  0.25903977756E+03  0.25500000920E-02 0. -1.
        2   -1    0    0  501    0  0.00000000000E+00  0.00000000000E+00 -0.23561531994E+03  0.23561531996E+03  0.25500000920E-02 0.  1.
    10030    2    1    2    0    0  0.00000000000E+00  0.00000000000E+00  0.23424457601E+02  0.49465509752E+03  0.49410015208E+03 0.  0.
        1    1    3    3  502    0  0.36378173865E+02  0.21102495044E+03 -0.11162857540E+03  0.24148672865E+03  0.50400001928E-02 0.  1.
       -1    1    3    3    0  502 -0.36378173865E+02 -0.21102495044E+03  0.13505303300E+03  0.25316836886E+03  0.50400001928E-02 0. -1.
</event>
<event>
 5   0  0.7812547E-02  0.4995496E+03  0.7818609E-02  0.1013897E+00
        1   -1    0    0  501    0  0.00000000000E+00  0.00000000000E+00  0.75117347490E+03  0.75117347491E+03  0.50400001928E-02 0.  1.
       -1   -1    0    0    0  501  0.00000000000E+00  0.00000000000E+00 -0.83053328290E+02  0.83053328443E+02  0.50400001928E-02 0. -1.
    10030    2    1    2    0    0  0.00000000000E+00  0.00000000000E+00  0.66812014661E+03  0.83422680336E+03  0.49954962630E+03 0.  0.
        4    1    3    3  502    0 -0.14433041322E+03  0.13961360844E+03  0.58210709078E+03  0.61577066013E+03  0.12699999809E+01 0.  1.
       -4    1    3    3    0  502  0.14433041322E+03 -0.13961360844E+03  0.86013055826E+02  0.21845614323E+03  0.12699999809E+01 0. -1.
</event>
<event>
 5   0  0.7531632E-02  0.4985874E+03  0.7818609E-02  0.1014148E+00
       -1   -1    0    0    0  501  0.00000000000E+00  0.00000000000E+00  0.16084541644E+03  0.16084541652E+03  0.50400001928E-02 0.  1.
        1   -1    0    0  501    0  0.00000000000E+00  0.00000000000E+00 -0.38637936521E+03  0.38637936524E+03  0.50400001928E-02 0. -1.
    10030    2    1    2    0    0  0.00000000000E+00  0.00000000000E+00 -0.22553394876E+03  0.54722478176E+03  0.49858740430E+03 0.  0.
        3    1    3    3  502    0  0.52764204674E+02 -0.16349372465E+03  0.85501420011E+02  0.19189779133E+03  0.10100000352E+00 0.  1.
       -3    1    3    3    0  502 -0.52764204674E+02  0.16349372465E+03 -0.31103536878E+03  0.35532699042E+03  0.10100000352E+00 0. -1.
</event>
<event>
 5   0  0.1211345E-01  0.5017521E+03  0.7818609E-02  0.1013323E+00
        2   -1    0    0  501    0  0.00000000000E+00  0.00000000000E+00  0.64449034299E+03  0.64449034300E+03  0.25500000920E-02 0. -1.
       -2   -1    0    0    0  501  0.00000000000E+00  0.00000000000E+00 -0.97656705082E+02  0.97656705115E+02  0.25500000920E-02 0.  1.
    10030    2    1    2    0    0  0.00000000000E+00  0.00000000000E+00  0.54683363791E+03  0.74214704811E+03  0.50175214347E+03 0.  0.
        5    1    3    3  502    0 -0.12220333308E+03 -0.22679100039E+02 -0.48841750994E+02  0.13362485859E+03  0.46999998093E+01 0.  1.
       -5    1    3    3    0  502  0.12220333308E+03  0.22679100039E+02  0.59567538891E+03  0.60852218952E+03  0.46999998093E+01 0. -1.
</event>
<event>
 5   0  0.7531632E-02  0.4911210E+03  0.7818609E-02  0.1016123E+00
        1   -1    0    0  501    0  0.00000000000E+00  0.00000000000E+00  0.12718118549E+03  0.12718118559E+03  0.50400001928E-02 0.  1.
       -1   -1    0    0    0  501  0.00000000000E+00  0.00000000000E+00 -0.47412648808E+03  0.47412648811E+03  0.50400001928E-02 0. -1.
    10030    2    1    2    0    0  0.00000000000E+00  0.00000000000E+00 -0.34694530260E+03  0.60130767370E+03  0.49112103951E+03 0.  0.
        3    1    3    3  502    0  0.17938550239E+03 -0.28575602148E+02 -0.37578538314E+03  0.41738517928E+03  0.10100000352E+00 0. -1.
       -3    1    3    3    0  502 -0.17938550239E+03  0.28575602148E+02  0.28840080540E+02  0.18392249441E+03  0.10100000352E+00 0.  1.
</event>
<event>
 5   0  0.7416638E-02  0.5023320E+03  0.7818609E-02  0.1013172E+00
       -1   -1    0    0    0  501  0.00000000000E+00  0.00000000000E+00  0.74429136643E+02  0.74429136814E+02  0.50400001928E-02 0. -1.
        1   -1    0    0  501    0  0.00000000000E+00  0.00000000000E+00 -0.84757620744E+03  0.84757620746E+03  0.50400001928E-02 0.  1.
    10030    2    1    2    0    0  0.00000000000E+00  0.00000000000E+00 -0.77314707080E+03  0.92200534427E+03  0.50233202345E+03 0.  0.
        1    1    3    3  502    0 -0.21130432419E+02 -0.10680267171E+03 -0.80201442760E+03  0.80937040221E+03  0.50400001928E-02 0.  1.
       -1    1    3    3    0  502  0.21130432419E+02  0.10680267171E+03  0.28867356805E+02  0.11263494206E+03  0.50400001928E-02 0. -1.
</event>
<event>
 5   0  0.1243803E-01  0.5034025E+03  0.7818609E-02  0.1012895E+00
        2   -1    0    0  501    0  0.00000000000E+00  0.00000000000E+00  0.86343393121E+03  0.86343393121E+03  0.25500000920E-02 0. -1.
       -2   -1    0    0    0  501  0.00000000000E+00  0.00000000000E+00 -0.73373891478E+02  0.73373891522E+02  0.25500000920E-02 0.  1.
    10030    2    1    2    0    0  0.00000000000E+00  0.00000000000E+00  0.79006003973E+03  0.93680782273E+03  0.50340245366E+03 0.  0.
        4    1    3    3  502    0 -0.35791070082E+02  0.22977988814E+03  0.21583573113E+03  0.31727980305E+03  0.12699999809E+01 0.  1.
       -4    1    3    3    0  502  0.35791070082E+02 -0.22977988814E+03  0.57422430860E+03  0.61952801969E+03  0.12699999809E+01 0. -1.
</event>
<event>
 5   0  0.1279188E-01  0.4966253E+03  0.7818609E-02  0.1014664E+00
        2   -1    0    0  501    0  0.00000000000E+00  0.00000000000E+00  0.26636774081E+03  0.26636774082E+03  0.25500000920E-02 0. -1.
       -2   -1    0    0    0  501  0.00000000000E+00  0.00000000000E+00 -0.23148141302E+03  0.23148141303E+03  0.25500000920E-02 0.  1.
    10030    2    1    2    0    0  0.00000000000E+00  0.00000000000E+00  0.34886327785E+02  0.49784915385E+03  0.49662533577E+03 0.  0.
        2    1    3    3  502    0 -0.10715488372E+03 -0.61037898373E+02 -0.19861378769E+03  0.23378458206E+03  0.25500000920E-02 0.  1.
       -2    1    3    3    0  502  0.10715488372E+03  0.61037898373E+02  0.23350011547E+03  0.26406457179E+03  0.25500000920E-02 0. -1.
</event>
<event>
 5   0  0.7781754E-02  0.4983890E+03  0.7818609E-02  0.1014200E+00
       -1   -1    0    0    0  501  0.00000000000E+00  0.00000000000E+00  0.14236872829E+03  0.14236872838E+03  0.50400001928E-02 0. -1.
        1   -1    0    0  501    0  0.00000000000E+00  0.00000000000E+00 -0.43617656941E+03  0.43617656944E+03  0.50400001928E-02 0.  1.
    10030    2    1    2    0    0  0.00000000000E+00  0.00000000000E+00 -0.29380784112E+03  0.57854529782E+03  0.49838901886E+03 0.  0.
        2    1    3    3  502    0  0.21675862097E+03 -0.13181345432E+02 -0.28879075761E+03  0.36132831237E+03  0.25500000920E-02 0.  1.
       -2    1    3    3    0  502 -0.21675862097E+03  0.13181345432E+02 -0.50170835146E+01  0.21721698545E+03  0.25500000920E-02 0. -1.
</event>
<event>
 5   0  0.1279188E-01  0.4893658E+03  0.7818609E-02  0.1016592E+00
       -2   -1    0    0    0  501  0.00000000000E+00  0.00000000000E+00  0.12155440966E+03  0.12155440969E+03  0.25500000920E-02 0.  1.
        2   -1    0    0  501    0  0.00000000000E+00  0.00000000000E+00 -0.49253442716E+03  0.49253442716E+03  0.25500000920E-02 0. -1.
    10030    2    1    2    0    0  0.00000000000E+00  0.00000000000E+00 -0.37098001750E+03  0.61408883685E+03  0.48936584082E+03 0.  0.
        2    1    3    3  502    0  0.11849859819E+03  0.38971848241E+01  0.83100179437E+02  0.14478517069E+03  0.25500000920E-02 0.  1.
       -2    1    3    3    0  502 -0.11849859819E+03 -0.38971848241E+01 -0.45408019693E+03  0.46930366616E+03  0.25500000920E-02 0. -1.
</event>
<event>
 5   0  0.7781754E-02  0.4963793E+03  0.7818609E-02  0.1014728E+00
       -1   -1    0    0    0  501  0.00000000000E+00  0.00000000000E+00  0.91027629979E+02  0.91027630118E+02  0.50400001928E-02 0. -1.
        1   -1    0    0  501    0  0.00000000000E+00  0.00000000000E+00 -0.67669685220E+03  0.67669685222E+03  0.50400001928E-02 0.  1.
    10030    2    1    2    0    0  0.00000000000E+00  0.00000000000E+00 -0.58566922222E+03  0.76772448233E+03  0.49637933370E+03 0.  0.
        2    1    3    3  502    0  0.11015063752E+03  0.34263277363E+02  0.47044667802E+02  0.12458064014E+03  0.25500000920E-02 0. -1.
       -2    1    3    3    0  502 -0.11015063752E+03 -0.34263277363E+02 -0.63271389002E+03  0.64314384220E+03  0.25500000920E-02 0.  1.
</event>
<event>
 5   0  0.7602288E-02  0.5039883E+03  0.7818609E-02  0.1012743E+00
        1   -1    0    0  501    0  0.00000000000E+00  0.00000000000E+00  0.15364408474E+03  0.15364408482E+03  0.50400001928E-02 0. -1.
       -1   -1    0    0    0  501  0.00000000000E+00  0.00000000000E+00 -0.41329964288E+03  0.41329964291E+03  0.50400001928E-02 0.  1.
    10030    2    1    2    0    0  0.00000000000E+00  0.00000000000E+00 -0.25965555813E+03  0.56694372773E+03  0.50398827520E+03 0.  0.
        5    1    3    3  502    0  0.11042150859E+03  0.20400189854E+03 -0.24044338251E+03  0.33413289925E+03  0.46999998093E+01 0. -1.
       -5    1    3    3    0  502 -0.11042150859E+03 -0.20400189854E+03 -0.19212175620E+02  0.23281082848E+03  0.46999998093E+01 0.  1.
</event>
<event>
 5   0  0.7416638E-02  0.4980173E+03  0.7818609E-02  0.1014298E+00
        1   -1    0    0  501    0  0.00000000000E+00  0.00000000000E+00  0.56585051332E+03  0.56585051334E+03  0.50400001928E-02 0. -1.
       -1   -1    0    0    0  501  0.00000000000E+00  0.00000000000E+00 -0.10957897028E+03  0.10957897040E+03  0.50400001928E-02 0.  1.
    10030    2    1    2    0    0  0.00000000000E+00  0.00000000000E+00  0.45627154304E+03  0.67542948373E+03  0.49801733555E+03 0.  0.
        1    1    3    3  502    0 -0.10905683730E+02 -0.11532586777E+03  0.52708166215E+03  0.53966106800E+03  0.50400001928E-02 0. -1.
       -1    1    3    3    0  502  0.10905683730E+02  0.11532586777E+03 -0.70810119118E+02  0.13576841573E+03  0.50400001928E-02 0.  1.
</event>
<event>
 5   0  0.1279188E-01  0.5024180E+03  0.7818609E-02  0.1013150E+00
       -2   -1    0    0    0  501  0.00000000000E+00  0.00000000000E+00  0.53645970658E+02  0.53645970718E+02  0.25500000920E-02 0. -1.
        2   -1    0    0  501    0  0.00000000000E+00  0.00000000000E+00 -0.11763412323E+04  0.11763412323E+04  0.25500000920E-02 0.  1.
    10030    2    1    2    0    0  0.00000000000E+00  0.00000000000E+00 -0.11226952617E+04  0.12299872031E+04  0.50241802226E+03 0.  0.
        2    1    3    3  502    0  0.93748220697E+02  0.17737930315E+03 -0.19125128591E+03  0.27718080820E+03  0.25500000920E-02 0. -1.
       -2    1    3    3    0  502 -0.93748220697E+02 -0.17737930315E+03 -0.93144397578E+03  0.95280639486E+03  0.25500000920E-02 0.  1.
</event>
<event>
 5   0  0.1243803E-01  0.4864591E+03  0.7818609E-02  0.1017375E+00
       -2   -1    0    0    0  501  0.00000000000E+00  0.00000000000E+00  0.10457621171E+03  0.10457621174E+03  0.25500000920E-02 0. -1.
        2   -1    0    0  501    0  0.00000000000E+00  0.00000000000E+00 -0.56571766407E+03  0.56571766407E+03  0.25500000920E-02 0.  1.
    10030    2    1    2    0    0  0.00000000000E+00  0.00000000000E+00 -0.46114145235E+03  0.67029387581E+03  0.48645908448E+03 0.  0.
        4    1    3    3  502    0 -0.59074044118E+02  0.11895844206E+03 -0.51133244800E+03  0.52830231772E+03  0.12699999809E+01 0.  1.
       -4    1    3    3    0  502  0.59074044118E+02 -0.11895844206E+03  0.50190995648E+02  0.14199155810E+03  0.12699999809E+01 0. -1.
</event>
<event>
 5   0  0.1231822E-01  0.4831100E+03  0.7818609E-02  0.1018284E+00
        2   -1    0    0  501    0  0.00000000000E+00  0.00000000000E+00  0.78083358871E+03  0.78083358871E+03  0.25500000920E-02 0. -1.
       -2   -1    0    0    0  501  0.00000000000E+00  0.00000000000E+00 -0.74726316300E+02  0.74726316343E+02  0.25500000920E-02 0.  1.
    10030    2    1    2    0    0  0.00000000000E+00  0.00000000000E+00  0.70610727241E+03  0.85555990506E+03  0.48310999885E+03 0.  0.
        1    1    3    3  502    0 -0.22618085332E+03 -0.79438339145E+02  0.40560586868E+03  0.47115215044E+03  0.50400001928E-02 0.  1.
       -1    1    3    3    0  502  0.22618085332E+03  0.79438339145E+02  0.30050140373E+03  0.38440775461E+03  0.50400001928E-02 0. -1.
</event>
<event>
 5   0  0.1231822E-01  0.4748340E+03  0.7818609E-02  0.1020565E+00
        2   -1    0    0  501    0  0.00000000000E+00  0.00000000000E+00  0.51063181436E+03  0.51063181436E+03  0.25500000920E-02 0.  1.
       -2   -1    0    0    0  501  0.00000000000E+00  0.00000000000E+00 -0.11038644471E+03  0.11038644474E+03  0.25500000920E-02 0. -1.
    10030    2    1    2    0    0  0.00000000000E+00  0.00000000000E+00  0.40024536964E+03  0.62101825911E+03  0.47483399439E+03 0.  0.
        1    1    3    3  502    0 -0.65810685860E+02 -0.96403579631E+02  0.47051271029E+03  0.48477510983E+03  0.50400001928E-02 0.  1.
       -1    1    3    3    0  502  0.65810685860E+02  0.96403579631E+02 -0.70267340646E+02  0.13624314928E+03  0.50400001928E-02 0. -1.
</event>
<event>
 5   0  0.5006750E-02  0.5026770E+03  0.7818609E-02  0.1013083E+00
        4   -1    0    0  501    0  0.00000000000E+00  0.00000000000E+00  0.44339168584E+03  0.44339350466E+03  0.12699999809E+01 0.  1.
       -4   -1    0    0    0  501  0.00000000000E+00  0.00000000000E+00 -0.14246735807E+03  0.14247301855E+03  0.12699999809E+01 0. -1.
    10030    2    1    2    0    0  0.00000000000E+00  0.00000000000E+00  0.30092432777E+03  0.58586652321E+03  0.50267696583E+03 0.  0.
        5    1    3    3  502    0  0.11064235432E+03 -0.10182677457E+03 -0.84200309891E+02  0.17240128994E+03  0.46999998093E+01 0. -1.
       -5    1    3    3    0  502 -0.11064235432E+03  0.10182677457E+03  0.38512463766E+03  0.41346523327E+03  0.46999998093E+01 0.  1.
</event>
<event>
 5   0  0.5006750E-02  0.5057146E+03  0.7818609E-02  0.1012298E+00
       -4   -1    0    0    0  501  0.00000000000E+00  0.00000000000E+00  0.15935153829E+03  0.15935659904E+03  0.12699999809E+01 0. -1.
        4   -1    0    0  501    0  0.00000000000E+00  0.00000000000E+00 -0.40121872744E+03  0.40122073744E+03  0.12699999809E+01 0.  1.
    10030    2    1    2    0    0  0.00000000000E+00  0.00000000000E+00 -0.24186718915E+03  0.56057733647E+03  0.50571455682E+03 0.  0.
        2    1    3    3  502    0 -0.11529363920E+03 -0.21742027888E+03 -0.18530791372E+03  0.30806366842E+03  0.25500000920E-02 0.  1.
       -2    1    3    3    0  502  0.11529363920E+03  0.21742027888E+03 -0.56559275424E+02  0.25251366805E+03  0.25500000920E-02 0. -1.
</event>
<event>
 5   0  0.1231822E-01  0.5010093E+03  0.7818609E-02  0.1013516E+00
       -2   -1    0    0    0  501  0.00000000000E+00  0.00000000000E+00  0.70357650073E+03  0.70357650074E+03  0.25500000920E-02 0. -1.
        2   -1    0    0  501    0  0.00000000000E+00  0.00000000000E+00 -0.89190826531E+02  0.89190826568E+02  0.25500000920E-02 0.  1.
    10030    2    1    2    0    0  0.00000000000E+00  0.00000000000E+00  0.61438567420E+03  0.79276732730E+03  0.50100925997E+03 0.  0.
        1    1    3    3  502    0  0.24426756541E+03  0.72922203654E+01  0.22005269387E+03  0.32885104241E+03  0.50400001928E-02 0.  1.
       -1    1    3    3    0  502 -0.24426756541E+03 -0.72922203654E+01  0.39433298033E+03  0.46391628489E+03  0.50400001928E-02 0. -1.
</event>
<event>
 5   0  0.1211345E-01  0.5008560E+03  0.7818609E-02  0.1013556E+00
        2   -1    0    0  501    0  0.00000000000E+00  0.00000000000E+00  0.61595344086E+03  0.61595344087E+03  0.25500000920E-02 0.  1.
       -2   -1    0    0    0  501  0.00000000000E+00  0.00000000000E+00 -0.10181642090E+03  0.10181642093E+03  0.25500000920E-02 0. -1.
    10030    2    1    2    0    0  0.00000000000E+00  0.00000000000E+00  0.51413701997E+03  0.71776986180E+03  0.50085596653E+03 0.  0.
        5    1    3    3  502    0 -0.62146973150E+02  0.23451681248E+03  0.16835938451E+03  0.29534277367E+03  0.46999998093E+01 0. -1.
       -5    1    3    3    0  502  0.62146973150E+02 -0.23451681248E+03  0.34577763545E+03  0.42242708813E+03  0.46999998093E+01 0.  1.
</event>
<event>
 5   0  0.1243803E-01  0.5001044E+03  0.7818609E-02  0.1013752E+00
       -2   -1    0    0    0  501  0.00000000000E+00  0.00000000000E+00  0.74740038792E+02  0.74740038835E+02  0.25500000920E-02 0. -1.
        2   -1    0    0  501    0  0.00000000000E+00  0.00000000000E+00 -0.83658114359E+03  0.83658114360E+03  0.25500000920E-02 0.  1.
    10030    2    1    2    0    0  0.00000000000E+00  0.00000000000E+00 -0.76184110480E+03  0.91132118243E+03  0.50010441768E+03 0.  0.
        4    1    3    3  502    0 -0.15555418927E+03 -0.19255712544E+03 -0.31651598607E+03  0.40182002774E+03  0.12699999809E+01 0. -1.
       -4    1    3    3    0  502  0.15555418927E+03  0.19255712544E+03 -0.44532511874E+03  0.50950115469E+03  0.12699999809E+01 0.  1.
</event>
<event>
 5   0  0.7416638E-02  0.5126515E+03  0.7818609E-02  0.1010528E+00
       -1   -1    0    0    0  501  0.00000000000E+00  0.00000000000E+00  0.17774476026E+03  0.17774476033E+03  0.50400001928E-02 0.  1.
        1   -1    0    0  501    0  0.00000000000E+00  0.00000000000E+00 -0.36964738508E+03  0.36964738511E+03  0.50400001928E-02 0. -1.
    10030    2    1    2    0    0  0.00000000000E+00  0.00000000000E+00 -0.19190262481E+03  0.54739214545E+03  0.51265148345E+03 0.  0.
        1    1    3    3  502    0 -0.16883620568E+03  0.15740009412E+03  0.23057646166E+02  0.23197437153E+03  0.50400001928E-02 0. -1.
       -1    1    3    3    0  502  0.16883620568E+03 -0.15740009412E+03 -0.21496027098E+03  0.31541777391E+03  0.50400001928E-02 0.  1.
</event>
<event>
 5   0  0.1191894E-01  0.4963812E+03  0.7818609E-02  0.1014728E+00
        2   -1    0    0  501    0  0.00000000000E+00  0.00000000000E+00  0.14539386622E+03  0.14539386625E+03  0.25500000920E-02 0. -1.
       -2   -1    0    0    0  501  0.00000000000E+00  0.00000000000E+00 -0.42366697817E+03  0.42366697818E+03  0.25500000920E-02 0.  1.
    10030    2    1    2    0    0  0.00000000000E+00  0.00000000000E+00 -0.27827311195E+03  0.56906084443E+03  0.49638122429E+03 0.  0.
        3    1    3    3  502    0 -0.15776101597E+03 -0.13088214690E+03  0.21279760534E+02  0.20608617844E+03  0.10100000352E+00 0. -1.
       -3    1    3    3    0  502  0.15776101597E+03  0.13088214690E+03 -0.29955287248E+03  0.36297466599E+03  0.10100000352E+00 0.  1.
</event>
<event>
 5   0  0.1231822E-01  0.4946958E+03  0.7818609E-02  0.1015173E+00
        2   -1    0    0  501    0  0.00000000000E+00  0.00000000000E+00  0.10231928061E+04  0.10231928061E+04  0.25500000920E-02 0. -1.
       -2   -1    0    0    0  501  0.00000000000E+00  0.00000000000E+00 -0.59794195997E+02  0.59794196051E+02  0.25500000920E-02 0.  1.
    10030    2    1    2    0    0  0.00000000000E+00  0.00000000000E+00  0.96339861011E+03  0.10829870022E+04  0.49469583067E+03 0.  0.
        1    1    3    3  502    0  0.92443681637E+02 -0.19343006265E+03  0.75177895424E+03  0.78174971664E+03  0.50400001928E-02 0. -1.
       -1    1    3    3    0  502 -0.92443681637E+02  0.19343006265E+03  0.21161965587E+03  0.30123728552E+03  0.50400001928E-02 0.  1.
</event>
<event>
 5   0  0.7812547E-02  0.5112490E+03  0.7818609E-02  0.1010884E+00
        1   -1    0    0  501    0  0.00000000000E+00  0.00000000000E+00  0.81940564028E+03  0.81940564029E+03  0.50400001928E-02 0. -1.
       -1   -1    0    0    0  501  0.00000000000E+00  0.00000000000E+00 -0.79745480234E+02  0.79745480393E+02  0.50400001928E-02 0.  1.
    10030    2    1    2    0    0  0.00000000000E+00  0.00000000000E+00  0.73966016004E+03  0.89915112068E+03  0.51124904447E+03 0.  0.
        4    1    3    3  502    0 -0.14153957723E+03  0.94019679744E+02  0.33966517520E+02  0.17328730281E+03  0.12699999809E+01 0.  1.
       -4    1    3    3    0  502  0.14153957723E+03 -0.94019679744E+02  0.70569364252E+03  0.72586381787E+03  0.12699999809E+01 0. -1.
</event>
<event>
 5   0  0.1191894E-01  0.4999294E+03  0.7818609E-02  0.1013797E+00
       -2   -1    0    0    0  501  0.00000000000E+00  0.00000000000E+00  0.11542387143E+03  0.11542387146E+03  0.25500000920E-02 0. -1.
        2   -1    0    0  501    0  0.00000000000E+00  0.00000000000E+00 -0.54132958206E+03  0.54132958207E+03  0.25500000920E-02 0.  1.
    10030    2    1    2    0    0  0.00000000000E+00  0.00000000000E+00 -0.42590571063E+03  0.65675345353E+03  0.49992941939E+03 0.  0.
        3    1    3    3  502    0 -0.54303161112E+02  0.20763453655E+02  0.10641867420E+03  0.12126375689E+03  0.10100000352E+00 0. -1.
       -3    1    3    3    0  502  0.54303161112E+02 -0.20763453655E+02 -0.53232438484E+03  0.53548969664E+03  0.10100000352E+00 0.  1.
</event>
<event>
 5   0  0.1231822E-01  0.5013667E+03  0.7818609E-02  0.1013423E+00
       -2   -1    0    0    0  501  0.00000000000E+00  0.00000000000E+00  0.17087430762E+03  0.17087430764E+03  0.25500000920E-02 0. -1.
        2   -1    0    0  501    0  0.00000000000E+00  0.00000000000E+00 -0.36776816923E+03  0.36776816923E+03  0.25500000920E-02 0.  1.
    10030    2    1    2    0    0  0.00000000000E+00  0.00000000000E+00 -0.19689386161E+03  0.53864247687E+03  0.50136665740E+03 0.  0.
        1    1    3    3  502    0 -0.15747523725E+03  0.93801248256E+02 -0.28217309707E+03  0.33647998641E+03  0.50400001928E-02 0. -1.
       -1    1    3    3    0  502  0.15747523725E+03 -0.93801248256E+02  0.85279235461E+02  0.20216249046E+03  0.50400001928E-02 0.  1.
</event>
<event>
 5   0  0.7781754E-02  0.5046631E+03  0.7818609E-02  0.1012569E+00
        1   -1    0    0  501    0  0.00000000000E+00  0.00000000000E+00  0.20612130604E+03  0.20612130610E+03  0.50400001928E-02 0. -1.
       -1   -1    0    0    0  501  0.00000000000E+00  0.00000000000E+00 -0.30890158798E+03  0.30890158802E+03  0.50400001928E-02 0.  1.
    10030    2    1    2    0    0  0.00000000000E+00  0.00000000000E+00 -0.10278028195E+03  0.51502289412E+03  0.50466305106E+03 0.  0.
        2    1    3    3  502    0 -0.36500977345E+02 -0.23082510753E+03 -0.14852088107E+03  0.27689529381E+03  0.25500000920E-02 0. -1.
       -2    1    3    3    0  502  0.36500977345E+02  0.23082510753E+03  0.45740599123E+02  0.23812760031E+03  0.25500000920E-02 0.  1.
</event>
<event>
 5   0  0.1211345E-01  0.5006540E+03  0.7818609E-02  0.1013608E+00
       -2   -1    0    0    0  501  0.00000000000E+00  0.00000000000E+00  0.37706151451E+02  0.37706151537E+02  0.25500000920E-02 0.  1.
        2   -1    0    0  501    0  0.00000000000E+00  0.00000000000E+00 -0.16618936682E+04  0.16618936682E+04  0.25500000920E-02 0. -1.
    10030    2    1    2    0    0  0.00000000000E+00  0.00000000000E+00 -0.16241875168E+04  0.16995998198E+04  0.50065402994E+03 0.  0.
        5    1    3    3  502    0  0.14015536937E+03  0.72147385982E+02 -0.15214044091E+03  0.21912913231E+03  0.46999998093E+01 0.  1.
       -5    1    3    3    0  502 -0.14015536937E+03 -0.72147385982E+02 -0.14720470759E+04  0.14804706875E+04  0.46999998093E+01 0. -1.
</event>
<event>
 5   0  0.7416638E-02  0.4713280E+03  0.7818609E-02  0.1021546E+00
        1   -1    0    0  501    0  0.00000000000E+00  0.00000000000E+00  0.77864038139E+03  0.77864038141E+03  0.50400001928E-02 0. -1.
       -1   -1    0    0    0  501  0.00000000000E+00  0.00000000000E+00 -0.71326274165E+02  0.71326274343E+02  0.50400001928E-02 0.  1.
    10030    2    1    2    0    0  0.00000000000E+00  0.00000000000E+00  0.70731410723E+03  0.84996665575E+03  0.47132798517E+03 0.  0.
        1    1    3    3  502    0 -0.17458055664E+03  0.15828846354E+03  0.35722244764E+03  0.42795033073E+03  0.50400001928E-02 0.  1.
       -1    1    3    3    0  502  0.17458055664E+03 -0.15828846354E+03  0.35009165959E+03  0.42201632503E+03  0.50400001928E-02 0. -1.
</event>
<event>
 5   0  0.1231822E-01  0.4883448E+03  0.7818609E-02  0.1016867E+00
       -2   -1    0    0    0  501  0.00000000000E+00  0.00000000000E+00  0.41106689801E+02  0.41106689880E+02  0.25500000920E-02 0. -1.
        2   -1    0    0  501    0  0.00000000000E+00  0.00000000000E+00 -0.14503760380E+04  0.14503760380E+04  0.25500000920E-02 0.  1.
    10030    2    1    2    0    0  0.00000000000E+00  0.00000000000E+00 -0.14092693482E+04  0.14914827279E+04  0.48834478782E+03 0.  0.
        1    1    3    3  502    0  0.11916285419E+03 -0.20890922588E+03 -0.57587705072E+03  0.62408110695E+03  0.50400001928E-02 0. -1.
       -1    1    3    3    0  502 -0.11916285419E+03  0.20890922588E+03 -0.83339229744E+03  0.86740162090E+03  0.50400001928E-02 0.  1.
</event>
<event>
 5   0  0.1279188E-01  0.4930037E+03  0.7818609E-02  0.1015621E+00
       -2   -1    0    0    0  501  0.00000000000E+00  0.00000000000E+00  0.11237234898E+03  0.11237234901E+03  0.25500000920E-02 0. -1.
        2   -1    0    0  501    0  0.00000000000E+00  0.00000000000E+00 -0.54073057038E+03  0.54073057039E+03  0.25500000920E-02 0.  1.
    10030    2    1    2    0    0  0.00000000000E+00  0.00000000000E+00 -0.42835822140E+03  0.65310291940E+03  0.49300370941E+03 0.  0.
        2    1    3    3  502    0 -0.41613059592E+02  0.10980826861E+03 -0.50129593803E+03  0.51486611859E+03  0.25500000920E-02 0.  1.
       -2    1    3    3    0  502  0.41613059592E+02 -0.10980826861E+03  0.72937716631E+02  0.13823680081E+03  0.25500000920E-02 0. -1.
</event>
<event>
 5   0  0.7602288E-02  0.5017313E+03  0.7818609E-02  0.1013328E+00
        1   -1    0    0  501    0  0.00000000000E+00  0.00000000000E+00  0.28663902412E+03  0.28663902416E+03  0.50400001928E-02 0. -1.
       -1   -1    0    0    0  501  0.00000000000E+00  0.00000000000E+00 -0.21955692739E+03  0.21955692745E+03  0.50400001928E-02 0.  1.
    10030    2    1    2    0    0  0.00000000000E+00  0.00000000000E+00  0.67082096728E+02  0.50619595161E+03  0.50173133620E+03 0.  0.
        5    1    3    3  502    0  0.87809395723E+02 -0.14416812421E+03 -0.15362675445E+03  0.22829412541E+03  0.46999998093E+01 0.  1.
       -5    1    3    3    0  502 -0.87809395723E+02  0.14416812421E+03  0.22070885118E+03  0.27790182620E+03  0.46999998093E+01 0. -1.
</event>
<event>
 5   0  0.7531632E-02  0.5045591E+03  0.7818609E-02  0.1012596E+00
       -1   -1    0    0    0  501  0.00000000000E+00  0.00000000000E+00  0.45000024526E+03  0.45000024529E+03  0.50400001928E-02 0. -1.
        1   -1    0    0  501    0  0.00000000000E+00  0.00000000000E+00 -0.14143317761E+03  0.14143317770E+03  0.50400001928E-02 0.  1.
    10030    2    1    2    0    0  0.00000000000E+00  0.00000000000E+00  0.30856706764E+03  0.59143342299E+03  0.50455907345E+03 0.  0.
        3    1    3    3  502    0  0.17541160541E+03  0.55907396896E+02 -0.47896356563E+02  0.19023390737E+03  0.10100000352E+00 0.  1.
       -3    1    3    3    0  502 -0.17541160541E+03 -0.55907396896E+02  0.35646342421E+03  0.40119951562E+03  0.10100000352E+00 0. -1.
</event>
<event>
 5   0  0.1191894E-01  0.5001722E+03  0.7818609E-02  0.1013734E+00
       -2   -1    0    0    0  501  0.00000000000E+00  0.00000000000E+00  0.48748018927E+02  0.48748018993E+02  0.25500000920E-02 0. -1.
        2   -1    0    0  501    0  0.00000000000E+00  0.00000000000E+00 -0.12829868022E+04  0.12829868022E+04  0.25500000920E-02 0.  1.
    10030    2    1    2    0    0  0.00000000000E+00  0.00000000000E+00 -0.12342387832E+04  0.13317348212E+04  0.50017223018E+03 0.  0.
        3    1    3    3  502    0  0.20231048625E+03 -0.14036739897E+03 -0.50074071068E+03  0.55800878942E+03  0.10100000352E+00 0. -1.
       -3    1    3    3    0  502 -0.20231048625E+03  0.14036739897E+03 -0.73349807255E+03  0.77372603173E+03  0.10100000352E+00 0.  1.
</event>
<event>
 5   0  0.1211345E-01  0.5243775E+03  0.7818609E-02  0.1007605E+00
        2   -1    0    0  501    0  0.00000000000E+00  0.00000000000E+00  0.53336079891E+03  0.53336079891E+03  0.25500000920E-02 0. -1.
       -2   -1    0    0    0  501  0.00000000000E+00  0.00000000000E+00 -0.12888637969E+03  0.12888637972E+03  0.25500000920E-02 0.  1.
    10030    2    1    2    0    0  0.00000000000E+00  0.00000000000E+00  0.40447441921E+03  0.66224717863E+03  0.52437750696E+03 0.  0.
        5    1    3    3  502    0  0.28499415141E+02  0.23475877052E+03  0.59371043161E+02  0.24386657779E+03  0.46999998093E+01 0.  1.
       -5    1    3    3    0  502 -0.28499415141E+02 -0.23475877052E+03  0.34510337605E+03  0.41838060084E+03  0.46999998093E+01 0. -1.
</event>
<event>
 5   0  0.7602288E-02  0.4981810E+03  0.7818609E-02  0.1014255E+00
        1   -1    0    0  501    0  0.00000000000E+00  0.00000000000E+00  0.12962881645E+03  0.12962881655E+03  0.50400001928E-02 0.  1.
       -1   -1    0    0    0  501  0.00000000000E+00  0.00000000000E+00 -0.47864418960E+03  0.47864418962E+03  0.50400001928E-02 0. -1.
    10030    2    1    2    0    0  0.00000000000E+00  0.00000000000E+00 -0.34901537315E+03  0.60827300617E+03  0.49818101062E+03 0.  0.
        5    1    3    3  502    0 -0.16179722648E+03 -0.89089946135E+02 -0.37848441623E+03  0.42117443456E+03  0.46999998093E+01 0. -1.
       -5    1    3    3    0  502  0.16179722648E+03  0.89089946135E+02  0.29469043082E+02  0.18709857161E+03  0.46999998093E+01 0.  1.
</event>
<event>
 5   0  0.1231822E-01  0.5141175E+03  0.7818609E-02  0.1010158E+00
        2   -1    0    0  501    0  0.00000000000E+00  0.00000000000E+00  0.21620420378E+03  0.21620420379E+03  0.25500000920E-02 0. -1.
       -2   -1    0    0    0  501  0.00000000000E+00  0.00000000000E+00 -0.30563326287E+03  0.30563326288E+03  0.25500000920E-02 0.  1.
    10030    2    1    2    0    0  0.00000000000E+00  0.00000000000E+00 -0.89429059090E+02  0.52183746667E+03  0.51411748172E+03 0.  0.
        1    1    3    3  502    0  0.41437111728E+02  0.55351512167E+01 -0.30215973365E+03  0.30503799238E+03  0.50400001928E-02 0.  1.
       -1    1    3    3    0  502 -0.41437111728E+02 -0.55351512167E+01  0.21273067456E+03  0.21679947429E+03  0.50400001928E-02 0. -1.
</event>
<event>
 5   0  0.7812547E-02  0.4965910E+03  0.7818609E-02  0.1014673E+00
       -1   -1    0    0    0  501  0.00000000000E+00  0.00000000000E+00  0.36953623471E+03  0.36953623475E+03  0.50400001928E-02 0. -1.
        1   -1    0    0  501    0  0.00000000000E+00  0.00000000000E+00 -0.16683247986E+03  0.16683247994E+03  0.50400001928E-02 0.  1.
    10030    2    1    2    0    0  0.00000000000E+00  0.00000000000E+00  0.20270375486E+03  0.53636871468E+03  0.49659096434E+03 0.  0.
        4    1    3    3  502    0  0.56514221466E+02 -0.24100311830E+03  0.80500787113E+02  0.26030434088E+03  0.12699999809E+01 0.  1.
       -4    1    3    3    0  502 -0.56514221466E+02  0.24100311830E+03  0.12220296774E+03  0.27606437380E+03  0.12699999809E+01 0. -1.
</event>
<event>
 5   0  0.1191894E-01  0.5003149E+03  0.7818609E-02  0.1013697E+00
       -2   -1    0    0    0  501  0.00000000000E+00  0.00000000000E+00  0.91837169885E+02  0.91837169920E+02  0.25500000920E-02 0.  1.
        2   -1    0    0  501    0  0.00000000000E+00  0.00000000000E+00 -0.68140969941E+03  0.68140969941E+03  0.25500000920E-02 0. -1.
    10030    2    1    2    0    0  0.00000000000E+00  0.00000000000E+00 -0.58957252952E+03  0.77324686933E+03  0.50031485423E+03 0.  0.
        3    1    3    3  502    0  0.21174419499E+03  0.30696709211E+02 -0.49511360289E+03  0.53936572197E+03  0.10100000352E+00 0. -1.
       -3    1    3    3    0  502 -0.21174419499E+03 -0.30696709211E+02 -0.94458926633E+02  0.23388114736E+03  0.10100000352E+00 0.  1.
</event>
<event>
 5   0  0.5006750E-02  0.4990206E+03  0.7818609E-02  0.1014035E+00
        3   -1    0    0  501    0  0.00000000000E+00  0.00000000000E+00  0.90768810179E+03  0.90768810741E+03  0.10100000352E+00 0. -1.
       -3   -1    0    0    0  501  0.00000000000E+00  0.00000000000E+00 -0.68586729405E+02  0.68586803771E+02  0.10100000352E+00 0.  1.
    10030    2    1    2    0    0  0.00000000000E+00  0.00000000000E+00  0.83910137239E+03  0.97627491118E+03  0.49902062990E+03 0.  0.
        1    1    3    3  502    0  0.64335442616E+02  0.21873531698E+03  0.22127730378E+03  0.31772288754E+03  0.50400001928E-02 0.  1.
       -1    1    3    3    0  502 -0.64335442616E+02 -0.21873531698E+03  0.61782406861E+03  0.65855202364E+03  0.50400001928E-02 0. -1.
</event>
<event>
 5   0  0.1243803E-01  0.4978538E+03  0.7818609E-02  0.1014341E+00
       -2   -1    0    0    0  501  0.00000000000E+00  0.00000000000E+00  0.76753974937E+02  0.76753974980E+02  0.25500000920E-02 0. -1.
        2   -1    0    0  501    0  0.00000000000E+00  0.00000000000E+00 -0.80731459811E+03  0.80731459811E+03  0.25500000920E-02 0.  1.
    10030    2    1    2    0    0  0.00000000000E+00  0.00000000000E+00 -0.73056062317E+03  0.88406857309E+03  0.49785381168E+03 0.  0.
        4    1    3    3  502    0 -0.68453263390E+02 -0.62509969141E+01 -0.79012148192E+03  0.79310686122E+03  0.12699999809E+01 0.  1.
       -4    1    3    3    0  502  0.68453263390E+02  0.62509969141E+01  0.59560858748E+02  0.90961711868E+02  0.12699999809E+01 0. -1.
</event>
<event>
 5   0  0.1279188E-01  0.4997287E+03  0.7818609E-02  0.1013850E+00
       -2   -1    0    0    0  501  0.00000000000E+00  0.00000000000E+00  0.73232991966E+02  0.73232992011E+02  0.25500000920E-02 0. -1.
        2   -1    0    0  501    0  0.00000000000E+00  0.00000000000E+00 -0.85251451740E+03  0.85251451740E+03  0.25500000920E-02 0.  1.
    10030    2    1    2    0    0  0.00000000000E+00  0.00000000000E+00 -0.77928152543E+03  0.92574750941E+03  0.49972868169E+03 0.  0.
        2    1    3    3  502    0  0.65557505803E+02 -0.23666465248E+03 -0.47502162358E+03  0.53474618949E+03  0.25500000920E-02 0.  1.
       -2    1    3    3    0  502 -0.65557505803E+02  0.23666465248E+03 -0.30425990185E+03  0.39100131992E+03  0.25500000920E-02 0. -1.
</event>
<event>
 5   0  0.1243803E-01  0.4984493E+03  0.7818609E-02  0.1014184E+00
       -2   -1    0    0    0  501  0.00000000000E+00  0.00000000000E+00  0.19527351136E+03  0.19527351137E+03  0.25500000920E-02 0. -1.
        2   -1    0    0  501    0  0.00000000000E+00  0.00000000000E+00 -0.31808170554E+03  0.31808170555E+03  0.25500000920E-02 0.  1.
    10030    2    1    2    0    0  0.00000000000E+00  0.00000000000E+00 -0.12280819419E+03  0.51335521693E+03  0.49844932159E+03 0.  0.
        4    1    3    3  502    0  0.18920338616E+03  0.33601963177E+02 -0.22484545397E+03  0.29577711935E+03  0.12699999809E+01 0.  1.
       -4    1    3    3    0  502 -0.18920338616E+03 -0.33601963177E+02  0.10203725978E+03  0.21757809758E+03  0.12699999809E+01 0. -1.
</event>
<event>
 5   0  0.1231822E-01  0.5003946E+03  0.7818609E-02  0.1013676E+00
       -2   -1    0    0    0  501  0.00000000000E+00  0.00000000000E+00  0.32526963121E+02  0.32526963221E+02  0.25500000920E-02 0. -1.
        2   -1    0    0  501    0  0.00000000000E+00  0.00000000000E+00 -0.19245165238E+04  0.19245165238E+04  0.25500000920E-02 0.  1.
    10030    2    1    2    0    0  0.00000000000E+00  0.00000000000E+00 -0.18919895607E+04  0.19570434870E+04  0.50039455671E+03 0.  0.
        1    1    3    3  502    0 -0.22051225914E+03  0.11368961835E+03 -0.10725863483E+04  0.11009052913E+04  0.50400001928E-02 0.  1.
       -1    1    3    3    0  502  0.22051225914E+03 -0.11368961835E+03 -0.81940321235E+03  0.85613819573E+03  0.50400001928E-02 0. -1.
</event>
<event>
 5   0  0.7602288E-02  0.4977674E+03  0.7818609E-02  0.1014363E+00
        1   -1    0    0  501    0  0.00000000000E+00  0.00000000000E+00  0.18131991074E+04  0.18131991074E+04  0.50400001928E-02 0. -1.
       -1   -1    0    0    0  501  0.00000000000E+00  0.00000000000E+00 -0.34162325716E+02  0.34162326088E+02  0.50400001928E-02 0.  1.
    10030    2    1    2    0    0  0.00000000000E+00  0.00000000000E+00  0.17790367817E+04  0.18473614335E+04  0.49776741092E+03 0.  0.
        5    1    3    3  502    0 -0.13379314305E+02 -0.29606418942E+02  0.18051291286E+04  0.18054275967E+04  0.46999998093E+01 0. -1.
       -5    1    3    3    0  502  0.13379314305E+02  0.29606418942E+02 -0.26092346965E+02  0.41933836722E+02  0.46999998093E+01 0.  1.
</event>
<event>
 5   0  0.7416638E-02  0.5012853E+03  0.7818609E-02  0.1013444E+00
        1   -1    0    0  501    0  0.00000000000E+00  0.00000000000E+00  0.26322305796E+03  0.26322305801E+03  0.50400001928E-02 0. -1.
       -1   -1    0    0    0  501  0.00000000000E+00  0.00000000000E+00 -0.23866350832E+03  0.23866350837E+03  0.50400001928E-02 0.  1.
    10030    2    1    2    0    0  0.00000000000E+00  0.00000000000E+00  0.24559549645E+02  0.50188656638E+03  0.50128530203E+03 0.  0.
        1    1    3    3  502    0  0.22659114659E+03 -0.64802935978E+02 -0.73138266053E+02  0.24676339722E+03  0.50400001928E-02 0.  1.
       -1    1    3    3    0  502 -0.22659114659E+03  0.64802935978E+02  0.97697815698E+02  0.25512316916E+03  0.50400001928E-02 0. -1.
</event>
<event>
 5   0  0.1231822E-01  0.5058047E+03  0.7818609E-02  0.1012275E+00
       -2   -1    0    0    0  501  0.00000000000E+00  0.00000000000E+00  0.30358458716E+02  0.30358458823E+02  0.25500000920E-02 0.  1.
        2   -1    0    0  501    0  0.00000000000E+00  0.00000000000E+00 -0.21068128329E+04  0.21068128329E+04  0.25500000920E-02 0. -1.
    10030    2    1    2    0    0  0.00000000000E+00  0.00000000000E+00 -0.20764543742E+04  0.21371712917E+04  0.50580466793E+03 0.  0.
        1    1    3    3  502    0  0.16639102786E+03  0.43869734416E+02 -0.25513310058E+03  0.30773921880E+03  0.50400001928E-02 0.  1.
       -1    1    3    3    0  502 -0.16639102786E+03 -0.43869734416E+02 -0.18213212736E+04  0.18294320729E+04  0.50400001928E-02 0. -1.
</event>
<event>
 5   0  0.7781754E-02  0.4910508E+03  0.7818609E-02  0.1016142E+00
       -1   -1    0    0    0  501  0.00000000000E+00  0.00000000000E+00  0.11477391294E+03  0.11477391305E+03  0.50400001928E-02 0.  1.
        1   -1    0    0  501    0  0.00000000000E+00  0.00000000000E+00 -0.52523024440E+03  0.52523024443E+03  0.50400001928E-02 0. -1.
    10030    2    1    2    0    0  0.00000000000E+00  0.00000000000E+00 -0.41045633146E+03  0.64000415748E+03  0.49105083398E+03 0.  0.
        2    1    3    3  502    0 -0.22785787603E+03 -0.64192720433E+02 -0.29012339896E+03  0.37444826566E+03  0.25500000920E-02 0. -1.
       -2    1    3    3    0  502  0.22785787603E+03  0.64192720433E+02 -0.12033293251E+03  0.26555589182E+03  0.25500000920E-02 0.  1.
</event>
<event>
 5   0  0.7531632E-02  0.4994805E+03  0.7818609E-02  0.1013915E+00
       -1   -1    0    0    0  501  0.00000000000E+00  0.00000000000E+00  0.84383482004E+02  0.84383482155E+02  0.50400001928E-02 0.  1.
        1   -1    0    0  501    0  0.00000000000E+00  0.00000000000E+00 -0.73912806955E+03  0.73912806956E+03  0.50400001928E-02 0. -1.
    10030    2    1    2    0    0  0.00000000000E+00  0.00000000000E+00 -0.65474458754E+03  0.82351155172E+03  0.49948053105E+03 0.  0.
        3    1    3    3  502    0  0.93757586515E+02 -0.19737753725E+03 -0.12800599778E+03  0.25324676288E+03  0.10100000352E+00 0.  1.
       -3    1    3    3    0  502 -0.93757586515E+02  0.19737753725E+03 -0.52673858977E+03  0.57026478884E+03  0.10100000352E+00 0. -1.
</event>
<event>
 5   0  0.7812547E-02  0.4978638E+03  0.7818609E-02  0.1014338E+00
        1   -1    0    0  501    0  0.00000000000E+00  0.00000000000E+00  0.19172089253E+03  0.19172089260E+03  0.50400001928E-02 0.  1.
       -1   -1    0    0    0  501  0.00000000000E+00  0.00000000000E+00 -0.32321517769E+03  0.32321517773E+03  0.50400001928E-02 0. -1.
    10030    2    1    2    0    0  0.00000000000E+00  0.00000000000E+00 -0.13149428516E+03  0.51493607032E+03  0.49786384634E+03 0.  0.
        4    1    3    3  502    0  0.27785148600E+02 -0.15356081403E+03 -0.26633707010E+03  0.30869076095E+03  0.12699999809E+01 0. -1.
       -4    1    3    3    0  502 -0.27785148600E+02  0.15356081403E+03  0.13484278494E+03  0.20624530937E+03  0.12699999809E+01 0.  1.
</event>
<event>
 5   0  0.1231822E-01  0.4918531E+03  0.7818609E-02  0.1015928E+00
       -2   -1    0    0    0  501  0.00000000000E+00  0.00000000000E+00  0.19460929698E+03  0.19460929700E+03  0.25500000920E-02 0.  1.
        2   -1    0    0  501    0  0.00000000000E+00  0.00000000000E+00 -0.31077581128E+03  0.31077581129E+03  0.25500000920E-02 0. -1.
    10030    2    1    2    0    0  0.00000000000E+00  0.00000000000E+00 -0.11616651429E+03  0.50538510829E+03  0.49185307627E+03 0.  0.
        1    1    3    3  502    0  0.28697898684E+02  0.10141560827E+03 -0.28639263253E+03  0.30517115686E+03  0.50400001928E-02 0. -1.
       -1    1    3    3    0  502 -0.28697898684E+02 -0.10141560827E+03  0.17022611823E+03  0.20021395142E+03  0.50400001928E-02 0.  1.
</event>
<event>
 5   0  0.7781754E-02  0.4905009E+03  0.7818609E-02  0.1016288E+00
        1   -1    0    0  501    0  0.00000000000E+00  0.00000000000E+00  0.14089416055E+03  0.14089416064E+03  0.50400001928E-02 0.  1.
       -1   -1    0    0    0  501  0.00000000000E+00  0.00000000000E+00 -0.42690055031E+03  0.42690055034E+03  0.50400001928E-02 0. -1.
    10030    2    1    2    0    0  0.00000000000E+00  0.00000000000E+00 -0.28600638976E+03  0.56779471098E+03  0.49050094682E+03 0.  0.
        2    1    3    3  502    0 -0.88141447355E+02  0.81474001975E+02  0.10457003846E+03  0.15919114513E+03  0.25500000920E-02 0.  1.
       -2    1    3    3    0  502  0.88141447355E+02 -0.81474001975E+02 -0.39057642821E+03  0.40860356585E+03  0.25500000920E-02 0. -1.
</event>
<event>
 5   0  0.7531632E-02  0.5006989E+03  0.7818609E-02  0.1013597E+00
        1   -1    0    0  501    0  0.00000000000E+00  0.00000000000E+00  0.13062036544E+04  0.13062036544E+04  0.50400001928E-02 0.  1.
       -1   -1    0    0    0  501  0.00000000000E+00  0.00000000000E+00 -0.47982442910E+02  0.47982443175E+02  0.50400001928E-02 0. -1.
    10030    2    1    2    0    0  0.00000000000E+00  0.00000000000E+00  0.12582212115E+04  0.13541860976E+04  0.50069888142E+03 0.  0.
        3    1    3    3  502    0 -0.11581606237E+02 -0.65998887070E+02 -0.23278458800E+02  0.70935770543E+02  0.10100000352E+00 0. -1.
       -3    1    3    3    0  502  0.11581606237E+02  0.65998887070E+02  0.12814996703E+04  0.12832503271E+04  0.10100000352E+00 0.  1.
</event>
<event>
 5   0  0.7602288E-02  0.4986318E+03  0.7818609E-02  0.1014137E+00
        1   -1    0    0  501    0  0.00000000000E+00  0.00000000000E+00  0.24643836452E+03  0.24643836458E+03  0.50400001928E-02 0. -1.
       -1   -1    0    0    0  501  0.00000000000E+00  0.00000000000E+00 -0.25222702867E+03  0.25222702872E+03  0.50400001928E-02 0.  1.
    10030    2    1    2    0    0  0.00000000000E+00  0.00000000000E+00 -0.57886641445E+01  0.49866539329E+03  0.49863179385E+03 0.  0.
        5    1    3    3  502    0  0.43816853688E+02 -0.83653685195E+02 -0.23360116565E+03  0.25201081386E+03  0.46999998093E+01 0.  1.
       -5    1    3    3    0  502 -0.43816853688E+02  0.83653685195E+02  0.22781250150E+03  0.24665457943E+03  0.46999998093E+01 0. -1.
</event>
<event>
 5   0  0.1231822E-01  0.4992367E+03  0.7818609E-02  0.1013978E+00
        2   -1    0    0  501    0  0.00000000000E+00  0.00000000000E+00  0.37076901772E+03  0.37076901773E+03  0.25500000920E-02 0. -1.
       -2   -1    0    0    0  501  0.00000000000E+00  0.00000000000E+00 -0.16805430138E+03  0.16805430140E+03  0.25500000920E-02 0.  1.
    10030    2    1    2    0    0  0.00000000000E+00  0.00000000000E+00  0.20271471633E+03  0.53882331913E+03  0.49923673044E+03 0.  0.
        1    1    3    3  502    0 -0.14081984031E+03  0.96579998471E+02  0.29787014749E+03  0.34334319320E+03  0.50400001928E-02 0. -1.
       -1    1    3    3    0  502  0.14081984031E+03 -0.96579998471E+02 -0.95155431153E+02  0.19548012593E+03  0.50400001928E-02 0.  1.
</event>
<event>
 5   0  0.5006750E-02  0.4904888E+03  0.7818609E-02  0.1016292E+00
        3   -1    0    0  501    0  0.00000000000E+00  0.00000000000E+00  0.11512624763E+03  0.11512629194E+03  0.10100000352E+00 0.  1.
       -3   -1    0    0    0  501  0.00000000000E+00  0.00000000000E+00 -0.52242476586E+03  0.52242477563E+03  0.10100000352E+00 0. -1.
    10030    2    1    2    0    0  0.00000000000E+00  0.00000000000E+00 -0.40729851823E+03  0.63755106756E+03  0.49048881822E+03 0.  0.
        2    1    3    3  502    0  0.20286574381E+02  0.10269148280E+03  0.84630583352E+02  0.13460840012E+03  0.25500000920E-02 0.  1.
       -2    1    3    3    0  502 -0.20286574381E+02 -0.10269148280E+03 -0.49192910158E+03  0.50294266744E+03  0.25500000920E-02 0. -1.
</event>
<event>
 5   0  0.7531632E-02  0.5067863E+03  0.7818609E-02  0.1012023E+00
       -1   -1    0    0    0  501  0.00000000000E+00  0.00000000000E+00  0.15007042256E+03  0.15007042264E+03  0.50400001928E-02 0. -1.
        1   -1    0    0  501    0  0.00000000000E+00  0.00000000000E+00 -0.42785297940E+03  0.42785297943E+03  0.50400001928E-02 0.  1.
    10030    2    1    2    0    0  0.00000000000E+00  0.00000000000E+00 -0.27778255685E+03  0.57792340208E+03  0.50678625650E+03 0.  0.
        3    1    3    3  502    0 -0.23366088243E+03 -0.93786077713E+02 -0.10633916461E+03  0.27331532061E+03  0.10100000352E+00 0. -1.
       -3    1    3    3    0  502  0.23366088243E+03  0.93786077713E+02 -0.17144339224E+03  0.30460808146E+03  0.10100000352E+00 0.  1.
</event>
<event>
 5   0  0.5006750E-02  0.5328801E+03  0.7818609E-02  0.1005536E+00
       -3   -1    0    0    0  501  0.00000000000E+00  0.00000000000E+00  0.66461024862E+02  0.66461101606E+02  0.10100000352E+00 0. -1.
        3   -1    0    0  501    0  0.00000000000E+00  0.00000000000E+00 -0.10681486139E+04  0.10681486187E+04  0.10100000352E+00 0.  1.
    10030    2    1    2    0    0  0.00000000000E+00  0.00000000000E+00 -0.10016875890E+04  0.11346097203E+04  0.53288009094E+03 0.  0.
        1    1    3    3  502    0  0.26539151271E+03 -0.19526329239E+01 -0.55095158454E+03  0.61154240762E+03  0.50400001928E-02 0. -1.
       -1    1    3    3    0  502 -0.26539151271E+03  0.19526329239E+01 -0.45073600451E+03  0.52306731266E+03  0.50400001928E-02 0.  1.
</event>
<event>
 5   0  0.1279188E-01  0.4980516E+03  0.7818609E-02  0.1014289E+00
        2   -1    0    0  501    0  0.00000000000E+00  0.00000000000E+00  0.18674829392E+04  0.18674829392E+04  0.25500000920E-02 0.  1.
       -2   -1    0    0    0  501  0.00000000000E+00  0.00000000000E+00 -0.33207188573E+02  0.33207188671E+02  0.25500000920E-02 0. -1.
    10030    2    1    2    0    0  0.00000000000E+00  0.00000000000E+00  0.18342757506E+04  0.19006901279E+04  0.49805163674E+03 0.  0.
        2    1    3    3  502    0 -0.16919892944E+03  0.84705593804E+02  0.15349763581E+04  0.15465948840E+04  0.25500000920E-02 0.  1.
       -2    1    3    3    0  502  0.16919892944E+03 -0.84705593804E+02  0.29929939252E+03  0.35409524384E+03  0.25500000920E-02 0. -1.
</event>
<event>
 5   0  0.7781754E-02  0.4959936E+03  0.7818609E-02  0.1014830E+00
        1   -1    0    0  501    0  0.00000000000E+00  0.00000000000E+00  0.12331193103E+03  0.12331193113E+03  0.50400001928E-02 0. -1.
       -1   -1    0    0    0  501  0.00000000000E+00  0.00000000000E+00 -0.49875486075E+03  0.49875486077E+03  0.50400001928E-02 0.  1.
    10030    2    1    2    0    0  0.00000000000E+00  0.00000000000E+00 -0.37544292972E+03  0.62206679190E+03  0.49599364927E+03 0.  0.
        2    1    3    3  502    0  0.45677909537E+02 -0.16425379419E+03 -0.41360202907E+03  0.44736161970E+03  0.25500000920E-02 0.  1.
       -2    1    3    3    0  502 -0.45677909537E+02  0.16425379419E+03  0.38159099351E+02  0.17470517220E+03  0.25500000920E-02 0. -1.
</event>
<event>
 5   0  0.1211345E-01  0.5026217E+03  0.7818609E-02  0.1013097E+00
        2   -1    0    0  501    0  0.00000000000E+00  0.00000000000E+00  0.13910068540E+03  0.13910068542E+03  0.25500000920E-02 0. -1.
       -2   -1    0    0    0  501  0.00000000000E+00  0.00000000000E+00 -0.45403906745E+03  0.45403906746E+03  0.25500000920E-02 0.  1.
    10030    2    1    2    0    0  0.00000000000E+00  0.00000000000E+00 -0.31493838206E+03  0.59313975288E+03  0.50262170860E+03 0.  0.
        5    1    3    3  502    0  0.22530308749E+02 -0.24888386256E+03 -0.18833854353E+03  0.31296052280E+03  0.46999998093E+01 0. -1.
       -5    1    3    3    0  502 -0.22530308749E+02  0.24888386256E+03 -0.12659983853E+03  0.28017923008E+03  0.46999998093E+01 0.  1.
</event>
<event>
 5   0  0.1243803E-01  0.5058205E+03  0.7818609E-02  0.1012271E+00
        2   -1    0    0  501    0  0.00000000000E+00  0.00000000000E+00  0.91169600092E+03  0.91169600092E+03  0.25500000920E-02 0.  1.
       -2   -1    0    0    0  501  0.00000000000E+00  0.00000000000E+00 -0.70158904695E+02  0.70158904741E+02  0.25500000920E-02 0. -1.
    10030    2    1    2    0    0  0.00000000000E+00  0.00000000000E+00  0.84153709622E+03  0.98185490566E+03  0.50582049331E+03 0.  0.
        4    1    3    3  502    0 -0.17547843595E+03  0.12908933727E+03  0.67014867118E+03  0.70466842760E+03  0.12699999809E+01 0. -1.
       -4    1    3    3    0  502  0.17547843595E+03 -0.12908933727E+03  0.17138842505E+03  0.27718647806E+03  0.12699999809E+01 0.  1.
</event>
<event>
 5   0  0.1243803E-01  0.4991605E+03  0.7818609E-02  0.1013998E+00
       -2   -1    0    0    0  501  0.00000000000E+00  0.00000000000E+00  0.75475730289E+02  0.75475730332E+02  0.25500000920E-02 0.  1.
        2   -1    0    0  501    0  0.00000000000E+00  0.00000000000E+00 -0.82530233633E+03  0.82530233633E+03  0.25500000920E-02 0. -1.
    10030    2    1    2    0    0  0.00000000000E+00  0.00000000000E+00 -0.74982660604E+03  0.90077806666E+03  0.49916048147E+03 0.  0.
        4    1    3    3  502    0  0.71136046540E+02 -0.13599026789E+03 -0.19748964802E+02  0.15474276910E+03  0.12699999809E+01 0.  1.
       -4    1    3    3    0  502 -0.71136046540E+02  0.13599026789E+03 -0.73007764124E+03  0.74603529756E+03  0.12699999809E+01 0. -1.
</event>
<event>
 5   0  0.7602288E-02  0.5014971E+03  0.7818609E-02  0.1013389E+00
       -1   -1    0    0    0  501  0.00000000000E+00  0.00000000000E+00  0.58197547751E+02  0.58197547969E+02  0.50400001928E-02 0.  1.
        1   -1    0    0  501    0  0.00000000000E+00  0.00000000000E+00 -0.10803693267E+04  0.10803693267E+04  0.50400001928E-02 0. -1.
    10030    2    1    2    0    0  0.00000000000E+00  0.00000000000E+00 -0.10221717789E+04  0.11385668747E+04  0.50149714101E+03 0.  0.
        5    1    3    3  502    0 -0.10657553666E+03  0.23850754842E+02  0.12537470515E+01  0.10932001372E+03  0.46999998093E+01 0.  1.
       -5    1    3    3    0  502  0.10657553666E+03 -0.23850754842E+02 -0.10234255260E+04  0.10292468609E+04  0.46999998093E+01 0. -1.
</event>
<event>
 5   0  0.7602288E-02  0.4995402E+03  0.7818609E-02  0.1013899E+00
       -1   -1    0    0    0  501  0.00000000000E+00  0.00000000000E+00  0.81054725396E+03  0.81054725398E+03  0.50400001928E-02 0.  1.
        1   -1    0    0  501    0  0.00000000000E+00  0.00000000000E+00 -0.76966636611E+02  0.76966636776E+02  0.50400001928E-02 0. -1.
    10030    2    1    2    0    0  0.00000000000E+00  0.00000000000E+00  0.73358061735E+03  0.88751389075E+03  0.49954017269E+03 0.  0.
        5    1    3    3  502    0  0.11052373448E+02  0.20922096284E+03  0.60822967646E+03  0.64332029004E+03  0.46999998093E+01 0.  1.
       -5    1    3    3    0  502 -0.11052373448E+02 -0.20922096284E+03  0.12535094089E+03  0.24419360072E+03  0.46999998093E+01 0. -1.
</event>
<event>
 5   0  0.7602288E-02  0.5036023E+03  0.7818609E-02  0.1012843E+00
       -1   -1    0    0    0  501  0.00000000000E+00  0.00000000000E+00  0.96780773890E+03  0.96780773891E+03  0.50400001928E-02 0. -1.
        1   -1    0    0  501    0  0.00000000000E+00  0.00000000000E+00 -0.65512821787E+02  0.65512821981E+02  0.50400001928E-02 0.  1.
    10030    2    1    2    0    0  0.00000000000E+00  0.00000000000E+00  0.90229491711E+03  0.10333205609E+04  0.50360228764E+03 0.  0.
        5    1    3    3  502    0  0.46329288533E+02  0.13686631765E+03  0.28131420974E+02  0.14728292069E+03  0.46999998093E+01 0.  1.
       -5    1    3    3    0  502 -0.46329288533E+02 -0.13686631765E+03  0.87416349614E+03  0.88603764020E+03  0.46999998093E+01 0. -1.
</event>
<event>
 5   0  0.1231822E-01  0.5011435E+03  0.7818609E-02  0.1013481E+00
        2   -1    0    0  501    0  0.00000000000E+00  0.00000000000E+00  0.13762707940E+04  0.13762707940E+04  0.25500000920E-02 0. -1.
       -2   -1    0    0    0  501  0.00000000000E+00  0.00000000000E+00 -0.45620529084E+02  0.45620529155E+02  0.25500000920E-02 0.  1.
    10030    2    1    2    0    0  0.00000000000E+00  0.00000000000E+00  0.13306502650E+04  0.14218913232E+04  0.50114349977E+03 0.  0.
        1    1    3    3  502    0 -0.15500906634E+03 -0.10642654050E+03  0.19539713756E+03  0.27117238164E+03  0.50400001928E-02 0.  1.
       -1    1    3    3    0  502  0.15500906634E+03  0.10642654050E+03  0.11352531274E+04  0.11507189416E+04  0.50400001928E-02 0. -1.
</event>
<event>
 5   0  0.1211345E-01  0.4921728E+03  0.7818609E-02  0.1015842E+00
        2   -1    0    0  501    0  0.00000000000E+00  0.00000000000E+00  0.11792497959E+04  0.11792497959E+04  0.25500000920E-02 0.  1.
       -2   -1    0    0    0  501  0.00000000000E+00  0.00000000000E+00 -0.51353425021E+02  0.51353425084E+02  0.25500000920E-02 0. -1.
    10030    2    1    2    0    0  0.00000000000E+00  0.00000000000E+00  0.11278963709E+04  0.12306032210E+04  0.49217279898E+03 0.  0.
        5    1    3    3  502    0  0.22179860837E+03  0.95227468102E+02  0.68316871281E+03  0.72457192433E+03  0.46999998093E+01 0. -1.
       -5    1    3    3    0  502 -0.22179860837E+03 -0.95227468102E+02  0.44472765805E+03  0.50603129665E+03  0.46999998093E+01 0.  1.
</event>
<event>
 5   0  0.7531632E-02  0.4988981E+03  0.7818609E-02  0.1014067E+00
       -1   -1    0    0    0  501  0.00000000000E+00  0.00000000000E+00  0.36194047636E+02  0.36194047987E+02  0.50400001928E-02 0.  1.
        1   -1    0    0  501    0  0.00000000000E+00  0.00000000000E+00 -0.17192009199E+04  0.17192009199E+04  0.50400001928E-02 0. -1.
    10030    2    1    2    0    0  0.00000000000E+00  0.00000000000E+00 -0.16830068723E+04  0.17553949679E+04  0.49889814714E+03 0.  0.
        3    1    3    3  502    0 -0.20422115124E+03  0.65130625845E+02 -0.12903978255E+04  0.13080805920E+04  0.10100000352E+00 0. -1.
       -3    1    3    3    0  502  0.20422115124E+03 -0.65130625845E+02 -0.39260904679E+03  0.44731437587E+03  0.10100000352E+00 0.  1.
</event>
<event>
 5   0  0.1243803E-01  0.5136004E+03  0.7818609E-02  0.1010289E+00
       -2   -1    0    0    0  501  0.00000000000E+00  0.00000000000E+00  0.22172428189E+03  0.22172428190E+03  0.25500000920E-02 0. -1.
        2   -1    0    0  501    0  0.00000000000E+00  0.00000000000E+00 -0.29742496975E+03  0.29742496976E+03  0.25500000920E-02 0.  1.
    10030    2    1    2    0    0  0.00000000000E+00  0.00000000000E+00 -0.75700687858E+02  0.51914925166E+03  0.51360038099E+03 0.  0.
        4    1    3    3  502    0 -0.23189139449E+03  0.80864902730E+02 -0.11370761246E+03  0.27063589075E+03  0.12699999809E+01 0.  1.
       -4    1    3    3    0  502  0.23189139449E+03 -0.80864902730E+02  0.38006924597E+02  0.24851336091E+03  0.12699999809E+01 0. -1.
</event>
<event>
 5   0  0.1231822E-01  0.4996109E+03  0.7818609E-02  0.1013881E+00
       -2   -1    0    0    0  501  0.00000000000E+00  0.00000000000E+00  0.58030882603E+02  0.58030882659E+02  0.25500000920E-02 0. -1.
        2   -1    0    0  501    0  0.00000000000E+00  0.00000000000E+00 -0.10753369921E+04  0.10753369921E+04  0.25500000920E-02 0.  1.
    10030    2    1    2    0    0  0.00000000000E+00  0.00000000000E+00 -0.10173061095E+04  0.11333678748E+04  0.49961086771E+03 0.  0.
        1    1    3    3  502    0 -0.87394480613E+02  0.18416817757E+03 -0.83619071417E+03  0.86068032588E+03  0.50400001928E-02 0.  1.
       -1    1    3    3    0  502  0.87394480613E+02 -0.18416817757E+03 -0.18111539536E+03  0.27268754891E+03  0.50400001928E-02 0. -1.
</event>
<event>
 5   0  0.5006750E-02  0.4979026E+03  0.7818609E-02  0.1014328E+00
        3   -1    0    0  501    0  0.00000000000E+00  0.00000000000E+00  0.29015621619E+02  0.29015797403E+02  0.10100000352E+00 0. -1.
       -3   -1    0    0    0  501  0.00000000000E+00  0.00000000000E+00 -0.21359719280E+04  0.21359719304E+04  0.10100000352E+00 0.  1.
    10030    2    1    2    0    0  0.00000000000E+00  0.00000000000E+00 -0.21069563064E+04  0.21649877278E+04  0.49790258534E+03 0.  0.
        1    1    3    3  502    0  0.24814079814E+03 -0.13414308156E+02 -0.98855320485E+03  0.10193091966E+04  0.50400001928E-02 0.  1.
       -1    1    3    3    0  502 -0.24814079814E+03  0.13414308156E+02 -0.11184031016E+04  0.11456785313E+04  0.50400001928E-02 0. -1.
</event>
<event>
 5   0  0.7416638E-02  0.4999547E+03  0.7818609E-02  0.1013791E+00
       -1   -1    0    0    0  501  0.00000000000E+00  0.00000000000E+00  0.16351618800E+03  0.16351618808E+03  0.50400001928E-02 0. -1.
        1   -1    0    0  501    0  0.00000000000E+00  0.00000000000E+00 -0.38215593993E+03  0.38215593996E+03  0.50400001928E-02 0.  1.
    10030    2    1    2    0    0  0.00000000000E+00  0.00000000000E+00 -0.21863975192E+03  0.54567212804E+03  0.49995472815E+03 0.  0.
        1    1    3    3  502    0  0.86403723166E+02 -0.17411009895E+03  0.62244257811E+02  0.20409379605E+03  0.50400001928E-02 0. -1.
       -1    1    3    3    0  502 -0.86403723166E+02  0.17411009895E+03 -0.28088400973E+03  0.34157833198E+03  0.50400001928E-02 0.  1.
</event>
<event>
 5   0  0.1191894E-01  0.5013737E+03  0.7818609E-02  0.1013421E+00
        2   -1    0    0  501    0  0.00000000000E+00  0.00000000000E+00  0.56818799675E+03  0.56818799676E+03  0.25500000920E-02 0. -1.
       -2   -1    0    0    0  501  0.00000000000E+00  0.00000000000E+00 -0.11060406595E+03  0.11060406598E+03  0.25500000920E-02 0.  1.
    10030    2    1    2    0    0  0.00000000000E+00  0.00000000000E+00  0.45758393080E+03  0.67879206274E+03  0.50137372359E+03 0.  0.
        3    1    3    3  502    0 -0.17605203661E+03  0.12642999239E+03  0.58263990925E+02  0.22444056098E+03  0.10100000352E+00 0.  1.
       -3    1    3    3    0  502  0.17605203661E+03 -0.12642999239E+03  0.39931993987E+03  0.45435150176E+03  0.10100000352E+00 0. -1.
</event>
<event>
 5   0  0.7531632E-02  0.5032907E+03  0.7818609E-02  0.1012924E+00
       -1   -1    0    0    0  501  0.00000000000E+00  0.00000000000E+00  0.25586544708E+03  0.25586544713E+03  0.50400001928E-02 0.  1.
        1   -1    0    0  501    0  0.00000000000E+00  0.00000000000E+00 -0.24749482034E+03  0.24749482039E+03  0.50400001928E-02 0. -1.
    10030    2    1    2    0    0  0.00000000000E+00  0.00000000000E+00  0.83706267452E+01  0.50336026752E+03  0.50329066307E+03 0.  0.
        3    1    3    3  502    0 -0.88767295601E+02  0.19269951200E+03  0.13952818746E+03  0.25393081733E+03  0.10100000352E+00 0.  1.
       -3    1    3    3    0  502  0.88767295601E+02 -0.19269951200E+03 -0.13115756071E+03  0.24942945020E+03  0.10100000352E+00 0. -1.
</event>
<event>
 5   0  0.7602288E-02  0.4914609E+03  0.7818609E-02  0.1016032E+00
        1   -1    0    0  501    0  0.00000000000E+00  0.00000000000E+00  0.83556396439E+03  0.83556396440E+03  0.50400001928E-02 0. -1.
       -1   -1    0    0    0  501  0.00000000000E+00  0.00000000000E+00 -0.72266693223E+02  0.72266693399E+02  0.50400001928E-02 0.  1.
    10030    2    1    2    0    0  0.00000000000E+00  0.00000000000E+00  0.76329727116E+03  0.90783065780E+03  0.49146086220E+03 0.  0.
        5    1    3    3  502    0 -0.23809858172E+03 -0.21493103257E+02  0.48628067074E+03  0.54188916656E+03  0.46999998093E+01 0.  1.
       -5    1    3    3    0  502  0.23809858172E+03  0.21493103257E+02  0.27701660043E+03  0.36594149124E+03  0.46999998093E+01 0. -1.
</event>
<event>
 5   0  0.5006750E-02  0.5001510E+03  0.7818609E-02  0.1013740E+00
        3   -1    0    0  501    0  0.00000000000E+00  0.00000000000E+00  0.53610527874E+03  0.53610528826E+03  0.10100000352E+00 0. -1.
       -3   -1    0    0    0  501  0.00000000000E+00  0.00000000000E+00 -0.11665198782E+03  0.11665203155E+03  0.10100000352E+00 0.  1.
    10030    2    1    2    0    0  0.00000000000E+00  0.00000000000E+00  0.41945329092E+03  0.65275731981E+03  0.50015103248E+03 0.  0.
        4    1    3    3  502    0  0.15490142268E+03  0.19282414311E+03  0.25786683941E+03  0.35731291704E+03  0.12699999809E+01 0.  1.
       -4    1    3    3    0  502 -0.15490142268E+03 -0.19282414311E+03  0.16158645151E+03  0.29544440277E+03  0.12699999809E+01 0. -1.
</event>
<event>
 5   0  0.7416638E-02  0.5096389E+03  0.7818609E-02  0.1011293E+00
        1   -1    0    0  501    0  0.00000000000E+00  0.00000000000E+00  0.23117665560E+03  0.23117665565E+03  0.50400001928E-02 0. -1.
       -1   -1    0    0    0  501  0.00000000000E+00  0.00000000000E+00 -0.28088023111E+03  0.28088023116E+03  0.50400001928E-02 0.  1.
    10030    2    1    2    0    0  0.00000000000E+00  0.00000000000E+00 -0.49703575517E+02  0.51205688681E+03  0.50963890149E+03 0.  0.
        1    1    3    3  502    0  0.23316228943E+02  0.50539276083E+02 -0.27469820744E+03  0.28028016369E+03  0.50400001928E-02 0.  1.
       -1    1    3    3    0  502 -0.23316228943E+02 -0.50539276083E+02  0.22499463193E+03  0.23177672312E+03  0.50400001928E-02 0. -1.
</event>
<event>
 5   0  0.7416638E-02  0.5010731E+03  0.7818609E-02  0.1013499E+00
       -1   -1    0    0    0  501  0.00000000000E+00  0.00000000000E+00  0.66698933045E+02  0.66698933235E+02  0.50400001928E-02 0. -1.
        1   -1    0    0  501    0  0.00000000000E+00  0.00000000000E+00 -0.94107295480E+03  0.94107295481E+03  0.50400001928E-02 0.  1.
    10030    2    1    2    0    0  0.00000000000E+00  0.00000000000E+00 -0.87437402175E+03  0.10077718880E+04  0.50107309688E+03 0.  0.
        1    1    3    3  502    0 -0.16642062263E+03  0.67830307654E+02 -0.86103751567E+02  0.19927526272E+03  0.50400001928E-02 0. -1.
       -1    1    3    3    0  502  0.16642062263E+03 -0.67830307654E+02 -0.78827027019E+03  0.80849662532E+03  0.50400001928E-02 0.  1.
</event>
<event>
 5   0  0.5006750E-02  0.4991575E+03  0.7818609E-02  0.1013999E+00
       -3   -1    0    0    0  501  0.00000000000E+00  0.00000000000E+00  0.43374878479E+02  0.43374996070E+02  0.10100000352E+00 0.  1.
        3   -1    0    0  501    0  0.00000000000E+00  0.00000000000E+00 -0.14360721340E+04  0.14360721376E+04  0.10100000352E+00 0. -1.
    10030    2    1    2    0    0  0.00000000000E+00  0.00000000000E+00 -0.13926972555E+04  0.14794471336E+04  0.49915746578E+03 0.  0.
        4    1    3    3  502    0  0.20933642232E+03 -0.12108918168E+02 -0.29518690596E+03  0.36208463921E+03  0.12699999809E+01 0.  1.
       -4    1    3    3    0  502 -0.20933642232E+03  0.12108918168E+02 -0.10975103496E+04  0.11173624944E+04  0.12699999809E+01 0. -1.
</event>
<event>
 5   0  0.1191894E-01  0.4736925E+03  0.7818609E-02  0.1020883E+00
       -2   -1    0    0    0  501  0.00000000000E+00  0.00000000000E+00  0.14925428841E+03  0.14925428843E+03  0.25500000920E-02 0. -1.
        2   -1    0    0  501    0  0.00000000000E+00  0.00000000000E+00 -0.37584271470E+03  0.37584271471E+03  0.25500000920E-02 0.  1.
    10030    2    1    2    0    0  0.00000000000E+00  0.00000000000E+00 -0.22658842629E+03  0.52509700314E+03  0.47369246118E+03 0.  0.
        3    1    3    3  502    0  0.10966258586E+03  0.19750521174E+03 -0.19216231040E+03  0.29658144774E+03  0.10100000352E+00 0.  1.
       -3    1    3    3    0  502 -0.10966258586E+03 -0.19750521174E+03 -0.34426115884E+02  0.22851555540E+03  0.10100000352E+00 0. -1.
</event>
<event>
 5   0  0.5006750E-02  0.4983079E+03  0.7818609E-02  0.1014222E+00
       -3   -1    0    0    0  501  0.00000000000E+00  0.00000000000E+00  0.15160115423E+03  0.15160118788E+03  0.10100000352E+00 0.  1.
        3   -1    0    0  501    0  0.00000000000E+00  0.00000000000E+00 -0.40948027861E+03  0.40948029107E+03  0.10100000352E+00 0. -1.
    10030    2    1    2    0    0  0.00000000000E+00  0.00000000000E+00 -0.25787912438E+03  0.56108147895E+03  0.49830792009E+03 0.  0.
        1    1    3    3  502    0 -0.43118023353E+02 -0.24402955173E+03 -0.15804351919E+03  0.29391723331E+03  0.50400001928E-02 0. -1.
       -1    1    3    3    0  502  0.43118023353E+02  0.24402955173E+03 -0.99835605187E+02  0.26716424563E+03  0.50400001928E-02 0.  1.
</event>
<event>
 5   0  0.7416638E-02  0.5010029E+03  0.7818609E-02  0.1013517E+00
        1   -1    0    0  501    0  0.00000000000E+00  0.00000000000E+00  0.10037697490E+03  0.10037697502E+03  0.50400001928E-02 0. -1.
       -1   -1    0    0    0  501  0.00000000000E+00  0.00000000000E+00 -0.62515297029E+03  0.62515297031E+03  0.50400001928E-02 0.  1.
    10030    2    1    2    0    0  0.00000000000E+00  0.00000000000E+00 -0.52477599539E+03  0.72552994534E+03  0.50100285053E+03 0.  0.
        1    1    3    3  502    0 -0.29692771557E+02 -0.14245265483E+03 -0.55767160716E+03  0.57634368307E+03  0.50400001928E-02 0.  1.
       -1    1    3    3    0  502  0.29692771557E+02  0.14245265483E+03  0.32895611769E+02  0.14918626227E+03  0.50400001928E-02 0. -1.
</event>
<event>
 5   0  0.7781754E-02  0.4958291E+03  0.7818609E-02  0.1014873E+00
       -1   -1    0    0    0  501  0.00000000000E+00  0.00000000000E+00  0.33300285638E+03  0.33300285642E+03  0.50400001928E-02 0.  1.
        1   -1    0    0  501    0  0.00000000000E+00  0.00000000000E+00 -0.18456787094E+03  0.18456787100E+03  0.50400001928E-02 0. -1.
    10030    2    1    2    0    0  0.00000000000E+00  0.00000000000E+00  0.14843498544E+03  0.51757072742E+03  0.49582911671E+03 0.  0.
        2    1    3    3  502    0  0.15491448584E+03 -0.94876054419E+02 -0.10188594246E+03  0.20828036130E+03  0.25500000920E-02 0. -1.
       -2    1    3    3    0  502 -0.15491448584E+03  0.94876054419E+02  0.25032092790E+03  0.30929036612E+03  0.25500000920E-02 0.  1.
</event>
<event>
 5   0  0.7531632E-02  0.4971838E+03  0.7818609E-02  0.1014517E+00
        1   -1    0    0  501    0  0.00000000000E+00  0.00000000000E+00  0.28151133766E+03  0.28151133771E+03  0.50400001928E-02 0. -1.
       -1   -1    0    0    0  501  0.00000000000E+00  0.00000000000E+00 -0.21952197115E+03  0.21952197121E+03  0.50400001928E-02 0.  1.
    10030    2    1    2    0    0  0.00000000000E+00  0.00000000000E+00  0.61989366511E+02  0.50103330892E+03  0.49718376390E+03 0.  0.
        3    1    3    3  502    0  0.24594670888E+02  0.17492127279E+03 -0.14527551510E+03  0.22870796882E+03  0.10100000352E+00 0.  1.
       -3    1    3    3    0  502 -0.24594670888E+02 -0.17492127279E+03  0.20726488161E+03  0.27232534010E+03  0.10100000352E+00 0. -1.
</event>
<event>
 5   0  0.1231822E-01  0.4978618E+03  0.7818609E-02  0.1014339E+00
        2   -1    0    0  501    0  0.00000000000E+00  0.00000000000E+00  0.10934410389E+03  0.10934410392E+03  0.25500000920E-02 0.  1.
       -2   -1    0    0    0  501  0.00000000000E+00  0.00000000000E+00 -0.56671185311E+03  0.56671185311E+03  0.25500000920E-02 0. -1.
    10030    2    1    2    0    0  0.00000000000E+00  0.00000000000E+00 -0.45736774922E+03  0.67605595704E+03  0.49786182724E+03 0.  0.
        1    1    3    3  502    0 -0.16020904363E+03  0.14176940123E+03 -0.55843160329E+02  0.22109717177E+03  0.50400001928E-02 0.  1.
       -1    1    3    3    0  502  0.16020904363E+03 -0.14176940123E+03 -0.40152458889E+03  0.45495878527E+03  0.50400001928E-02 0. -1.
</event>
<event>
 5   0  0.1191894E-01  0.5113732E+03  0.7818609E-02  0.1010852E+00
        2   -1    0    0  501    0  0.00000000000E+00  0.00000000000E+00  0.78938393541E+02  0.78938393583E+02  0.25500000920E-02 0. -1.
       -2   -1    0    0    0  501  0.00000000000E+00  0.00000000000E+00 -0.82818565778E+03  0.82818565778E+03  0.25500000920E-02 0.  1.
    10030    2    1    2    0    0  0.00000000000E+00  0.00000000000E+00 -0.74924726424E+03  0.90712405137E+03  0.51137323121E+03 0.  0.
        3    1    3    3  502    0  0.14705369689E+03  0.18889264255E+03 -0.21526462106E+03  0.32193801805E+03  0.10100000352E+00 0. -1.
       -3    1    3    3    0  502 -0.14705369689E+03 -0.18889264255E+03 -0.53398264317E+03  0.58518603332E+03  0.10100000352E+00 0.  1.
</event>
<event>
 5   0  0.5006750E-02  0.5015297E+03  0.7818609E-02  0.1013380E+00
       -3   -1    0    0    0  501  0.00000000000E+00  0.00000000000E+00  0.90511738238E+02  0.90511794590E+02  0.10100000352E+00 0. -1.
        3   -1    0    0  501    0  0.00000000000E+00  0.00000000000E+00 -0.69474937882E+03  0.69474938616E+03  0.10100000352E+00 0.  1.
    10030    2    1    2    0    0  0.00000000000E+00  0.00000000000E+00 -0.60423764058E+03  0.78526118075E+03  0.50152965585E+03 0.  0.
        5    1    3    3  502    0 -0.22358013020E+03  0.52602178589E+01 -0.12466418660E+03  0.25608395876E+03  0.46999998093E+01 0. -1.
       -5    1    3    3    0  502  0.22358013020E+03 -0.52602178589E+01 -0.47957345398E+03  0.52917722199E+03  0.46999998093E+01 0.  1.
</event>
<event>
 5   0  0.7812547E-02  0.4262871E+03  0.7818609E-02  0.1035039E+00
        1   -1    0    0  501    0  0.00000000000E+00  0.00000000000E+00  0.10395474348E+03  0.10395474360E+03  0.50400001928E-02 0. -1.
       -1   -1    0    0    0  501  0.00000000000E+00  0.00000000000E+00 -0.43701870992E+03  0.43701870995E+03  0.50400001928E-02 0.  1.
    10030    2    1    2    0    0  0.00000000000E+00  0.00000000000E+00 -0.33306396644E+03  0.54097345355E+03  0.42628707663E+03 0.  0.
        4    1    3    3  502    0  0.14566898622E+03  0.13820442708E+02 -0.36320423180E+03  0.39157296265E+03  0.12699999809E+01 0.  1.
       -4    1    3    3    0  502 -0.14566898622E+03 -0.13820442708E+02  0.30140265360E+02  0.14940049090E+03  0.12699999809E+01 0. -1.
</event>
<event>
 5   0  0.7781754E-02  0.4955832E+03  0.7818609E-02  0.1014938E+00
       -1   -1    0    0    0  501  0.00000000000E+00  0.00000000000E+00  0.46812179579E+02  0.46812179850E+02  0.50400001928E-02 0. -1.
        1   -1    0    0  501    0  0.00000000000E+00  0.00000000000E+00 -0.13116389819E+04  0.13116389819E+04  0.50400001928E-02 0.  1.
    10030    2    1    2    0    0  0.00000000000E+00  0.00000000000E+00 -0.12648268023E+04  0.13584511617E+04  0.49558321098E+03 0.  0.
        2    1    3    3  502    0 -0.54749619936E+02 -0.97069026886E+02 -0.25760586633E+02  0.11438323607E+03  0.25500000920E-02 0. -1.
       -2    1    3    3    0  502  0.54749619936E+02  0.97069026886E+02 -0.12390662156E+04  0.12440679256E+04  0.25500000920E-02 0.  1.
</event>
<event>
 5   0  0.7781754E-02  0.4990269E+03  0.7818609E-02  0.1014033E+00
        1   -1    0    0  501    0  0.00000000000E+00  0.00000000000E+00  0.10509306257E+04  0.10509306257E+04  0.50400001928E-02 0.  1.
       -1   -1    0    0    0  501  0.00000000000E+00  0.00000000000E+00 -0.59239839275E+02  0.59239839489E+02  0.50400001928E-02 0. -1.
    10030    2    1    2    0    0  0.00000000000E+00  0.00000000000E+00  0.99169078644E+03  0.11101704652E+04  0.49902689900E+03 0.  0.
        2    1    3    3  502    0  0.22579052272E+02 -0.21880151401E+03  0.23381503165E+03  0.32101929096E+03  0.25500000920E-02 0. -1.
       -2    1    3    3    0  502 -0.22579052272E+02  0.21880151401E+03  0.75787575478E+03  0.78915117425E+03  0.25500000920E-02 0.  1.
</event>
<event>
 5   0  0.7416638E-02  0.5356157E+03  0.7818609E-02  0.1004879E+00
       -1   -1    0    0    0  501  0.00000000000E+00  0.00000000000E+00  0.62195035170E+02  0.62195035374E+02  0.50400001928E-02 0.  1.
        1   -1    0    0  501    0  0.00000000000E+00  0.00000000000E+00 -0.11531633583E+04  0.11531633583E+04  0.50400001928E-02 0. -1.
    10030    2    1    2    0    0  0.00000000000E+00  0.00000000000E+00 -0.10909683232E+04  0.12153583937E+04  0.53561566728E+03 0.  0.
        1    1    3    3  502    0 -0.23457797133E+03 -0.73984919834E+02 -0.78584078233E+03  0.82343568553E+03  0.50400001928E-02 0. -1.
       -1    1    3    3    0  502  0.23457797133E+03  0.73984919834E+02 -0.30512754083E+03  0.39192270819E+03  0.50400001928E-02 0.  1.
</event>
<event>
 5   0  0.7602288E-02  0.4978437E+03  0.7818609E-02  0.1014343E+00
        1   -1    0    0  501    0  0.00000000000E+00  0.00000000000E+00  0.34039889892E+03  0.34039889896E+03  0.50400001928E-02 0. -1.
       -1   -1    0    0    0  501  0.00000000000E+00  0.00000000000E+00 -0.18202785410E+03  0.18202785417E+03  0.50400001928E-02 0.  1.
    10030    2    1    2    0    0  0.00000000000E+00  0.00000000000E+00  0.15837104482E+03  0.52242675313E+03  0.49784367481E+03 0.  0.
        5    1    3    3  502    0 -0.51170967549E+02 -0.18562184396E+03 -0.86290797383E+02  0.21105006180E+03  0.46999998093E+01 0.  1.
       -5    1    3    3    0  502  0.51170967549E+02  0.18562184396E+03  0.24466184220E+03  0.31137669133E+03  0.46999998093E+01 0. -1.
</event>
<event>
 5   0  0.7812547E-02  0.4945202E+03  0.7818609E-02  0.1015219E+00
       -1   -1    0    0    0  501  0.00000000000E+00  0.00000000000E+00  0.14055697029E+03  0.14055697038E+03  0.50400001928E-02 0. -1.
        1   -1    0    0  501    0  0.00000000000E+00  0.00000000000E+00 -0.43496645396E+03  0.43496645399E+03  0.50400001928E-02 0.  1.
    10030    2    1    2    0    0  0.00000000000E+00  0.00000000000E+00 -0.29440948367E+03  0.57552342437E+03  0.49452024015E+03 0.  0.
        4    1    3    3  502    0  0.72668756288E+02 -0.41572210158E+02 -0.41796551161E+03  0.42626960787E+03  0.12699999809E+01 0.  1.
       -4    1    3    3    0  502 -0.72668756288E+02  0.41572210158E+02  0.12355602794E+03  0.14925381650E+03  0.12699999809E+01 0. -1.
</event>
<event>
 5   0  0.1243803E-01  0.5071305E+03  0.7818609E-02  0.1011934E+00
       -2   -1    0    0    0  501  0.00000000000E+00  0.00000000000E+00  0.10375299735E+03  0.10375299738E+03  0.25500000920E-02 0.  1.
        2   -1    0    0  501    0  0.00000000000E+00  0.00000000000E+00 -0.61969609789E+03  0.61969609790E+03  0.25500000920E-02 0. -1.
    10030    2    1    2    0    0  0.00000000000E+00  0.00000000000E+00 -0.51594310055E+03  0.72344909528E+03  0.50713046690E+03 0.  0.
        4    1    3    3  502    0  0.10577576269E+03 -0.21862550720E+03 -0.15403760134E+03  0.28760184265E+03  0.12699999809E+01 0.  1.
       -4    1    3    3    0  502 -0.10577576269E+03  0.21862550720E+03 -0.36190549921E+03  0.43584725263E+03  0.12699999809E+01 0. -1.
</event>
<event>
 5   0  0.5006750E-02  0.5037993E+03  0.7818609E-02  0.1012792E+00
       -3   -1    0    0    0  501  0.00000000000E+00  0.00000000000E+00  0.10140328047E+03  0.10140333077E+03  0.10100000352E+00 0. -1.
        3   -1    0    0  501    0  0.00000000000E+00  0.00000000000E+00 -0.62575303129E+03  0.62575303944E+03  0.10100000352E+00 0.  1.
    10030    2    1    2    0    0  0.00000000000E+00  0.00000000000E+00 -0.52434975082E+03  0.72715637021E+03  0.50379929094E+03 0.  0.
        2    1    3    3  502    0  0.66012555206E+01  0.74290576294E+02 -0.60945098352E+03  0.61399769350E+03  0.25500000920E-02 0.  1.
       -2    1    3    3    0  502 -0.66012555206E+01 -0.74290576294E+02  0.85101232705E+02  0.11315867671E+03  0.25500000920E-02 0. -1.
</event>
<event>
 5   0  0.1243803E-01  0.4975703E+03  0.7818609E-02  0.1014415E+00
        2   -1    0    0  501    0  0.00000000000E+00  0.00000000000E+00  0.38100169708E+03  0.38100169709E+03  0.25500000920E-02 0. -1.
       -2   -1    0    0    0  501  0.00000000000E+00  0.00000000000E+00 -0.16245084934E+03  0.16245084936E+03  0.25500000920E-02 0.  1.
    10030    2    1    2    0    0  0.00000000000E+00  0.00000000000E+00  0.21855084775E+03  0.54345254645E+03  0.49757029372E+03 0.  0.
        4    1    3    3  502    0  0.16793028306E+03  0.11149800765E+03 -0.49978203161E+02  0.20768201504E+03  0.12699999809E+01 0.  1.
       -4    1    3    3    0  502 -0.16793028306E+03 -0.11149800765E+03  0.26852905091E+03  0.33577053141E+03  0.12699999809E+01 0. -1.
</event>
<event>
 5   0  0.7416638E-02  0.5089087E+03  0.7818609E-02  0.1011479E+00
       -1   -1    0    0    0  501  0.00000000000E+00  0.00000000000E+00  0.77829772427E+02  0.77829772590E+02  0.50400001928E-02 0.  1.
        1   -1    0    0  501    0  0.00000000000E+00  0.00000000000E+00 -0.83190535849E+03  0.83190535850E+03  0.50400001928E-02 0. -1.
    10030    2    1    2    0    0  0.00000000000E+00  0.00000000000E+00 -0.75407558606E+03  0.90973513109E+03  0.50890865511E+03 0.  0.
        1    1    3    3  502    0  0.14431936421E+03  0.74605924207E+02 -0.72712329923E+03  0.74505195464E+03  0.50400001928E-02 0. -1.
       -1    1    3    3    0  502 -0.14431936421E+03 -0.74605924207E+02 -0.26952286831E+02  0.16468317645E+03  0.50400001928E-02 0.  1.
</event>
<event>
 5   0  0.7812547E-02  0.4909503E+03  0.7818609E-02  0.1016168E+00
        1   -1    0    0  501    0  0.00000000000E+00  0.00000000000E+00  0.87401058536E+02  0.87401058681E+02  0.50400001928E-02 0. -1.
       -1   -1    0    0    0  501  0.00000000000E+00  0.00000000000E+00 -0.68944304968E+03  0.68944304970E+03  0.50400001928E-02 0.  1.
    10030    2    1    2    0    0  0.00000000000E+00  0.00000000000E+00 -0.60204199114E+03  0.77684410838E+03  0.49095031279E+03 0.  0.
        4    1    3    3  502    0  0.67310835450E+02  0.10753690571E+03  0.31499383800E+02  0.13072397920E+03  0.12699999809E+01 0. -1.
       -4    1    3    3    0  502 -0.67310835450E+02 -0.10753690571E+03 -0.63354137494E+03  0.64612012917E+03  0.12699999809E+01 0.  1.
</event>
<event>
 5   0  0.1243803E-01  0.4993917E+03  0.7818609E-02  0.1013938E+00
       -2   -1    0    0    0  501  0.00000000000E+00  0.00000000000E+00  0.23201126564E+02  0.23201126704E+02  0.25500000920E-02 0. -1.
        2   -1    0    0  501    0  0.00000000000E+00  0.00000000000E+00 -0.26872838827E+04  0.26872838827E+04  0.25500000920E-02 0.  1.
    10030    2    1    2    0    0  0.00000000000E+00  0.00000000000E+00 -0.26640827562E+04  0.27104850094E+04  0.49939168462E+03 0.  0.
        4    1    3    3  502    0  0.10712719488E+03  0.73980169456E+02 -0.24884724593E+04  0.24918760192E+04  0.12699999809E+01 0.  1.
       -4    1    3    3    0  502 -0.10712719488E+03 -0.73980169456E+02 -0.17561029686E+03  0.21860899025E+03  0.12699999809E+01 0. -1.
</event>
<event>
 5   0  0.1243803E-01  0.5343442E+03  0.7818609E-02  0.1005184E+00
        2   -1    0    0  501    0  0.00000000000E+00  0.00000000000E+00  0.41979010542E+03  0.41979010543E+03  0.25500000920E-02 0. -1.
       -2   -1    0    0    0  501  0.00000000000E+00  0.00000000000E+00 -0.17003954640E+03  0.17003954642E+03  0.25500000920E-02 0.  1.
    10030    2    1    2    0    0  0.00000000000E+00  0.00000000000E+00  0.24975055902E+03  0.58982965185E+03  0.53434415546E+03 0.  0.
        4    1    3    3  502    0 -0.24104036380E+03 -0.10106169454E+03  0.63760264883E+02  0.26903699998E+03  0.12699999809E+01 0.  1.
       -4    1    3    3    0  502  0.24104036380E+03  0.10106169454E+03  0.18599029414E+03  0.32079265187E+03  0.12699999809E+01 0. -1.
</event>
<event>
 5   0  0.1211345E-01  0.4990914E+03  0.7818609E-02  0.1014016E+00
        2   -1    0    0  501    0  0.00000000000E+00  0.00000000000E+00  0.87184651363E+03  0.87184651364E+03  0.25500000920E-02 0. -1.
       -2   -1    0    0    0  501  0.00000000000E+00  0.00000000000E+00 -0.71426630003E+02  0.71426630048E+02  0.25500000920E-02 0.  1.
    10030    2    1    2    0    0  0.00000000000E+00  0.00000000000E+00  0.80041988363E+03  0.94327314368E+03  0.49909140795E+03 0.  0.
        5    1    3    3  502    0  0.80060399172E+02 -0.20775130177E+03  0.18738185207E+03  0.29104006492E+03  0.46999998093E+01 0.  1.
       -5    1    3    3    0  502 -0.80060399172E+02  0.20775130177E+03  0.61303803156E+03  0.65223307877E+03  0.46999998093E+01 0. -1.
</event>
<event>
 5   0  0.1231822E-01  0.5008108E+03  0.7818609E-02  0.1013568E+00
       -2   -1    0    0    0  501  0.00000000000E+00  0.00000000000E+00  0.25421819277E+03  0.25421819278E+03  0.25500000920E-02 0. -1.
        2   -1    0    0  501    0  0.00000000000E+00  0.00000000000E+00 -0.24664977748E+03  0.24664977750E+03  0.25500000920E-02 0.  1.
    10030    2    1    2    0    0  0.00000000000E+00  0.00000000000E+00  0.75684152824E+01  0.50086797028E+03  0.50081078537E+03 0.  0.
        1    1    3    3  502    0 -0.15658213668E+03  0.21552301422E+02 -0.19045535606E+03  0.24749890889E+03  0.50400001928E-02 0.  1.
       -1    1    3    3    0  502  0.15658213668E+03 -0.21552301422E+02  0.19802377134E+03  0.25336906138E+03  0.50400001928E-02 0. -1.
</event>
<event>
 5   0  0.7602288E-02  0.4639612E+03  0.7818609E-02  0.1023639E+00
       -1   -1    0    0    0  501  0.00000000000E+00  0.00000000000E+00  0.76225458454E+02  0.76225458620E+02  0.50400001928E-02 0. -1.
        1   -1    0    0  501    0  0.00000000000E+00  0.00000000000E+00 -0.70599762685E+03  0.70599762687E+03  0.50400001928E-02 0.  1.
    10030    2    1    2    0    0  0.00000000000E+00  0.00000000000E+00 -0.62977216840E+03  0.78222308549E+03  0.46396117444E+03 0.  0.
        5    1    3    3  502    0  0.17961209787E+03 -0.38945566634E+02 -0.55341098855E+03  0.58314927344E+03  0.46999998093E+01 0.  1.
       -5    1    3    3    0  502 -0.17961209787E+03  0.38945566634E+02 -0.76361179845E+02  0.19907381205E+03  0.46999998093E+01 0. -1.
</event>
<event>
 5   0  0.1211345E-01  0.4922972E+03  0.7818609E-02  0.1015809E+00
       -2   -1    0    0    0  501  0.00000000000E+00  0.00000000000E+00  0.22494279790E+02  0.22494279934E+02  0.25500000920E-02 0. -1.
        2   -1    0    0  501    0  0.00000000000E+00  0.00000000000E+00 -0.26935348162E+04  0.26935348162E+04  0.25500000920E-02 0.  1.
    10030    2    1    2    0    0  0.00000000000E+00  0.00000000000E+00 -0.26710405364E+04  0.27160290962E+04  0.49229717033E+03 0.  0.
        5    1    3    3  502    0 -0.22705984341E+03  0.59052721630E+02 -0.92548638678E+03  0.95477250616E+03  0.46999998093E+01 0.  1.
       -5    1    3    3    0  502  0.22705984341E+03 -0.59052721630E+02 -0.17455541497E+04  0.17612565900E+04  0.46999998093E+01 0. -1.
</event>
<event>
 5   0  0.5006750E-02  0.5232755E+03  0.7818609E-02  0.1007876E+00
       -4   -1    0    0    0  501  0.00000000000E+00  0.00000000000E+00  0.17933130565E+03  0.17933580258E+03  0.12699999809E+01 0.  1.
        4   -1    0    0  501    0  0.00000000000E+00  0.00000000000E+00 -0.38170948010E+03  0.38171159282E+03  0.12699999809E+01 0. -1.
    10030    2    1    2    0    0  0.00000000000E+00  0.00000000000E+00 -0.20237817445E+03  0.56104739540E+03  0.52327550525E+03 0.  0.
        1    1    3    3  502    0  0.52838573006E+02  0.29709099585E+02 -0.37407985272E+03  0.37895947229E+03  0.50400001928E-02 0. -1.
       -1    1    3    3    0  502 -0.52838573006E+02 -0.29709099585E+02  0.17170167828E+03  0.18208792311E+03  0.50400001928E-02 0.  1.
</event>
<event>
 5   0  0.1211345E-01  0.4955144E+03  0.7818609E-02  0.1014956E+00
        2   -1    0    0  501    0  0.00000000000E+00  0.00000000000E+00  0.76261341459E+03  0.76261341459E+03  0.25500000920E-02 0. -1.
       -2   -1    0    0    0  501  0.00000000000E+00  0.00000000000E+00 -0.80491154030E+02  0.80491154070E+02  0.25500000920E-02 0.  1.
    10030    2    1    2    0    0  0.00000000000E+00  0.00000000000E+00  0.68212226056E+03  0.84310456866E+03  0.49551441488E+03 0.  0.
        5    1    3    3  502    0 -0.15884683188E+02  0.18203352288E+03  0.62563486013E+03  0.65178953261E+03  0.46999998093E+01 0. -1.
       -5    1    3    3    0  502  0.15884683188E+02 -0.18203352288E+03  0.56487400424E+02  0.19131503605E+03  0.46999998093E+01 0.  1.
</event>
<event>
 5   0  0.7416638E-02  0.4998074E+03  0.7818609E-02  0.1013829E+00
        1   -1    0    0  501    0  0.00000000000E+00  0.00000000000E+00  0.41388610106E+03  0.41388610110E+03  0.50400001928E-02 0. -1.
       -1   -1    0    0    0  501  0.00000000000E+00  0.00000000000E+00 -0.15089139783E+03  0.15089139792E+03  0.50400001928E-02 0.  1.
    10030    2    1    2    0    0  0.00000000000E+00  0.00000000000E+00  0.26299470323E+03  0.56477749901E+03  0.49980737236E+03 0.  0.
        1    1    3    3  502    0  0.10533177212E+03  0.21118163319E+03  0.38594634959E+02  0.23912760252E+03  0.50400001928E-02 0. -1.
       -1    1    3    3    0  502 -0.10533177212E+03 -0.21118163319E+03  0.22440006827E+03  0.32564989649E+03  0.50400001928E-02 0.  1.
</event>
<event>
 5   0  0.7781754E-02  0.5039845E+03  0.7818609E-02  0.1012744E+00
        1   -1    0    0  501    0  0.00000000000E+00  0.00000000000E+00  0.41717010577E+03  0.41717010580E+03  0.50400001928E-02 0.  1.
       -1   -1    0    0    0  501  0.00000000000E+00  0.00000000000E+00 -0.15221628613E+03  0.15221628621E+03  0.50400001928E-02 0. -1.
    10030    2    1    2    0    0  0.00000000000E+00  0.00000000000E+00  0.26495381964E+03  0.56938639201E+03  0.50398446094E+03 0.  0.
        2    1    3    3  502    0  0.12773922766E+03 -0.10275188564E+03 -0.83734052624E+02  0.18408327426E+03  0.25500000920E-02 0. -1.
       -2    1    3    3    0  502 -0.12773922766E+03  0.10275188564E+03  0.34868787226E+03  0.38530311776E+03  0.25500000920E-02 0.  1.
</event>
<event>
 5   0  0.7531632E-02  0.5024318E+03  0.7818609E-02  0.1013146E+00
        1   -1    0    0  501    0  0.00000000000E+00  0.00000000000E+00  0.43568370774E+03  0.43568370776E+03  0.50400001928E-02 0.  1.
       -1   -1    0    0    0  501  0.00000000000E+00  0.00000000000E+00 -0.14485149964E+03  0.14485149973E+03  0.50400001928E-02 0. -1.
    10030    2    1    2    0    0  0.00000000000E+00  0.00000000000E+00  0.29083220809E+03  0.58053520750E+03  0.50243184003E+03 0.  0.
        3    1    3    3  502    0  0.94112752439E+02 -0.41898320226E+02  0.41015491494E+03  0.42289448313E+03  0.10100000352E+00 0.  1.
       -3    1    3    3    0  502 -0.94112752439E+02  0.41898320226E+02 -0.11932270685E+03  0.15764072437E+03  0.10100000352E+00 0. -1.
</event>
<event>
 5   0  0.5006750E-02  0.4982934E+03  0.7818609E-02  0.1014225E+00
        3   -1    0    0  501    0  0.00000000000E+00  0.00000000000E+00  0.67113401202E+02  0.67113477200E+02  0.10100000352E+00 0.  1.
       -3   -1    0    0    0  501  0.00000000000E+00  0.00000000000E+00 -0.92491267287E+03  0.92491267839E+03  0.10100000352E+00 0. -1.
    10030    2    1    2    0    0  0.00000000000E+00  0.00000000000E+00 -0.85779927167E+03  0.99202615559E+03  0.49829339037E+03 0.  0.
        5    1    3    3  502    0 -0.65775657385E+02 -0.20458408896E+03 -0.67970612134E+03  0.71288399332E+03  0.46999998093E+01 0. -1.
       -5    1    3    3    0  502  0.65775657385E+02  0.20458408896E+03 -0.17809315033E+03  0.27914216226E+03  0.46999998093E+01 0.  1.
</event>
<event>
 5   0  0.7531632E-02  0.4953848E+03  0.7818609E-02  0.1014991E+00
        1   -1    0    0  501    0  0.00000000000E+00  0.00000000000E+00  0.13019993475E+04  0.13019993475E+04  0.50400001928E-02 0.  1.
       -1   -1    0    0    0  501  0.00000000000E+00  0.00000000000E+00 -0.47121015698E+02  0.47121015968E+02  0.50400001928E-02 0. -1.
    10030    2    1    2    0    0  0.00000000000E+00  0.00000000000E+00  0.12548783318E+04  0.13491203635E+04  0.49538482771E+03 0.  0.
        3    1    3    3  502    0  0.78096006745E+02 -0.14516102758E+03  0.11309388250E+04  0.11428881600E+04  0.10100000352E+00 0.  1.
       -3    1    3    3    0  502 -0.78096006745E+02  0.14516102758E+03  0.12393950678E+03  0.20623220345E+03  0.10100000352E+00 0. -1.
</event>
<event>
 5   0  0.1279188E-01  0.4988157E+03  0.7818609E-02  0.1014089E+00
        2   -1    0    0  501    0  0.00000000000E+00  0.00000000000E+00  0.97070755976E+03  0.97070755977E+03  0.25500000920E-02 0.  1.
       -2   -1    0    0    0  501  0.00000000000E+00  0.00000000000E+00 -0.64081372117E+02  0.64081372167E+02  0.25500000920E-02 0. -1.
    10030    2    1    2    0    0  0.00000000000E+00  0.00000000000E+00  0.90662618765E+03  0.10347889319E+04  0.49881568693E+03 0.  0.
        2    1    3    3  502    0  0.77571167698E+02 -0.23688601438E+03  0.43571014242E+03  0.50197171044E+03  0.25500000920E-02 0. -1.
       -2    1    3    3    0  502 -0.77571167698E+02  0.23688601438E+03  0.47091604523E+03  0.53281722150E+03  0.25500000920E-02 0.  1.
</event>
<event>
 5   0  0.7531632E-02  0.5036942E+03  0.7818609E-02  0.1012819E+00
       -1   -1    0    0    0  501  0.00000000000E+00  0.00000000000E+00  0.12403066740E+03  0.12403066750E+03  0.50400001928E-02 0. -1.
        1   -1    0    0  501    0  0.00000000000E+00  0.00000000000E+00 -0.51138137970E+03  0.51138137972E+03  0.50400001928E-02 0.  1.
    10030    2    1    2    0    0  0.00000000000E+00  0.00000000000E+00 -0.38735071230E+03  0.63541204722E+03  0.50369424797E+03 0.  0.
        3    1    3    3  502    0 -0.18550301610E+03 -0.15053663699E+03 -0.93115916704E+02  0.25640443094E+03  0.10100000352E+00 0. -1.
       -3    1    3    3    0  502  0.18550301610E+03  0.15053663699E+03 -0.29423479560E+03  0.37900761628E+03  0.10100000352E+00 0.  1.
</event>
<event>
 5   0  0.7781754E-02  0.5132460E+03  0.7818609E-02  0.1010378E+00
        1   -1    0    0  501    0  0.00000000000E+00  0.00000000000E+00  0.34674539049E+03  0.34674539053E+03  0.50400001928E-02 0.  1.
       -1   -1    0    0    0  501  0.00000000000E+00  0.00000000000E+00 -0.18992429019E+03  0.18992429025E+03  0.50400001928E-02 0. -1.
    10030    2    1    2    0    0  0.00000000000E+00  0.00000000000E+00  0.15682110030E+03  0.53666968078E+03  0.51324603142E+03 0.  0.
        2    1    3    3  502    0 -0.13954498012E+03  0.68897951480E+02 -0.13494998820E+03  0.20598841840E+03  0.25500000920E-02 0. -1.
       -2    1    3    3    0  502  0.13954498012E+03 -0.68897951480E+02  0.29177108850E+03  0.33068126238E+03  0.25500000920E-02 0.  1.
</event>
<event>
 5   0  0.7416638E-02  0.5083014E+03  0.7818609E-02  0.1011635E+00
       -1   -1    0    0    0  501  0.00000000000E+00  0.00000000000E+00  0.13998273997E+03  0.13998274006E+03  0.50400001928E-02 0. -1.
        1   -1    0    0  501    0  0.00000000000E+00  0.00000000000E+00 -0.46143241209E+03  0.46143241212E+03  0.50400001928E-02 0.  1.
    10030    2    1    2    0    0  0.00000000000E+00  0.00000000000E+00 -0.32144967212E+03  0.60141515217E+03  0.50830138064E+03 0.  0.
        1    1    3    3  502    0  0.48949543785E+02  0.97779436151E+02  0.11072730221E+03  0.15561944432E+03  0.50400001928E-02 0. -1.
       -1    1    3    3    0  502 -0.48949543785E+02 -0.97779436151E+02 -0.43217697433E+03  0.44579570785E+03  0.50400001928E-02 0.  1.
</event>
<event>
 5   0  0.1231822E-01  0.5001195E+03  0.7818609E-02  0.1013748E+00
        2   -1    0    0  501    0  0.00000000000E+00  0.00000000000E+00  0.86644756641E+03  0.86644756642E+03  0.25500000920E-02 0.  1.
       -2   -1    0    0    0  501  0.00000000000E+00  0.00000000000E+00 -0.72168109552E+02  0.72168109597E+02  0.25500000920E-02 0. -1.
    10030    2    1    2    0    0  0.00000000000E+00  0.00000000000E+00  0.79427945686E+03  0.93861567601E+03  0.50011951738E+03 0.  0.
        1    1    3    3  502    0 -0.22028343072E+03  0.11192736458E+03  0.32500292580E+03  0.40826391782E+03  0.50400001928E-02 0. -1.
       -1    1    3    3    0  502  0.22028343072E+03 -0.11192736458E+03  0.46927653106E+03  0.53035175819E+03  0.50400001928E-02 0.  1.
</event>
<event>
 5   0  0.1279188E-01  0.4948233E+03  0.7818609E-02  0.1015139E+00
       -2   -1    0    0    0  501  0.00000000000E+00  0.00000000000E+00  0.20763692260E+03  0.20763692262E+03  0.25500000920E-02 0. -1.
        2   -1    0    0  501    0  0.00000000000E+00  0.00000000000E+00 -0.29480555020E+03  0.29480555022E+03  0.25500000920E-02 0.  1.
    10030    2    1    2    0    0  0.00000000000E+00  0.00000000000E+00 -0.87168627600E+02  0.50244247284E+03  0.49482327034E+03 0.  0.
        2    1    3    3  502    0  0.50776787176E+02 -0.65400855604E+02  0.19315142270E+03  0.21015000863E+03  0.25500000920E-02 0. -1.
       -2    1    3    3    0  502 -0.50776787176E+02  0.65400855604E+02 -0.28032005030E+03  0.29229246421E+03  0.25500000920E-02 0.  1.
</event>
<event>
 5   0  0.5006750E-02  0.4843291E+03  0.7818609E-02  0.1017952E+00
        3   -1    0    0  501    0  0.00000000000E+00  0.00000000000E+00  0.38906612917E+02  0.38906744013E+02  0.10100000352E+00 0.  1.
       -3   -1    0    0    0  501  0.00000000000E+00  0.00000000000E+00 -0.15072904047E+04  0.15072904081E+04  0.10100000352E+00 0. -1.
    10030    2    1    2    0    0  0.00000000000E+00  0.00000000000E+00 -0.14683837918E+04  0.15461971521E+04  0.48432909595E+03 0.  0.
        3    1    3    3  502    0 -0.20235701326E+03 -0.12814619584E+03 -0.62025000665E+03  0.66489088524E+03  0.10100000352E+00 0. -1.
       -3    1    3    3    0  502  0.20235701326E+03  0.12814619584E+03 -0.84813378515E+03  0.88130626688E+03  0.10100000352E+00 0.  1.
</event>
<event>
 5   0  0.7531632E-02  0.5069943E+03  0.7818609E-02  0.1011969E+00
        1   -1    0    0  501    0  0.00000000000E+00  0.00000000000E+00  0.96153125951E+03  0.96153125952E+03  0.50400001928E-02 0. -1.
       -1   -1    0    0    0  501  0.00000000000E+00  0.00000000000E+00 -0.66831729230E+02  0.66831729420E+02  0.50400001928E-02 0.  1.
    10030    2    1    2    0    0  0.00000000000E+00  0.00000000000E+00  0.89469953028E+03  0.10283629889E+04  0.50699426776E+03 0.  0.
        3    1    3    3  502    0  0.16536212769E+03  0.98633702438E+02  0.11290192581E+03  0.22320415674E+03  0.10100000352E+00 0.  1.
       -3    1    3    3    0  502 -0.16536212769E+03 -0.98633702438E+02  0.78179760447E+03  0.80515883221E+03  0.10100000352E+00 0. -1.
</event>
<event>
 5   0  0.1231822E-01  0.4963532E+03  0.7818609E-02  0.1014735E+00
        2   -1    0    0  501    0  0.00000000000E+00  0.00000000000E+00  0.41723124892E+03  0.41723124893E+03  0.25500000920E-02 0. -1.
       -2   -1    0    0    0  501  0.00000000000E+00  0.00000000000E+00 -0.14761988385E+03  0.14761988388E+03  0.25500000920E-02 0.  1.
    10030    2    1    2    0    0  0.00000000000E+00  0.00000000000E+00  0.26961136506E+03  0.56485113280E+03  0.49635321502E+03 0.  0.
        1    1    3    3  502    0 -0.61709400471E+02  0.22602465871E+03  0.41680980206E+02  0.23797584035E+03  0.50400001928E-02 0.  1.
       -1    1    3    3    0  502  0.61709400471E+02 -0.22602465871E+03  0.22793038486E+03  0.32687529246E+03  0.50400001928E-02 0. -1.
</event>
<event>
 5   0  0.7416638E-02  0.5149643E+03  0.7818609E-02  0.1009945E+00
        1   -1    0    0  501    0  0.00000000000E+00  0.00000000000E+00  0.25027381587E+03  0.25027381593E+03  0.50400001928E-02 0. -1.
       -1   -1    0    0    0  501  0.00000000000E+00  0.00000000000E+00 -0.26489809137E+03  0.26489809142E+03  0.50400001928E-02 0.  1.
    10030    2    1    2    0    0  0.00000000000E+00  0.00000000000E+00 -0.14624275493E+02  0.51517190734E+03  0.51496429457E+03 0.  0.
        1    1    3    3  502    0 -0.25619256832E+03  0.19295410586E+02  0.97273804239E+01  0.25710224987E+03  0.50400001928E-02 0.  1.
       -1    1    3    3    0  502  0.25619256832E+03 -0.19295410586E+02 -0.24351655917E+02  0.25806965747E+03  0.50400001928E-02 0. -1.
</event>
<event>
 5   0  0.7531632E-02  0.4995502E+03  0.7818609E-02  0.1013896E+00
       -1   -1    0    0    0  501  0.00000000000E+00  0.00000000000E+00  0.13678931512E+04  0.13678931513E+04  0.50400001928E-02 0.  1.
        1   -1    0    0  501    0  0.00000000000E+00  0.00000000000E+00 -0.45608525349E+02  0.45608525628E+02  0.50400001928E-02 0. -1.
    10030    2    1    2    0    0  0.00000000000E+00  0.00000000000E+00  0.13222846259E+04  0.14135016769E+04  0.49955015631E+03 0.  0.
        3    1    3    3  502    0  0.59046479259E+02  0.62701151169E+02 -0.22626984608E+01  0.86157130152E+02  0.10100000352E+00 0. -1.
       -3    1    3    3    0  502 -0.59046479259E+02 -0.62701151169E+02  0.13245473244E+04  0.13273445467E+04  0.10100000352E+00 0.  1.
</event>
<event>
 5   0  0.1243803E-01  0.5020885E+03  0.7818609E-02  0.1013235E+00
        2   -1    0    0  501    0  0.00000000000E+00  0.00000000000E+00  0.15761468505E+04  0.15761468505E+04  0.25500000920E-02 0.  1.
       -2   -1    0    0    0  501  0.00000000000E+00  0.00000000000E+00 -0.39985625294E+02  0.39985625375E+02  0.25500000920E-02 0. -1.
    10030    2    1    2    0    0  0.00000000000E+00  0.00000000000E+00  0.15361612252E+04  0.16161324759E+04  0.50208850790E+03 0.  0.
        4    1    3    3  502    0 -0.12684771760E+02 -0.24729106242E+03  0.90110130168E+03  0.93450465048E+03  0.12699999809E+01 0.  1.
       -4    1    3    3    0  502  0.12684771760E+02  0.24729106242E+03  0.63505992355E+03  0.68162782542E+03  0.12699999809E+01 0. -1.
</event>
<event>
 5   0  0.1211345E-01  0.4973047E+03  0.7818609E-02  0.1014485E+00
        2   -1    0    0  501    0  0.00000000000E+00  0.00000000000E+00  0.78683811411E+03  0.78683811411E+03  0.25500000920E-02 0.  1.
       -2   -1    0    0    0  501  0.00000000000E+00  0.00000000000E+00 -0.78577789110E+02  0.78577789152E+02  0.25500000920E-02 0. -1.
    10030    2    1    2    0    0  0.00000000000E+00  0.00000000000E+00  0.70826032500E+03  0.86541590326E+03  0.49730473319E+03 0.  0.
        5    1    3    3  502    0 -0.37712084869E+02  0.24558972206E+03  0.33963340008E+03  0.42084373511E+03  0.46999998093E+01 0. -1.
       -5    1    3    3    0  502  0.37712084869E+02 -0.24558972206E+03  0.36862692491E+03  0.44457216815E+03  0.46999998093E+01 0.  1.
</event>
<event>
 5   0  0.7602288E-02  0.5033985E+03  0.7818609E-02  0.1012896E+00
        1   -1    0    0  501    0  0.00000000000E+00  0.00000000000E+00  0.10555344553E+04  0.10555344553E+04  0.50400001928E-02 0.  1.
       -1   -1    0    0    0  501  0.00000000000E+00  0.00000000000E+00 -0.60019373767E+02  0.60019373979E+02  0.50400001928E-02 0. -1.
    10030    2    1    2    0    0  0.00000000000E+00  0.00000000000E+00  0.99551508157E+03  0.11155538293E+04  0.50339851857E+03 0.  0.
        5    1    3    3  502    0  0.93219024443E+02  0.25147645184E+02  0.10127591627E+04  0.10173619819E+04  0.46999998093E+01 0.  1.
       -5    1    3    3    0  502 -0.93219024443E+02 -0.25147645184E+02 -0.17244081102E+02  0.98191847460E+02  0.46999998093E+01 0. -1.
</event>
<event>
 5   0  0.1231822E-01  0.5860147E+03  0.7818609E-02  0.9934854E-01
        2   -1    0    0  501    0  0.00000000000E+00  0.00000000000E+00  0.56958074176E+03  0.56958074176E+03  0.25500000920E-02 0. -1.
       -2   -1    0    0    0  501  0.00000000000E+00  0.00000000000E+00 -0.15073070301E+03  0.15073070303E+03  0.25500000920E-02 0.  1.
    10030    2    1    2    0    0  0.00000000000E+00  0.00000000000E+00  0.41885003875E+03  0.72031144479E+03  0.58601469482E+03 0.  0.
        1    1    3    3  502    0 -0.51267891482E+02  0.25506535853E+03  0.43753330900E+02  0.26382018082E+03  0.50400001928E-02 0.  1.
       -1    1    3    3    0  502  0.51267891482E+02 -0.25506535853E+03  0.37509670785E+03  0.45649126397E+03  0.50400001928E-02 0. -1.
</event>
<event>
 5   0  0.1211345E-01  0.4995915E+03  0.7818609E-02  0.1013886E+00
       -2   -1    0    0    0  501  0.00000000000E+00  0.00000000000E+00  0.11715421398E+03  0.11715421401E+03  0.25500000920E-02 0. -1.
        2   -1    0    0  501    0  0.00000000000E+00  0.00000000000E+00 -0.53261360753E+03  0.53261360753E+03  0.25500000920E-02 0.  1.
    10030    2    1    2    0    0  0.00000000000E+00  0.00000000000E+00 -0.41545939354E+03  0.64976782154E+03  0.49959154740E+03 0.  0.
        5    1    3    3  502    0 -0.13439124285E+03  0.15297418805E+03 -0.39581673533E+03  0.44514614042E+03  0.46999998093E+01 0.  1.
       -5    1    3    3    0  502  0.13439124285E+03 -0.15297418805E+03 -0.19642658212E+02  0.20462168112E+03  0.46999998093E+01 0. -1.
</event>
<event>
 5   0  0.1243803E-01  0.5016365E+03  0.7818609E-02  0.1013353E+00
       -2   -1    0    0    0  501  0.00000000000E+00  0.00000000000E+00  0.91454853972E+03  0.91454853972E+03  0.25500000920E-02 0.  1.
        2   -1    0    0  501    0  0.00000000000E+00  0.00000000000E+00 -0.68787813157E+02  0.68787813204E+02  0.25500000920E-02 0. -1.
    10030    2    1    2    0    0  0.00000000000E+00  0.00000000000E+00  0.84576072656E+03  0.98333635293E+03  0.50163649826E+03 0.  0.
        4    1    3    3  502    0 -0.18867469457E+02 -0.24717060947E+03  0.34800754470E+03  0.42727058834E+03  0.12699999809E+01 0. -1.
       -4    1    3    3    0  502  0.18867469457E+02  0.24717060947E+03  0.49775318186E+03  0.55606576459E+03  0.12699999809E+01 0.  1.
</event>
<event>
 5   0  0.7531632E-02  0.4997767E+03  0.7818609E-02  0.1013837E+00
        1   -1    0    0  501    0  0.00000000000E+00  0.00000000000E+00  0.79149673402E+03  0.79149673404E+03  0.50400001928E-02 0. -1.
       -1   -1    0    0    0  501  0.00000000000E+00  0.00000000000E+00 -0.78893806047E+02  0.78893806208E+02  0.50400001928E-02 0.  1.
    10030    2    1    2    0    0  0.00000000000E+00  0.00000000000E+00  0.71260292797E+03  0.87039054024E+03  0.49977670973E+03 0.  0.
        3    1    3    3  502    0  0.16298237884E+03  0.18346013465E+03  0.43841929389E+03  0.50242647648E+03  0.10100000352E+00 0. -1.
       -3    1    3    3    0  502 -0.16298237884E+03 -0.18346013465E+03  0.27418363409E+03  0.36796406376E+03  0.10100000352E+00 0.  1.
</event>
<event>
 5   0  0.7531632E-02  0.4987176E+03  0.7818609E-02  0.1014114E+00
       -1   -1    0    0    0  501  0.00000000000E+00  0.00000000000E+00  0.71847003818E+02  0.71847003995E+02  0.50400001928E-02 0. -1.
        1   -1    0    0  501    0  0.00000000000E+00  0.00000000000E+00 -0.86544757053E+03  0.86544757054E+03  0.50400001928E-02 0.  1.
    10030    2    1    2    0    0  0.00000000000E+00  0.00000000000E+00 -0.79360056671E+03  0.93729457454E+03  0.49871761547E+03 0.  0.
        3    1    3    3  502    0 -0.10048667464E+02  0.24856928057E+03 -0.42892344407E+03  0.49584573613E+03  0.10100000352E+00 0. -1.
       -3    1    3    3    0  502  0.10048667464E+02 -0.24856928057E+03 -0.36467712264E+03  0.44144883841E+03  0.10100000352E+00 0.  1.
</event>
<event>
 5   0  0.1191894E-01  0.4941995E+03  0.7818609E-02  0.1015304E+00
       -2   -1    0    0    0  501  0.00000000000E+00  0.00000000000E+00  0.22843116395E+03  0.22843116397E+03  0.25500000920E-02 0.  1.
        2   -1    0    0  501    0  0.00000000000E+00  0.00000000000E+00 -0.26729405563E+03  0.26729405565E+03  0.25500000920E-02 0. -1.
    10030    2    1    2    0    0  0.00000000000E+00  0.00000000000E+00 -0.38862891682E+02  0.49572521961E+03  0.49419952348E+03 0.  0.
        3    1    3    3  502    0 -0.25583585056E+02 -0.68268992355E+02  0.21739722469E+03  0.22929618106E+03  0.10100000352E+00 0.  1.
       -3    1    3    3    0  502  0.25583585056E+02  0.68268992355E+02 -0.25626011637E+03  0.26642903856E+03  0.10100000352E+00 0. -1.
</event>
<event>
 5   0  0.1243803E-01  0.4961692E+03  0.7818609E-02  0.1014784E+00
        2   -1    0    0  501    0  0.00000000000E+00  0.00000000000E+00  0.95531372985E+03  0.95531372986E+03  0.25500000920E-02 0. -1.
       -2   -1    0    0    0  501  0.00000000000E+00  0.00000000000E+00 -0.64424883970E+02  0.64424884020E+02  0.25500000920E-02 0.  1.
    10030    2    1    2    0    0  0.00000000000E+00  0.00000000000E+00  0.89088884588E+03  0.10197386139E+04  0.49616923011E+03 0.  0.
        4    1    3    3  502    0  0.17847507928E+03  0.17184410864E+03  0.41939802532E+03  0.48711401965E+03  0.12699999809E+01 0. -1.
       -4    1    3    3    0  502 -0.17847507928E+03 -0.17184410864E+03  0.47149082056E+03  0.53262459423E+03  0.12699999809E+01 0.  1.
</event>
<event>
 5   0  0.7781754E-02  0.5014111E+03  0.7818609E-02  0.1013411E+00
       -1   -1    0    0    0  501  0.00000000000E+00  0.00000000000E+00  0.63940176340E+02  0.63940176539E+02  0.50400001928E-02 0. -1.
        1   -1    0    0  501    0  0.00000000000E+00  0.00000000000E+00 -0.98300118030E+03  0.98300118031E+03  0.50400001928E-02 0.  1.
    10030    2    1    2    0    0  0.00000000000E+00  0.00000000000E+00 -0.91906100396E+03  0.10469413569E+04  0.50141108453E+03 0.  0.
        2    1    3    3  502    0 -0.80107659765E+02 -0.46143977034E+01  0.36404450255E+02  0.88112506626E+02  0.25500000920E-02 0. -1.
       -2    1    3    3    0  502  0.80107659765E+02  0.46143977034E+01 -0.95546545421E+03  0.95882885022E+03  0.25500000920E-02 0.  1.
</event>
<event>
 5   0  0.7416638E-02  0.4986067E+03  0.7818609E-02  0.1014143E+00
       -1   -1    0    0    0  501  0.00000000000E+00  0.00000000000E+00  0.16486179999E+03  0.16486180006E+03  0.50400001928E-02 0. -1.
        1   -1    0    0  501    0  0.00000000000E+00  0.00000000000E+00 -0.37699546525E+03  0.37699546529E+03  0.50400001928E-02 0.  1.
    10030    2    1    2    0    0  0.00000000000E+00  0.00000000000E+00 -0.21213366527E+03  0.54185726535E+03  0.49860666269E+03 0.  0.
        1    1    3    3  502    0  0.24786572800E+03 -0.23525203226E+02 -0.92264911255E+02  0.26552526844E+03  0.50400001928E-02 0. -1.
       -1    1    3    3    0  502 -0.24786572800E+03  0.23525203226E+02 -0.11986875401E+03  0.27633199691E+03  0.50400001928E-02 0.  1.
</event>
<event>
 5   0  0.7781754E-02  0.5039345E+03  0.7818609E-02  0.1012757E+00
        1   -1    0    0  501    0  0.00000000000E+00  0.00000000000E+00  0.36193135019E+03  0.36193135022E+03  0.50400001928E-02 0.  1.
       -1   -1    0    0    0  501  0.00000000000E+00  0.00000000000E+00 -0.17541310803E+03  0.17541310810E+03  0.50400001928E-02 0. -1.
    10030    2    1    2    0    0  0.00000000000E+00  0.00000000000E+00  0.18651824216E+03  0.53734445832E+03  0.50393453169E+03 0.  0.
        2    1    3    3  502    0 -0.19379407503E+03 -0.79535659646E+02 -0.56043328806E+02  0.21684768706E+03  0.25500000920E-02 0. -1.
       -2    1    3    3    0  502  0.19379407503E+03  0.79535659646E+02  0.24256157097E+03  0.32049677126E+03  0.25500000920E-02 0.  1.
</event>
<event>
 5   0  0.5006750E-02  0.5011467E+03  0.7818609E-02  0.1013480E+00
       -3   -1    0    0    0  501  0.00000000000E+00  0.00000000000E+00  0.11597306874E+04  0.11597306918E+04  0.10100000352E+00 0. -1.
        3   -1    0    0  501    0  0.00000000000E+00  0.00000000000E+00 -0.54139237537E+02  0.54139331748E+02  0.10100000352E+00 0.  1.
    10030    2    1    2    0    0  0.00000000000E+00  0.00000000000E+00  0.11055914499E+04  0.12138700236E+04  0.50114666522E+03 0.  0.
        2    1    3    3  502    0  0.15557603453E+03 -0.97826281950E+02  0.96537222945E+03  0.98270922727E+03  0.25500000920E-02 0. -1.
       -2    1    3    3    0  502 -0.15557603453E+03  0.97826281950E+02  0.14021922044E+03  0.23116079631E+03  0.25500000920E-02 0.  1.
</event>
<event>
 5   0  0.1243803E-01  0.4802316E+03  0.7818609E-02  0.1019072E+00
       -2   -1    0    0    0  501  0.00000000000E+00  0.00000000000E+00  0.71446511641E+02  0.71446511686E+02  0.25500000920E-02 0. -1.
        2   -1    0    0  501    0  0.00000000000E+00  0.00000000000E+00 -0.80697556253E+03  0.80697556254E+03  0.25500000920E-02 0.  1.
    10030    2    1    2    0    0  0.00000000000E+00  0.00000000000E+00 -0.73552905089E+03  0.87842207422E+03  0.48023156474E+03 0.  0.
        4    1    3    3  502    0  0.23102810361E+03 -0.38613256919E+01 -0.48722279200E+03  0.53923701323E+03  0.12699999809E+01 0. -1.
       -4    1    3    3    0  502 -0.23102810361E+03  0.38613256919E+01 -0.24830625889E+03  0.33918506099E+03  0.12699999809E+01 0.  1.
</event>
<event>
 5   0  0.1243803E-01  0.5009600E+03  0.7818609E-02  0.1013529E+00
        2   -1    0    0  501    0  0.00000000000E+00  0.00000000000E+00  0.16245319764E+03  0.16245319766E+03  0.25500000920E-02 0.  1.
       -2   -1    0    0    0  501  0.00000000000E+00  0.00000000000E+00 -0.38620497256E+03  0.38620497257E+03  0.25500000920E-02 0. -1.
    10030    2    1    2    0    0  0.00000000000E+00  0.00000000000E+00 -0.22375177492E+03  0.54865817023E+03  0.50096000936E+03 0.  0.
        4    1    3    3  502    0 -0.24659044818E+03 -0.42890545643E+02 -0.10136116420E+03  0.27004100901E+03  0.12699999809E+01 0.  1.
       -4    1    3    3    0  502  0.24659044818E+03  0.42890545643E+02 -0.12239061071E+03  0.27861716122E+03  0.12699999809E+01 0. -1.
</event>
<event>
 5   0  0.1211345E-01  0.5004039E+03  0.7818609E-02  0.1013674E+00
       -2   -1    0    0    0  501  0.00000000000E+00  0.00000000000E+00  0.12453146043E+03  0.12453146046E+03  0.25500000920E-02 0.  1.
        2   -1    0    0  501    0  0.00000000000E+00  0.00000000000E+00 -0.50269238813E+03  0.50269238814E+03  0.25500000920E-02 0. -1.
    10030    2    1    2    0    0  0.00000000000E+00  0.00000000000E+00 -0.37816092770E+03  0.62722384860E+03  0.50040390587E+03 0.  0.
        5    1    3    3  502    0  0.64639397753E+02  0.10314966962E+03 -0.46300930777E+03  0.47876697377E+03  0.46999998093E+01 0. -1.
       -5    1    3    3    0  502 -0.64639397753E+02 -0.10314966962E+03  0.84848380077E+02  0.14845687483E+03  0.46999998093E+01 0.  1.
</event>
<event>
 5   0  0.5006750E-02  0.5002383E+03  0.7818609E-02  0.1013717E+00
        3   -1    0    0  501    0  0.00000000000E+00  0.00000000000E+00  0.32263690452E+03  0.32263692033E+03  0.10100000352E+00 0.  1.
       -3   -1    0    0    0  501  0.00000000000E+00  0.00000000000E+00 -0.19390090730E+03  0.19390093360E+03  0.10100000352E+00 0. -1.
    10030    2    1    2    0    0  0.00000000000E+00  0.00000000000E+00  0.12873599722E+03  0.51653785394E+03  0.50023834076E+03 0.  0.
        4    1    3    3  502    0  0.27854859844E+02  0.14397231255E+03 -0.14485203589E+03  0.20612531431E+03  0.12699999809E+01 0. -1.
       -4    1    3    3    0  502 -0.27854859844E+02 -0.14397231255E+03  0.27358803311E+03  0.31041253963E+03  0.12699999809E+01 0.  1.
</event>
<event>
 5   0  0.7531632E-02  0.5006613E+03  0.7818609E-02  0.1013606E+00
        1   -1    0    0  501    0  0.00000000000E+00  0.00000000000E+00  0.74536647236E+03  0.74536647238E+03  0.50400001928E-02 0.  1.
       -1   -1    0    0    0  501  0.00000000000E+00  0.00000000000E+00 -0.84073307968E+02  0.84073308119E+02  0.50400001928E-02 0. -1.
    10030    2    1    2    0    0  0.00000000000E+00  0.00000000000E+00  0.66129316439E+03  0.82943978050E+03  0.50066126293E+03 0.  0.
        3    1    3    3  502    0  0.68081735695E+02 -0.56939363758E+02 -0.57132510440E+02  0.10555258325E+03  0.10100000352E+00 0. -1.
       -3    1    3    3    0  502 -0.68081735695E+02  0.56939363758E+02  0.71842567483E+03  0.72388719725E+03  0.10100000352E+00 0.  1.
</event>
<event>
 5   0  0.7781754E-02  0.4959626E+03  0.7818609E-02  0.1014838E+00
        1   -1    0    0  501    0  0.00000000000E+00  0.00000000000E+00  0.20511281185E+03  0.20511281192E+03  0.50400001928E-02 0.  1.
       -1   -1    0    0    0  501  0.00000000000E+00  0.00000000000E+00 -0.29980928464E+03  0.29980928468E+03  0.50400001928E-02 0. -1.
    10030    2    1    2    0    0  0.00000000000E+00  0.00000000000E+00 -0.94696472784E+02  0.50492209660E+03  0.49596260108E+03 0.  0.
        2    1    3    3  502    0 -0.22453116645E+03  0.10425513392E+03 -0.32547808638E+02  0.24968527692E+03  0.25500000920E-02 0. -1.
       -2    1    3    3    0  502  0.22453116645E+03 -0.10425513392E+03 -0.62148664145E+02  0.25523681968E+03  0.25500000920E-02 0.  1.
</event>
<event>
 5   0  0.1231822E-01  0.5019878E+03  0.7818609E-02  0.1013261E+00
        2   -1    0    0  501    0  0.00000000000E+00  0.00000000000E+00  0.16000032209E+03  0.16000032211E+03  0.25500000920E-02 0.  1.
       -2   -1    0    0    0  501  0.00000000000E+00  0.00000000000E+00 -0.39373628048E+03  0.39373628049E+03  0.25500000920E-02 0. -1.
    10030    2    1    2    0    0  0.00000000000E+00  0.00000000000E+00 -0.23373595840E+03  0.55373660260E+03  0.50198777556E+03 0.  0.
        1    1    3    3  502    0  0.10487684324E+02 -0.14854593362E+03  0.10600502805E+03  0.18279210026E+03  0.50400001928E-02 0.  1.
       -1    1    3    3    0  502 -0.10487684324E+02  0.14854593362E+03 -0.33974098645E+03  0.37094450234E+03  0.50400001928E-02 0. -1.
</event>
<event>
 5   0  0.7781754E-02  0.5003692E+03  0.7818609E-02  0.1013683E+00
        1   -1    0    0  501    0  0.00000000000E+00  0.00000000000E+00  0.15938178869E+03  0.15938178877E+03  0.50400001928E-02 0.  1.
       -1   -1    0    0    0  501  0.00000000000E+00  0.00000000000E+00 -0.39271951236E+03  0.39271951240E+03  0.50400001928E-02 0. -1.
    10030    2    1    2    0    0  0.00000000000E+00  0.00000000000E+00 -0.23333772367E+03  0.55210130117E+03  0.50036921714E+03 0.  0.
        2    1    3    3  502    0 -0.16305232356E+02 -0.24960456078E+03 -0.12207895066E+03  0.27833714730E+03  0.25500000920E-02 0.  1.
       -2    1    3    3    0  502  0.16305232356E+02  0.24960456078E+03 -0.11125877301E+03  0.27376415387E+03  0.25500000920E-02 0. -1.
</event>
<event>
 5   0  0.1231822E-01  0.4722611E+03  0.7818609E-02  0.1021284E+00
       -2   -1    0    0    0  501  0.00000000000E+00  0.00000000000E+00  0.57140349735E+03  0.57140349736E+03  0.25500000920E-02 0. -1.
        2   -1    0    0  501    0  0.00000000000E+00  0.00000000000E+00 -0.97580130592E+02  0.97580130625E+02  0.25500000920E-02 0.  1.
    10030    2    1    2    0    0  0.00000000000E+00  0.00000000000E+00  0.47382336676E+03  0.66898362798E+03  0.47226106300E+03 0.  0.
        1    1    3    3  502    0  0.16123844065E+02  0.14633235539E+03 -0.24612441449E+02  0.14926121023E+03  0.50400001928E-02 0.  1.
       -1    1    3    3    0  502 -0.16123844065E+02 -0.14633235539E+03  0.49843580821E+03  0.51972241775E+03  0.50400001928E-02 0. -1.
</event>
<event>
 5   0  0.7602288E-02  0.5031058E+03  0.7818609E-02  0.1012971E+00
        1   -1    0    0  501    0  0.00000000000E+00  0.00000000000E+00  0.12041575033E+03  0.12041575043E+03  0.50400001928E-02 0. -1.
       -1   -1    0    0    0  501  0.00000000000E+00  0.00000000000E+00 -0.52550323977E+03  0.52550323980E+03  0.50400001928E-02 0.  1.
    10030    2    1    2    0    0  0.00000000000E+00  0.00000000000E+00 -0.40508748945E+03  0.64591899023E+03  0.50310582170E+03 0.  0.
        5    1    3    3  502    0 -0.52141392952E+02 -0.14846973602E+03  0.49351335514E+02  0.16498373159E+03  0.46999998093E+01 0. -1.
       -5    1    3    3    0  502  0.52141392952E+02  0.14846973602E+03 -0.45443882496E+03  0.48093525864E+03  0.46999998093E+01 0.  1.
</event>
<event>
 5   0  0.1279188E-01  0.4990901E+03  0.7818609E-02  0.1014017E+00
       -2   -1    0    0    0  501  0.00000000000E+00  0.00000000000E+00  0.54200120626E+03  0.54200120626E+03  0.25500000920E-02 0. -1.
        2   -1    0    0  501    0  0.00000000000E+00  0.00000000000E+00 -0.11489410632E+03  0.11489410635E+03  0.25500000920E-02 0.  1.
    10030    2    1    2    0    0  0.00000000000E+00  0.00000000000E+00  0.42710709994E+03  0.65689531261E+03  0.49909014908E+03 0.  0.
        2    1    3    3  502    0  0.12429296066E+03 -0.43436018405E+02  0.49256416851E+03  0.50985771335E+03  0.25500000920E-02 0. -1.
       -2    1    3    3    0  502 -0.12429296066E+03  0.43436018405E+02 -0.65457068566E+02  0.14703759926E+03  0.25500000920E-02 0.  1.
</event>
<event>
 5   0  0.7812547E-02  0.4983445E+03  0.7818609E-02  0.1014212E+00
       -1   -1    0    0    0  501  0.00000000000E+00  0.00000000000E+00  0.71263219071E+02  0.71263219249E+02  0.50400001928E-02 0. -1.
        1   -1    0    0  501    0  0.00000000000E+00  0.00000000000E+00 -0.87123225282E+03  0.87123225284E+03  0.50400001928E-02 0.  1.
    10030    2    1    2    0    0  0.00000000000E+00  0.00000000000E+00 -0.79996903375E+03  0.94249547209E+03  0.49834451932E+03 0.  0.
        4    1    3    3  502    0  0.14220277035E+03 -0.90563795447E+02 -0.74697541301E+03  0.76576583201E+03  0.12699999809E+01 0.  1.
       -4    1    3    3    0  502 -0.14220277035E+03  0.90563795447E+02 -0.52993620745E+02  0.17672964007E+03  0.12699999809E+01 0. -1.
</event>
<event>
 5   0  0.1243803E-01  0.4984871E+03  0.7818609E-02  0.1014175E+00
       -2   -1    0    0    0  501  0.00000000000E+00  0.00000000000E+00  0.13618809735E+03  0.13618809738E+03  0.25500000920E-02 0. -1.
        2   -1    0    0  501    0  0.00000000000E+00  0.00000000000E+00 -0.45615112439E+03  0.45615112439E+03  0.25500000920E-02 0.  1.
    10030    2    1    2    0    0  0.00000000000E+00  0.00000000000E+00 -0.31996302703E+03  0.59233922177E+03  0.49848712619E+03 0.  0.
        4    1    3    3  502    0  0.60579266763E+01  0.13236054707E+03  0.90867370600E+02  0.16066892928E+03  0.12699999809E+01 0. -1.
       -4    1    3    3    0  502 -0.60579266763E+01 -0.13236054707E+03 -0.41083039763E+03  0.43167029249E+03  0.12699999809E+01 0.  1.
</event>
<event>
 5   0  0.7531632E-02  0.4972351E+03  0.7818609E-02  0.1014503E+00
        1   -1    0    0  501    0  0.00000000000E+00  0.00000000000E+00  0.11583100176E+04  0.11583100177E+04  0.50400001928E-02 0. -1.
       -1   -1    0    0    0  501  0.00000000000E+00  0.00000000000E+00 -0.53362821053E+02  0.53362821291E+02  0.50400001928E-02 0.  1.
    10030    2    1    2    0    0  0.00000000000E+00  0.00000000000E+00  0.11049471966E+04  0.12116728389E+04  0.49723511681E+03 0.  0.
        3    1    3    3  502    0 -0.23431007496E+03  0.81211824457E+01  0.75406091391E+03  0.78966767499E+03  0.10100000352E+00 0. -1.
       -3    1    3    3    0  502  0.23431007496E+03 -0.81211824457E+01  0.35088628268E+03  0.42200516396E+03  0.10100000352E+00 0.  1.
</event>
<event>
 5   0  0.1211345E-01  0.4574104E+03  0.7818609E-02  0.1025535E+00
       -2   -1    0    0    0  501  0.00000000000E+00  0.00000000000E+00  0.66474150555E+02  0.66474150604E+02  0.25500000920E-02 0. -1.
        2   -1    0    0  501    0  0.00000000000E+00  0.00000000000E+00 -0.78686345048E+03  0.78686345048E+03  0.25500000920E-02 0.  1.
    10030    2    1    2    0    0  0.00000000000E+00  0.00000000000E+00 -0.72038929992E+03  0.85333760109E+03  0.45741044805E+03 0.  0.
        5    1    3    3  502    0  0.13542462623E+03  0.16462993473E+03 -0.20588993723E+03  0.29640445518E+03  0.46999998093E+01 0.  1.
       -5    1    3    3    0  502 -0.13542462623E+03 -0.16462993473E+03 -0.51449936269E+03  0.55693314590E+03  0.46999998093E+01 0. -1.
</event>
<event>
 5   0  0.1211345E-01  0.4573931E+03  0.7818609E-02  0.1025540E+00
       -2   -1    0    0    0  501  0.00000000000E+00  0.00000000000E+00  0.57014341906E+02  0.57014341963E+02  0.25500000920E-02 0. -1.
        2   -1    0    0  501    0  0.00000000000E+00  0.00000000000E+00 -0.91735004477E+03  0.91735004477E+03  0.25500000920E-02 0.  1.
    10030    2    1    2    0    0  0.00000000000E+00  0.00000000000E+00 -0.86033570286E+03  0.97436438673E+03  0.45739308753E+03 0.  0.
        5    1    3    3  502    0  0.16992223436E+02  0.44337509792E+02  0.46293181845E+02  0.66480817650E+02  0.46999998093E+01 0. -1.
       -5    1    3    3    0  502 -0.16992223436E+02 -0.44337509792E+02 -0.90662888471E+03  0.90788356908E+03  0.46999998093E+01 0.  1.
</event>
<event>
 5   0  0.1231822E-01  0.4920194E+03  0.7818609E-02  0.1015883E+00
        2   -1    0    0  501    0  0.00000000000E+00  0.00000000000E+00  0.84210598602E+03  0.84210598602E+03  0.25500000920E-02 0. -1.
       -2   -1    0    0    0  501  0.00000000000E+00  0.00000000000E+00 -0.71868360340E+02  0.71868360386E+02  0.25500000920E-02 0.  1.
    10030    2    1    2    0    0  0.00000000000E+00  0.00000000000E+00  0.77023762568E+03  0.91397434641E+03  0.49201941616E+03 0.  0.
        1    1    3    3  502    0  0.44616308566E+02  0.16151000759E+03  0.50520686307E+02  0.17500982061E+03  0.50400001928E-02 0.  1.
       -1    1    3    3    0  502 -0.44616308566E+02 -0.16151000759E+03  0.71971693937E+03  0.73896452579E+03  0.50400001928E-02 0. -1.
</event>
<event>
 5   0  0.7781754E-02  0.5018412E+03  0.7818609E-02  0.1013299E+00
       -1   -1    0    0    0  501  0.00000000000E+00  0.00000000000E+00  0.14665694043E+03  0.14665694052E+03  0.50400001928E-02 0. -1.
        1   -1    0    0  501    0  0.00000000000E+00  0.00000000000E+00 -0.42930896746E+03  0.42930896749E+03  0.50400001928E-02 0.  1.
    10030    2    1    2    0    0  0.00000000000E+00  0.00000000000E+00 -0.28265202703E+03  0.57596590801E+03  0.50184116890E+03 0.  0.
        2    1    3    3  502    0 -0.10774991419E+03  0.10735177802E+03 -0.37036932099E+03  0.40038466778E+03  0.25500000920E-02 0.  1.
       -2    1    3    3    0  502  0.10774991419E+03 -0.10735177802E+03  0.87717293962E+02  0.17558124023E+03  0.25500000920E-02 0. -1.
</event>
<event>
 5   0  0.7531632E-02  0.4964794E+03  0.7818609E-02  0.1014702E+00
       -1   -1    0    0    0  501  0.00000000000E+00  0.00000000000E+00  0.56589563087E+03  0.56589563089E+03  0.50400001928E-02 0.  1.
        1   -1    0    0  501    0  0.00000000000E+00  0.00000000000E+00 -0.10889454544E+03  0.10889454556E+03  0.50400001928E-02 0. -1.
    10030    2    1    2    0    0  0.00000000000E+00  0.00000000000E+00  0.45700108543E+03  0.67479017645E+03  0.49647939550E+03 0.  0.
        3    1    3    3  502    0 -0.29860462294E+02 -0.20986932383E+03  0.52932411912E+02  0.21849171775E+03  0.10100000352E+00 0. -1.
       -3    1    3    3    0  502  0.29860462294E+02  0.20986932383E+03  0.40406867351E+03  0.45629845870E+03  0.10100000352E+00 0.  1.
</event>
<event>
 5   0  0.7416638E-02  0.4987179E+03  0.7818609E-02  0.1014114E+00
       -1   -1    0    0    0  501  0.00000000000E+00  0.00000000000E+00  0.11033392150E+03  0.11033392162E+03  0.50400001928E-02 0.  1.
        1   -1    0    0  501    0  0.00000000000E+00  0.00000000000E+00 -0.56356083949E+03  0.56356083952E+03  0.50400001928E-02 0. -1.
    10030    2    1    2    0    0  0.00000000000E+00  0.00000000000E+00 -0.45322691799E+03  0.67389476113E+03  0.49871786602E+03 0.  0.
        1    1    3    3  502    0 -0.73672412621E+02 -0.90368627669E+02 -0.52445939082E+03  0.53726321844E+03  0.50400001928E-02 0. -1.
       -1    1    3    3    0  502  0.73672412621E+02  0.90368627669E+02  0.71232472825E+02  0.13663154269E+03  0.50400001928E-02 0.  1.
</event>
<event>
 5   0  0.1243803E-01  0.4976635E+03  0.7818609E-02  0.1014391E+00
       -2   -1    0    0    0  501  0.00000000000E+00  0.00000000000E+00  0.17448735865E+03  0.17448735866E+03  0.25500000920E-02 0. -1.
        2   -1    0    0  501    0  0.00000000000E+00  0.00000000000E+00 -0.35485229818E+03  0.35485229819E+03  0.25500000920E-02 0.  1.
    10030    2    1    2    0    0  0.00000000000E+00  0.00000000000E+00 -0.18036493954E+03  0.52933965686E+03  0.49766350168E+03 0.  0.
        4    1    3    3  502    0 -0.10767264297E+03  0.16029207181E+03 -0.25710663662E+03  0.32154685789E+03  0.12699999809E+01 0.  1.
       -4    1    3    3    0  502  0.10767264297E+03 -0.16029207181E+03  0.76741697078E+02  0.20779279896E+03  0.12699999809E+01 0. -1.
</event>
<event>
 5   0  0.7602288E-02  0.5019994E+03  0.7818609E-02  0.1013258E+00
        1   -1    0    0  501    0  0.00000000000E+00  0.00000000000E+00  0.14680064771E+04  0.14680064771E+04  0.50400001928E-02 0.  1.
       -1   -1    0    0    0  501  0.00000000000E+00  0.00000000000E+00 -0.42915912618E+02  0.42915912914E+02  0.50400001928E-02 0. -1.
    10030    2    1    2    0    0  0.00000000000E+00  0.00000000000E+00  0.14250905645E+04  0.15109223900E+04  0.50199935428E+03 0.  0.
        5    1    3    3  502    0 -0.24594143912E+03  0.58218478029E+01  0.86175603562E+03  0.89619564846E+03  0.46999998093E+01 0.  1.
       -5    1    3    3    0  502  0.24594143912E+03 -0.58218478029E+01  0.56333452886E+03  0.61472674156E+03  0.46999998093E+01 0. -1.
</event>
<event>
 5   0  0.7812547E-02  0.4779223E+03  0.7818609E-02  0.1019708E+00
        1   -1    0    0  501    0  0.00000000000E+00  0.00000000000E+00  0.83040212546E+03  0.83040212547E+03  0.50400001928E-02 0. -1.
       -1   -1    0    0    0  501  0.00000000000E+00  0.00000000000E+00 -0.68764806190E+02  0.68764806375E+02  0.50400001928E-02 0.  1.
    10030    2    1    2    0    0  0.00000000000E+00  0.00000000000E+00  0.76163731927E+03  0.89916693185E+03  0.47792234226E+03 0.  0.
        4    1    3    3  502    0  0.15222843141E+03 -0.12650594770E+03  0.12893769294E+03  0.23622826184E+03  0.12699999809E+01 0.  1.
       -4    1    3    3    0  502 -0.15222843141E+03  0.12650594770E+03  0.63269962633E+03  0.66293867001E+03  0.12699999809E+01 0. -1.
</event>
<event>
 5   0  0.7781754E-02  0.4994708E+03  0.7818609E-02  0.1013917E+00
       -1   -1    0    0    0  501  0.00000000000E+00  0.00000000000E+00  0.12911907135E+03  0.12911907145E+03  0.50400001928E-02 0. -1.
        1   -1    0    0  501    0  0.00000000000E+00  0.00000000000E+00 -0.48302518876E+03  0.48302518878E+03  0.50400001928E-02 0.  1.
    10030    2    1    2    0    0  0.00000000000E+00  0.00000000000E+00 -0.35390611740E+03  0.61214426023E+03  0.49947077532E+03 0.  0.
        2    1    3    3  502    0 -0.24524908825E+03 -0.14683278546E+02 -0.12207404588E+03  0.27434428487E+03  0.25500000920E-02 0.  1.
       -2    1    3    3    0  502  0.24524908825E+03  0.14683278546E+02 -0.23183207152E+03  0.33779997536E+03  0.25500000920E-02 0. -1.
</event>
<event>
 5   0  0.1191894E-01  0.4940268E+03  0.7818609E-02  0.1015350E+00
        2   -1    0    0  501    0  0.00000000000E+00  0.00000000000E+00  0.16546229023E+03  0.16546229025E+03  0.25500000920E-02 0. -1.
       -2   -1    0    0    0  501  0.00000000000E+00  0.00000000000E+00 -0.36875840393E+03  0.36875840394E+03  0.25500000920E-02 0.  1.
    10030    2    1    2    0    0  0.00000000000E+00  0.00000000000E+00 -0.20329611370E+03  0.53422069419E+03  0.49402676067E+03 0.  0.
        3    1    3    3  502    0  0.55999677055E+02 -0.23573058973E+03 -0.15362902614E+03  0.28689155205E+03  0.10100000352E+00 0. -1.
       -3    1    3    3    0  502 -0.55999677055E+02  0.23573058973E+03 -0.49667087558E+02  0.24732914214E+03  0.10100000352E+00 0.  1.
</event>
<event>
 5   0  0.1243803E-01  0.5257855E+03  0.7818609E-02  0.1007259E+00
        2   -1    0    0  501    0  0.00000000000E+00  0.00000000000E+00  0.55644411058E+03  0.55644411058E+03  0.25500000920E-02 0. -1.
       -2   -1    0    0    0  501  0.00000000000E+00  0.00000000000E+00 -0.12420401906E+03  0.12420401909E+03  0.25500000920E-02 0.  1.
    10030    2    1    2    0    0  0.00000000000E+00  0.00000000000E+00  0.43224009151E+03  0.68064812967E+03  0.52578548831E+03 0.  0.
        4    1    3    3  502    0 -0.45968696827E+02  0.12982904294E+03 -0.73758518287E+02  0.15623902649E+03  0.12699999809E+01 0.  1.
       -4    1    3    3    0  502  0.45968696827E+02 -0.12982904294E+03  0.50599860980E+03  0.52440910318E+03  0.12699999809E+01 0. -1.
</event>
<event>
 5   0  0.1231822E-01  0.4780130E+03  0.7818609E-02  0.1019683E+00
        2   -1    0    0  501    0  0.00000000000E+00  0.00000000000E+00  0.25465605626E+03  0.25465605627E+03  0.25500000920E-02 0.  1.
       -2   -1    0    0    0  501  0.00000000000E+00  0.00000000000E+00 -0.22431871252E+03  0.22431871253E+03  0.25500000920E-02 0. -1.
    10030    2    1    2    0    0  0.00000000000E+00  0.00000000000E+00  0.30337343744E+02  0.47897476881E+03  0.47801304870E+03 0.  0.
        1    1    3    3  502    0 -0.22013032639E+03  0.47100250261E+02  0.95631691377E+02  0.24458375783E+03  0.50400001928E-02 0.  1.
       -1    1    3    3    0  502  0.22013032639E+03 -0.47100250261E+02 -0.65294347633E+02  0.23439101098E+03  0.50400001928E-02 0. -1.
</event>
<event>
 5   0  0.1191894E-01  0.4376998E+03  0.7818609E-02  0.1031455E+00
       -2   -1    0    0    0  501  0.00000000000E+00  0.00000000000E+00  0.11773769632E+03  0.11773769635E+03  0.25500000920E-02 0.  1.
        2   -1    0    0  501    0  0.00000000000E+00  0.00000000000E+00 -0.40679645605E+03  0.40679645606E+03  0.25500000920E-02 0. -1.
    10030    2    1    2    0    0  0.00000000000E+00  0.00000000000E+00 -0.28905875973E+03  0.52453415241E+03  0.43769979492E+03 0.  0.
        3    1    3    3  502    0  0.16466017152E+03 -0.12956814945E+02  0.27531820383E+02  0.16744808889E+03  0.10100000352E+00 0.  1.
       -3    1    3    3    0  502 -0.16466017152E+03  0.12956814945E+02 -0.31659058011E+03  0.35708606352E+03  0.10100000352E+00 0. -1.
</event>
<event>
 5   0  0.7602288E-02  0.4940170E+03  0.7818609E-02  0.1015352E+00
       -1   -1    0    0    0  501  0.00000000000E+00  0.00000000000E+00  0.71205713798E+03  0.71205713800E+03  0.50400001928E-02 0. -1.
        1   -1    0    0  501    0  0.00000000000E+00  0.00000000000E+00 -0.85685816318E+02  0.85685816466E+02  0.50400001928E-02 0.  1.
    10030    2    1    2    0    0  0.00000000000E+00  0.00000000000E+00  0.62637132166E+03  0.79774295446E+03  0.49401699242E+03 0.  0.
        5    1    3    3  502    0 -0.55423409757E+02 -0.17988733607E+02 -0.74354165431E+02  0.94583195130E+02  0.46999998093E+01 0.  1.
       -5    1    3    3    0  502  0.55423409757E+02  0.17988733607E+02  0.70072548709E+03  0.70315975933E+03  0.46999998093E+01 0. -1.
</event>
<event>
 5   0  0.7812547E-02  0.4906484E+03  0.7818609E-02  0.1016249E+00
        1   -1    0    0  501    0  0.00000000000E+00  0.00000000000E+00  0.14630688543E+03  0.14630688551E+03  0.50400001928E-02 0. -1.
       -1   -1    0    0    0  501  0.00000000000E+00  0.00000000000E+00 -0.41135422226E+03  0.41135422230E+03  0.50400001928E-02 0.  1.
    10030    2    1    2    0    0  0.00000000000E+00  0.00000000000E+00 -0.26504733684E+03  0.55766110781E+03  0.49064836736E+03 0.  0.
        4    1    3    3  502    0  0.10616739377E+03  0.19840969870E+03 -0.24356246040E+03  0.33160550215E+03  0.12699999809E+01 0.  1.
       -4    1    3    3    0  502 -0.10616739377E+03 -0.19840969870E+03 -0.21484876433E+02  0.22605560566E+03  0.12699999809E+01 0. -1.
</event>
<event>
 5   0  0.5006750E-02  0.4979039E+03  0.7818609E-02  0.1014327E+00
        3   -1    0    0  501    0  0.00000000000E+00  0.00000000000E+00  0.16091880905E+03  0.16091884075E+03  0.10100000352E+00 0.  1.
       -3   -1    0    0    0  501  0.00000000000E+00  0.00000000000E+00 -0.38514489737E+03  0.38514491061E+03  0.10100000352E+00 0. -1.
    10030    2    1    2    0    0  0.00000000000E+00  0.00000000000E+00 -0.22422608831E+03  0.54606375136E+03  0.49790388818E+03 0.  0.
        5    1    3    3  502    0  0.10782711131E+03 -0.44730272206E+02  0.12898571936E+03  0.17403128737E+03  0.46999998093E+01 0.  1.
       -5    1    3    3    0  502 -0.10782711131E+03  0.44730272206E+02 -0.35321180767E+03  0.37203246399E+03  0.46999998093E+01 0. -1.
</event>
<event>
 5   0  0.7531632E-02  0.5020434E+03  0.7818609E-02  0.1013247E+00
       -1   -1    0    0    0  501  0.00000000000E+00  0.00000000000E+00  0.22769497243E+03  0.22769497249E+03  0.50400001928E-02 0.  1.
        1   -1    0    0  501    0  0.00000000000E+00  0.00000000000E+00 -0.27673813410E+03  0.27673813415E+03  0.50400001928E-02 0. -1.
    10030    2    1    2    0    0  0.00000000000E+00  0.00000000000E+00 -0.49043161667E+02  0.50443310664E+03  0.50204335208E+03 0.  0.
        3    1    3    3  502    0 -0.13716292497E+03  0.85821812626E+02  0.16831074861E+03  0.23346856279E+03  0.10100000352E+00 0.  1.
       -3    1    3    3    0  502  0.13716292497E+03 -0.85821812626E+02 -0.21735391028E+03  0.27096454385E+03  0.10100000352E+00 0. -1.
</event>
<event>
 5   0  0.7416638E-02  0.5040186E+03  0.7818609E-02  0.1012735E+00
       -1   -1    0    0    0  501  0.00000000000E+00  0.00000000000E+00  0.11323574735E+03  0.11323574746E+03  0.50400001928E-02 0.  1.
        1   -1    0    0  501    0  0.00000000000E+00  0.00000000000E+00 -0.56085375076E+03  0.56085375078E+03  0.50400001928E-02 0. -1.
    10030    2    1    2    0    0  0.00000000000E+00  0.00000000000E+00 -0.44761800342E+03  0.67408949824E+03  0.50401862531E+03 0.  0.
        1    1    3    3  502    0  0.12395372729E+03 -0.11214338573E+03  0.28423397218E+02  0.16955398847E+03  0.50400001928E-02 0.  1.
       -1    1    3    3    0  502 -0.12395372729E+03  0.11214338573E+03 -0.47604140063E+03  0.50453550977E+03  0.50400001928E-02 0. -1.
</event>
<event>
 5   0  0.1243803E-01  0.4939770E+03  0.7818609E-02  0.1015363E+00
        2   -1    0    0  501    0  0.00000000000E+00  0.00000000000E+00  0.16849763018E+04  0.16849763018E+04  0.25500000920E-02 0.  1.
       -2   -1    0    0    0  501  0.00000000000E+00  0.00000000000E+00 -0.36204259712E+02  0.36204259802E+02  0.25500000920E-02 0. -1.
    10030    2    1    2    0    0  0.00000000000E+00  0.00000000000E+00  0.16487720421E+04  0.17211805616E+04  0.49397700237E+03 0.  0.
        4    1    3    3  502    0 -0.52082728857E+02 -0.61775354269E+02  0.16376095915E+04  0.16396022664E+04  0.12699999809E+01 0.  1.
       -4    1    3    3    0  502  0.52082728857E+02  0.61775354269E+02  0.11162450598E+02  0.81578295174E+02  0.12699999809E+01 0. -1.
</event>
<event>
 5   0  0.1231822E-01  0.4995624E+03  0.7818609E-02  0.1013893E+00
        2   -1    0    0  501    0  0.00000000000E+00  0.00000000000E+00  0.29664233979E+03  0.29664233981E+03  0.25500000920E-02 0. -1.
       -2   -1    0    0    0  501  0.00000000000E+00  0.00000000000E+00 -0.21032280549E+03  0.21032280550E+03  0.25500000920E-02 0.  1.
    10030    2    1    2    0    0  0.00000000000E+00  0.00000000000E+00  0.86319534306E+02  0.50696514531E+03  0.49956240507E+03 0.  0.
        1    1    3    3  502    0  0.97140601311E+01  0.23817630214E+03  0.11888681760E+03  0.26637640528E+03  0.50400001928E-02 0. -1.
       -1    1    3    3    0  502 -0.97140601311E+01 -0.23817630214E+03 -0.32567283296E+02  0.24058874003E+03  0.50400001928E-02 0.  1.
</event>
<event>
 5   0  0.1279188E-01  0.4972981E+03  0.7818609E-02  0.1014487E+00
       -2   -1    0    0    0  501  0.00000000000E+00  0.00000000000E+00  0.12315008790E+03  0.12315008793E+03  0.25500000920E-02 0. -1.
        2   -1    0    0  501    0  0.00000000000E+00  0.00000000000E+00 -0.50204059508E+03  0.50204059508E+03  0.25500000920E-02 0.  1.
    10030    2    1    2    0    0  0.00000000000E+00  0.00000000000E+00 -0.37889050718E+03  0.62519068301E+03  0.49729807329E+03 0.  0.
        2    1    3    3  502    0 -0.12622968783E+03  0.75735915392E+02  0.62481065650E+02  0.15991793690E+03  0.25500000920E-02 0. -1.
       -2    1    3    3    0  502  0.12622968783E+03 -0.75735915392E+02 -0.44137157283E+03  0.46527274611E+03  0.25500000920E-02 0.  1.
</event>
<event>
 5   0  0.7416638E-02  0.5070678E+03  0.7818609E-02  0.1011950E+00
       -1   -1    0    0    0  501  0.00000000000E+00  0.00000000000E+00  0.13936248513E+03  0.13936248523E+03  0.50400001928E-02 0.  1.
        1   -1    0    0  501    0  0.00000000000E+00  0.00000000000E+00 -0.46123912995E+03  0.46123912997E+03  0.50400001928E-02 0. -1.
    10030    2    1    2    0    0  0.00000000000E+00  0.00000000000E+00 -0.32187664481E+03  0.60060161520E+03  0.50706777230E+03 0.  0.
        1    1    3    3  502    0  0.13751483336E+03  0.70963093628E+02 -0.39881539638E+03  0.42778477120E+03  0.50400001928E-02 0. -1.
       -1    1    3    3    0  502 -0.13751483336E+03 -0.70963093628E+02  0.76938751569E+02  0.17281684400E+03  0.50400001928E-02 0.  1.
</event>
<event>
 5   0  0.1191894E-01  0.4988324E+03  0.7818609E-02  0.1014084E+00
       -2   -1    0    0    0  501  0.00000000000E+00  0.00000000000E+00  0.31026674587E+03  0.31026674588E+03  0.25500000920E-02 0.  1.
        2   -1    0    0  501    0  0.00000000000E+00  0.00000000000E+00 -0.20049987133E+03  0.20049987134E+03  0.25500000920E-02 0. -1.
    10030    2    1    2    0    0  0.00000000000E+00  0.00000000000E+00  0.10976687455E+03  0.51076661723E+03  0.49883240725E+03 0.  0.
        3    1    3    3  502    0 -0.89950456572E+02 -0.19885416143E+03 -0.68729163551E+02  0.22881820356E+03  0.10100000352E+00 0. -1.
       -3    1    3    3    0  502  0.89950456572E+02  0.19885416143E+03  0.17849603810E+03  0.28194841367E+03  0.10100000352E+00 0.  1.
</event>
<event>
 5   0  0.1211345E-01  0.4992074E+03  0.7818609E-02  0.1013986E+00
        2   -1    0    0  501    0  0.00000000000E+00  0.00000000000E+00  0.17581389890E+04  0.17581389890E+04  0.25500000920E-02 0.  1.
       -2   -1    0    0    0  501  0.00000000000E+00  0.00000000000E+00 -0.35436340613E+02  0.35436340705E+02  0.25500000920E-02 0. -1.
    10030    2    1    2    0    0  0.00000000000E+00  0.00000000000E+00  0.17227026484E+04  0.17935753297E+04  0.49920742039E+03 0.  0.
        5    1    3    3  502    0 -0.16637917933E+03 -0.12752541454E+03  0.37485346300E+03  0.42951364517E+03  0.46999998093E+01 0.  1.
       -5    1    3    3    0  502  0.16637917933E+03  0.12752541454E+03  0.13478491854E+04  0.13640616845E+04  0.46999998093E+01 0. -1.
</event>
<event>
 5   0  0.1231822E-01  0.5011505E+03  0.7818609E-02  0.1013479E+00
       -2   -1    0    0    0  501  0.00000000000E+00  0.00000000000E+00  0.68487269604E+02  0.68487269652E+02  0.25500000920E-02 0.  1.
        2   -1    0    0  501    0  0.00000000000E+00  0.00000000000E+00 -0.91678278337E+03  0.91678278337E+03  0.25500000920E-02 0. -1.
    10030    2    1    2    0    0  0.00000000000E+00  0.00000000000E+00 -0.84829551376E+03  0.98527005302E+03  0.50115047512E+03 0.  0.
        1    1    3    3  502    0  0.11468305423E+03 -0.92728770801E+02 -0.25879601215E+02  0.14973503814E+03  0.50400001928E-02 0.  1.
       -1    1    3    3    0  502 -0.11468305423E+03  0.92728770801E+02 -0.82241591255E+03  0.83553501488E+03  0.50400001928E-02 0. -1.
</event>
<event>
 5   0  0.7416638E-02  0.4955233E+03  0.7818609E-02  0.1014954E+00
        1   -1    0    0  501    0  0.00000000000E+00  0.00000000000E+00  0.67343722558E+03  0.67343722560E+03  0.50400001928E-02 0. -1.
       -1   -1    0    0    0  501  0.00000000000E+00  0.00000000000E+00 -0.91153003187E+02  0.91153003326E+02  0.50400001928E-02 0.  1.
    10030    2    1    2    0    0  0.00000000000E+00  0.00000000000E+00  0.58228422239E+03  0.76459022892E+03  0.49552326133E+03 0.  0.
        1    1    3    3  502    0  0.34344553527E+02 -0.72536972346E+02 -0.70540360338E+02  0.10685084546E+03  0.50400001928E-02 0.  1.
       -1    1    3    3    0  502 -0.34344553527E+02  0.72536972346E+02  0.65282458273E+03  0.65773938346E+03  0.50400001928E-02 0. -1.
</event>
<event>
 5   0  0.7812547E-02  0.4982133E+03  0.7818609E-02  0.1014246E+00
        1   -1    0    0  501    0  0.00000000000E+00  0.00000000000E+00  0.64052788414E+03  0.64052788416E+03  0.50400001928E-02 0. -1.
       -1   -1    0    0    0  501  0.00000000000E+00  0.00000000000E+00 -0.96879672226E+02  0.96879672357E+02  0.50400001928E-02 0.  1.
    10030    2    1    2    0    0  0.00000000000E+00  0.00000000000E+00  0.54364821192E+03  0.73740755652E+03  0.49821333392E+03 0.  0.
        4    1    3    3  502    0  0.65697928444E+02  0.16479995577E+03  0.53064040906E+03  0.55951416412E+03  0.12699999809E+01 0.  1.
       -4    1    3    3    0  502 -0.65697928444E+02 -0.16479995577E+03  0.13007802856E+02  0.17789339240E+03  0.12699999809E+01 0. -1.
</event>
<event>
 5   0  0.7531632E-02  0.4985292E+03  0.7818609E-02  0.1014164E+00
        1   -1    0    0  501    0  0.00000000000E+00  0.00000000000E+00  0.88744073964E+03  0.88744073965E+03  0.50400001928E-02 0. -1.
       -1   -1    0    0    0  501  0.00000000000E+00  0.00000000000E+00 -0.70013496020E+02  0.70013496201E+02  0.50400001928E-02 0.  1.
    10030    2    1    2    0    0  0.00000000000E+00  0.00000000000E+00  0.81742724362E+03  0.95745423586E+03  0.49852915175E+03 0.  0.
        3    1    3    3  502    0  0.20856977057E+01 -0.24594762866E+03  0.33097886895E+03  0.41236101667E+03  0.10100000352E+00 0.  1.
       -3    1    3    3    0  502 -0.20856977057E+01  0.24594762866E+03  0.48644837467E+03  0.54509321918E+03  0.10100000352E+00 0. -1.
</event>
<event>
 5   0  0.1231822E-01  0.4962899E+03  0.7818609E-02  0.1014752E+00
       -2   -1    0    0    0  501  0.00000000000E+00  0.00000000000E+00  0.54084286947E+03  0.54084286948E+03  0.25500000920E-02 0.  1.
        2   -1    0    0  501    0  0.00000000000E+00  0.00000000000E+00 -0.11385176989E+03  0.11385176992E+03  0.25500000920E-02 0. -1.
    10030    2    1    2    0    0  0.00000000000E+00  0.00000000000E+00  0.42699109958E+03  0.65469463939E+03  0.49628990694E+03 0.  0.
        1    1    3    3  502    0 -0.26165549814E+02  0.24109683869E+03  0.14414647970E+03  0.28211793502E+03  0.50400001928E-02 0. -1.
       -1    1    3    3    0  502  0.26165549814E+02 -0.24109683869E+03  0.28284461988E+03  0.37257670438E+03  0.50400001928E-02 0.  1.
</event>
<event>
 5   0  0.1211345E-01  0.5012595E+03  0.7818609E-02  0.1013451E+00
        2   -1    0    0  501    0  0.00000000000E+00  0.00000000000E+00  0.44617183826E+03  0.44617183827E+03  0.25500000920E-02 0.  1.
       -2   -1    0    0    0  501  0.00000000000E+00  0.00000000000E+00 -0.14078714954E+03  0.14078714956E+03  0.25500000920E-02 0. -1.
    10030    2    1    2    0    0  0.00000000000E+00  0.00000000000E+00  0.30538468873E+03  0.58695898783E+03  0.50125945904E+03 0.  0.
        5    1    3    3  502    0 -0.40335172920E+01 -0.15657824931E+03 -0.76351451455E+02  0.17431193751E+03  0.46999998093E+01 0. -1.
       -5    1    3    3    0  502  0.40335172920E+01  0.15657824931E+03  0.38173614018E+03  0.41264705032E+03  0.46999998093E+01 0.  1.
</event>
<event>
 5   0  0.1279188E-01  0.5025859E+03  0.7818609E-02  0.1013106E+00
        2   -1    0    0  501    0  0.00000000000E+00  0.00000000000E+00  0.12338492493E+04  0.12338492493E+04  0.25500000920E-02 0. -1.
       -2   -1    0    0    0  501  0.00000000000E+00  0.00000000000E+00 -0.51179785703E+02  0.51179785766E+02  0.25500000920E-02 0.  1.
    10030    2    1    2    0    0  0.00000000000E+00  0.00000000000E+00  0.11826694636E+04  0.12850290351E+04  0.50258587411E+03 0.  0.
        2    1    3    3  502    0  0.99044102143E+02  0.47777751498E+02  0.13604960169E+02  0.11080407328E+03  0.25500000920E-02 0.  1.
       -2    1    3    3    0  502 -0.99044102143E+02 -0.47777751498E+02  0.11690645035E+04  0.11742249618E+04  0.25500000920E-02 0. -1.
</event>
<event>
 5   0  0.1191894E-01  0.4999694E+03  0.7818609E-02  0.1013787E+00
        2   -1    0    0  501    0  0.00000000000E+00  0.00000000000E+00  0.10019767674E+04  0.10019767674E+04  0.25500000920E-02 0. -1.
       -2   -1    0    0    0  501  0.00000000000E+00  0.00000000000E+00 -0.62369055597E+02  0.62369055649E+02  0.25500000920E-02 0.  1.
    10030    2    1    2    0    0  0.00000000000E+00  0.00000000000E+00  0.93960771177E+03  0.10643458230E+04  0.49996937802E+03 0.  0.
        3    1    3    3  502    0 -0.19271915591E+03 -0.10409220117E+03  0.21331414863E+03  0.30574302217E+03  0.10100000352E+00 0.  1.
       -3    1    3    3    0  502  0.19271915591E+03  0.10409220117E+03  0.72629356313E+03  0.75860280084E+03  0.10100000352E+00 0. -1.
</event>
<event>
 5   0  0.1279188E-01  0.4945193E+03  0.7818609E-02  0.1015219E+00
        2   -1    0    0  501    0  0.00000000000E+00  0.00000000000E+00  0.12007227394E+04  0.12007227394E+04  0.25500000920E-02 0. -1.
       -2   -1    0    0    0  501  0.00000000000E+00  0.00000000000E+00 -0.50917119827E+02  0.50917119891E+02  0.25500000920E-02 0.  1.
    10030    2    1    2    0    0  0.00000000000E+00  0.00000000000E+00  0.11498056195E+04  0.12516398593E+04  0.49451933690E+03 0.  0.
        2    1    3    3  502    0  0.74443520202E+02  0.78945221521E+02  0.12564625234E+02  0.10923394855E+03  0.25500000920E-02 0.  1.
       -2    1    3    3    0  502 -0.74443520202E+02 -0.78945221521E+02  0.11372409943E+04  0.11424059107E+04  0.25500000920E-02 0. -1.
</event>
<event>
 5   0  0.1191894E-01  0.5033926E+03  0.7818609E-02  0.1012897E+00
        2   -1    0    0  501    0  0.00000000000E+00  0.00000000000E+00  0.39742676631E+03  0.39742676632E+03  0.25500000920E-02 0.  1.
       -2   -1    0    0    0  501  0.00000000000E+00  0.00000000000E+00 -0.15940299878E+03  0.15940299880E+03  0.25500000920E-02 0. -1.
    10030    2    1    2    0    0  0.00000000000E+00  0.00000000000E+00  0.23802376753E+03  0.55682976512E+03  0.50339256393E+03 0.  0.
        3    1    3    3  502    0  0.87051471815E+02 -0.23568651921E+03  0.13560102706E+03  0.28550611696E+03  0.10100000352E+00 0. -1.
       -3    1    3    3    0  502 -0.87051471815E+02  0.23568651921E+03  0.10242274047E+03  0.27132364816E+03  0.10100000352E+00 0.  1.
</event>
<event>
 5   0  0.1191894E-01  0.5111540E+03  0.7818609E-02  0.1010908E+00
        2   -1    0    0  501    0  0.00000000000E+00  0.00000000000E+00  0.81227487821E+03  0.81227487822E+03  0.25500000920E-02 0.  1.
       -2   -1    0    0    0  501  0.00000000000E+00  0.00000000000E+00 -0.80415634692E+02  0.80415634732E+02  0.25500000920E-02 0. -1.
    10030    2    1    2    0    0  0.00000000000E+00  0.00000000000E+00  0.73185924352E+03  0.89269051295E+03  0.51115398813E+03 0.  0.
        3    1    3    3  502    0  0.23338459589E+03  0.52047246524E+02  0.52351750727E+03  0.57554137652E+03  0.10100000352E+00 0. -1.
       -3    1    3    3    0  502 -0.23338459589E+03 -0.52047246524E+02  0.20834173625E+03  0.31714913643E+03  0.10100000352E+00 0.  1.
</event>
<event>
 5   0  0.1243803E-01  0.4982465E+03  0.7818609E-02  0.1014238E+00
       -2   -1    0    0    0  501  0.00000000000E+00  0.00000000000E+00  0.65007289252E+03  0.65007289253E+03  0.25500000920E-02 0. -1.
        2   -1    0    0  501    0  0.00000000000E+00  0.00000000000E+00 -0.95469900677E+02  0.95469900711E+02  0.25500000920E-02 0.  1.
    10030    2    1    2    0    0  0.00000000000E+00  0.00000000000E+00  0.55460299185E+03  0.74554279324E+03  0.49824650324E+03 0.  0.
        4    1    3    3  502    0 -0.17195597555E+02  0.21199726745E+03  0.47137684648E+03  0.51714241199E+03  0.12699999809E+01 0. -1.
       -4    1    3    3    0  502  0.17195597555E+02 -0.21199726745E+03  0.83226145363E+02  0.22840038125E+03  0.12699999809E+01 0.  1.
</event>
<event>
 5   0  0.7531632E-02  0.4872136E+03  0.7818609E-02  0.1017171E+00
        1   -1    0    0  501    0  0.00000000000E+00  0.00000000000E+00  0.40721839365E+03  0.40721839368E+03  0.50400001928E-02 0. -1.
       -1   -1    0    0    0  501  0.00000000000E+00  0.00000000000E+00 -0.14573083325E+03  0.14573083334E+03  0.50400001928E-02 0.  1.
    10030    2    1    2    0    0  0.00000000000E+00  0.00000000000E+00  0.26148756040E+03  0.55294922702E+03  0.48721361169E+03 0.  0.
        3    1    3    3  502    0  0.16210858354E+02  0.17651124922E+03 -0.58911263807E+02  0.18678747344E+03  0.10100000352E+00 0.  1.
       -3    1    3    3    0  502 -0.16210858354E+02 -0.17651124922E+03  0.32039882420E+03  0.36616175358E+03  0.10100000352E+00 0. -1.
</event>
<event>
 5   0  0.7781754E-02  0.4962268E+03  0.7818609E-02  0.1014768E+00
       -1   -1    0    0    0  501  0.00000000000E+00  0.00000000000E+00  0.58474608358E+03  0.58474608361E+03  0.50400001928E-02 0.  1.
        1   -1    0    0  501    0  0.00000000000E+00  0.00000000000E+00 -0.10527692209E+03  0.10527692221E+03  0.50400001928E-02 0. -1.
    10030    2    1    2    0    0  0.00000000000E+00  0.00000000000E+00  0.47946916149E+03  0.69002300582E+03  0.49622683496E+03 0.  0.
        2    1    3    3  502    0 -0.20331988692E+03  0.90137110820E+02  0.86796775191E+02  0.23874118906E+03  0.25500000920E-02 0. -1.
       -2    1    3    3    0  502  0.20331988692E+03 -0.90137110820E+02  0.39267238630E+03  0.45128181676E+03  0.25500000920E-02 0.  1.
</event>
<event>
 5   0  0.5006750E-02  0.4920257E+03  0.7818609E-02  0.1015882E+00
        3   -1    0    0  501    0  0.00000000000E+00  0.00000000000E+00  0.11787573782E+04  0.11787573825E+04  0.10100000352E+00 0. -1.
       -3   -1    0    0    0  501  0.00000000000E+00  0.00000000000E+00 -0.51344122456E+02  0.51344221795E+02  0.10100000352E+00 0.  1.
    10030    2    1    2    0    0  0.00000000000E+00  0.00000000000E+00  0.11274132558E+04  0.12301016043E+04  0.49202571857E+03 0.  0.
        5    1    3    3  502    0  0.23599026006E+03  0.63872208614E+02  0.49619647627E+03  0.55317636875E+03  0.46999998093E+01 0. -1.
       -5    1    3    3    0  502 -0.23599026006E+03 -0.63872208614E+02  0.63121677948E+03  0.67692523559E+03  0.46999998093E+01 0.  1.
</event>
<event>
 5   0  0.7781754E-02  0.5146678E+03  0.7818609E-02  0.1010020E+00
        1   -1    0    0  501    0  0.00000000000E+00  0.00000000000E+00  0.85873422873E+03  0.85873422875E+03  0.50400001928E-02 0. -1.
       -1   -1    0    0    0  501  0.00000000000E+00  0.00000000000E+00 -0.77114349694E+02  0.77114349858E+02  0.50400001928E-02 0.  1.
    10030    2    1    2    0    0  0.00000000000E+00  0.00000000000E+00  0.78161987904E+03  0.93584857860E+03  0.51466778291E+03 0.  0.
        2    1    3    3  502    0 -0.14373561068E+03  0.13750367371E+03  0.68767295647E+03  0.71586401022E+03  0.25500000920E-02 0. -1.
       -2    1    3    3    0  502  0.14373561068E+03 -0.13750367371E+03  0.93946922564E+02  0.21998456838E+03  0.25500000920E-02 0.  1.
</event>
<event>
 5   0  0.7531632E-02  0.4964113E+03  0.7818609E-02  0.1014720E+00
       -1   -1    0    0    0  501  0.00000000000E+00  0.00000000000E+00  0.60933117752E+02  0.60933117961E+02  0.50400001928E-02 0.  1.
        1   -1    0    0  501    0  0.00000000000E+00  0.00000000000E+00 -0.10110436236E+04  0.10110436236E+04  0.50400001928E-02 0. -1.
    10030    2    1    2    0    0  0.00000000000E+00  0.00000000000E+00 -0.95011050587E+03  0.10719767416E+04  0.49641128226E+03 0.  0.
        3    1    3    3  502    0  0.17232160646E+03  0.15348251298E+03 -0.67243458275E+03  0.71092889667E+03  0.10100000352E+00 0. -1.
       -3    1    3    3    0  502 -0.17232160646E+03 -0.15348251298E+03 -0.27767592312E+03  0.36104784492E+03  0.10100000352E+00 0.  1.
</event>
<event>
 5   0  0.1231822E-01  0.5032706E+03  0.7818609E-02  0.1012929E+00
        2   -1    0    0  501    0  0.00000000000E+00  0.00000000000E+00  0.79673834619E+03  0.79673834619E+03  0.25500000920E-02 0. -1.
       -2   -1    0    0    0  501  0.00000000000E+00  0.00000000000E+00 -0.79474416334E+02  0.79474416375E+02  0.25500000920E-02 0.  1.
    10030    2    1    2    0    0  0.00000000000E+00  0.00000000000E+00  0.71726392985E+03  0.87621276256E+03  0.50327056363E+03 0.  0.
        1    1    3    3  502    0  0.54461767250E+02 -0.36735199835E+01 -0.69042526591E+02  0.88013915630E+02  0.50400001928E-02 0.  1.
       -1    1    3    3    0  502 -0.54461767250E+02  0.36735199835E+01  0.78630645644E+03  0.78819884693E+03  0.50400001928E-02 0. -1.
</event>
<event>
 5   0  0.7531632E-02  0.4949356E+03  0.7818609E-02  0.1015109E+00
        1   -1    0    0  501    0  0.00000000000E+00  0.00000000000E+00  0.11677865567E+04  0.11677865567E+04  0.50400001928E-02 0.  1.
       -1   -1    0    0    0  501  0.00000000000E+00  0.00000000000E+00 -0.52441356697E+02  0.52441356939E+02  0.50400001928E-02 0. -1.
    10030    2    1    2    0    0  0.00000000000E+00  0.00000000000E+00  0.11153452000E+04  0.12202279136E+04  0.49493559790E+03 0.  0.
        3    1    3    3  502    0 -0.83728378876E+02  0.94723533241E+02  0.10821619124E+04  0.10895216400E+04  0.10100000352E+00 0.  1.
       -3    1    3    3    0  502  0.83728378876E+02 -0.94723533241E+02  0.33183287524E+02  0.13070627357E+03  0.10100000352E+00 0. -1.
</event>
<event>
 5   0  0.1191894E-01  0.4982804E+03  0.7818609E-02  0.1014229E+00
       -2   -1    0    0    0  501  0.00000000000E+00  0.00000000000E+00  0.70523897224E+02  0.70523897270E+02  0.25500000920E-02 0. -1.
        2   -1    0    0  501    0  0.00000000000E+00  0.00000000000E+00 -0.88013914359E+03  0.88013914359E+03  0.25500000920E-02 0.  1.
    10030    2    1    2    0    0  0.00000000000E+00  0.00000000000E+00 -0.80961524636E+03  0.95066304086E+03  0.49828041314E+03 0.  0.
        3    1    3    3  502    0  0.15896137832E+03 -0.14287453683E+03 -0.16056089939E+03  0.26732314843E+03  0.10100000352E+00 0. -1.
       -3    1    3    3    0  502 -0.15896137832E+03  0.14287453683E+03 -0.64905434697E+03  0.68333989243E+03  0.10100000352E+00 0.  1.
</event>
<event>
 5   0  0.7416638E-02  0.5025365E+03  0.7818609E-02  0.1013119E+00
       -1   -1    0    0    0  501  0.00000000000E+00  0.00000000000E+00  0.51307819428E+03  0.51307819430E+03  0.50400001928E-02 0.  1.
        1   -1    0    0  501    0  0.00000000000E+00  0.00000000000E+00 -0.12305284631E+03  0.12305284641E+03  0.50400001928E-02 0. -1.
    10030    2    1    2    0    0  0.00000000000E+00  0.00000000000E+00  0.39002534797E+03  0.63613104072E+03  0.50253649510E+03 0.  0.
        1    1    3    3  502    0  0.22454742344E+03  0.98322918320E+02  0.26488420866E+03  0.36090523086E+03  0.50400001928E-02 0.  1.
       -1    1    3    3    0  502 -0.22454742344E+03 -0.98322918320E+02  0.12514113931E+03  0.27522580986E+03  0.50400001928E-02 0. -1.
</event>
<event>
 5   0  0.1243803E-01  0.5015761E+03  0.7818609E-02  0.1013368E+00
       -2   -1    0    0    0  501  0.00000000000E+00  0.00000000000E+00  0.11159988998E+03  0.11159989001E+03  0.25500000920E-02 0.  1.
        2   -1    0    0  501    0  0.00000000000E+00  0.00000000000E+00 -0.56357262894E+03  0.56357262895E+03  0.25500000920E-02 0. -1.
    10030    2    1    2    0    0  0.00000000000E+00  0.00000000000E+00 -0.45197273896E+03  0.67517251896E+03  0.50157608953E+03 0.  0.
        4    1    3    3  502    0 -0.12349384487E+02 -0.24861576783E+03 -0.18491982140E+03  0.31009556681E+03  0.12699999809E+01 0.  1.
       -4    1    3    3    0  502  0.12349384487E+02  0.24861576783E+03 -0.26705291756E+03  0.36507695215E+03  0.12699999809E+01 0. -1.
</event>
<event>
 5   0  0.1243803E-01  0.5008698E+03  0.7818609E-02  0.1013552E+00
        2   -1    0    0  501    0  0.00000000000E+00  0.00000000000E+00  0.28290469538E+03  0.28290469539E+03  0.25500000920E-02 0. -1.
       -2   -1    0    0    0  501  0.00000000000E+00  0.00000000000E+00 -0.22169176930E+03  0.22169176931E+03  0.25500000920E-02 0.  1.
    10030    2    1    2    0    0  0.00000000000E+00  0.00000000000E+00  0.61212926086E+02  0.50459646470E+03  0.50086981329E+03 0.  0.
        4    1    3    3  502    0 -0.21824694182E+03  0.12101565935E+03  0.94859342716E+01  0.24973608724E+03  0.12699999809E+01 0. -1.
       -4    1    3    3    0  502  0.21824694182E+03 -0.12101565935E+03  0.51726991814E+02  0.25486037747E+03  0.12699999809E+01 0.  1.
</event>
<event>
 5   0  0.7602288E-02  0.5004869E+03  0.7818609E-02  0.1013652E+00
        1   -1    0    0  501    0  0.00000000000E+00  0.00000000000E+00  0.20268177561E+03  0.20268177567E+03  0.50400001928E-02 0. -1.
       -1   -1    0    0    0  501  0.00000000000E+00  0.00000000000E+00 -0.30896607430E+03  0.30896607434E+03  0.50400001928E-02 0.  1.
    10030    2    1    2    0    0  0.00000000000E+00  0.00000000000E+00 -0.10628429869E+03  0.51164785001E+03  0.50048693317E+03 0.  0.
        5    1    3    3  502    0 -0.37006362500E+02  0.12878816492E+03  0.16286055229E+03  0.21095381433E+03  0.46999998093E+01 0. -1.
       -5    1    3    3    0  502  0.37006362500E+02 -0.12878816492E+03 -0.26914485098E+03  0.30069403569E+03  0.46999998093E+01 0.  1.
</event>
<event>
 5   0  0.7531632E-02  0.5013549E+03  0.7818609E-02  0.1013426E+00
        1   -1    0    0  501    0  0.00000000000E+00  0.00000000000E+00  0.74484129735E+03  0.74484129736E+03  0.50400001928E-02 0.  1.
       -1   -1    0    0    0  501  0.00000000000E+00  0.00000000000E+00 -0.84365862919E+02  0.84365863070E+02  0.50400001928E-02 0. -1.
    10030    2    1    2    0    0  0.00000000000E+00  0.00000000000E+00  0.66047543443E+03  0.82920716043E+03  0.50135487973E+03 0.  0.
        3    1    3    3  502    0  0.16967716709E+03  0.17927303368E+03  0.40252056911E+03  0.47217791180E+03  0.10100000352E+00 0.  1.
       -3    1    3    3    0  502 -0.16967716709E+03 -0.17927303368E+03  0.25795486531E+03  0.35702924863E+03  0.10100000352E+00 0. -1.
</event>
<event>
 5   0  0.7781754E-02  0.4970527E+03  0.7818609E-02  0.1014551E+00
        1   -1    0    0  501    0  0.00000000000E+00  0.00000000000E+00  0.40696149458E+03  0.40696149461E+03  0.50400001928E-02 0. -1.
       -1   -1    0    0    0  501  0.00000000000E+00  0.00000000000E+00 -0.15177199737E+03  0.15177199745E+03  0.50400001928E-02 0.  1.
    10030    2    1    2    0    0  0.00000000000E+00  0.00000000000E+00  0.25518949720E+03  0.55873349206E+03  0.49705274938E+03 0.  0.
        2    1    3    3  502    0 -0.69023370973E+02  0.39535829493E+02  0.39226565387E+03  0.40024948565E+03  0.25500000920E-02 0. -1.
       -2    1    3    3    0  502  0.69023370973E+02 -0.39535829493E+02 -0.13707615667E+03  0.15848400641E+03  0.25500000920E-02 0.  1.
</event>
<event>
 5   0  0.1243803E-01  0.4976489E+03  0.7818609E-02  0.1014394E+00
        2   -1    0    0  501    0  0.00000000000E+00  0.00000000000E+00  0.20188878282E+03  0.20188878284E+03  0.25500000920E-02 0. -1.
       -2   -1    0    0    0  501  0.00000000000E+00  0.00000000000E+00 -0.30667179759E+03  0.30667179760E+03  0.25500000920E-02 0.  1.
    10030    2    1    2    0    0  0.00000000000E+00  0.00000000000E+00 -0.10478301476E+03  0.50856058044E+03  0.49764885592E+03 0.  0.
        4    1    3    3  502    0  0.88117955414E+02 -0.16097067269E+03  0.11932758752E+03  0.21889956047E+03  0.12699999809E+01 0. -1.
       -4    1    3    3    0  502 -0.88117955414E+02  0.16097067269E+03 -0.22411060228E+03  0.28966101997E+03  0.12699999809E+01 0.  1.
</event>
<event>
 5   0  0.7531632E-02  0.4990012E+03  0.7818609E-02  0.1014040E+00
       -1   -1    0    0    0  501  0.00000000000E+00  0.00000000000E+00  0.48883163068E+03  0.48883163071E+03  0.50400001928E-02 0. -1.
        1   -1    0    0  501    0  0.00000000000E+00  0.00000000000E+00 -0.12734558597E+03  0.12734558607E+03  0.50400001928E-02 0.  1.
    10030    2    1    2    0    0  0.00000000000E+00  0.00000000000E+00  0.36148604471E+03  0.61617721678E+03  0.49900120437E+03 0.  0.
        3    1    3    3  502    0  0.41813135135E+02  0.16679718406E+03  0.40397224955E+03  0.43904809246E+03  0.10100000352E+00 0.  1.
       -3    1    3    3    0  502 -0.41813135135E+02 -0.16679718406E+03 -0.42486204839E+02  0.17712912432E+03  0.10100000352E+00 0. -1.
</event>
<event>
 5   0  0.1279188E-01  0.4945378E+03  0.7818609E-02  0.1015215E+00
       -2   -1    0    0    0  501  0.00000000000E+00  0.00000000000E+00  0.61193936988E+02  0.61193937041E+02  0.25500000920E-02 0.  1.
        2   -1    0    0  501    0  0.00000000000E+00  0.00000000000E+00 -0.99914972696E+03  0.99914972696E+03  0.25500000920E-02 0. -1.
    10030    2    1    2    0    0  0.00000000000E+00  0.00000000000E+00 -0.93795578997E+03  0.10603436640E+04  0.49453778607E+03 0.  0.
        2    1    3    3  502    0  0.12604656852E+03 -0.62918782406E+02 -0.33267444262E+02  0.14475231767E+03  0.25500000920E-02 0.  1.
       -2    1    3    3    0  502 -0.12604656852E+03  0.62918782406E+02 -0.90468834571E+03  0.91559134634E+03  0.25500000920E-02 0. -1.
</event>
<event>
 5   0  0.1243803E-01  0.5080744E+03  0.7818609E-02  0.1011693E+00
        2   -1    0    0  501    0  0.00000000000E+00  0.00000000000E+00  0.15020334474E+04  0.15020334474E+04  0.25500000920E-02 0.  1.
       -2   -1    0    0    0  501  0.00000000000E+00  0.00000000000E+00 -0.42965022438E+02  0.42965022513E+02  0.25500000920E-02 0. -1.
    10030    2    1    2    0    0  0.00000000000E+00  0.00000000000E+00  0.14590684249E+04  0.15449984699E+04  0.50807440726E+03 0.  0.
        4    1    3    3  502    0  0.57038372690E+02 -0.24442354056E+03  0.61031561830E+03  0.65991136524E+03  0.12699999809E+01 0. -1.
       -4    1    3    3    0  502 -0.57038372690E+02  0.24442354056E+03  0.84875280665E+03  0.88508710466E+03  0.12699999809E+01 0.  1.
</event>
<event>
 5   0  0.7602288E-02  0.4974549E+03  0.7818609E-02  0.1014445E+00
       -1   -1    0    0    0  501  0.00000000000E+00  0.00000000000E+00  0.50399904794E+03  0.50399904796E+03  0.50400001928E-02 0.  1.
        1   -1    0    0  501    0  0.00000000000E+00  0.00000000000E+00 -0.12274893204E+03  0.12274893215E+03  0.50400001928E-02 0. -1.
    10030    2    1    2    0    0  0.00000000000E+00  0.00000000000E+00  0.38125011590E+03  0.62674798011E+03  0.49745490218E+03 0.  0.
        5    1    3    3  502    0  0.19116831555E+03 -0.69619150298E+02  0.10448781983E+02  0.20377295699E+03  0.46999998093E+01 0. -1.
       -5    1    3    3    0  502 -0.19116831555E+03  0.69619150298E+02  0.37080133391E+03  0.42297502312E+03  0.46999998093E+01 0.  1.
</event>
<event>
 5   0  0.5006750E-02  0.5022142E+03  0.7818609E-02  0.1013203E+00
       -4   -1    0    0    0  501  0.00000000000E+00  0.00000000000E+00  0.26798976504E+03  0.26799277427E+03  0.12699999809E+01 0. -1.
        4   -1    0    0  501    0  0.00000000000E+00  0.00000000000E+00 -0.23528195505E+03  0.23528538261E+03  0.12699999809E+01 0.  1.
    10030    2    1    2    0    0  0.00000000000E+00  0.00000000000E+00  0.32707809990E+02  0.50327815688E+03  0.50221419968E+03 0.  0.
        4    1    3    3  502    0  0.10422000524E+02  0.83641126111E+02 -0.22068199114E+03  0.23623422738E+03  0.12699999809E+01 0.  1.
       -4    1    3    3    0  502 -0.10422000524E+02 -0.83641126111E+02  0.25338980113E+03  0.26704392951E+03  0.12699999809E+01 0. -1.
</event>
<event>
 5   0  0.1279188E-01  0.4946740E+03  0.7818609E-02  0.1015179E+00
        2   -1    0    0  501    0  0.00000000000E+00  0.00000000000E+00  0.12717898726E+04  0.12717898726E+04  0.25500000920E-02 0. -1.
       -2   -1    0    0    0  501  0.00000000000E+00  0.00000000000E+00 -0.48101959681E+02  0.48101959749E+02  0.25500000920E-02 0.  1.
    10030    2    1    2    0    0  0.00000000000E+00  0.00000000000E+00  0.12236879129E+04  0.13198918323E+04  0.49467397433E+03 0.  0.
        2    1    3    3  502    0 -0.41758547084E+01  0.23264882475E+03  0.83560241126E+03  0.86739512515E+03  0.25500000920E-02 0. -1.
       -2    1    3    3    0  502  0.41758547084E+01 -0.23264882475E+03  0.38808550161E+03  0.45249670716E+03  0.25500000920E-02 0.  1.
</event>
<event>
 5   0  0.1191894E-01  0.4971792E+03  0.7818609E-02  0.1014518E+00
        2   -1    0    0  501    0  0.00000000000E+00  0.00000000000E+00  0.46402141040E+03  0.46402141040E+03  0.25500000920E-02 0.  1.
       -2   -1    0    0    0  501  0.00000000000E+00  0.00000000000E+00 -0.13317657191E+03  0.13317657193E+03  0.25500000920E-02 0. -1.
    10030    2    1    2    0    0  0.00000000000E+00  0.00000000000E+00  0.33084483849E+03  0.59719798234E+03  0.49717916585E+03 0.  0.
        3    1    3    3  502    0  0.42061680334E+02  0.17273626595E+03  0.37412859402E+03  0.41422121818E+03  0.10100000352E+00 0.  1.
       -3    1    3    3    0  502 -0.42061680334E+02 -0.17273626595E+03 -0.43283755535E+02  0.18297676415E+03  0.10100000352E+00 0. -1.
</event>
<event>
 5   0  0.1211345E-01  0.5051387E+03  0.7818609E-02  0.1012446E+00
        2   -1    0    0  501    0  0.00000000000E+00  0.00000000000E+00  0.18359605060E+04  0.18359605060E+04  0.25500000920E-02 0. -1.
       -2   -1    0    0    0  501  0.00000000000E+00  0.00000000000E+00 -0.34745450897E+02  0.34745450991E+02  0.25500000920E-02 0.  1.
    10030    2    1    2    0    0  0.00000000000E+00  0.00000000000E+00  0.18012150551E+04  0.18707059570E+04  0.50513869659E+03 0.  0.
        5    1    3    3  502    0 -0.16807322900E+02  0.23283959832E+03  0.54399921523E+03  0.59199155468E+03  0.46999998093E+01 0.  1.
       -5    1    3    3    0  502  0.16807322900E+02 -0.23283959832E+03  0.12572158399E+04  0.12787144023E+04  0.46999998093E+01 0. -1.
</event>
<event>
 5   0  0.7781754E-02  0.5147808E+03  0.7818609E-02  0.1009991E+00
       -1   -1    0    0    0  501  0.00000000000E+00  0.00000000000E+00  0.49397694899E+02  0.49397695156E+02  0.50400001928E-02 0. -1.
        1   -1    0    0  501    0  0.00000000000E+00  0.00000000000E+00 -0.13411520277E+04  0.13411520277E+04  0.50400001928E-02 0.  1.
    10030    2    1    2    0    0  0.00000000000E+00  0.00000000000E+00 -0.12917543328E+04  0.13905497229E+04  0.51478080331E+03 0.  0.
        2    1    3    3  502    0  0.20420979088E+02  0.25372443709E+03 -0.54277896188E+03  0.59950154948E+03  0.25500000920E-02 0. -1.
       -2    1    3    3    0  502 -0.20420979088E+02 -0.25372443709E+03 -0.74897537094E+03  0.79104817340E+03  0.25500000920E-02 0.  1.
</event>
<event>
 5   0  0.1279188E-01  0.5038256E+03  0.7818609E-02  0.1012785E+00
       -2   -1    0    0    0  501  0.00000000000E+00  0.00000000000E+00  0.53377582258E+02  0.53377582319E+02  0.25500000920E-02 0.  1.
        2   -1    0    0  501    0  0.00000000000E+00  0.00000000000E+00 -0.11888895805E+04  0.11888895805E+04  0.25500000920E-02 0. -1.
    10030    2    1    2    0    0  0.00000000000E+00  0.00000000000E+00 -0.11355119982E+04  0.12422671628E+04  0.50382557068E+03 0.  0.
        2    1    3    3  502    0 -0.20070189673E+03 -0.19467090704E+00 -0.94314359654E+03  0.96426196282E+03  0.25500000920E-02 0. -1.
       -2    1    3    3    0  502  0.20070189673E+03  0.19467090704E+00 -0.19236840170E+03  0.27800520000E+03  0.25500000920E-02 0.  1.
</event>
<event>
 5   0  0.5006750E-02  0.5025487E+03  0.7818609E-02  0.1013116E+00
       -4   -1    0    0    0  501  0.00000000000E+00  0.00000000000E+00  0.38813265930E+03  0.38813473706E+03  0.12699999809E+01 0. -1.
        4   -1    0    0  501    0  0.00000000000E+00  0.00000000000E+00 -0.16266828100E+03  0.16267323856E+03  0.12699999809E+01 0.  1.
    10030    2    1    2    0    0  0.00000000000E+00  0.00000000000E+00  0.22546437830E+03  0.55080797562E+03  0.50254874403E+03 0.  0.
        1    1    3    3  502    0  0.38542910245E+01  0.86520235985E+02  0.37126077845E+03  0.38122850423E+03  0.50400001928E-02 0. -1.
       -1    1    3    3    0  502 -0.38542910245E+01 -0.86520235985E+02 -0.14579640016E+03  0.16957947139E+03  0.50400001928E-02 0.  1.
</event>
<event>
 5   0  0.1211345E-01  0.5083430E+03  0.7818609E-02  0.1011624E+00
       -2   -1    0    0    0  501  0.00000000000E+00  0.00000000000E+00  0.14031011454E+04  0.14031011454E+04  0.25500000920E-02 0. -1.
        2   -1    0    0  501    0  0.00000000000E+00  0.00000000000E+00 -0.46043112352E+02  0.46043112422E+02  0.25500000920E-02 0.  1.
    10030    2    1    2    0    0  0.00000000000E+00  0.00000000000E+00  0.13570580330E+04  0.14491442578E+04  0.50834296978E+03 0.  0.
        5    1    3    3  502    0  0.13179679749E+03  0.45197982071E+01  0.12978001586E+04  0.13044915355E+04  0.46999998093E+01 0. -1.
       -5    1    3    3    0  502 -0.13179679749E+03 -0.45197982071E+01  0.59257874434E+02  0.14465272236E+03  0.46999998093E+01 0.  1.
</event>
<event>
 5   0  0.7812547E-02  0.5000214E+03  0.7818609E-02  0.1013773E+00
        1   -1    0    0  501    0  0.00000000000E+00  0.00000000000E+00  0.37806469804E+03  0.37806469808E+03  0.50400001928E-02 0. -1.
       -1   -1    0    0    0  501  0.00000000000E+00  0.00000000000E+00 -0.16532974133E+03  0.16532974140E+03  0.50400001928E-02 0.  1.
    10030    2    1    2    0    0  0.00000000000E+00  0.00000000000E+00  0.21273495672E+03  0.54339443948E+03  0.50002135459E+03 0.  0.
        4    1    3    3  502    0  0.18473036824E+03  0.16819175405E+03  0.96060553476E+02  0.26766213388E+03  0.12699999809E+01 0. -1.
       -4    1    3    3    0  502 -0.18473036824E+03 -0.16819175405E+03  0.11667440324E+03  0.27573230560E+03  0.12699999809E+01 0.  1.
</event>
<event>
 5   0  0.7781754E-02  0.4993520E+03  0.7818609E-02  0.1013948E+00
       -1   -1    0    0    0  501  0.00000000000E+00  0.00000000000E+00  0.12029505717E+03  0.12029505728E+03  0.50400001928E-02 0. -1.
        1   -1    0    0  501    0  0.00000000000E+00  0.00000000000E+00 -0.51821000741E+03  0.51821000743E+03  0.50400001928E-02 0.  1.
    10030    2    1    2    0    0  0.00000000000E+00  0.00000000000E+00 -0.39791495024E+03  0.63850506471E+03  0.49935199012E+03 0.  0.
        2    1    3    3  502    0 -0.13114765645E+03 -0.20797588776E+03 -0.14345057560E+03  0.28466075481E+03  0.25500000920E-02 0.  1.
       -2    1    3    3    0  502  0.13114765645E+03  0.20797588776E+03 -0.25446437464E+03  0.35384430990E+03  0.25500000920E-02 0. -1.
</event>
<event>
 5   0  0.7416638E-02  0.5084566E+03  0.7818609E-02  0.1011595E+00
        1   -1    0    0  501    0  0.00000000000E+00  0.00000000000E+00  0.54150968452E+03  0.54150968454E+03  0.50400001928E-02 0. -1.
       -1   -1    0    0    0  501  0.00000000000E+00  0.00000000000E+00 -0.11935526513E+03  0.11935526524E+03  0.50400001928E-02 0.  1.
    10030    2    1    2    0    0  0.00000000000E+00  0.00000000000E+00  0.42215441939E+03  0.66086494978E+03  0.50845661372E+03 0.  0.
        1    1    3    3  502    0  0.24153300679E+03 -0.78064873450E+02  0.22944526744E+03  0.34216582034E+03  0.50400001928E-02 0. -1.
       -1    1    3    3    0  502 -0.24153300679E+03  0.78064873450E+02  0.19270915195E+03  0.31869912944E+03  0.50400001928E-02 0.  1.
</event>
<event>
 5   0  0.1211345E-01  0.4930482E+03  0.7818609E-02  0.1015610E+00
        2   -1    0    0  501    0  0.00000000000E+00  0.00000000000E+00  0.13496920533E+04  0.13496920533E+04  0.25500000920E-02 0.  1.
       -2   -1    0    0    0  501  0.00000000000E+00  0.00000000000E+00 -0.45028154104E+02  0.45028154176E+02  0.25500000920E-02 0. -1.
    10030    2    1    2    0    0  0.00000000000E+00  0.00000000000E+00  0.13046638992E+04  0.13947202075E+04  0.49304824033E+03 0.  0.
        5    1    3    3  502    0 -0.14391836378E+03  0.18140977395E+03  0.89119225166E+03  0.92079732891E+03  0.46999998093E+01 0.  1.
       -5    1    3    3    0  502  0.14391836378E+03 -0.18140977395E+03  0.41347164757E+03  0.47392287860E+03  0.46999998093E+01 0. -1.
</event>
<event>
 5   0  0.7602288E-02  0.4958440E+03  0.7818609E-02  0.1014869E+00
       -1   -1    0    0    0  501  0.00000000000E+00  0.00000000000E+00  0.76650612904E+02  0.76650613070E+02  0.50400001928E-02 0. -1.
        1   -1    0    0  501    0  0.00000000000E+00  0.00000000000E+00 -0.80188929761E+03  0.80188929763E+03  0.50400001928E-02 0.  1.
    10030    2    1    2    0    0  0.00000000000E+00  0.00000000000E+00 -0.72523868471E+03  0.87853991070E+03  0.49584395216E+03 0.  0.
        5    1    3    3  502    0  0.20106774625E+03  0.24273519830E+02 -0.10939483493E+03  0.23023197487E+03  0.46999998093E+01 0. -1.
       -5    1    3    3    0  502 -0.20106774625E+03 -0.24273519830E+02 -0.61584384978E+03  0.64830793583E+03  0.46999998093E+01 0.  1.
</event>
<event>
 5   0  0.7531632E-02  0.4968515E+03  0.7818609E-02  0.1014604E+00
       -1   -1    0    0    0  501  0.00000000000E+00  0.00000000000E+00  0.12462461689E+03  0.12462461700E+03  0.50400001928E-02 0. -1.
        1   -1    0    0  501    0  0.00000000000E+00  0.00000000000E+00 -0.49520991934E+03  0.49520991936E+03  0.50400001928E-02 0.  1.
    10030    2    1    2    0    0  0.00000000000E+00  0.00000000000E+00 -0.37058530244E+03  0.61983453636E+03  0.49685147285E+03 0.  0.
        3    1    3    3  502    0  0.62920391028E+02  0.15774039953E+03 -0.41148485147E+03  0.44515256086E+03  0.10100000352E+00 0.  1.
       -3    1    3    3    0  502 -0.62920391028E+02 -0.15774039953E+03  0.40899549032E+02  0.17468197549E+03  0.10100000352E+00 0. -1.
</event>
<event>
 5   0  0.1231822E-01  0.5023296E+03  0.7818609E-02  0.1013173E+00
       -2   -1    0    0    0  501  0.00000000000E+00  0.00000000000E+00  0.24017917184E+03  0.24017917186E+03  0.25500000920E-02 0. -1.
        2   -1    0    0  501    0  0.00000000000E+00  0.00000000000E+00 -0.26265290378E+03  0.26265290379E+03  0.25500000920E-02 0.  1.
    10030    2    1    2    0    0  0.00000000000E+00  0.00000000000E+00 -0.22473731939E+02  0.50283207565E+03  0.50232960063E+03 0.  0.
        1    1    3    3  502    0  0.69337988514E+02 -0.18416188081E+03  0.14499744902E+03  0.24443325314E+03  0.50400001928E-02 0. -1.
       -1    1    3    3    0  502 -0.69337988514E+02  0.18416188081E+03 -0.16747118096E+03  0.25839882251E+03  0.50400001928E-02 0.  1.
</event>
<event>
 5   0  0.7416638E-02  0.4961542E+03  0.7818609E-02  0.1014788E+00
       -1   -1    0    0    0  501  0.00000000000E+00  0.00000000000E+00  0.61427292423E+02  0.61427292629E+02  0.50400001928E-02 0. -1.
        1   -1    0    0  501    0  0.00000000000E+00  0.00000000000E+00 -0.10018714024E+04  0.10018714024E+04  0.50400001928E-02 0.  1.
    10030    2    1    2    0    0  0.00000000000E+00  0.00000000000E+00 -0.94044410999E+03  0.10632986951E+04  0.49615420072E+03 0.  0.
        1    1    3    3  502    0  0.48653108626E+02 -0.23355823255E+03 -0.32446615168E+03  0.40273422574E+03  0.50400001928E-02 0. -1.
       -1    1    3    3    0  502 -0.48653108626E+02  0.23355823255E+03 -0.61597795831E+03  0.66056446932E+03  0.50400001928E-02 0.  1.
</event>
<event>
 5   0  0.1191894E-01  0.5284144E+03  0.7818609E-02  0.1006617E+00
       -2   -1    0    0    0  501  0.00000000000E+00  0.00000000000E+00  0.53568762234E+02  0.53568762295E+02  0.25500000920E-02 0. -1.
        2   -1    0    0  501    0  0.00000000000E+00  0.00000000000E+00 -0.13030997215E+04  0.13030997215E+04  0.25500000920E-02 0.  1.
    10030    2    1    2    0    0  0.00000000000E+00  0.00000000000E+00 -0.12495309593E+04  0.13566684838E+04  0.52841437979E+03 0.  0.
        3    1    3    3  502    0 -0.21244185030E+03 -0.70263757488E+02 -0.26407181962E+03  0.34612493625E+03  0.10100000352E+00 0. -1.
       -3    1    3    3    0  502  0.21244185030E+03  0.70263757488E+02 -0.98545913968E+03  0.10105435476E+04  0.10100000352E+00 0.  1.
</event>
<event>
 5   0  0.7416638E-02  0.4973838E+03  0.7818609E-02  0.1014464E+00
       -1   -1    0    0    0  501  0.00000000000E+00  0.00000000000E+00  0.11978373950E+03  0.11978373960E+03  0.50400001928E-02 0.  1.
        1   -1    0    0  501    0  0.00000000000E+00  0.00000000000E+00 -0.51632778752E+03  0.51632778755E+03  0.50400001928E-02 0. -1.
    10030    2    1    2    0    0  0.00000000000E+00  0.00000000000E+00 -0.39654404802E+03  0.63611152715E+03  0.49738384870E+03 0.  0.
        1    1    3    3  502    0  0.67954786745E+02 -0.19522604536E+03 -0.21445649408E+02  0.20782439158E+03  0.50400001928E-02 0.  1.
       -1    1    3    3    0  502 -0.67954786745E+02  0.19522604536E+03 -0.37509839861E+03  0.42828713557E+03  0.50400001928E-02 0. -1.
</event>
<event>
 5   0  0.7812547E-02  0.5007696E+03  0.7818609E-02  0.1013578E+00
        1   -1    0    0  501    0  0.00000000000E+00  0.00000000000E+00  0.10033291605E+04  0.10033291605E+04  0.50400001928E-02 0. -1.
       -1   -1    0    0    0  501  0.00000000000E+00  0.00000000000E+00 -0.62484521960E+02  0.62484522163E+02  0.50400001928E-02 0.  1.
    10030    2    1    2    0    0  0.00000000000E+00  0.00000000000E+00  0.94084463856E+03  0.10658136827E+04  0.50076958006E+03 0.  0.
        4    1    3    3  502    0  0.16818245080E+03 -0.12131913804E+03  0.76905407831E+03  0.79652335702E+03  0.12699999809E+01 0. -1.
       -4    1    3    3    0  502 -0.16818245080E+03  0.12131913804E+03  0.17179056025E+03  0.26929032567E+03  0.12699999809E+01 0.  1.
</event>
<event>
 5   0  0.1231822E-01  0.5017838E+03  0.7818609E-02  0.1013314E+00
       -2   -1    0    0    0  501  0.00000000000E+00  0.00000000000E+00  0.46494120333E+02  0.46494120403E+02  0.25500000920E-02 0. -1.
        2   -1    0    0  501    0  0.00000000000E+00  0.00000000000E+00 -0.13538646490E+04  0.13538646490E+04  0.25500000920E-02 0.  1.
    10030    2    1    2    0    0  0.00000000000E+00  0.00000000000E+00 -0.13073705286E+04  0.14003587694E+04  0.50178380187E+03 0.  0.
        1    1    3    3  502    0  0.98888614971E+02  0.18621447513E+03 -0.27418322392E+03  0.34587747718E+03  0.50400001928E-02 0. -1.
       -1    1    3    3    0  502 -0.98888614971E+02 -0.18621447513E+03 -0.10331873047E+04  0.10544812922E+04  0.50400001928E-02 0.  1.
</event>
<event>
 5   0  0.7416638E-02  0.4932589E+03  0.7818609E-02  0.1015554E+00
        1   -1    0    0  501    0  0.00000000000E+00  0.00000000000E+00  0.61438596676E+02  0.61438596883E+02  0.50400001928E-02 0. -1.
       -1   -1    0    0    0  501  0.00000000000E+00  0.00000000000E+00 -0.99003058396E+03  0.99003058397E+03  0.50400001928E-02 0.  1.
    10030    2    1    2    0    0  0.00000000000E+00  0.00000000000E+00 -0.92859198728E+03  0.10514691809E+04  0.49325891725E+03 0.  0.
        1    1    3    3  502    0 -0.10989486428E+03 -0.22030368111E+03 -0.43300337227E+03  0.49809889934E+03  0.50400001928E-02 0. -1.
       -1    1    3    3    0  502  0.10989486428E+03  0.22030368111E+03 -0.49558861502E+03  0.55337028152E+03  0.50400001928E-02 0.  1.
</event>
<event>
 5   0  0.7416638E-02  0.5017428E+03  0.7818609E-02  0.1013325E+00
       -1   -1    0    0    0  501  0.00000000000E+00  0.00000000000E+00  0.18308579883E+03  0.18308579890E+03  0.50400001928E-02 0. -1.
        1   -1    0    0  501    0  0.00000000000E+00  0.00000000000E+00 -0.34375392900E+03  0.34375392903E+03  0.50400001928E-02 0.  1.
    10030    2    1    2    0    0  0.00000000000E+00  0.00000000000E+00 -0.16066813017E+03  0.52683972793E+03  0.50174281348E+03 0.  0.
        1    1    3    3  502    0  0.12096950293E+03  0.19267914520E+03  0.30678317961E+02  0.22956487722E+03  0.50400001928E-02 0. -1.
       -1    1    3    3    0  502 -0.12096950293E+03 -0.19267914520E+03 -0.19134644813E+03  0.29727485072E+03  0.50400001928E-02 0.  1.
</event>
<event>
 5   0  0.1191894E-01  0.5649367E+03  0.7818609E-02  0.9980946E-01
       -2   -1    0    0    0  501  0.00000000000E+00  0.00000000000E+00  0.45994026457E+03  0.45994026458E+03  0.25500000920E-02 0. -1.
        2   -1    0    0  501    0  0.00000000000E+00  0.00000000000E+00 -0.17347549108E+03  0.17347549110E+03  0.25500000920E-02 0.  1.
    10030    2    1    2    0    0  0.00000000000E+00  0.00000000000E+00  0.28646477349E+03  0.63341575568E+03  0.56493668060E+03 0.  0.
        3    1    3    3  502    0  0.12643333379E+03 -0.25852899616E+02 -0.13849092160E+03  0.18929740061E+03  0.10100000352E+00 0.  1.
       -3    1    3    3    0  502 -0.12643333379E+03  0.25852899616E+02  0.42495569509E+03  0.44411835506E+03  0.10100000352E+00 0. -1.
</event>
<event>
 5   0  0.1211345E-01  0.4968703E+03  0.7818609E-02  0.1014599E+00
        2   -1    0    0  501    0  0.00000000000E+00  0.00000000000E+00  0.42704957803E+03  0.42704957804E+03  0.25500000920E-02 0.  1.
       -2   -1    0    0    0  501  0.00000000000E+00  0.00000000000E+00 -0.14452661185E+03  0.14452661187E+03  0.25500000920E-02 0. -1.
    10030    2    1    2    0    0  0.00000000000E+00  0.00000000000E+00  0.28252296618E+03  0.57157618992E+03  0.49687031956E+03 0.  0.
        5    1    3    3  502    0  0.17566952034E+03 -0.18976114946E+02 -0.59566752043E+02  0.18652120861E+03  0.46999998093E+01 0.  1.
       -5    1    3    3    0  502 -0.17566952034E+03  0.18976114946E+02  0.34208971822E+03  0.38505498131E+03  0.46999998093E+01 0. -1.
</event>
<event>
 5   0  0.5006750E-02  0.5281754E+03  0.7818609E-02  0.1006676E+00
        3   -1    0    0  501    0  0.00000000000E+00  0.00000000000E+00  0.28496852835E+03  0.28496854625E+03  0.10100000352E+00 0.  1.
       -3   -1    0    0    0  501  0.00000000000E+00  0.00000000000E+00 -0.24473685490E+03  0.24473687574E+03  0.10100000352E+00 0. -1.
    10030    2    1    2    0    0  0.00000000000E+00  0.00000000000E+00  0.40231673451E+02  0.52970542199E+03  0.52817539373E+03 0.  0.
        3    1    3    3  502    0 -0.67464738830E+02  0.12719740140E+03 -0.20191118508E+03  0.24798952956E+03  0.10100000352E+00 0. -1.
       -3    1    3    3    0  502  0.67464738830E+02 -0.12719740140E+03  0.24214285854E+03  0.28171589243E+03  0.10100000352E+00 0.  1.
</event>
<event>
 5   0  0.1279188E-01  0.5002476E+03  0.7818609E-02  0.1013714E+00
        2   -1    0    0  501    0  0.00000000000E+00  0.00000000000E+00  0.23001740547E+04  0.23001740547E+04  0.25500000920E-02 0.  1.
       -2   -1    0    0    0  501  0.00000000000E+00  0.00000000000E+00 -0.27198777262E+02  0.27198777382E+02  0.25500000920E-02 0. -1.
    10030    2    1    2    0    0  0.00000000000E+00  0.00000000000E+00  0.22729752775E+04  0.23273728321E+04  0.50024762636E+03 0.  0.
        2    1    3    3  502    0 -0.18946714976E+03 -0.82883295605E+02  0.48192234170E+03  0.52442023699E+03  0.25500000920E-02 0. -1.
       -2    1    3    3    0  502  0.18946714976E+03  0.82883295605E+02  0.17910529358E+04  0.18029525951E+04  0.25500000920E-02 0.  1.
</event>
<event>
 5   0  0.1279188E-01  0.5102565E+03  0.7818609E-02  0.1011136E+00
        2   -1    0    0  501    0  0.00000000000E+00  0.00000000000E+00  0.13247729198E+04  0.13247729198E+04  0.25500000920E-02 0.  1.
       -2   -1    0    0    0  501  0.00000000000E+00  0.00000000000E+00 -0.49133270603E+02  0.49133270669E+02  0.25500000920E-02 0. -1.
    10030    2    1    2    0    0  0.00000000000E+00  0.00000000000E+00  0.12756396492E+04  0.13739061905E+04  0.51025650963E+03 0.  0.
        2    1    3    3  502    0 -0.18720931225E+03 -0.17198284097E+03  0.69588236570E+03  0.74086280179E+03  0.25500000920E-02 0.  1.
       -2    1    3    3    0  502  0.18720931225E+03  0.17198284097E+03  0.57975728351E+03  0.63304338869E+03  0.25500000920E-02 0. -1.
</event>
<event>
 5   0  0.1191894E-01  0.5003862E+03  0.7818609E-02  0.1013678E+00
       -2   -1    0    0    0  501  0.00000000000E+00  0.00000000000E+00  0.91116097491E+02  0.91116097527E+02  0.25500000920E-02 0. -1.
        2   -1    0    0  501    0  0.00000000000E+00  0.00000000000E+00 -0.68699824079E+03  0.68699824080E+03  0.25500000920E-02 0.  1.
    10030    2    1    2    0    0  0.00000000000E+00  0.00000000000E+00 -0.59588214330E+03  0.77811433832E+03  0.50038624561E+03 0.  0.
        3    1    3    3  502    0 -0.13413707425E+03  0.12458647393E+03 -0.32755115568E+02  0.18597702001E+03  0.10100000352E+00 0. -1.
       -3    1    3    3    0  502  0.13413707425E+03 -0.12458647393E+03 -0.56312702773E+03  0.59213731831E+03  0.10100000352E+00 0.  1.
</event>
<event>
 5   0  0.7781754E-02  0.5030278E+03  0.7818609E-02  0.1012992E+00
        1   -1    0    0  501    0  0.00000000000E+00  0.00000000000E+00  0.43987876124E+03  0.43987876127E+03  0.50400001928E-02 0.  1.
       -1   -1    0    0    0  501  0.00000000000E+00  0.00000000000E+00 -0.14381062983E+03  0.14381062992E+03  0.50400001928E-02 0. -1.
    10030    2    1    2    0    0  0.00000000000E+00  0.00000000000E+00  0.29606813141E+03  0.58368939119E+03  0.50302779938E+03 0.  0.
        2    1    3    3  502    0 -0.34900612295E+02  0.11513322246E+03 -0.10825809788E+03  0.16184414545E+03  0.25500000920E-02 0. -1.
       -2    1    3    3    0  502  0.34900612295E+02 -0.11513322246E+03  0.40432622929E+03  0.42184524574E+03  0.25500000920E-02 0.  1.
</event>
<event>
 5   0  0.1231822E-01  0.5078752E+03  0.7818609E-02  0.1011744E+00
       -2   -1    0    0    0  501  0.00000000000E+00  0.00000000000E+00  0.15830703684E+03  0.15830703686E+03  0.25500000920E-02 0.  1.
        2   -1    0    0  501    0  0.00000000000E+00  0.00000000000E+00 -0.40733701520E+03  0.40733701521E+03  0.25500000920E-02 0. -1.
    10030    2    1    2    0    0  0.00000000000E+00  0.00000000000E+00 -0.24902997836E+03  0.56564405206E+03  0.50787524404E+03 0.  0.
        1    1    3    3  502    0 -0.12094411028E+03 -0.36221835655E+02 -0.36990541449E+03  0.39085740991E+03  0.50400001928E-02 0. -1.
       -1    1    3    3    0  502  0.12094411028E+03  0.36221835655E+02  0.12087543613E+03  0.17478664215E+03  0.50400001928E-02 0.  1.
</event>
<event>
 5   0  0.7416638E-02  0.4724265E+03  0.7818609E-02  0.1021238E+00
       -1   -1    0    0    0  501  0.00000000000E+00  0.00000000000E+00  0.78435095088E+02  0.78435095250E+02  0.50400001928E-02 0. -1.
        1   -1    0    0  501    0  0.00000000000E+00  0.00000000000E+00 -0.71137409724E+03  0.71137409726E+03  0.50400001928E-02 0.  1.
    10030    2    1    2    0    0  0.00000000000E+00  0.00000000000E+00 -0.63293900215E+03  0.78980919251E+03  0.47242648119E+03 0.  0.
        1    1    3    3  502    0  0.64797259863E+02 -0.15478188673E+02  0.62403662934E+02  0.91282399089E+02  0.50400001928E-02 0. -1.
       -1    1    3    3    0  502 -0.64797259863E+02  0.15478188673E+02 -0.69534266508E+03  0.69852679342E+03  0.50400001928E-02 0.  1.
</event>
<event>
 5   0  0.7531632E-02  0.5004515E+03  0.7818609E-02  0.1013661E+00
        1   -1    0    0  501    0  0.00000000000E+00  0.00000000000E+00  0.74798781572E+03  0.74798781574E+03  0.50400001928E-02 0.  1.
       -1   -1    0    0    0  501  0.00000000000E+00  0.00000000000E+00 -0.83708468714E+02  0.83708468865E+02  0.50400001928E-02 0. -1.
    10030    2    1    2    0    0  0.00000000000E+00  0.00000000000E+00  0.66427934701E+03  0.83169628460E+03  0.50045145515E+03 0.  0.
        3    1    3    3  502    0 -0.18572229064E+03 -0.24985841971E+02  0.60771245809E+03  0.63594929315E+03  0.10100000352E+00 0.  1.
       -3    1    3    3    0  502  0.18572229064E+03  0.24985841971E+02  0.56566888921E+02  0.19574699146E+03  0.10100000352E+00 0. -1.
</event>
<event>
 5   0  0.7781754E-02  0.4977714E+03  0.7818609E-02  0.1014362E+00
       -1   -1    0    0    0  501  0.00000000000E+00  0.00000000000E+00  0.12763824381E+03  0.12763824391E+03  0.50400001928E-02 0. -1.
        1   -1    0    0  501    0  0.00000000000E+00  0.00000000000E+00 -0.48530971683E+03  0.48530971686E+03  0.50400001928E-02 0.  1.
    10030    2    1    2    0    0  0.00000000000E+00  0.00000000000E+00 -0.35767147302E+03  0.61294796077E+03  0.49777135314E+03 0.  0.
        2    1    3    3  502    0 -0.85918961104E+02 -0.87287406183E+02 -0.44563139583E+03  0.46215635894E+03  0.25500000920E-02 0.  1.
       -2    1    3    3    0  502  0.85918961104E+02  0.87287406183E+02  0.87959922811E+02  0.15079160183E+03  0.25500000920E-02 0. -1.
</event>
<event>
 5   0  0.1243803E-01  0.4899539E+03  0.7818609E-02  0.1016435E+00
        2   -1    0    0  501    0  0.00000000000E+00  0.00000000000E+00  0.12760018241E+04  0.12760018241E+04  0.25500000920E-02 0.  1.
       -2   -1    0    0    0  501  0.00000000000E+00  0.00000000000E+00 -0.47032618591E+02  0.47032618661E+02  0.25500000920E-02 0. -1.
    10030    2    1    2    0    0  0.00000000000E+00  0.00000000000E+00  0.12289692055E+04  0.13230344428E+04  0.48995390462E+03 0.  0.
        4    1    3    3  502    0 -0.78723328148E+02 -0.17921857953E+03  0.21674385613E+03  0.29205508677E+03  0.12699999809E+01 0. -1.
       -4    1    3    3    0  502  0.78723328148E+02  0.17921857953E+03  0.10122253494E+04  0.10309793560E+04  0.12699999809E+01 0.  1.
</event>
<event>
 5   0  0.7531632E-02  0.4985946E+03  0.7818609E-02  0.1014146E+00
       -1   -1    0    0    0  501  0.00000000000E+00  0.00000000000E+00  0.33292663084E+03  0.33292663088E+03  0.50400001928E-02 0. -1.
        1   -1    0    0  501    0  0.00000000000E+00  0.00000000000E+00 -0.18667516070E+03  0.18667516076E+03  0.50400001928E-02 0.  1.
    10030    2    1    2    0    0  0.00000000000E+00  0.00000000000E+00  0.14625147014E+03  0.51960179164E+03  0.49859455408E+03 0.  0.
        3    1    3    3  502    0 -0.24380910119E+02  0.15215847045E+03 -0.13109640361E+03  0.20231882302E+03  0.10100000352E+00 0.  1.
       -3    1    3    3    0  502  0.24380910119E+02 -0.15215847045E+03  0.27734787375E+03  0.31728296863E+03  0.10100000352E+00 0. -1.
</event>
<event>
 5   0  0.1211345E-01  0.5028015E+03  0.7818609E-02  0.1013050E+00
        2   -1    0    0  501    0  0.00000000000E+00  0.00000000000E+00  0.11286363089E+04  0.11286363089E+04  0.25500000920E-02 0.  1.
       -2   -1    0    0    0  501  0.00000000000E+00  0.00000000000E+00 -0.55998840642E+02  0.55998840700E+02  0.25500000920E-02 0. -1.
    10030    2    1    2    0    0  0.00000000000E+00  0.00000000000E+00  0.10726374683E+04  0.11846351496E+04  0.50280145124E+03 0.  0.
        5    1    3    3  502    0  0.22544742545E+03 -0.11054679971E+03  0.56350028970E+03  0.61692933393E+03  0.46999998093E+01 0.  1.
       -5    1    3    3    0  502 -0.22544742545E+03  0.11054679971E+03  0.50913717857E+03  0.56770581569E+03  0.46999998093E+01 0. -1.
</event>
<event>
 5   0  0.7531632E-02  0.4994800E+03  0.7818609E-02  0.1013915E+00
        1   -1    0    0  501    0  0.00000000000E+00  0.00000000000E+00  0.20537018485E+03  0.20537018491E+03  0.50400001928E-02 0.  1.
       -1   -1    0    0    0  501  0.00000000000E+00  0.00000000000E+00 -0.30369584930E+03  0.30369584934E+03  0.50400001928E-02 0. -1.
    10030    2    1    2    0    0  0.00000000000E+00  0.00000000000E+00 -0.98325664456E+02  0.50906603425E+03  0.49948002056E+03 0.  0.
        3    1    3    3  502    0 -0.85964083139E+02 -0.45392355328E+02 -0.28362079477E+03  0.29981836991E+03  0.10100000352E+00 0. -1.
       -3    1    3    3    0  502  0.85964083139E+02  0.45392355328E+02  0.18529513031E+03  0.20924766434E+03  0.10100000352E+00 0.  1.
</event>
<event>
 5   0  0.1231822E-01  0.4976897E+03  0.7818609E-02  0.1014384E+00
        2   -1    0    0  501    0  0.00000000000E+00  0.00000000000E+00  0.41646665078E+03  0.41646665079E+03  0.25500000920E-02 0.  1.
       -2   -1    0    0    0  501  0.00000000000E+00  0.00000000000E+00 -0.14868839725E+03  0.14868839727E+03  0.25500000920E-02 0. -1.
    10030    2    1    2    0    0  0.00000000000E+00  0.00000000000E+00  0.26777825353E+03  0.56515504805E+03  0.49768969778E+03 0.  0.
        1    1    3    3  502    0 -0.37794309141E+02  0.19331797408E+03  0.30656666085E+03  0.36439452037E+03  0.50400001928E-02 0.  1.
       -1    1    3    3    0  502  0.37794309141E+02 -0.19331797408E+03 -0.38788407317E+02  0.20076052768E+03  0.50400001928E-02 0. -1.
</event>
<event>
 5   0  0.7531632E-02  0.4882245E+03  0.7818609E-02  0.1016899E+00
        1   -1    0    0  501    0  0.00000000000E+00  0.00000000000E+00  0.57984673558E+03  0.57984673560E+03  0.50400001928E-02 0.  1.
       -1   -1    0    0    0  501  0.00000000000E+00  0.00000000000E+00 -0.10276988473E+03  0.10276988485E+03  0.50400001928E-02 0. -1.
    10030    2    1    2    0    0  0.00000000000E+00  0.00000000000E+00  0.47707685085E+03  0.68261662046E+03  0.48822446570E+03 0.  0.
        3    1    3    3  502    0 -0.13109564837E+02  0.19248013953E+03  0.44765732928E+03  0.48746031579E+03  0.10100000352E+00 0.  1.
       -3    1    3    3    0  502  0.13109564837E+02 -0.19248013953E+03  0.29419521567E+02  0.19515630467E+03  0.10100000352E+00 0. -1.
</event>
<event>
 5   0  0.1211345E-01  0.4987405E+03  0.7818609E-02  0.1014108E+00
        2   -1    0    0  501    0  0.00000000000E+00  0.00000000000E+00  0.91466329767E+03  0.91466329767E+03  0.25500000920E-02 0.  1.
       -2   -1    0    0    0  501  0.00000000000E+00  0.00000000000E+00 -0.67987348612E+02  0.67987348660E+02  0.25500000920E-02 0. -1.
    10030    2    1    2    0    0  0.00000000000E+00  0.00000000000E+00  0.84667594906E+03  0.98265064633E+03  0.49874054380E+03 0.  0.
        5    1    3    3  502    0  0.22548098242E+02 -0.12872897547E+03  0.84168346904E+03  0.85178208358E+03  0.46999998093E+01 0.  1.
       -5    1    3    3    0  502 -0.22548098242E+02  0.12872897547E+03  0.49924800165E+01  0.13086856275E+03  0.46999998093E+01 0. -1.
</event>
<event>
 5   0  0.1191894E-01  0.4995633E+03  0.7818609E-02  0.1013893E+00
        2   -1    0    0  501    0  0.00000000000E+00  0.00000000000E+00  0.93003779341E+02  0.93003779376E+02  0.25500000920E-02 0. -1.
       -2   -1    0    0    0  501  0.00000000000E+00  0.00000000000E+00 -0.67084220279E+03  0.67084220279E+03  0.25500000920E-02 0.  1.
    10030    2    1    2    0    0  0.00000000000E+00  0.00000000000E+00 -0.57783842345E+03  0.76384598217E+03  0.49956325011E+03 0.  0.
        3    1    3    3  502    0  0.10779046196E+03  0.21281467361E+03 -0.17570939692E+03  0.29628140570E+03  0.10100000352E+00 0. -1.
       -3    1    3    3    0  502 -0.10779046196E+03 -0.21281467361E+03 -0.40212902652E+03  0.46756457647E+03  0.10100000352E+00 0.  1.
</event>
<event>
 5   0  0.5006750E-02  0.5056439E+03  0.7818609E-02  0.1012316E+00
       -3   -1    0    0    0  501  0.00000000000E+00  0.00000000000E+00  0.28773347405E+03  0.28773349178E+03  0.10100000352E+00 0.  1.
        3   -1    0    0  501    0  0.00000000000E+00  0.00000000000E+00 -0.22214632392E+03  0.22214634688E+03  0.10100000352E+00 0. -1.
    10030    2    1    2    0    0  0.00000000000E+00  0.00000000000E+00  0.65587150130E+02  0.50987983867E+03  0.50564392176E+03 0.  0.
        4    1    3    3  502    0  0.30235323496E+01  0.10987638455E+03  0.26237468304E+03  0.28447152551E+03  0.12699999809E+01 0.  1.
       -4    1    3    3    0  502 -0.30235323496E+01 -0.10987638455E+03 -0.19678753291E+03  0.22540831315E+03  0.12699999809E+01 0. -1.
</event>
<event>
 5   0  0.1191894E-01  0.4995111E+03  0.7818609E-02  0.1013907E+00
        2   -1    0    0  501    0  0.00000000000E+00  0.00000000000E+00  0.15483007280E+03  0.15483007282E+03  0.25500000920E-02 0. -1.
       -2   -1    0    0    0  501  0.00000000000E+00  0.00000000000E+00 -0.40287932384E+03  0.40287932385E+03  0.25500000920E-02 0.  1.
    10030    2    1    2    0    0  0.00000000000E+00  0.00000000000E+00 -0.24804925104E+03  0.55770939667E+03  0.49951110117E+03 0.  0.
        3    1    3    3  502    0  0.84293180562E+02  0.12450485914E+03 -0.34668667759E+03  0.37788683869E+03  0.10100000352E+00 0.  1.
       -3    1    3    3    0  502 -0.84293180562E+02 -0.12450485914E+03  0.98637426547E+02  0.17982255797E+03  0.10100000352E+00 0. -1.
</event>
<event>
 5   0  0.7812547E-02  0.4992304E+03  0.7818609E-02  0.1013980E+00
       -1   -1    0    0    0  501  0.00000000000E+00  0.00000000000E+00  0.99265725491E+02  0.99265725619E+02  0.50400001928E-02 0.  1.
        1   -1    0    0  501    0  0.00000000000E+00  0.00000000000E+00 -0.62768648929E+03  0.62768648932E+03  0.50400001928E-02 0. -1.
    10030    2    1    2    0    0  0.00000000000E+00  0.00000000000E+00 -0.52842076380E+03  0.72695221493E+03  0.49923042694E+03 0.  0.
        4    1    3    3  502    0 -0.24858528592E+03 -0.26385671019E+01 -0.29691813226E+03  0.38725133515E+03  0.12699999809E+01 0.  1.
       -4    1    3    3    0  502  0.24858528592E+03  0.26385671019E+01 -0.23150263155E+03  0.33970087978E+03  0.12699999809E+01 0. -1.
</event>
<event>
 5   0  0.7812547E-02  0.4978783E+03  0.7818609E-02  0.1014334E+00
        1   -1    0    0  501    0  0.00000000000E+00  0.00000000000E+00  0.41531773225E+03  0.41531773228E+03  0.50400001928E-02 0. -1.
       -1   -1    0    0    0  501  0.00000000000E+00  0.00000000000E+00 -0.14921276217E+03  0.14921276226E+03  0.50400001928E-02 0.  1.
    10030    2    1    2    0    0  0.00000000000E+00  0.00000000000E+00  0.26610497007E+03  0.56453049453E+03  0.49787832265E+03 0.  0.
        4    1    3    3  502    0 -0.11987688057E+03  0.20618508213E+03  0.21391864503E+03  0.32038344866E+03  0.12699999809E+01 0. -1.
       -4    1    3    3    0  502  0.11987688057E+03 -0.20618508213E+03  0.52186325049E+02  0.24414704587E+03  0.12699999809E+01 0.  1.
</event>
<event>
 5   0  0.7416638E-02  0.4968359E+03  0.7818609E-02  0.1014608E+00
        1   -1    0    0  501    0  0.00000000000E+00  0.00000000000E+00  0.17492976983E+03  0.17492976991E+03  0.50400001928E-02 0. -1.
       -1   -1    0    0    0  501  0.00000000000E+00  0.00000000000E+00 -0.35277852849E+03  0.35277852853E+03  0.50400001928E-02 0.  1.
    10030    2    1    2    0    0  0.00000000000E+00  0.00000000000E+00 -0.17784875866E+03  0.52770829843E+03  0.49683585547E+03 0.  0.
        1    1    3    3  502    0  0.22914297614E+03 -0.67575318984E+02 -0.16585525202E+02  0.23947443897E+03  0.50400001928E-02 0. -1.
       -1    1    3    3    0  502 -0.22914297614E+03  0.67575318984E+02 -0.16126323346E+03  0.28823385946E+03  0.50400001928E-02 0.  1.
</event>
<event>
 5   0  0.7602288E-02  0.4985382E+03  0.7818609E-02  0.1014161E+00
        1   -1    0    0  501    0  0.00000000000E+00  0.00000000000E+00  0.18204636848E+04  0.18204636849E+04  0.50400001928E-02 0. -1.
       -1   -1    0    0    0  501  0.00000000000E+00  0.00000000000E+00 -0.34131464587E+02  0.34131464959E+02  0.50400001928E-02 0.  1.
    10030    2    1    2    0    0  0.00000000000E+00  0.00000000000E+00  0.17863322203E+04  0.18545951498E+04  0.49853823180E+03 0.  0.
        5    1    3    3  502    0 -0.15237252207E+03  0.11455940909E+01  0.15950811551E+03  0.22064366471E+03  0.46999998093E+01 0.  1.
       -5    1    3    3    0  502  0.15237252207E+03 -0.11455940909E+01  0.16268241047E+04  0.16339514851E+04  0.46999998093E+01 0. -1.
</event>
<event>
 5   0  0.7531632E-02  0.5011732E+03  0.7818609E-02  0.1013473E+00
        1   -1    0    0  501    0  0.00000000000E+00  0.00000000000E+00  0.38213771234E+03  0.38213771238E+03  0.50400001928E-02 0. -1.
       -1   -1    0    0    0  501  0.00000000000E+00  0.00000000000E+00 -0.16432202727E+03  0.16432202735E+03  0.50400001928E-02 0.  1.
    10030    2    1    2    0    0  0.00000000000E+00  0.00000000000E+00  0.21781568507E+03  0.54645973972E+03  0.50117319808E+03 0.  0.
        3    1    3    3  502    0  0.45979859370E+02 -0.22080523768E+03  0.22797473595E+03  0.32068924349E+03  0.10100000352E+00 0. -1.
       -3    1    3    3    0  502 -0.45979859370E+02  0.22080523768E+03 -0.10159050878E+02  0.22577049624E+03  0.10100000352E+00 0.  1.
</event>
<event>
 5   0  0.7781754E-02  0.4983082E+03  0.7818609E-02  0.1014221E+00
        1   -1    0    0  501    0  0.00000000000E+00  0.00000000000E+00  0.10026724868E+03  0.10026724881E+03  0.50400001928E-02 0. -1.
       -1   -1    0    0    0  501  0.00000000000E+00  0.00000000000E+00 -0.61912313942E+03  0.61912313944E+03  0.50400001928E-02 0.  1.
    10030    2    1    2    0    0  0.00000000000E+00  0.00000000000E+00 -0.51885589074E+03  0.71939038825E+03  0.49830823328E+03 0.  0.
        2    1    3    3  502    0  0.75919265897E+02 -0.10347050982E+03 -0.56773720634E+03  0.58206135141E+03  0.25500000920E-02 0.  1.
       -2    1    3    3    0  502 -0.75919265897E+02  0.10347050982E+03  0.48881315601E+02  0.13732903684E+03  0.25500000920E-02 0. -1.
</event>
<event>
 5   0  0.5006750E-02  0.4922178E+03  0.7818609E-02  0.1015830E+00
       -4   -1    0    0    0  501  0.00000000000E+00  0.00000000000E+00  0.29889921593E+03  0.29890191398E+03  0.12699999809E+01 0.  1.
        4   -1    0    0  501    0  0.00000000000E+00  0.00000000000E+00 -0.20263661193E+03  0.20264059168E+03  0.12699999809E+01 0. -1.
    10030    2    1    2    0    0  0.00000000000E+00  0.00000000000E+00  0.96262603999E+02  0.50154250566E+03  0.49221783395E+03 0.  0.
        5    1    3    3  502    0  0.16290811779E+03 -0.17341624443E+03 -0.15788752224E+02  0.23850287917E+03  0.46999998093E+01 0. -1.
       -5    1    3    3    0  502 -0.16290811779E+03  0.17341624443E+03  0.11205135622E+03  0.26303962649E+03  0.46999998093E+01 0.  1.
</event>
<event>
 5   0  0.1279188E-01  0.4999402E+03  0.7818609E-02  0.1013795E+00
        2   -1    0    0  501    0  0.00000000000E+00  0.00000000000E+00  0.78418148218E+03  0.78418148219E+03  0.25500000920E-02 0. -1.
       -2   -1    0    0    0  501  0.00000000000E+00  0.00000000000E+00 -0.79681889056E+02  0.79681889097E+02  0.25500000920E-02 0.  1.
    10030    2    1    2    0    0  0.00000000000E+00  0.00000000000E+00  0.70449959313E+03  0.86386337128E+03  0.49994024396E+03 0.  0.
        2    1    3    3  502    0  0.12539709323E+03 -0.13731832131E+03  0.63605751367E+02  0.19653611366E+03  0.25500000920E-02 0.  1.
       -2    1    3    3    0  502 -0.12539709323E+03  0.13731832131E+03  0.64089384176E+03  0.66732725763E+03  0.25500000920E-02 0. -1.
</event>
<event>
 5   0  0.7531632E-02  0.5013243E+03  0.7818609E-02  0.1013434E+00
       -1   -1    0    0    0  501  0.00000000000E+00  0.00000000000E+00  0.39861581313E+03  0.39861581316E+03  0.50400001928E-02 0.  1.
        1   -1    0    0  501    0  0.00000000000E+00  0.00000000000E+00 -0.15762424286E+03  0.15762424294E+03  0.50400001928E-02 0. -1.
    10030    2    1    2    0    0  0.00000000000E+00  0.00000000000E+00  0.24099157027E+03  0.55624005610E+03  0.50132430928E+03 0.  0.
        3    1    3    3  502    0 -0.24207984928E+03  0.15282647679E+02  0.50363530110E+02  0.24773515720E+03  0.10100000352E+00 0.  1.
       -3    1    3    3    0  502  0.24207984928E+03 -0.15282647679E+02  0.19062804016E+03  0.30850489890E+03  0.10100000352E+00 0. -1.
</event>
<event>
 5   0  0.7416638E-02  0.5031840E+03  0.7818609E-02  0.1012951E+00
       -1   -1    0    0    0  501  0.00000000000E+00  0.00000000000E+00  0.71972003590E+02  0.71972003766E+02  0.50400001928E-02 0.  1.
        1   -1    0    0  501    0  0.00000000000E+00  0.00000000000E+00 -0.87948841512E+03  0.87948841514E+03  0.50400001928E-02 0. -1.
    10030    2    1    2    0    0  0.00000000000E+00  0.00000000000E+00 -0.80751641153E+03  0.95146041890E+03  0.50318403576E+03 0.  0.
        1    1    3    3  502    0 -0.90964209757E+02 -0.45920453517E+02 -0.83872367642E+03  0.84489086924E+03  0.50400001928E-02 0. -1.
       -1    1    3    3    0  502  0.90964209757E+02  0.45920453517E+02  0.31207264891E+02  0.10656954966E+03  0.50400001928E-02 0.  1.
</event>
<event>
 5   0  0.1279188E-01  0.4980295E+03  0.7818609E-02  0.1014295E+00
       -2   -1    0    0    0  501  0.00000000000E+00  0.00000000000E+00  0.60841931266E+02  0.60841931319E+02  0.25500000920E-02 0.  1.
        2   -1    0    0  501    0  0.00000000000E+00  0.00000000000E+00 -0.10191711855E+04  0.10191711855E+04  0.25500000920E-02 0. -1.
    10030    2    1    2    0    0  0.00000000000E+00  0.00000000000E+00 -0.95832925418E+03  0.10800131168E+04  0.49802949007E+03 0.  0.
        2    1    3    3  502    0 -0.77141636832E+02 -0.92090959181E+02 -0.61534197276E+01  0.12028899150E+03  0.25500000920E-02 0.  1.
       -2    1    3    3    0  502  0.77141636832E+02  0.92090959181E+02 -0.95217583446E+03  0.95972412527E+03  0.25500000920E-02 0. -1.
</event>
<event>
 5   0  0.7781754E-02  0.4921896E+03  0.7818609E-02  0.1015838E+00
       -1   -1    0    0    0  501  0.00000000000E+00  0.00000000000E+00  0.49475809465E+03  0.49475809468E+03  0.50400001928E-02 0.  1.
        1   -1    0    0  501    0  0.00000000000E+00  0.00000000000E+00 -0.12240861295E+03  0.12240861305E+03  0.50400001928E-02 0. -1.
    10030    2    1    2    0    0  0.00000000000E+00  0.00000000000E+00  0.37234948171E+03  0.61716670773E+03  0.49218960636E+03 0.  0.
        2    1    3    3  502    0 -0.91302661080E+02 -0.17174646968E+03  0.37522017847E+03  0.42263838929E+03  0.25500000920E-02 0.  1.
       -2    1    3    3    0  502  0.91302661080E+02  0.17174646968E+03 -0.28706967652E+01  0.19452831844E+03  0.25500000920E-02 0. -1.
</event>
<event>
 5   0  0.7531632E-02  0.5077365E+03  0.7818609E-02  0.1011779E+00
       -1   -1    0    0    0  501  0.00000000000E+00  0.00000000000E+00  0.20094305269E+03  0.20094305275E+03  0.50400001928E-02 0.  1.
        1   -1    0    0  501    0  0.00000000000E+00  0.00000000000E+00 -0.32073306242E+03  0.32073306246E+03  0.50400001928E-02 0. -1.
    10030    2    1    2    0    0  0.00000000000E+00  0.00000000000E+00 -0.11979000973E+03  0.52167611521E+03  0.50773646978E+03 0.  0.
        3    1    3    3  502    0 -0.10025081792E+03 -0.14437900130E+03  0.12831028191E+03  0.21762137109E+03  0.10100000352E+00 0.  1.
       -3    1    3    3    0  502  0.10025081792E+03  0.14437900130E+03 -0.24810029164E+03  0.30405474412E+03  0.10100000352E+00 0. -1.
</event>
<event>
 5   0  0.1231822E-01  0.5055371E+03  0.7818609E-02  0.1012344E+00
        2   -1    0    0  501    0  0.00000000000E+00  0.00000000000E+00  0.56202918429E+03  0.56202918430E+03  0.25500000920E-02 0. -1.
       -2   -1    0    0    0  501  0.00000000000E+00  0.00000000000E+00 -0.11368080152E+03  0.11368080155E+03  0.25500000920E-02 0.  1.
    10030    2    1    2    0    0  0.00000000000E+00  0.00000000000E+00  0.44834838277E+03  0.67570998585E+03  0.50553705368E+03 0.  0.
        1    1    3    3  502    0 -0.25184777516E+03  0.15683769075E+02  0.24393832509E+03  0.35096892874E+03  0.50400001928E-02 0.  1.
       -1    1    3    3    0  502  0.25184777516E+03 -0.15683769075E+02  0.20441005768E+03  0.32474105711E+03  0.50400001928E-02 0. -1.
</event>
<event>
 5   0  0.1279188E-01  0.5010384E+03  0.7818609E-02  0.1013508E+00
        2   -1    0    0  501    0  0.00000000000E+00  0.00000000000E+00  0.66568632294E+03  0.66568632295E+03  0.25500000920E-02 0.  1.
       -2   -1    0    0    0  501  0.00000000000E+00  0.00000000000E+00 -0.94278432698E+02  0.94278432732E+02  0.25500000920E-02 0. -1.
    10030    2    1    2    0    0  0.00000000000E+00  0.00000000000E+00  0.57140789024E+03  0.75996475568E+03  0.50103837462E+03 0.  0.
        2    1    3    3  502    0  0.12700536071E+03  0.10519037001E+03  0.57174656032E+03  0.59505420327E+03  0.25500000920E-02 0.  1.
       -2    1    3    3    0  502 -0.12700536071E+03 -0.10519037001E+03 -0.33867007605E+00  0.16491055240E+03  0.25500000920E-02 0. -1.
</event>
<event>
 5   0  0.1243803E-01  0.5002688E+03  0.7818609E-02  0.1013709E+00
       -2   -1    0    0    0  501  0.00000000000E+00  0.00000000000E+00  0.18846170452E+03  0.18846170453E+03  0.25500000920E-02 0.  1.
        2   -1    0    0  501    0  0.00000000000E+00  0.00000000000E+00 -0.33198906576E+03  0.33198906577E+03  0.25500000920E-02 0. -1.
    10030    2    1    2    0    0  0.00000000000E+00  0.00000000000E+00 -0.14352736124E+03  0.52045077030E+03  0.50026882861E+03 0.  0.
        4    1    3    3  502    0  0.12998928525E+03 -0.14140419360E+03  0.94929047728E+02  0.21425568196E+03  0.12699999809E+01 0.  1.
       -4    1    3    3    0  502 -0.12998928525E+03  0.14140419360E+03 -0.23845640897E+03  0.30619508835E+03  0.12699999809E+01 0. -1.
</event>
<event>
 5   0  0.1211345E-01  0.5056703E+03  0.7818609E-02  0.1012309E+00
        2   -1    0    0  501    0  0.00000000000E+00  0.00000000000E+00  0.16269116742E+03  0.16269116744E+03  0.25500000920E-02 0.  1.
       -2   -1    0    0    0  501  0.00000000000E+00  0.00000000000E+00 -0.39292606712E+03  0.39292606713E+03  0.25500000920E-02 0. -1.
    10030    2    1    2    0    0  0.00000000000E+00  0.00000000000E+00 -0.23023489970E+03  0.55561723457E+03  0.50567025057E+03 0.  0.
        5    1    3    3  502    0  0.78358651975E+02  0.16841708168E+03 -0.30351509120E+03  0.35587623175E+03  0.46999998093E+01 0. -1.
       -5    1    3    3    0  502 -0.78358651975E+02 -0.16841708168E+03  0.73280191506E+02  0.19974100282E+03  0.46999998093E+01 0.  1.
</event>
<event>
 5   0  0.1243803E-01  0.4821524E+03  0.7818609E-02  0.1018545E+00
       -2   -1    0    0    0  501  0.00000000000E+00  0.00000000000E+00  0.93601709192E+02  0.93601709227E+02  0.25500000920E-02 0. -1.
        2   -1    0    0  501    0  0.00000000000E+00  0.00000000000E+00 -0.62090471010E+03  0.62090471011E+03  0.25500000920E-02 0.  1.
    10030    2    1    2    0    0  0.00000000000E+00  0.00000000000E+00 -0.52730300091E+03  0.71450641933E+03  0.48215243285E+03 0.  0.
        4    1    3    3  502    0 -0.22202553895E+03  0.46031281206E+02 -0.38496833837E+03  0.44678457141E+03  0.12699999809E+01 0.  1.
       -4    1    3    3    0  502  0.22202553895E+03 -0.46031281206E+02 -0.14233466254E+03  0.26772184793E+03  0.12699999809E+01 0. -1.
</event>
<event>
 5   0  0.1231822E-01  0.4972913E+03  0.7818609E-02  0.1014488E+00
        2   -1    0    0  501    0  0.00000000000E+00  0.00000000000E+00  0.92968213467E+02  0.92968213502E+02  0.25500000920E-02 0.  1.
       -2   -1    0    0    0  501  0.00000000000E+00  0.00000000000E+00 -0.66500865170E+03  0.66500865170E+03  0.25500000920E-02 0. -1.
    10030    2    1    2    0    0  0.00000000000E+00  0.00000000000E+00 -0.57204043823E+03  0.75797686520E+03  0.49729132831E+03 0.  0.
        1    1    3    3  502    0 -0.14931162773E+03  0.17542823127E+03 -0.14339740313E+03  0.27135187811E+03  0.50400001928E-02 0.  1.
       -1    1    3    3    0  502  0.14931162773E+03 -0.17542823127E+03 -0.42864303510E+03  0.48662498709E+03  0.50400001928E-02 0. -1.
</event>
<event>
 5   0  0.7781754E-02  0.5054157E+03  0.7818609E-02  0.1012375E+00
       -1   -1    0    0    0  501  0.00000000000E+00  0.00000000000E+00  0.37958020058E+03  0.37958020061E+03  0.50400001928E-02 0.  1.
        1   -1    0    0  501    0  0.00000000000E+00  0.00000000000E+00 -0.16824177965E+03  0.16824177972E+03  0.50400001928E-02 0. -1.
    10030    2    1    2    0    0  0.00000000000E+00  0.00000000000E+00  0.21133842093E+03  0.54782198033E+03  0.50541566455E+03 0.  0.
        2    1    3    3  502    0 -0.20507813974E+03  0.66726844694E+01 -0.54219209685E+02  0.21222933544E+03  0.25500000920E-02 0. -1.
       -2    1    3    3    0  502  0.20507813974E+03 -0.66726844694E+01  0.26555763062E+03  0.33559264489E+03  0.25500000920E-02 0.  1.
</event>
<event>
 5   0  0.1279188E-01  0.4972023E+03  0.7818609E-02  0.1014512E+00
       -2   -1    0    0    0  501  0.00000000000E+00  0.00000000000E+00  0.20833551108E+03  0.20833551110E+03  0.25500000920E-02 0.  1.
        2   -1    0    0  501    0  0.00000000000E+00  0.00000000000E+00 -0.29664900232E+03  0.29664900233E+03  0.25500000920E-02 0. -1.
    10030    2    1    2    0    0  0.00000000000E+00  0.00000000000E+00 -0.88313491239E+02  0.50498451343E+03  0.49720225872E+03 0.  0.
        2    1    3    3  502    0  0.17843511619E+03 -0.76246920758E+02 -0.20199129574E+03  0.28009492529E+03  0.25500000920E-02 0. -1.
       -2    1    3    3    0  502 -0.17843511619E+03  0.76246920758E+02  0.11367780450E+03  0.22488958814E+03  0.25500000920E-02 0.  1.
</event>
<event>
 5   0  0.1191894E-01  0.4993851E+03  0.7818609E-02  0.1013940E+00
        2   -1    0    0  501    0  0.00000000000E+00  0.00000000000E+00  0.38370318813E+03  0.38370318814E+03  0.25500000920E-02 0. -1.
       -2   -1    0    0    0  501  0.00000000000E+00  0.00000000000E+00 -0.16248595690E+03  0.16248595692E+03  0.25500000920E-02 0.  1.
    10030    2    1    2    0    0  0.00000000000E+00  0.00000000000E+00  0.22121723123E+03  0.54618914506E+03  0.49938514074E+03 0.  0.
        3    1    3    3  502    0  0.23519566253E+03 -0.83113774581E+02  0.98554301605E+02  0.26821234081E+03  0.10100000352E+00 0. -1.
       -3    1    3    3    0  502 -0.23519566253E+03  0.83113774581E+02  0.12266292963E+03  0.27797680425E+03  0.10100000352E+00 0.  1.
</event>
<event>
 5   0  0.1211345E-01  0.4875479E+03  0.7818609E-02  0.1017081E+00
        2   -1    0    0  501    0  0.00000000000E+00  0.00000000000E+00  0.97896359856E+03  0.97896359856E+03  0.25500000920E-02 0.  1.
       -2   -1    0    0    0  501  0.00000000000E+00  0.00000000000E+00 -0.60702712689E+02  0.60702712742E+02  0.25500000920E-02 0. -1.
    10030    2    1    2    0    0  0.00000000000E+00  0.00000000000E+00  0.91826088587E+03  0.10396663113E+04  0.48754793030E+03 0.  0.
        5    1    3    3  502    0 -0.70566343829E+02  0.98958580588E+01  0.95615860340E+03  0.95882162144E+03  0.46999998093E+01 0.  1.
       -5    1    3    3    0  502  0.70566343829E+02 -0.98958580588E+01 -0.37897717525E+02  0.80844689868E+02  0.46999998093E+01 0. -1.
</event>
<event>
 5   0  0.1231822E-01  0.4779076E+03  0.7818609E-02  0.1019712E+00
        2   -1    0    0  501    0  0.00000000000E+00  0.00000000000E+00  0.50100075576E+03  0.50100075576E+03  0.25500000920E-02 0.  1.
       -2   -1    0    0    0  501  0.00000000000E+00  0.00000000000E+00 -0.11396972201E+03  0.11396972204E+03  0.25500000920E-02 0. -1.
    10030    2    1    2    0    0  0.00000000000E+00  0.00000000000E+00  0.38703103375E+03  0.61497047780E+03  0.47790759304E+03 0.  0.
        1    1    3    3  502    0  0.20746177536E+02  0.22931854268E+03  0.11130616101E+03  0.25574686587E+03  0.50400001928E-02 0.  1.
       -1    1    3    3    0  502 -0.20746177536E+02 -0.22931854268E+03  0.27572487273E+03  0.35922361193E+03  0.50400001928E-02 0. -1.
</event>
<event>
 5   0  0.7416638E-02  0.4980139E+03  0.7818609E-02  0.1014299E+00
       -1   -1    0    0    0  501  0.00000000000E+00  0.00000000000E+00  0.17978451231E+03  0.17978451238E+03  0.50400001928E-02 0. -1.
        1   -1    0    0  501    0  0.00000000000E+00  0.00000000000E+00 -0.34488206776E+03  0.34488206780E+03  0.50400001928E-02 0.  1.
    10030    2    1    2    0    0  0.00000000000E+00  0.00000000000E+00 -0.16509755545E+03  0.52466658017E+03  0.49801387283E+03 0.  0.
        1    1    3    3  502    0  0.18503707581E+03  0.85597922903E+02  0.68066462854E+02  0.21493898488E+03  0.50400001928E-02 0. -1.
       -1    1    3    3    0  502 -0.18503707581E+03 -0.85597922903E+02 -0.23316401831E+03  0.30972759530E+03  0.50400001928E-02 0.  1.
</event>
<event>
 5   0  0.1279188E-01  0.4953707E+03  0.7818609E-02  0.1014994E+00
        2   -1    0    0  501    0  0.00000000000E+00  0.00000000000E+00  0.93203611392E+02  0.93203611427E+02  0.25500000920E-02 0. -1.
       -2   -1    0    0    0  501  0.00000000000E+00  0.00000000000E+00 -0.65821518640E+03  0.65821518640E+03  0.25500000920E-02 0.  1.
    10030    2    1    2    0    0  0.00000000000E+00  0.00000000000E+00 -0.56501157501E+03  0.75141879783E+03  0.49537069942E+03 0.  0.
        2    1    3    3  502    0  0.12166256029E+03  0.28036728438E+02  0.41979998245E+02  0.13171999460E+03  0.25500000920E-02 0. -1.
       -2    1    3    3    0  502 -0.12166256029E+03 -0.28036728438E+02 -0.60699157325E+03  0.61969880323E+03  0.25500000920E-02 0.  1.
</event>
<event>
 5   0  0.7531632E-02  0.5005090E+03  0.7818609E-02  0.1013646E+00
        1   -1    0    0  501    0  0.00000000000E+00  0.00000000000E+00  0.74736752045E+03  0.74736752047E+03  0.50400001928E-02 0.  1.
       -1   -1    0    0    0  501  0.00000000000E+00  0.00000000000E+00 -0.83797204858E+02  0.83797205009E+02  0.50400001928E-02 0. -1.
    10030    2    1    2    0    0  0.00000000000E+00  0.00000000000E+00  0.66357031559E+03  0.83116472547E+03  0.50050897808E+03 0.  0.
        3    1    3    3  502    0 -0.14631479073E+03 -0.40887197262E+02  0.15412242009E+01  0.15192816217E+03  0.10100000352E+00 0. -1.
       -3    1    3    3    0  502  0.14631479073E+03  0.40887197262E+02  0.66202909139E+03  0.67923656331E+03  0.10100000352E+00 0.  1.
</event>
<event>
 5   0  0.1211345E-01  0.4975496E+03  0.7818609E-02  0.1014420E+00
       -2   -1    0    0    0  501  0.00000000000E+00  0.00000000000E+00  0.87027394403E+02  0.87027394440E+02  0.25500000920E-02 0.  1.
        2   -1    0    0  501    0  0.00000000000E+00  0.00000000000E+00 -0.71114277903E+03  0.71114277904E+03  0.25500000920E-02 0. -1.
    10030    2    1    2    0    0  0.00000000000E+00  0.00000000000E+00 -0.62411538463E+03  0.79817017348E+03  0.49754960808E+03 0.  0.
        5    1    3    3  502    0 -0.22997030799E+03 -0.23498953470E+02 -0.45933245102E+03  0.51424404122E+03  0.46999998093E+01 0. -1.
       -5    1    3    3    0  502  0.22997030799E+03  0.23498953470E+02 -0.16478293361E+03  0.28392613226E+03  0.46999998093E+01 0.  1.
</event>
<event>
 5   0  0.7781754E-02  0.5262939E+03  0.7818609E-02  0.1007135E+00
        1   -1    0    0  501    0  0.00000000000E+00  0.00000000000E+00  0.17456876434E+03  0.17456876441E+03  0.50400001928E-02 0.  1.
       -1   -1    0    0    0  501  0.00000000000E+00  0.00000000000E+00 -0.39667076947E+03  0.39667076950E+03  0.50400001928E-02 0. -1.
    10030    2    1    2    0    0  0.00000000000E+00  0.00000000000E+00 -0.22210200514E+03  0.57123953391E+03  0.52629393348E+03 0.  0.
        2    1    3    3  502    0 -0.11845057383E+02  0.26120093294E+03 -0.78851122025E+02  0.27310022374E+03  0.25500000920E-02 0. -1.
       -2    1    3    3    0  502  0.11845057383E+02 -0.26120093294E+03 -0.14325088311E+03  0.29813931018E+03  0.25500000920E-02 0.  1.
</event>
<event>
 5   0  0.1243803E-01  0.5001485E+03  0.7818609E-02  0.1013740E+00
        2   -1    0    0  501    0  0.00000000000E+00  0.00000000000E+00  0.28315761819E+04  0.28315761819E+04  0.25500000920E-02 0. -1.
       -2   -1    0    0    0  501  0.00000000000E+00  0.00000000000E+00 -0.22085626739E+02  0.22085626886E+02  0.25500000920E-02 0.  1.
    10030    2    1    2    0    0  0.00000000000E+00  0.00000000000E+00  0.28094905552E+04  0.28536618088E+04  0.50014851734E+03 0.  0.
        4    1    3    3  502    0 -0.12885613031E+03 -0.75144666258E+02  0.25956290192E+03  0.29937457497E+03  0.12699999809E+01 0.  1.
       -4    1    3    3    0  502  0.12885613031E+03  0.75144666258E+02  0.25499276533E+04  0.25542872339E+04  0.12699999809E+01 0. -1.
</event>
<event>
 5   0  0.7416638E-02  0.5066734E+03  0.7818609E-02  0.1012052E+00
       -1   -1    0    0    0  501  0.00000000000E+00  0.00000000000E+00  0.48877265098E+03  0.48877265101E+03  0.50400001928E-02 0. -1.
        1   -1    0    0  501    0  0.00000000000E+00  0.00000000000E+00 -0.13130741558E+03  0.13130741568E+03  0.50400001928E-02 0.  1.
    10030    2    1    2    0    0  0.00000000000E+00  0.00000000000E+00  0.35746523540E+03  0.62008006668E+03  0.50667336083E+03 0.  0.
        1    1    3    3  502    0  0.18708318735E+03  0.14922002876E+03  0.28048503532E+03  0.36869850968E+03  0.50400001928E-02 0. -1.
       -1    1    3    3    0  502 -0.18708318735E+03 -0.14922002876E+03  0.76980200079E+02  0.25138155701E+03  0.50400001928E-02 0.  1.
</event>
<event>
 5   0  0.1231822E-01  0.5014507E+03  0.7818609E-02  0.1013401E+00
        2   -1    0    0  501    0  0.00000000000E+00  0.00000000000E+00  0.14653568645E+04  0.14653568645E+04  0.25500000920E-02 0. -1.
       -2   -1    0    0    0  501  0.00000000000E+00  0.00000000000E+00 -0.42899589540E+02  0.42899589616E+02  0.25500000920E-02 0.  1.
    10030    2    1    2    0    0  0.00000000000E+00  0.00000000000E+00  0.14224572750E+04  0.15082564542E+04  0.50145072770E+03 0.  0.
        1    1    3    3  502    0 -0.20581982358E+02  0.19290684030E+03  0.23350604625E+03  0.30358152232E+03  0.50400001928E-02 0.  1.
       -1    1    3    3    0  502  0.20581982358E+02 -0.19290684030E+03  0.11889512287E+04  0.12046749318E+04  0.50400001928E-02 0. -1.
</event>
<event>
 5   0  0.7812547E-02  0.5022962E+03  0.7818609E-02  0.1013181E+00
        1   -1    0    0  501    0  0.00000000000E+00  0.00000000000E+00  0.14263912047E+04  0.14263912047E+04  0.50400001928E-02 0. -1.
       -1   -1    0    0    0  501  0.00000000000E+00  0.00000000000E+00 -0.44220251602E+02  0.44220251889E+02  0.50400001928E-02 0.  1.
    10030    2    1    2    0    0  0.00000000000E+00  0.00000000000E+00  0.13821709531E+04  0.14706114566E+04  0.50229623997E+03 0.  0.
        4    1    3    3  502    0  0.15032912974E+03 -0.27314877028E+02  0.12746526126E+04  0.12837779580E+04  0.12699999809E+01 0. -1.
       -4    1    3    3    0  502 -0.15032912974E+03  0.27314877028E+02  0.10751834052E+03  0.18683349862E+03  0.12699999809E+01 0.  1.
</event>
<event>
 5   0  0.5006750E-02  0.5156032E+03  0.7818609E-02  0.1009785E+00
        3   -1    0    0  501    0  0.00000000000E+00  0.00000000000E+00  0.11369280670E+03  0.11369285156E+03  0.10100000352E+00 0. -1.
       -3   -1    0    0    0  501  0.00000000000E+00  0.00000000000E+00 -0.58457211725E+03  0.58457212597E+03  0.10100000352E+00 0.  1.
    10030    2    1    2    0    0  0.00000000000E+00  0.00000000000E+00 -0.47087931055E+03  0.69826497754E+03  0.51560319409E+03 0.  0.
        2    1    3    3  502    0  0.15108555366E+03  0.10932159047E+03 -0.47649789551E+03  0.51169160546E+03  0.25500000920E-02 0.  1.
       -2    1    3    3    0  502 -0.15108555366E+03 -0.10932159047E+03  0.56185849579E+01  0.18657337208E+03  0.25500000920E-02 0. -1.
</event>
<event>
 5   0  0.1191894E-01  0.4932165E+03  0.7818609E-02  0.1015565E+00
       -2   -1    0    0    0  501  0.00000000000E+00  0.00000000000E+00  0.18781037010E+03  0.18781037012E+03  0.25500000920E-02 0. -1.
        2   -1    0    0  501    0  0.00000000000E+00  0.00000000000E+00 -0.32381398898E+03  0.32381398899E+03  0.25500000920E-02 0.  1.
    10030    2    1    2    0    0  0.00000000000E+00  0.00000000000E+00 -0.13600361887E+03  0.51162435911E+03  0.49321648440E+03 0.  0.
        3    1    3    3  502    0 -0.20115398927E+03  0.30352617147E+02 -0.21260096112E+03  0.29425055248E+03  0.10100000352E+00 0.  1.
       -3    1    3    3    0  502  0.20115398927E+03 -0.30352617147E+02  0.76597342249E+02  0.21737380662E+03  0.10100000352E+00 0. -1.
</event>
<event>
 5   0  0.7531632E-02  0.4901834E+03  0.7818609E-02  0.1016373E+00
       -1   -1    0    0    0  501  0.00000000000E+00  0.00000000000E+00  0.84583728510E+02  0.84583728660E+02  0.50400001928E-02 0. -1.
        1   -1    0    0  501    0  0.00000000000E+00  0.00000000000E+00 -0.71018319625E+03  0.71018319627E+03  0.50400001928E-02 0.  1.
    10030    2    1    2    0    0  0.00000000000E+00  0.00000000000E+00 -0.62559946774E+03  0.79476692493E+03  0.49018340539E+03 0.  0.
        3    1    3    3  502    0 -0.13438206572E+03 -0.11027093604E+03 -0.32665739526E+02  0.17687645310E+03  0.10100000352E+00 0. -1.
       -3    1    3    3    0  502  0.13438206572E+03  0.11027093604E+03 -0.59293372822E+03  0.61789047183E+03  0.10100000352E+00 0.  1.
</event>
<event>
 5   0  0.1231822E-01  0.4962868E+03  0.7818609E-02  0.1014753E+00
       -2   -1    0    0    0  501  0.00000000000E+00  0.00000000000E+00  0.83991085207E+02  0.83991085246E+02  0.25500000920E-02 0.  1.
        2   -1    0    0  501    0  0.00000000000E+00  0.00000000000E+00 -0.73311528129E+03  0.73311528130E+03  0.25500000920E-02 0. -1.
    10030    2    1    2    0    0  0.00000000000E+00  0.00000000000E+00 -0.64912419609E+03  0.81710636654E+03  0.49628680448E+03 0.  0.
        1    1    3    3  502    0 -0.24628914308E+03  0.27681858550E+02 -0.30436243781E+03  0.39250620488E+03  0.50400001928E-02 0. -1.
       -1    1    3    3    0  502  0.24628914308E+03 -0.27681858550E+02 -0.34476175827E+03  0.42460016166E+03  0.50400001928E-02 0.  1.
</event>
<event>
 5   0  0.7812547E-02  0.5073459E+03  0.7818609E-02  0.1011879E+00
        1   -1    0    0  501    0  0.00000000000E+00  0.00000000000E+00  0.28528457171E+03  0.28528457175E+03  0.50400001928E-02 0. -1.
       -1   -1    0    0    0  501  0.00000000000E+00  0.00000000000E+00 -0.22556409120E+03  0.22556409125E+03  0.50400001928E-02 0.  1.
    10030    2    1    2    0    0  0.00000000000E+00  0.00000000000E+00  0.59720480512E+02  0.51084866301E+03  0.50734585906E+03 0.  0.
        4    1    3    3  502    0 -0.38488126560E+02 -0.25042175659E+03  0.42434462462E+02  0.25689431400E+03  0.12699999809E+01 0. -1.
       -4    1    3    3    0  502  0.38488126560E+02  0.25042175659E+03  0.17286018050E+02  0.25395434901E+03  0.12699999809E+01 0.  1.
</event>
<event>
 5   0  0.1191894E-01  0.4954506E+03  0.7818609E-02  0.1014973E+00
        2   -1    0    0  501    0  0.00000000000E+00  0.00000000000E+00  0.26744300329E+03  0.26744300331E+03  0.25500000920E-02 0. -1.
       -2   -1    0    0    0  501  0.00000000000E+00  0.00000000000E+00 -0.22946133907E+03  0.22946133908E+03  0.25500000920E-02 0.  1.
    10030    2    1    2    0    0  0.00000000000E+00  0.00000000000E+00  0.37981664223E+02  0.49690434239E+03  0.49545062183E+03 0.  0.
        3    1    3    3  502    0 -0.43262298448E+02  0.24084856515E+03 -0.19699055685E+02  0.24549484883E+03  0.10100000352E+00 0. -1.
       -3    1    3    3    0  502  0.43262298448E+02 -0.24084856515E+03  0.57680719908E+02  0.25140949356E+03  0.10100000352E+00 0.  1.
</event>
<event>
 5   0  0.7812547E-02  0.4958784E+03  0.7818609E-02  0.1014860E+00
        1   -1    0    0  501    0  0.00000000000E+00  0.00000000000E+00  0.17529265146E+04  0.17529265146E+04  0.50400001928E-02 0.  1.
       -1   -1    0    0    0  501  0.00000000000E+00  0.00000000000E+00 -0.35069270076E+02  0.35069270438E+02  0.50400001928E-02 0. -1.
    10030    2    1    2    0    0  0.00000000000E+00  0.00000000000E+00  0.17178572446E+04  0.17879957851E+04  0.49587842742E+03 0.  0.
        4    1    3    3  502    0  0.19477905624E+03 -0.10186534536E+03  0.44534188737E+03  0.49663511644E+03  0.12699999809E+01 0. -1.
       -4    1    3    3    0  502 -0.19477905624E+03  0.10186534536E+03  0.12725153572E+04  0.12913606686E+04  0.12699999809E+01 0.  1.
</event>
<event>
 5   0  0.7602288E-02  0.4944667E+03  0.7818609E-02  0.1015233E+00
        1   -1    0    0  501    0  0.00000000000E+00  0.00000000000E+00  0.50833872431E+03  0.50833872434E+03  0.50400001928E-02 0.  1.
       -1   -1    0    0    0  501  0.00000000000E+00  0.00000000000E+00 -0.12024328699E+03  0.12024328709E+03  0.50400001928E-02 0. -1.
    10030    2    1    2    0    0  0.00000000000E+00  0.00000000000E+00  0.38809543732E+03  0.62858201143E+03  0.49446665876E+03 0.  0.
        5    1    3    3  502    0 -0.78101152360E+02 -0.15156949693E+03  0.42155614394E+03  0.45475793000E+03  0.46999998093E+01 0.  1.
       -5    1    3    3    0  502  0.78101152360E+02  0.15156949693E+03 -0.33460706616E+02  0.17382408143E+03  0.46999998093E+01 0. -1.
</event>
<event>
 5   0  0.7812547E-02  0.4969872E+03  0.7818609E-02  0.1014568E+00
       -1   -1    0    0    0  501  0.00000000000E+00  0.00000000000E+00  0.71382271663E+02  0.71382271841E+02  0.50400001928E-02 0.  1.
        1   -1    0    0  501    0  0.00000000000E+00  0.00000000000E+00 -0.86504757198E+03  0.86504757199E+03  0.50400001928E-02 0. -1.
    10030    2    1    2    0    0  0.00000000000E+00  0.00000000000E+00 -0.79366530032E+03  0.93642984384E+03  0.49698716633E+03 0.  0.
        4    1    3    3  502    0  0.35379294401E+02  0.24595805474E+03 -0.39565775752E+03  0.46721914896E+03  0.12699999809E+01 0.  1.
       -4    1    3    3    0  502 -0.35379294401E+02 -0.24595805474E+03 -0.39800754279E+03  0.46921069488E+03  0.12699999809E+01 0. -1.
</event>
<event>
 5   0  0.7531632E-02  0.5040836E+03  0.7818609E-02  0.1012719E+00
       -1   -1    0    0    0  501  0.00000000000E+00  0.00000000000E+00  0.21713316231E+03  0.21713316237E+03  0.50400001928E-02 0. -1.
        1   -1    0    0  501    0  0.00000000000E+00  0.00000000000E+00 -0.29256266675E+03  0.29256266679E+03  0.50400001928E-02 0.  1.
    10030    2    1    2    0    0  0.00000000000E+00  0.00000000000E+00 -0.75429504435E+02  0.50969582916E+03  0.50408355272E+03 0.  0.
        3    1    3    3  502    0  0.21138214416E+03  0.17424858789E+02  0.99959214175E+02  0.23447364729E+03  0.10100000352E+00 0. -1.
       -3    1    3    3    0  502 -0.21138214416E+03 -0.17424858789E+02 -0.17538871861E+03  0.27522218187E+03  0.10100000352E+00 0.  1.
</event>
<event>
 5   0  0.1279188E-01  0.4898414E+03  0.7818609E-02  0.1016465E+00
        2   -1    0    0  501    0  0.00000000000E+00  0.00000000000E+00  0.41660338471E+03  0.41660338471E+03  0.25500000920E-02 0. -1.
       -2   -1    0    0    0  501  0.00000000000E+00  0.00000000000E+00 -0.14398863936E+03  0.14398863938E+03  0.25500000920E-02 0.  1.
    10030    2    1    2    0    0  0.00000000000E+00  0.00000000000E+00  0.27261474534E+03  0.56059202410E+03  0.48984142138E+03 0.  0.
        2    1    3    3  502    0 -0.47353815048E+01 -0.15522241489E+03  0.35305556162E+03  0.38570020939E+03  0.25500000920E-02 0. -1.
       -2    1    3    3    0  502  0.47353815048E+01  0.15522241489E+03 -0.80440816278E+02  0.17489181471E+03  0.25500000920E-02 0.  1.
</event>
<event>
 5   0  0.1243803E-01  0.5002278E+03  0.7818609E-02  0.1013719E+00
        2   -1    0    0  501    0  0.00000000000E+00  0.00000000000E+00  0.58306796325E+03  0.58306796326E+03  0.25500000920E-02 0. -1.
       -2   -1    0    0    0  501  0.00000000000E+00  0.00000000000E+00 -0.10728933179E+03  0.10728933182E+03  0.25500000920E-02 0.  1.
    10030    2    1    2    0    0  0.00000000000E+00  0.00000000000E+00  0.47577863146E+03  0.69035729508E+03  0.50022783680E+03 0.  0.
        4    1    3    3  502    0 -0.50173575125E+02  0.98204750894E+02  0.54769872980E+03  0.55869228764E+03  0.12699999809E+01 0. -1.
       -4    1    3    3    0  502  0.50173575125E+02 -0.98204750894E+02 -0.71920098339E+02  0.13166500744E+03  0.12699999809E+01 0.  1.
</event>
<event>
 5   0  0.1211345E-01  0.4919981E+03  0.7818609E-02  0.1015889E+00
       -2   -1    0    0    0  501  0.00000000000E+00  0.00000000000E+00  0.64348954234E+02  0.64348954284E+02  0.25500000920E-02 0. -1.
        2   -1    0    0  501    0  0.00000000000E+00  0.00000000000E+00 -0.94042763262E+03  0.94042763262E+03  0.25500000920E-02 0.  1.
    10030    2    1    2    0    0  0.00000000000E+00  0.00000000000E+00 -0.87607867839E+03  0.10047765869E+04  0.49199810861E+03 0.  0.
        5    1    3    3  502    0  0.20793036443E+02  0.16559504487E+03 -0.69081286400E+02  0.18068863655E+03  0.46999998093E+01 0. -1.
       -5    1    3    3    0  502 -0.20793036443E+02 -0.16559504487E+03 -0.80699739199E+03  0.82408795036E+03  0.46999998093E+01 0.  1.
</event>
<event>
 5   0  0.1211345E-01  0.5026295E+03  0.7818609E-02  0.1013095E+00
        2   -1    0    0  501    0  0.00000000000E+00  0.00000000000E+00  0.19876600856E+03  0.19876600858E+03  0.25500000920E-02 0. -1.
       -2   -1    0    0    0  501  0.00000000000E+00  0.00000000000E+00 -0.31775602223E+03  0.31775602224E+03  0.25500000920E-02 0.  1.
    10030    2    1    2    0    0  0.00000000000E+00  0.00000000000E+00 -0.11899001367E+03  0.51652203082E+03  0.50262947085E+03 0.  0.
        5    1    3    3  502    0 -0.12715906980E+03  0.16727513400E+03  0.82105425232E+02  0.22564084368E+03  0.46999998093E+01 0. -1.
       -5    1    3    3    0  502  0.12715906980E+03 -0.16727513400E+03 -0.20109543890E+03  0.29088118714E+03  0.46999998093E+01 0.  1.
</event>
<event>
 5   0  0.7781754E-02  0.5037571E+03  0.7818609E-02  0.1012803E+00
       -1   -1    0    0    0  501  0.00000000000E+00  0.00000000000E+00  0.18084626361E+03  0.18084626368E+03  0.50400001928E-02 0. -1.
        1   -1    0    0  501    0  0.00000000000E+00  0.00000000000E+00 -0.35081075248E+03  0.35081075252E+03  0.50400001928E-02 0.  1.
    10030    2    1    2    0    0  0.00000000000E+00  0.00000000000E+00 -0.16996448887E+03  0.53165701620E+03  0.50375713931E+03 0.  0.
        2    1    3    3  502    0  0.15393386487E+03  0.11838019243E+03 -0.25428271066E+03  0.31995187398E+03  0.25500000920E-02 0. -1.
       -2    1    3    3    0  502 -0.15393386487E+03 -0.11838019243E+03  0.84318221790E+02  0.21170514223E+03  0.25500000920E-02 0.  1.
</event>
<event>
 5   0  0.7812547E-02  0.4906996E+03  0.7818609E-02  0.1016235E+00
        1   -1    0    0  501    0  0.00000000000E+00  0.00000000000E+00  0.43075615200E+03  0.43075615203E+03  0.50400001928E-02 0. -1.
       -1   -1    0    0    0  501  0.00000000000E+00  0.00000000000E+00 -0.13974615839E+03  0.13974615848E+03  0.50400001928E-02 0.  1.
    10030    2    1    2    0    0  0.00000000000E+00  0.00000000000E+00  0.29100999361E+03  0.57050231052E+03  0.49069957196E+03 0.  0.
        4    1    3    3  502    0  0.20811463457E+02  0.24288381852E+03  0.11325927003E+03  0.26880279288E+03  0.12699999809E+01 0.  1.
       -4    1    3    3    0  502 -0.20811463457E+02 -0.24288381852E+03  0.17775072358E+03  0.30169951764E+03  0.12699999809E+01 0. -1.
</event>
<event>
 5   0  0.1191894E-01  0.4894261E+03  0.7818609E-02  0.1016576E+00
        2   -1    0    0  501    0  0.00000000000E+00  0.00000000000E+00  0.11332020381E+04  0.11332020382E+04  0.25500000920E-02 0.  1.
       -2   -1    0    0    0  501  0.00000000000E+00  0.00000000000E+00 -0.52845365821E+02  0.52845365883E+02  0.25500000920E-02 0. -1.
    10030    2    1    2    0    0  0.00000000000E+00  0.00000000000E+00  0.10803566723E+04  0.11860474040E+04  0.48942609776E+03 0.  0.
        3    1    3    3  502    0 -0.15580914064E+03  0.66070951599E+02  0.11183840989E+03  0.20285388604E+03  0.10100000352E+00 0. -1.
       -3    1    3    3    0  502  0.15580914064E+03 -0.66070951599E+02  0.96851826243E+03  0.98319351799E+03  0.10100000352E+00 0.  1.
</event>
<event>
 5   0  0.1231822E-01  0.4929286E+03  0.7818609E-02  0.1015641E+00
       -2   -1    0    0    0  501  0.00000000000E+00  0.00000000000E+00  0.12898609737E+03  0.12898609740E+03  0.25500000920E-02 0.  1.
        2   -1    0    0  501    0  0.00000000000E+00  0.00000000000E+00 -0.47093953407E+03  0.47093953407E+03  0.25500000920E-02 0. -1.
    10030    2    1    2    0    0  0.00000000000E+00  0.00000000000E+00 -0.34195343670E+03  0.59992563147E+03  0.49292860581E+03 0.  0.
        1    1    3    3  502    0  0.72283457922E+02 -0.10393967998E+03  0.86386401356E+02  0.15326762779E+03  0.50400001928E-02 0.  1.
       -1    1    3    3    0  502 -0.72283457922E+02  0.10393967998E+03 -0.42833983805E+03  0.44665800368E+03  0.50400001928E-02 0. -1.
</event>
<event>
 5   0  0.7602288E-02  0.5009272E+03  0.7818609E-02  0.1013537E+00
       -1   -1    0    0    0  501  0.00000000000E+00  0.00000000000E+00  0.45744875175E+02  0.45744875453E+02  0.50400001928E-02 0. -1.
        1   -1    0    0  501    0  0.00000000000E+00  0.00000000000E+00 -0.13713452509E+04  0.13713452509E+04  0.50400001928E-02 0.  1.
    10030    2    1    2    0    0  0.00000000000E+00  0.00000000000E+00 -0.13256003757E+04  0.14170901264E+04  0.50092721040E+03 0.  0.
        5    1    3    3  502    0  0.20672941365E+03  0.13032397588E+02 -0.26470336477E+03  0.33615004860E+03  0.46999998093E+01 0. -1.
       -5    1    3    3    0  502 -0.20672941365E+03 -0.13032397588E+02 -0.10608970110E+04  0.10809400778E+04  0.46999998093E+01 0.  1.
</event>
<event>
 5   0  0.1211345E-01  0.5006895E+03  0.7818609E-02  0.1013599E+00
       -2   -1    0    0    0  501  0.00000000000E+00  0.00000000000E+00  0.26129669475E+03  0.26129669476E+03  0.25500000920E-02 0. -1.
        2   -1    0    0  501    0  0.00000000000E+00  0.00000000000E+00 -0.23985186635E+03  0.23985186637E+03  0.25500000920E-02 0.  1.
    10030    2    1    2    0    0  0.00000000000E+00  0.00000000000E+00  0.21444828399E+02  0.50114856113E+03  0.50068952421E+03 0.  0.
        5    1    3    3  502    0  0.47163345565E+02 -0.22405984877E+03  0.11192501788E+03  0.25490487759E+03  0.46999998093E+01 0. -1.
       -5    1    3    3    0  502 -0.47163345565E+02  0.22405984877E+03 -0.90480189477E+02  0.24624368354E+03  0.46999998093E+01 0.  1.
</event>
<event>
 5   0  0.7531632E-02  0.5042633E+03  0.7818609E-02  0.1012672E+00
        1   -1    0    0  501    0  0.00000000000E+00  0.00000000000E+00  0.71220136590E+03  0.71220136592E+03  0.50400001928E-02 0.  1.
       -1   -1    0    0    0  501  0.00000000000E+00  0.00000000000E+00 -0.89258997947E+02  0.89258998089E+02  0.50400001928E-02 0. -1.
    10030    2    1    2    0    0  0.00000000000E+00  0.00000000000E+00  0.62294236795E+03  0.80146036401E+03  0.50426334517E+03 0.  0.
        3    1    3    3  502    0  0.14606444800E+03  0.20539961433E+03  0.32231454442E+03  0.40915828267E+03  0.10100000352E+00 0.  1.
       -3    1    3    3    0  502 -0.14606444800E+03 -0.20539961433E+03  0.30062782354E+03  0.39230208134E+03  0.10100000352E+00 0. -1.
</event>
<event>
 5   0  0.5006750E-02  0.4976728E+03  0.7818609E-02  0.1014388E+00
        3   -1    0    0  501    0  0.00000000000E+00  0.00000000000E+00  0.16046838266E+03  0.16046841444E+03  0.10100000352E+00 0. -1.
       -3   -1    0    0    0  501  0.00000000000E+00  0.00000000000E+00 -0.38586748846E+03  0.38586750168E+03  0.10100000352E+00 0.  1.
    10030    2    1    2    0    0  0.00000000000E+00  0.00000000000E+00 -0.22539910580E+03  0.54633591613E+03  0.49767276031E+03 0.  0.
        2    1    3    3  502    0  0.15170134255E+03 -0.32027633480E+01 -0.32920473262E+03  0.36249042886E+03  0.25500000920E-02 0.  1.
       -2    1    3    3    0  502 -0.15170134255E+03  0.32027633480E+01  0.10380562682E+03  0.18384548727E+03  0.25500000920E-02 0. -1.
</event>
<event>
 5   0  0.1279188E-01  0.4975301E+03  0.7818609E-02  0.1014426E+00
       -2   -1    0    0    0  501  0.00000000000E+00  0.00000000000E+00  0.28706599535E+02  0.28706599648E+02  0.25500000920E-02 0. -1.
        2   -1    0    0  501    0  0.00000000000E+00  0.00000000000E+00 -0.21557427071E+04  0.21557427071E+04  0.25500000920E-02 0.  1.
    10030    2    1    2    0    0  0.00000000000E+00  0.00000000000E+00 -0.21270361076E+04  0.21844493068E+04  0.49753007032E+03 0.  0.
        2    1    3    3  502    0  0.86454518915E+02  0.14341538875E+03 -0.18712153456E+04  0.18786934894E+04  0.25500000920E-02 0.  1.
       -2    1    3    3    0  502 -0.86454518915E+02 -0.14341538875E+03 -0.25582076195E+03  0.30575581731E+03  0.25500000920E-02 0. -1.
</event>
<event>
 5   0  0.7416638E-02  0.5001700E+03  0.7818609E-02  0.1013735E+00
       -1   -1    0    0    0  501  0.00000000000E+00  0.00000000000E+00  0.58664223892E+02  0.58664224109E+02  0.50400001928E-02 0. -1.
        1   -1    0    0  501    0  0.00000000000E+00  0.00000000000E+00 -0.10661099103E+04  0.10661099103E+04  0.50400001928E-02 0.  1.
    10030    2    1    2    0    0  0.00000000000E+00  0.00000000000E+00 -0.10074456864E+04  0.11247741344E+04  0.50017001349E+03 0.  0.
        1    1    3    3  502    0  0.17993839989E+03 -0.16488598741E+03 -0.62642678907E+03  0.67229140905E+03  0.50400001928E-02 0.  1.
       -1    1    3    3    0  502 -0.17993839989E+03  0.16488598741E+03 -0.38101889732E+03  0.45248272535E+03  0.50400001928E-02 0. -1.
</event>
<event>
 5   0  0.1191894E-01  0.5015402E+03  0.7818609E-02  0.1013378E+00
        2   -1    0    0  501    0  0.00000000000E+00  0.00000000000E+00  0.12679168459E+04  0.12679168459E+04  0.25500000920E-02 0. -1.
       -2   -1    0    0    0  501  0.00000000000E+00  0.00000000000E+00 -0.49597601862E+02  0.49597601927E+02  0.25500000920E-02 0.  1.
    10030    2    1    2    0    0  0.00000000000E+00  0.00000000000E+00  0.12183192441E+04  0.13175144478E+04  0.50154016773E+03 0.  0.
        3    1    3    3  502    0  0.18981331911E+03 -0.85324626061E+02  0.24161144693E+03  0.31888162288E+03  0.10100000352E+00 0.  1.
       -3    1    3    3    0  502 -0.18981331911E+03  0.85324626061E+02  0.97670779713E+03  0.99863282497E+03  0.10100000352E+00 0. -1.
</event>
<event>
 5   0  0.1279188E-01  0.5027130E+03  0.7818609E-02  0.1013073E+00
        2   -1    0    0  501    0  0.00000000000E+00  0.00000000000E+00  0.83189583912E+03  0.83189583912E+03  0.25500000920E-02 0. -1.
       -2   -1    0    0    0  501  0.00000000000E+00  0.00000000000E+00 -0.75947119153E+02  0.75947119196E+02  0.25500000920E-02 0.  1.
    10030    2    1    2    0    0  0.00000000000E+00  0.00000000000E+00  0.75594871997E+03  0.90784295832E+03  0.50271300933E+03 0.  0.
        2    1    3    3  502    0  0.17559830599E+03 -0.17285690508E+03  0.46764929918E+03  0.52859260469E+03  0.25500000920E-02 0. -1.
       -2    1    3    3    0  502 -0.17559830599E+03  0.17285690508E+03  0.28829942079E+03  0.37925035363E+03  0.25500000920E-02 0.  1.
</event>
<event>
 5   0  0.7416638E-02  0.5076171E+03  0.7818609E-02  0.1011810E+00
       -1   -1    0    0    0  501  0.00000000000E+00  0.00000000000E+00  0.90772499641E+02  0.90772499781E+02  0.50400001928E-02 0. -1.
        1   -1    0    0  501    0  0.00000000000E+00  0.00000000000E+00 -0.70967283959E+03  0.70967283961E+03  0.50400001928E-02 0.  1.
    10030    2    1    2    0    0  0.00000000000E+00  0.00000000000E+00 -0.61890033995E+03  0.80044533939E+03  0.50761709049E+03 0.  0.
        1    1    3    3  502    0  0.15809155711E+03  0.36441762527E+02 -0.61723385409E+03  0.63819947755E+03  0.50400001928E-02 0.  1.
       -1    1    3    3    0  502 -0.15809155711E+03 -0.36441762527E+02 -0.16664858605E+01  0.16224586184E+03  0.50400001928E-02 0. -1.
</event>
<event>
 5   0  0.1211345E-01  0.4824103E+03  0.7818609E-02  0.1018475E+00
       -2   -1    0    0    0  501  0.00000000000E+00  0.00000000000E+00  0.45567133844E+02  0.45567133915E+02  0.25500000920E-02 0. -1.
        2   -1    0    0  501    0  0.00000000000E+00  0.00000000000E+00 -0.12767955524E+04  0.12767955524E+04  0.25500000920E-02 0.  1.
    10030    2    1    2    0    0  0.00000000000E+00  0.00000000000E+00 -0.12312284186E+04  0.13223626864E+04  0.48241025643E+03 0.  0.
        5    1    3    3  502    0 -0.12179004584E+03  0.20476421685E+03 -0.51317320655E+03  0.56580034437E+03  0.46999998093E+01 0. -1.
       -5    1    3    3    0  502  0.12179004584E+03 -0.20476421685E+03 -0.71805521205E+03  0.75656234199E+03  0.46999998093E+01 0.  1.
</event>
<event>
 5   0  0.1279188E-01  0.5000901E+03  0.7818609E-02  0.1013755E+00
        2   -1    0    0  501    0  0.00000000000E+00  0.00000000000E+00  0.22258762901E+03  0.22258762902E+03  0.25500000920E-02 0.  1.
       -2   -1    0    0    0  501  0.00000000000E+00  0.00000000000E+00 -0.28088948030E+03  0.28088948031E+03  0.25500000920E-02 0. -1.
    10030    2    1    2    0    0  0.00000000000E+00  0.00000000000E+00 -0.58301851296E+02  0.50347710934E+03  0.50009008564E+03 0.  0.
        2    1    3    3  502    0 -0.22638180518E+03  0.10375215029E+03 -0.51871293130E+02  0.25436953721E+03  0.25500000920E-02 0. -1.
       -2    1    3    3    0  502  0.22638180518E+03 -0.10375215029E+03 -0.64305581655E+01  0.24910757212E+03  0.25500000920E-02 0.  1.
</event>
<event>
 5   0  0.1211345E-01  0.4998459E+03  0.7818609E-02  0.1013819E+00
        2   -1    0    0  501    0  0.00000000000E+00  0.00000000000E+00  0.28618609288E+03  0.28618609289E+03  0.25500000920E-02 0. -1.
       -2   -1    0    0    0  501  0.00000000000E+00  0.00000000000E+00 -0.21825475009E+03  0.21825475011E+03  0.25500000920E-02 0.  1.
    10030    2    1    2    0    0  0.00000000000E+00  0.00000000000E+00  0.67931342785E+02  0.50444084300E+03  0.49984587300E+03 0.  0.
        5    1    3    3  502    0 -0.13612323890E+03 -0.13420214676E+02  0.24500461720E+03  0.28064032280E+03  0.46999998093E+01 0. -1.
       -5    1    3    3    0  502  0.13612323890E+03  0.13420214676E+02 -0.17707327442E+03  0.22380052020E+03  0.46999998093E+01 0.  1.
</event>
<event>
 5   0  0.7812547E-02  0.4979505E+03  0.7818609E-02  0.1014315E+00
        1   -1    0    0  501    0  0.00000000000E+00  0.00000000000E+00  0.76314933964E+02  0.76314934131E+02  0.50400001928E-02 0. -1.
       -1   -1    0    0    0  501  0.00000000000E+00  0.00000000000E+00 -0.81227465477E+03  0.81227465478E+03  0.50400001928E-02 0.  1.
    10030    2    1    2    0    0  0.00000000000E+00  0.00000000000E+00 -0.73595972080E+03  0.88858958891E+03  0.49795054662E+03 0.  0.
        4    1    3    3  502    0 -0.19233444683E+03 -0.53224287107E+02 -0.63363403036E+03  0.66431849403E+03  0.12699999809E+01 0. -1.
       -4    1    3    3    0  502  0.19233444683E+03  0.53224287107E+02 -0.10232569044E+03  0.22427109489E+03  0.12699999809E+01 0.  1.
</event>
<event>
 5   0  0.1243803E-01  0.4962733E+03  0.7818609E-02  0.1014756E+00
        2   -1    0    0  501    0  0.00000000000E+00  0.00000000000E+00  0.15025178335E+04  0.15025178335E+04  0.25500000920E-02 0. -1.
       -2   -1    0    0    0  501  0.00000000000E+00  0.00000000000E+00 -0.40979082091E+02  0.40979082171E+02  0.25500000920E-02 0.  1.
    10030    2    1    2    0    0  0.00000000000E+00  0.00000000000E+00  0.14615387514E+04  0.15434969156E+04  0.49627331866E+03 0.  0.
        4    1    3    3  502    0 -0.12846901844E+03 -0.20397808455E+03  0.54785402813E+03  0.59854573486E+03  0.12699999809E+01 0.  1.
       -4    1    3    3    0  502  0.12846901844E+03  0.20397808455E+03  0.91368472324E+03  0.94495118078E+03  0.12699999809E+01 0. -1.
</event>
<event>
 5   0  0.1191894E-01  0.5037989E+03  0.7818609E-02  0.1012792E+00
        2   -1    0    0  501    0  0.00000000000E+00  0.00000000000E+00  0.19500281064E+04  0.19500281064E+04  0.25500000920E-02 0. -1.
       -2   -1    0    0    0  501  0.00000000000E+00  0.00000000000E+00 -0.32539701329E+02  0.32539701429E+02  0.25500000920E-02 0.  1.
    10030    2    1    2    0    0  0.00000000000E+00  0.00000000000E+00  0.19174884050E+04  0.19825678078E+04  0.50379889744E+03 0.  0.
        3    1    3    3  502    0 -0.62377854032E+02  0.97012687494E+02  0.77472051238E+02  0.13894022863E+03  0.10100000352E+00 0.  1.
       -3    1    3    3    0  502  0.62377854032E+02 -0.97012687494E+02  0.18400163538E+04  0.18436275792E+04  0.10100000352E+00 0. -1.
</event>
<event>
 5   0  0.1211345E-01  0.5021884E+03  0.7818609E-02  0.1013209E+00
        2   -1    0    0  501    0  0.00000000000E+00  0.00000000000E+00  0.14429222883E+03  0.14429222885E+03  0.25500000920E-02 0.  1.
       -2   -1    0    0    0  501  0.00000000000E+00  0.00000000000E+00 -0.43694871729E+03  0.43694871730E+03  0.25500000920E-02 0. -1.
    10030    2    1    2    0    0  0.00000000000E+00  0.00000000000E+00 -0.29265648847E+03  0.58124094615E+03  0.50218842803E+03 0.  0.
        5    1    3    3  502    0 -0.16280592611E+03 -0.46468105865E+02 -0.36087571920E+03  0.39864574392E+03  0.46999998093E+01 0. -1.
       -5    1    3    3    0  502  0.16280592611E+03  0.46468105865E+02  0.68219230734E+02  0.18259520223E+03  0.46999998093E+01 0.  1.
</event>
<event>
 5   0  0.1191894E-01  0.5003127E+03  0.7818609E-02  0.1013697E+00
       -2   -1    0    0    0  501  0.00000000000E+00  0.00000000000E+00  0.54388478037E+02  0.54388478096E+02  0.25500000920E-02 0.  1.
        2   -1    0    0  501    0  0.00000000000E+00  0.00000000000E+00 -0.11505783243E+04  0.11505783243E+04  0.25500000920E-02 0. -1.
    10030    2    1    2    0    0  0.00000000000E+00  0.00000000000E+00 -0.10961898463E+04  0.12049668024E+04  0.50031271804E+03 0.  0.
        3    1    3    3  502    0  0.59230212995E+02 -0.12777161272E+03 -0.50159407168E+02  0.14949842634E+03  0.10100000352E+00 0.  1.
       -3    1    3    3    0  502 -0.59230212995E+02  0.12777161272E+03 -0.10460304391E+04  0.10554683761E+04  0.10100000352E+00 0. -1.
</event>
<event>
 5   0  0.7531632E-02  0.5075082E+03  0.7818609E-02  0.1011838E+00
       -1   -1    0    0    0  501  0.00000000000E+00  0.00000000000E+00  0.80824944448E+02  0.80824944605E+02  0.50400001928E-02 0.  1.
        1   -1    0    0  501    0  0.00000000000E+00  0.00000000000E+00 -0.79667429620E+03  0.79667429621E+03  0.50400001928E-02 0. -1.
    10030    2    1    2    0    0  0.00000000000E+00  0.00000000000E+00 -0.71584935175E+03  0.87749924082E+03  0.50750824943E+03 0.  0.
        3    1    3    3  502    0 -0.42103557599E+02 -0.11621247549E+03 -0.74110420734E+03  0.75134113781E+03  0.10100000352E+00 0. -1.
       -3    1    3    3    0  502  0.42103557599E+02  0.11621247549E+03  0.25254855594E+02  0.12615810301E+03  0.10100000352E+00 0.  1.
</event>
<event>
 5   0  0.7531632E-02  0.4965452E+03  0.7818609E-02  0.1014685E+00
       -1   -1    0    0    0  501  0.00000000000E+00  0.00000000000E+00  0.26392125823E+03  0.26392125828E+03  0.50400001928E-02 0. -1.
        1   -1    0    0  501    0  0.00000000000E+00  0.00000000000E+00 -0.23355182217E+03  0.23355182223E+03  0.50400001928E-02 0.  1.
    10030    2    1    2    0    0  0.00000000000E+00  0.00000000000E+00  0.30369436057E+02  0.49747308050E+03  0.49654522772E+03 0.  0.
        3    1    3    3  502    0  0.20420824984E+03  0.12042351889E+03 -0.58685327626E+02  0.24422696633E+03  0.10100000352E+00 0.  1.
       -3    1    3    3    0  502 -0.20420824984E+03 -0.12042351889E+03  0.89054763683E+02  0.25324611417E+03  0.10100000352E+00 0. -1.
</event>
<event>
 5   0  0.1243803E-01  0.4996859E+03  0.7818609E-02  0.1013861E+00
        2   -1    0    0  501    0  0.00000000000E+00  0.00000000000E+00  0.26479345440E+03  0.26479345441E+03  0.25500000920E-02 0.  1.
       -2   -1    0    0    0  501  0.00000000000E+00  0.00000000000E+00 -0.23573656630E+03  0.23573656632E+03  0.25500000920E-02 0. -1.
    10030    2    1    2    0    0  0.00000000000E+00  0.00000000000E+00  0.29056888095E+02  0.50053002073E+03  0.49968590024E+03 0.  0.
        4    1    3    3  502    0 -0.11213469571E+03 -0.12788123556E+03 -0.16878914519E+03  0.23962301397E+03  0.12699999809E+01 0. -1.
       -4    1    3    3    0  502  0.11213469571E+03  0.12788123556E+03  0.19784603328E+03  0.26090700676E+03  0.12699999809E+01 0.  1.
</event>
<event>
 5   0  0.7602288E-02  0.5003899E+03  0.7818609E-02  0.1013677E+00
       -1   -1    0    0    0  501  0.00000000000E+00  0.00000000000E+00  0.80042153464E+02  0.80042153623E+02  0.50400001928E-02 0.  1.
        1   -1    0    0  501    0  0.00000000000E+00  0.00000000000E+00 -0.78205675355E+03  0.78205675356E+03  0.50400001928E-02 0. -1.
    10030    2    1    2    0    0  0.00000000000E+00  0.00000000000E+00 -0.70201460008E+03  0.86209890719E+03  0.50038987504E+03 0.  0.
        5    1    3    3  502    0  0.73571099604E+02  0.20662789243E+03 -0.14377989450E+03  0.26230238407E+03  0.46999998093E+01 0.  1.
       -5    1    3    3    0  502 -0.73571099604E+02 -0.20662789243E+03 -0.55823470558E+03  0.59979652312E+03  0.46999998093E+01 0. -1.
</event>
<event>
 5   0  0.7602288E-02  0.4916865E+03  0.7818609E-02  0.1015972E+00
        1   -1    0    0  501    0  0.00000000000E+00  0.00000000000E+00  0.37809680145E+03  0.37809680148E+03  0.50400001928E-02 0. -1.
       -1   -1    0    0    0  501  0.00000000000E+00  0.00000000000E+00 -0.15985032655E+03  0.15985032663E+03  0.50400001928E-02 0.  1.
    10030    2    1    2    0    0  0.00000000000E+00  0.00000000000E+00  0.21824647490E+03  0.53794712812E+03  0.49168647413E+03 0.  0.
        5    1    3    3  502    0 -0.18770930151E+03  0.14948033861E+03  0.50841696011E+02  0.24532859914E+03  0.46999998093E+01 0. -1.
       -5    1    3    3    0  502  0.18770930151E+03 -0.14948033861E+03  0.16740477889E+03  0.29261852897E+03  0.46999998093E+01 0.  1.
</event>
<event>
 5   0  0.7531632E-02  0.5006660E+03  0.7818609E-02  0.1013605E+00
        1   -1    0    0  501    0  0.00000000000E+00  0.00000000000E+00  0.14736897640E+03  0.14736897649E+03  0.50400001928E-02 0.  1.
       -1   -1    0    0    0  501  0.00000000000E+00  0.00000000000E+00 -0.42523612897E+03  0.42523612900E+03  0.50400001928E-02 0. -1.
    10030    2    1    2    0    0  0.00000000000E+00  0.00000000000E+00 -0.27786715257E+03  0.57260510549E+03  0.50066600879E+03 0.  0.
        3    1    3    3  502    0 -0.10427881647E+03  0.14592992704E+03 -0.33866002551E+03  0.38322348343E+03  0.10100000352E+00 0. -1.
       -3    1    3    3    0  502  0.10427881647E+03 -0.14592992704E+03  0.60792872947E+02  0.18938162206E+03  0.10100000352E+00 0.  1.
</event>
<event>
 5   0  0.5006750E-02  0.5015747E+03  0.7818609E-02  0.1013369E+00
        3   -1    0    0  501    0  0.00000000000E+00  0.00000000000E+00  0.40019680045E+03  0.40019681319E+03  0.10100000352E+00 0.  1.
       -3   -1    0    0    0  501  0.00000000000E+00  0.00000000000E+00 -0.15715836089E+03  0.15715839335E+03  0.10100000352E+00 0. -1.
    10030    2    1    2    0    0  0.00000000000E+00  0.00000000000E+00  0.24303843956E+03  0.55735520654E+03  0.50157466359E+03 0.  0.
        5    1    3    3  502    0 -0.23283124833E+03  0.90443177965E+02  0.14591117497E+03  0.28931387733E+03  0.46999998093E+01 0.  1.
       -5    1    3    3    0  502  0.23283124833E+03 -0.90443177965E+02  0.97127264586E+02  0.26804132921E+03  0.46999998093E+01 0. -1.
</event>
<event>
 5   0  0.7602288E-02  0.5002166E+03  0.7818609E-02  0.1013722E+00
       -1   -1    0    0    0  501  0.00000000000E+00  0.00000000000E+00  0.11363007784E+03  0.11363007795E+03  0.50400001928E-02 0. -1.
        1   -1    0    0  501    0  0.00000000000E+00  0.00000000000E+00 -0.55050709001E+03  0.55050709003E+03  0.50400001928E-02 0.  1.
    10030    2    1    2    0    0  0.00000000000E+00  0.00000000000E+00 -0.43687701217E+03  0.66413716798E+03  0.50021660721E+03 0.  0.
        5    1    3    3  502    0  0.11096970328E+03 -0.32861004718E+02  0.75873656130E+02  0.13846668325E+03  0.46999998093E+01 0. -1.
       -5    1    3    3    0  502 -0.11096970328E+03  0.32861004718E+02 -0.51275066830E+03  0.52567048473E+03  0.46999998093E+01 0.  1.
</event>
<event>
 5   0  0.7416638E-02  0.4997272E+03  0.7818609E-02  0.1013850E+00
        1   -1    0    0  501    0  0.00000000000E+00  0.00000000000E+00  0.61556650477E+03  0.61556650479E+03  0.50400001928E-02 0.  1.
       -1   -1    0    0    0  501  0.00000000000E+00  0.00000000000E+00 -0.10142171160E+03  0.10142171172E+03  0.50400001928E-02 0. -1.
    10030    2    1    2    0    0  0.00000000000E+00  0.00000000000E+00  0.51414479317E+03  0.71698821651E+03  0.49972715983E+03 0.  0.
        1    1    3    3  502    0 -0.45372431018E+02  0.19784132049E+03  0.46613393332E+03  0.50840996195E+03  0.50400001928E-02 0.  1.
       -1    1    3    3    0  502  0.45372431018E+02 -0.19784132049E+03  0.48010859848E+02  0.20857825456E+03  0.50400001928E-02 0. -1.
</event>
<event>
 5   0  0.1231822E-01  0.5066799E+03  0.7818609E-02  0.1012050E+00
        2   -1    0    0  501    0  0.00000000000E+00  0.00000000000E+00  0.14498675796E+04  0.14498675796E+04  0.25500000920E-02 0. -1.
       -2   -1    0    0    0  501  0.00000000000E+00  0.00000000000E+00 -0.44266896730E+02  0.44266896803E+02  0.25500000920E-02 0.  1.
    10030    2    1    2    0    0  0.00000000000E+00  0.00000000000E+00  0.14056006828E+04  0.14941344764E+04  0.50667993240E+03 0.  0.
        1    1    3    3  502    0 -0.28872127536E+02 -0.74731906229E+02  0.14115284441E+04  0.14138002002E+04  0.50400001928E-02 0. -1.
       -1    1    3    3    0  502  0.28872127536E+02  0.74731906229E+02 -0.59277612165E+01  0.80334276218E+02  0.50400001928E-02 0.  1.
</event>
<event>
 5   0  0.7781754E-02  0.5060456E+03  0.7818609E-02  0.1012213E+00
       -1   -1    0    0    0  501  0.00000000000E+00  0.00000000000E+00  0.86067104301E+02  0.86067104449E+02  0.50400001928E-02 0. -1.
        1   -1    0    0  501    0  0.00000000000E+00  0.00000000000E+00 -0.74384433872E+03  0.74384433873E+03  0.50400001928E-02 0.  1.
    10030    2    1    2    0    0  0.00000000000E+00  0.00000000000E+00 -0.65777723442E+03  0.82991144318E+03  0.50604556456E+03 0.  0.
        2    1    3    3  502    0 -0.17361959720E+03  0.16665967384E+03 -0.20078720350E+03  0.31342417347E+03  0.25500000920E-02 0.  1.
       -2    1    3    3    0  502  0.17361959720E+03 -0.16665967384E+03 -0.45699003091E+03  0.51648726971E+03  0.25500000920E-02 0. -1.
</event>
<event>
 5   0  0.7531632E-02  0.4865683E+03  0.7818609E-02  0.1017345E+00
       -1   -1    0    0    0  501  0.00000000000E+00  0.00000000000E+00  0.16170799527E+03  0.16170799534E+03  0.50400001928E-02 0. -1.
        1   -1    0    0  501    0  0.00000000000E+00  0.00000000000E+00 -0.36601272108E+03  0.36601272111E+03  0.50400001928E-02 0.  1.
    10030    2    1    2    0    0  0.00000000000E+00  0.00000000000E+00 -0.20430472581E+03  0.52772071645E+03  0.48656832366E+03 0.  0.
        3    1    3    3  502    0  0.18334740948E+02  0.24125843254E+03 -0.74599432626E+02  0.25319336394E+03  0.10100000352E+00 0. -1.
       -3    1    3    3    0  502 -0.18334740948E+02 -0.24125843254E+03 -0.12970529319E+03  0.27452735251E+03  0.10100000352E+00 0.  1.
</event>
<event>
 5   0  0.5006750E-02  0.4917104E+03  0.7818609E-02  0.1015966E+00
       -3   -1    0    0    0  501  0.00000000000E+00  0.00000000000E+00  0.17490121334E+03  0.17490124250E+03  0.10100000352E+00 0. -1.
        3   -1    0    0  501    0  0.00000000000E+00  0.00000000000E+00 -0.34559378282E+03  0.34559379758E+03  0.10100000352E+00 0.  1.
    10030    2    1    2    0    0  0.00000000000E+00  0.00000000000E+00 -0.17069256949E+03  0.52049504008E+03  0.49171041627E+03 0.  0.
        5    1    3    3  502    0 -0.23978676139E+03 -0.13023244984E+02 -0.14091102884E+03  0.27846957445E+03  0.46999998093E+01 0.  1.
       -5    1    3    3    0  502  0.23978676139E+03  0.13023244984E+02 -0.29781540649E+02  0.24202546563E+03  0.46999998093E+01 0. -1.
</event>
<event>
 5   0  0.7781754E-02  0.5003269E+03  0.7818609E-02  0.1013694E+00
       -1   -1    0    0    0  501  0.00000000000E+00  0.00000000000E+00  0.36231267574E+03  0.36231267577E+03  0.50400001928E-02 0.  1.
        1   -1    0    0  501    0  0.00000000000E+00  0.00000000000E+00 -0.17272860297E+03  0.17272860304E+03  0.50400001928E-02 0. -1.
    10030    2    1    2    0    0  0.00000000000E+00  0.00000000000E+00  0.18958407277E+03  0.53504127882E+03  0.50032694250E+03 0.  0.
        2    1    3    3  502    0  0.10684609361E+02 -0.14891988537E+03 -0.11985977701E+03  0.19146190035E+03  0.25500000920E-02 0. -1.
       -2    1    3    3    0  502 -0.10684609361E+02  0.14891988537E+03  0.30944384978E+03  0.34357937847E+03  0.25500000920E-02 0.  1.
</event>
<event>
 5   0  0.7531632E-02  0.4978395E+03  0.7818609E-02  0.1014344E+00
       -1   -1    0    0    0  501  0.00000000000E+00  0.00000000000E+00  0.46713770751E+03  0.46713770754E+03  0.50400001928E-02 0.  1.
        1   -1    0    0  501    0  0.00000000000E+00  0.00000000000E+00 -0.13263976701E+03  0.13263976710E+03  0.50400001928E-02 0. -1.
    10030    2    1    2    0    0  0.00000000000E+00  0.00000000000E+00  0.33449794050E+03  0.59977747464E+03  0.49783947904E+03 0.  0.
        3    1    3    3  502    0 -0.23163415380E+01 -0.24884207429E+03  0.16029851906E+03  0.29601244702E+03  0.10100000352E+00 0.  1.
       -3    1    3    3    0  502  0.23163415380E+01  0.24884207429E+03  0.17419942143E+03  0.30376502762E+03  0.10100000352E+00 0. -1.
</event>
<event>
 5   0  0.1211345E-01  0.5059857E+03  0.7818609E-02  0.1012228E+00
        2   -1    0    0  501    0  0.00000000000E+00  0.00000000000E+00  0.17612936006E+03  0.17612936008E+03  0.25500000920E-02 0.  1.
       -2   -1    0    0    0  501  0.00000000000E+00  0.00000000000E+00 -0.36339988811E+03  0.36339988812E+03  0.25500000920E-02 0. -1.
    10030    2    1    2    0    0  0.00000000000E+00  0.00000000000E+00 -0.18727052805E+03  0.53952924820E+03  0.50598573003E+03 0.  0.
        5    1    3    3  502    0  0.10749396750E+03  0.21611179801E+03 -0.17430821766E+03  0.29776619524E+03  0.46999998093E+01 0. -1.
       -5    1    3    3    0  502 -0.10749396750E+03 -0.21611179801E+03 -0.12962310395E+02  0.24176305296E+03  0.46999998093E+01 0.  1.
</event>
<event>
 5   0  0.1231822E-01  0.5323095E+03  0.7818609E-02  0.1005674E+00
        2   -1    0    0  501    0  0.00000000000E+00  0.00000000000E+00  0.22677510481E+03  0.22677510482E+03  0.25500000920E-02 0.  1.
       -2   -1    0    0    0  501  0.00000000000E+00  0.00000000000E+00 -0.31237267017E+03  0.31237267019E+03  0.25500000920E-02 0. -1.
    10030    2    1    2    0    0  0.00000000000E+00  0.00000000000E+00 -0.85597565369E+02  0.53914777501E+03  0.53230947774E+03 0.  0.
        1    1    3    3  502    0 -0.44196293367E+02 -0.22240958181E+03 -0.18394107530E+03  0.29198228308E+03  0.50400001928E-02 0.  1.
       -1    1    3    3    0  502  0.44196293367E+02  0.22240958181E+03  0.98343509927E+02  0.24716549192E+03  0.50400001928E-02 0. -1.
</event>
<event>
 5   0  0.7416638E-02  0.4938587E+03  0.7818609E-02  0.1015394E+00
       -1   -1    0    0    0  501  0.00000000000E+00  0.00000000000E+00  0.69556435625E+02  0.69556435807E+02  0.50400001928E-02 0.  1.
        1   -1    0    0  501    0  0.00000000000E+00  0.00000000000E+00 -0.87661331309E+03  0.87661331311E+03  0.50400001928E-02 0. -1.
    10030    2    1    2    0    0  0.00000000000E+00  0.00000000000E+00 -0.80705687747E+03  0.94616974891E+03  0.49385867441E+03 0.  0.
        1    1    3    3  502    0  0.17304294789E+03 -0.15835712069E+03 -0.55135202237E+03  0.59917434198E+03  0.50400001928E-02 0. -1.
       -1    1    3    3    0  502 -0.17304294789E+03  0.15835712069E+03 -0.25570485510E+03  0.34699540693E+03  0.50400001928E-02 0.  1.
</event>
<event>
 5   0  0.1279188E-01  0.5001544E+03  0.7818609E-02  0.1013739E+00
        2   -1    0    0  501    0  0.00000000000E+00  0.00000000000E+00  0.27891001786E+03  0.27891001787E+03  0.25500000920E-02 0. -1.
       -2   -1    0    0    0  501  0.00000000000E+00  0.00000000000E+00 -0.22422498995E+03  0.22422498996E+03  0.25500000920E-02 0.  1.
    10030    2    1    2    0    0  0.00000000000E+00  0.00000000000E+00  0.54685027913E+02  0.50313500784E+03  0.50015436000E+03 0.  0.
        2    1    3    3  502    0  0.17705863360E+02 -0.16488865592E+03  0.21563928694E+03  0.27203321218E+03  0.25500000920E-02 0. -1.
       -2    1    3    3    0  502 -0.17705863360E+02  0.16488865592E+03 -0.16095425903E+03  0.23110179566E+03  0.25500000920E-02 0.  1.
</event>
<event>
 5   0  0.1211345E-01  0.5104446E+03  0.7818609E-02  0.1011088E+00
        2   -1    0    0  501    0  0.00000000000E+00  0.00000000000E+00  0.56765323557E+03  0.56765323557E+03  0.25500000920E-02 0.  1.
       -2   -1    0    0    0  501  0.00000000000E+00  0.00000000000E+00 -0.11475039084E+03  0.11475039087E+03  0.25500000920E-02 0. -1.
    10030    2    1    2    0    0  0.00000000000E+00  0.00000000000E+00  0.45290284473E+03  0.68240362644E+03  0.51044463228E+03 0.  0.
        5    1    3    3  502    0 -0.13594864071E+03 -0.16953304485E+03  0.47624665886E+02  0.22251670725E+03  0.46999998093E+01 0. -1.
       -5    1    3    3    0  502  0.13594864071E+03  0.16953304485E+03  0.40527817884E+03  0.45988691920E+03  0.46999998093E+01 0.  1.
</event>
<event>
 5   0  0.7781754E-02  0.4990210E+03  0.7818609E-02  0.1014035E+00
        1   -1    0    0  501    0  0.00000000000E+00  0.00000000000E+00  0.85673668099E+03  0.85673668100E+03  0.50400001928E-02 0. -1.
       -1   -1    0    0    0  501  0.00000000000E+00  0.00000000000E+00 -0.72665844076E+02  0.72665844251E+02  0.50400001928E-02 0.  1.
    10030    2    1    2    0    0  0.00000000000E+00  0.00000000000E+00  0.78407083691E+03  0.92940252525E+03  0.49902101825E+03 0.  0.
        2    1    3    3  502    0 -0.16571940899E+03  0.56441274190E+02  0.60922341005E+02  0.18536469887E+03  0.25500000920E-02 0.  1.
       -2    1    3    3    0  502  0.16571940899E+03 -0.56441274190E+02  0.72314849591E+03  0.74403782638E+03  0.25500000920E-02 0. -1.
</event>
<event>
 5   0  0.1279188E-01  0.5016818E+03  0.7818609E-02  0.1013341E+00
        2   -1    0    0  501    0  0.00000000000E+00  0.00000000000E+00  0.32098420797E+03  0.32098420798E+03  0.25500000920E-02 0. -1.
       -2   -1    0    0    0  501  0.00000000000E+00  0.00000000000E+00 -0.19602570635E+03  0.19602570636E+03  0.25500000920E-02 0.  1.
    10030    2    1    2    0    0  0.00000000000E+00  0.00000000000E+00  0.12495850163E+03  0.51700991434E+03  0.50168179596E+03 0.  0.
        2    1    3    3  502    0  0.19244782245E+03 -0.10888422102E+03 -0.59584655137E+02  0.22900277091E+03  0.25500000920E-02 0.  1.
       -2    1    3    3    0  502 -0.19244782245E+03  0.10888422102E+03  0.18454315676E+03  0.28800714343E+03  0.25500000920E-02 0. -1.
</event>
<event>
 5   0  0.1191894E-01  0.4995459E+03  0.7818609E-02  0.1013898E+00
       -2   -1    0    0    0  501  0.00000000000E+00  0.00000000000E+00  0.54360022442E+02  0.54360022502E+02  0.25500000920E-02 0.  1.
        2   -1    0    0  501    0  0.00000000000E+00  0.00000000000E+00 -0.11476546888E+04  0.11476546888E+04  0.25500000920E-02 0. -1.
    10030    2    1    2    0    0  0.00000000000E+00  0.00000000000E+00 -0.10932946664E+04  0.12020147114E+04  0.49954593254E+03 0.  0.
        3    1    3    3  502    0  0.11246487586E+03 -0.13352727123E+03 -0.97646922396E+03  0.99195263798E+03  0.10100000352E+00 0. -1.
       -3    1    3    3    0  502 -0.11246487586E+03  0.13352727123E+03 -0.11682544244E+03  0.21006207337E+03  0.10100000352E+00 0.  1.
</event>
<event>
 5   0  0.7602288E-02  0.5020361E+03  0.7818609E-02  0.1013249E+00
       -1   -1    0    0    0  501  0.00000000000E+00  0.00000000000E+00  0.26523611564E+03  0.26523611569E+03  0.50400001928E-02 0. -1.
        1   -1    0    0  501    0  0.00000000000E+00  0.00000000000E+00 -0.23756214790E+03  0.23756214796E+03  0.50400001928E-02 0.  1.
    10030    2    1    2    0    0  0.00000000000E+00  0.00000000000E+00  0.27673967735E+02  0.50279826364E+03  0.50203609973E+03 0.  0.
        5    1    3    3  502    0 -0.22881365433E+03  0.91669921111E+02  0.61119975187E+02  0.25400158308E+03  0.46999998093E+01 0. -1.
       -5    1    3    3    0  502  0.22881365433E+03 -0.91669921111E+02 -0.33446007452E+02  0.24879668056E+03  0.46999998093E+01 0.  1.
</event>
<event>
 5   0  0.7531632E-02  0.4988201E+03  0.7818609E-02  0.1014087E+00
       -1   -1    0    0    0  501  0.00000000000E+00  0.00000000000E+00  0.13843421707E+03  0.13843421716E+03  0.50400001928E-02 0. -1.
        1   -1    0    0  501    0  0.00000000000E+00  0.00000000000E+00 -0.44934975577E+03  0.44934975580E+03  0.50400001928E-02 0.  1.
    10030    2    1    2    0    0  0.00000000000E+00  0.00000000000E+00 -0.31091553871E+03  0.58778397296E+03  0.49882013457E+03 0.  0.
        3    1    3    3  502    0 -0.22879311948E+03  0.87829298954E+02 -0.10088236677E+03  0.26502365819E+03  0.10100000352E+00 0. -1.
       -3    1    3    3    0  502  0.22879311948E+03 -0.87829298954E+02 -0.21003317193E+03  0.32276031477E+03  0.10100000352E+00 0.  1.
</event>
<event>
 5   0  0.1231822E-01  0.4946140E+03  0.7818609E-02  0.1015194E+00
       -2   -1    0    0    0  501  0.00000000000E+00  0.00000000000E+00  0.68368319641E+02  0.68368319688E+02  0.25500000920E-02 0. -1.
        2   -1    0    0  501    0  0.00000000000E+00  0.00000000000E+00 -0.89457734077E+03  0.89457734078E+03  0.25500000920E-02 0.  1.
    10030    2    1    2    0    0  0.00000000000E+00  0.00000000000E+00 -0.82620902113E+03  0.96294566047E+03  0.49461398930E+03 0.  0.
        1    1    3    3  502    0 -0.14346283039E+03  0.92687825558E+02 -0.64903657722E+02  0.18271590386E+03  0.50400001928E-02 0. -1.
       -1    1    3    3    0  502  0.14346283039E+03 -0.92687825558E+02 -0.76130536341E+03  0.78022975661E+03  0.50400001928E-02 0.  1.
</event>
<event>
 5   0  0.7781754E-02  0.4788688E+03  0.7818609E-02  0.1019447E+00
       -1   -1    0    0    0  501  0.00000000000E+00  0.00000000000E+00  0.22212673636E+03  0.22212673642E+03  0.50400001928E-02 0. -1.
        1   -1    0    0  501    0  0.00000000000E+00  0.00000000000E+00 -0.25809061395E+03  0.25809061400E+03  0.50400001928E-02 0.  1.
    10030    2    1    2    0    0  0.00000000000E+00  0.00000000000E+00 -0.35963877586E+02  0.48021735042E+03  0.47886877446E+03 0.  0.
        2    1    3    3  502    0 -0.19312949664E+03  0.58087971223E+02  0.11143812560E+03  0.23041629873E+03  0.25500000920E-02 0. -1.
       -2    1    3    3    0  502  0.19312949664E+03 -0.58087971223E+02 -0.14740200319E+03  0.24980105169E+03  0.25500000920E-02 0.  1.
</event>
<event>
 5   0  0.7781754E-02  0.4984498E+03  0.7818609E-02  0.1014184E+00
        1   -1    0    0  501    0  0.00000000000E+00  0.00000000000E+00  0.14191619125E+03  0.14191619134E+03  0.50400001928E-02 0.  1.
       -1   -1    0    0    0  501  0.00000000000E+00  0.00000000000E+00 -0.43767413686E+03  0.43767413689E+03  0.50400001928E-02 0. -1.
    10030    2    1    2    0    0  0.00000000000E+00  0.00000000000E+00 -0.29575794561E+03  0.57959032823E+03  0.49844978302E+03 0.  0.
        2    1    3    3  502    0 -0.62536872260E+01  0.10545974650E+03 -0.41034983787E+03  0.42373087707E+03  0.25500000920E-02 0. -1.
       -2    1    3    3    0  502  0.62536872260E+01 -0.10545974650E+03  0.11459189226E+03  0.15585945116E+03  0.25500000920E-02 0.  1.
</event>
<event>
 5   0  0.1243803E-01  0.5054776E+03  0.7818609E-02  0.1012359E+00
       -2   -1    0    0    0  501  0.00000000000E+00  0.00000000000E+00  0.62487947433E+02  0.62487947485E+02  0.25500000920E-02 0.  1.
        2   -1    0    0  501    0  0.00000000000E+00  0.00000000000E+00 -0.10222276410E+04  0.10222276410E+04  0.25500000920E-02 0. -1.
    10030    2    1    2    0    0  0.00000000000E+00  0.00000000000E+00 -0.95973969359E+03  0.10847155885E+04  0.50547762414E+03 0.  0.
        4    1    3    3  502    0  0.20748359613E+03  0.43581259479E+02 -0.18464738885E+03  0.28114949751E+03  0.12699999809E+01 0.  1.
       -4    1    3    3    0  502 -0.20748359613E+03 -0.43581259479E+02 -0.77509230474E+03  0.80356609100E+03  0.12699999809E+01 0. -1.
</event>
<event>
 5   0  0.1279188E-01  0.4785949E+03  0.7818609E-02  0.1019522E+00
        2   -1    0    0  501    0  0.00000000000E+00  0.00000000000E+00  0.10912517664E+04  0.10912517664E+04  0.25500000920E-02 0. -1.
       -2   -1    0    0    0  501  0.00000000000E+00  0.00000000000E+00 -0.52474845497E+02  0.52474845559E+02  0.25500000920E-02 0.  1.
    10030    2    1    2    0    0  0.00000000000E+00  0.00000000000E+00  0.10387769209E+04  0.11437266120E+04  0.47859489291E+03 0.  0.
        2    1    3    3  502    0 -0.16675760858E+03  0.16968532057E+03  0.45789870198E+03  0.51601591963E+03  0.25500000920E-02 0.  1.
       -2    1    3    3    0  502  0.16675760858E+03 -0.16968532057E+03  0.58087821895E+03  0.62771069235E+03  0.25500000920E-02 0. -1.
</event>
<event>
 5   0  0.1191894E-01  0.5035181E+03  0.7818609E-02  0.1012865E+00
        2   -1    0    0  501    0  0.00000000000E+00  0.00000000000E+00  0.63192503089E+03  0.63192503090E+03  0.25500000920E-02 0. -1.
       -2   -1    0    0    0  501  0.00000000000E+00  0.00000000000E+00 -0.10030084120E+03  0.10030084124E+03  0.25500000920E-02 0.  1.
    10030    2    1    2    0    0  0.00000000000E+00  0.00000000000E+00  0.53162418969E+03  0.73222587213E+03  0.50351807193E+03 0.  0.
        3    1    3    3  502    0 -0.11380407835E+02 -0.11099108908E+03 -0.62384584572E+02  0.12782950415E+03  0.10100000352E+00 0.  1.
       -3    1    3    3    0  502  0.11380407835E+02  0.11099108908E+03  0.59400877426E+03  0.60439636799E+03  0.10100000352E+00 0. -1.
</event>
<event>
 5   0  0.5006750E-02  0.5003141E+03  0.7818609E-02  0.1013697E+00
       -4   -1    0    0    0  501  0.00000000000E+00  0.00000000000E+00  0.74702300629E+02  0.74713095366E+02  0.12699999809E+01 0. -1.
        4   -1    0    0  501    0  0.00000000000E+00  0.00000000000E+00 -0.83763390447E+03  0.83763486724E+03  0.12699999809E+01 0.  1.
    10030    2    1    2    0    0  0.00000000000E+00  0.00000000000E+00 -0.76293160384E+03  0.91234796260E+03  0.50031407409E+03 0.  0.
        4    1    3    3  502    0  0.16854959316E+02 -0.16944405497E+03 -0.71563635228E+03  0.73561700567E+03  0.12699999809E+01 0.  1.
       -4    1    3    3    0  502 -0.16854959316E+02  0.16944405497E+03 -0.47295251553E+02  0.17673095693E+03  0.12699999809E+01 0. -1.
</event>
<event>
 5   0  0.1243803E-01  0.5004585E+03  0.7818609E-02  0.1013659E+00
        2   -1    0    0  501    0  0.00000000000E+00  0.00000000000E+00  0.22006784099E+03  0.22006784101E+03  0.25500000920E-02 0.  1.
       -2   -1    0    0    0  501  0.00000000000E+00  0.00000000000E+00 -0.28452447395E+03  0.28452447396E+03  0.25500000920E-02 0. -1.
    10030    2    1    2    0    0  0.00000000000E+00  0.00000000000E+00 -0.64456632954E+02  0.50459231496E+03  0.50045853653E+03 0.  0.
        4    1    3    3  502    0 -0.23529245085E+03  0.59638731087E+02  0.29049990371E+02  0.24446846527E+03  0.12699999809E+01 0.  1.
       -4    1    3    3    0  502  0.23529245085E+03 -0.59638731087E+02 -0.93506623325E+02  0.26012384969E+03  0.12699999809E+01 0. -1.
</event>
<event>
 5   0  0.1191894E-01  0.4969615E+03  0.7818609E-02  0.1014575E+00
        2   -1    0    0  501    0  0.00000000000E+00  0.00000000000E+00  0.19403313303E+03  0.19403313304E+03  0.25500000920E-02 0. -1.
       -2   -1    0    0    0  501  0.00000000000E+00  0.00000000000E+00 -0.31820693360E+03  0.31820693361E+03  0.25500000920E-02 0.  1.
    10030    2    1    2    0    0  0.00000000000E+00  0.00000000000E+00 -0.12417380058E+03  0.51224006666E+03  0.49696152078E+03 0.  0.
        3    1    3    3  502    0 -0.78912647929E+02  0.83883708709E+02  0.16486174178E+03  0.20110466601E+03  0.10100000352E+00 0. -1.
       -3    1    3    3    0  502  0.78912647929E+02 -0.83883708709E+02 -0.28903554235E+03  0.31113540064E+03  0.10100000352E+00 0.  1.
</event>
<event>
 5   0  0.7531632E-02  0.4978939E+03  0.7818609E-02  0.1014330E+00
       -1   -1    0    0    0  501  0.00000000000E+00  0.00000000000E+00  0.22732717993E+03  0.22732717998E+03  0.50400001928E-02 0.  1.
        1   -1    0    0  501    0  0.00000000000E+00  0.00000000000E+00 -0.27262286566E+03  0.27262286570E+03  0.50400001928E-02 0. -1.
    10030    2    1    2    0    0  0.00000000000E+00  0.00000000000E+00 -0.45295685729E+02  0.49995004569E+03  0.49789391344E+03 0.  0.
        3    1    3    3  502    0 -0.95453403564E+01  0.14056829119E+03  0.18344110185E+03  0.23130327723E+03  0.10100000352E+00 0.  1.
       -3    1    3    3    0  502  0.95453403564E+01 -0.14056829119E+03 -0.22873678757E+03  0.26864676846E+03  0.10100000352E+00 0. -1.
</event>
<event>
 5   0  0.1191894E-01  0.4990229E+03  0.7818609E-02  0.1014034E+00
       -2   -1    0    0    0  501  0.00000000000E+00  0.00000000000E+00  0.16413485415E+03  0.16413485417E+03  0.25500000920E-02 0.  1.
        2   -1    0    0  501    0  0.00000000000E+00  0.00000000000E+00 -0.37929759719E+03  0.37929759720E+03  0.25500000920E-02 0. -1.
    10030    2    1    2    0    0  0.00000000000E+00  0.00000000000E+00 -0.21516274303E+03  0.54343245137E+03  0.49902286843E+03 0.  0.
        3    1    3    3  502    0  0.39497212786E+02 -0.20790215200E+03  0.36366094625E+02  0.21472269946E+03  0.10100000352E+00 0.  1.
       -3    1    3    3    0  502 -0.39497212786E+02  0.20790215200E+03 -0.25152883766E+03  0.32870975191E+03  0.10100000352E+00 0. -1.
</event>
<event>
 5   0  0.7781754E-02  0.5012460E+03  0.7818609E-02  0.1013454E+00
        1   -1    0    0  501    0  0.00000000000E+00  0.00000000000E+00  0.94387097956E+02  0.94387098090E+02  0.50400001928E-02 0. -1.
       -1   -1    0    0    0  501  0.00000000000E+00  0.00000000000E+00 -0.66547102049E+03  0.66547102051E+03  0.50400001928E-02 0.  1.
    10030    2    1    2    0    0  0.00000000000E+00  0.00000000000E+00 -0.57108392253E+03  0.75985811860E+03  0.50124596140E+03 0.  0.
        2    1    3    3  502    0  0.22359847554E+03  0.65050239494E+02 -0.14508988652E+03  0.27436998214E+03  0.25500000920E-02 0. -1.
       -2    1    3    3    0  502 -0.22359847554E+03 -0.65050239494E+02 -0.42599403601E+03  0.48548813646E+03  0.25500000920E-02 0.  1.
</event>
<event>
 5   0  0.7416638E-02  0.5064460E+03  0.7818609E-02  0.1012110E+00
        1   -1    0    0  501    0  0.00000000000E+00  0.00000000000E+00  0.27845568626E+04  0.27845568626E+04  0.50400001928E-02 0.  1.
       -1   -1    0    0    0  501  0.00000000000E+00  0.00000000000E+00 -0.23027682189E+02  0.23027682740E+02  0.50400001928E-02 0. -1.
    10030    2    1    2    0    0  0.00000000000E+00  0.00000000000E+00  0.27615291804E+04  0.28075845454E+04  0.50644601390E+03 0.  0.
        1    1    3    3  502    0  0.30114377294E+02  0.24326945868E+03  0.17329089208E+04  0.17501600593E+04  0.50400001928E-02 0.  1.
       -1    1    3    3    0  502 -0.30114377294E+02 -0.24326945868E+03  0.10286202596E+04  0.10574244860E+04  0.50400001928E-02 0. -1.
</event>
<event>
 5   0  0.1243803E-01  0.4983547E+03  0.7818609E-02  0.1014209E+00
       -2   -1    0    0    0  501  0.00000000000E+00  0.00000000000E+00  0.21973755486E+03  0.21973755487E+03  0.25500000920E-02 0. -1.
        2   -1    0    0  501    0  0.00000000000E+00  0.00000000000E+00 -0.28256142794E+03  0.28256142796E+03  0.25500000920E-02 0.  1.
    10030    2    1    2    0    0  0.00000000000E+00  0.00000000000E+00 -0.62823873085E+02  0.50229898283E+03  0.49835472218E+03 0.  0.
        4    1    3    3  502    0  0.13328607233E+03  0.20524339874E+03 -0.78662758203E+02  0.25705927767E+03  0.12699999809E+01 0.  1.
       -4    1    3    3    0  502 -0.13328607233E+03 -0.20524339874E+03  0.15838885118E+02  0.24523970516E+03  0.12699999809E+01 0. -1.
</event>
<event>
 5   0  0.1243803E-01  0.4975899E+03  0.7818609E-02  0.1014410E+00
        2   -1    0    0  501    0  0.00000000000E+00  0.00000000000E+00  0.49878257485E+03  0.49878257485E+03  0.25500000920E-02 0.  1.
       -2   -1    0    0    0  501  0.00000000000E+00  0.00000000000E+00 -0.12410001735E+03  0.12410001738E+03  0.25500000920E-02 0. -1.
    10030    2    1    2    0    0  0.00000000000E+00  0.00000000000E+00  0.37468255750E+03  0.62288259223E+03  0.49758989621E+03 0.  0.
        4    1    3    3  502    0 -0.20081406532E+03  0.24877632741E+02  0.36853732141E+03  0.42043614927E+03  0.12699999809E+01 0.  1.
       -4    1    3    3    0  502  0.20081406532E+03 -0.24877632741E+02  0.61452360930E+01  0.20244644296E+03  0.12699999809E+01 0. -1.
</event>
<event>
 5   0  0.1243803E-01  0.4744336E+03  0.7818609E-02  0.1020676E+00
       -2   -1    0    0    0  501  0.00000000000E+00  0.00000000000E+00  0.13602856847E+03  0.13602856850E+03  0.25500000920E-02 0.  1.
        2   -1    0    0  501    0  0.00000000000E+00  0.00000000000E+00 -0.41367633903E+03  0.41367633903E+03  0.25500000920E-02 0. -1.
    10030    2    1    2    0    0  0.00000000000E+00  0.00000000000E+00 -0.27764777055E+03  0.54970490753E+03  0.47443355791E+03 0.  0.
        4    1    3    3  502    0 -0.23672765514E+03 -0.14925816474E+02 -0.14198100497E+03  0.27644706795E+03  0.12699999809E+01 0. -1.
       -4    1    3    3    0  502  0.23672765514E+03  0.14925816474E+02 -0.13566676558E+03  0.27325783958E+03  0.12699999809E+01 0.  1.
</event>
<event>
 5   0  0.7602288E-02  0.5010330E+03  0.7818609E-02  0.1013510E+00
        1   -1    0    0  501    0  0.00000000000E+00  0.00000000000E+00  0.52027590073E+03  0.52027590076E+03  0.50400001928E-02 0. -1.
       -1   -1    0    0    0  501  0.00000000000E+00  0.00000000000E+00 -0.12062546131E+03  0.12062546141E+03  0.50400001928E-02 0.  1.
    10030    2    1    2    0    0  0.00000000000E+00  0.00000000000E+00  0.39965043942E+03  0.64090136217E+03  0.50103301518E+03 0.  0.
        5    1    3    3  502    0  0.10176189509E+03  0.13595946654E+03 -0.35679105879E+02  0.17359593437E+03  0.46999998093E+01 0.  1.
       -5    1    3    3    0  502 -0.10176189509E+03 -0.13595946654E+03  0.43532954530E+03  0.46730542780E+03  0.46999998093E+01 0. -1.
</event>
<event>
 5   0  0.7416638E-02  0.4993709E+03  0.7818609E-02  0.1013943E+00
       -1   -1    0    0    0  501  0.00000000000E+00  0.00000000000E+00  0.11665043744E+03  0.11665043754E+03  0.50400001928E-02 0.  1.
        1   -1    0    0  501    0  0.00000000000E+00  0.00000000000E+00 -0.53444141223E+03  0.53444141225E+03  0.50400001928E-02 0. -1.
    10030    2    1    2    0    0  0.00000000000E+00  0.00000000000E+00 -0.41779097479E+03  0.65109184980E+03  0.49937090249E+03 0.  0.
        1    1    3    3  502    0  0.28542541727E+02 -0.53529999711E+02  0.10689569663E+03  0.12290983500E+03  0.50400001928E-02 0.  1.
       -1    1    3    3    0  502 -0.28542541727E+02  0.53529999711E+02 -0.52468667142E+03  0.52818201479E+03  0.50400001928E-02 0. -1.
</event>
<event>
 5   0  0.5006750E-02  0.5054324E+03  0.7818609E-02  0.1012371E+00
       -3   -1    0    0    0  501  0.00000000000E+00  0.00000000000E+00  0.22443892366E+03  0.22443894638E+03  0.10100000352E+00 0. -1.
        3   -1    0    0  501    0  0.00000000000E+00  0.00000000000E+00 -0.28455610460E+03  0.28455612252E+03  0.10100000352E+00 0.  1.
    10030    2    1    2    0    0  0.00000000000E+00  0.00000000000E+00 -0.60117180943E+02  0.50899506891E+03  0.50543239382E+03 0.  0.
        2    1    3    3  502    0  0.20948732653E+03  0.23137095807E+02 -0.17048759976E+03  0.27108354221E+03  0.25500000920E-02 0.  1.
       -2    1    3    3    0  502 -0.20948732653E+03 -0.23137095807E+02  0.11037041882E+03  0.23791152670E+03  0.25500000920E-02 0. -1.
</event>
<event>
 5   0  0.1191894E-01  0.5017693E+03  0.7818609E-02  0.1013318E+00
       -2   -1    0    0    0  501  0.00000000000E+00  0.00000000000E+00  0.55628987313E+03  0.55628987314E+03  0.25500000920E-02 0.  1.
        2   -1    0    0  501    0  0.00000000000E+00  0.00000000000E+00 -0.11314804574E+03  0.11314804577E+03  0.25500000920E-02 0. -1.
    10030    2    1    2    0    0  0.00000000000E+00  0.00000000000E+00  0.44314182739E+03  0.66943791891E+03  0.50176931761E+03 0.  0.
        3    1    3    3  502    0 -0.15190027543E+03 -0.19545801468E+03  0.16712215333E+03  0.29867600090E+03  0.10100000352E+00 0. -1.
       -3    1    3    3    0  502  0.15190027543E+03  0.19545801468E+03  0.27601967406E+03  0.37076191801E+03  0.10100000352E+00 0.  1.
</event>
<event>
 5   0  0.5006750E-02  0.4334610E+03  0.7818609E-02  0.1032772E+00
        3   -1    0    0  501    0  0.00000000000E+00  0.00000000000E+00  0.20571778822E+04  0.20571778847E+04  0.10100000352E+00 0.  1.
       -3   -1    0    0    0  501  0.00000000000E+00  0.00000000000E+00 -0.22833162466E+02  0.22833385846E+02  0.10100000352E+00 0. -1.
    10030    2    1    2    0    0  0.00000000000E+00  0.00000000000E+00  0.20343447197E+04  0.20800112705E+04  0.43346100955E+03 0.  0.
        5    1    3    3  502    0  0.26390035787E+02 -0.17864556694E+02 -0.11281679587E+02  0.34131256455E+02  0.46999998093E+01 0. -1.
       -5    1    3    3    0  502 -0.26390035787E+02  0.17864556694E+02  0.20456263993E+04  0.20458800140E+04  0.46999998093E+01 0.  1.
</event>
<event>
 5   0  0.5006750E-02  0.4963043E+03  0.7818609E-02  0.1014748E+00
       -3   -1    0    0    0  501  0.00000000000E+00  0.00000000000E+00  0.12137596806E+03  0.12137601009E+03  0.10100000352E+00 0.  1.
        3   -1    0    0  501    0  0.00000000000E+00  0.00000000000E+00 -0.50734488477E+03  0.50734489483E+03  0.10100000352E+00 0. -1.
    10030    2    1    2    0    0  0.00000000000E+00  0.00000000000E+00 -0.38596891671E+03  0.62872090491E+03  0.49630431351E+03 0.  0.
        4    1    3    3  502    0  0.32204189640E+02 -0.73474297682E+02  0.10449177962E+03  0.13174113692E+03  0.12699999809E+01 0.  1.
       -4    1    3    3    0  502 -0.32204189640E+02  0.73474297682E+02 -0.49046069633E+03  0.49697976799E+03  0.12699999809E+01 0. -1.
</event>
<event>
 5   0  0.1231822E-01  0.5012109E+03  0.7818609E-02  0.1013463E+00
        2   -1    0    0  501    0  0.00000000000E+00  0.00000000000E+00  0.14068427507E+04  0.14068427507E+04  0.25500000920E-02 0. -1.
       -2   -1    0    0    0  501  0.00000000000E+00  0.00000000000E+00 -0.44641153173E+02  0.44641153245E+02  0.25500000920E-02 0.  1.
    10030    2    1    2    0    0  0.00000000000E+00  0.00000000000E+00  0.13622015975E+04  0.14514839039E+04  0.50121086491E+03 0.  0.
        1    1    3    3  502    0  0.21737871188E+03 -0.64671043371E+02  0.98985946586E+03  0.10155085477E+04  0.50400001928E-02 0. -1.
       -1    1    3    3    0  502 -0.21737871188E+03  0.64671043371E+02  0.37234213163E+03  0.43597535623E+03  0.50400001928E-02 0.  1.
</event>
<event>
 5   0  0.5006750E-02  0.4979019E+03  0.7818609E-02  0.1014328E+00
        4   -1    0    0  501    0  0.00000000000E+00  0.00000000000E+00  0.18219508427E+03  0.18219951051E+03  0.12699999809E+01 0.  1.
       -4   -1    0    0    0  501  0.00000000000E+00  0.00000000000E+00 -0.34015627887E+03  0.34015864968E+03  0.12699999809E+01 0. -1.
    10030    2    1    2    0    0  0.00000000000E+00  0.00000000000E+00 -0.15796119460E+03  0.52235816019E+03  0.49790190652E+03 0.  0.
        4    1    3    3  502    0  0.23474142461E+03  0.32599497646E+02 -0.15893899612E+03  0.28535851321E+03  0.12699999809E+01 0. -1.
       -4    1    3    3    0  502 -0.23474142461E+03 -0.32599497646E+02  0.97780152306E+00  0.23699964698E+03  0.12699999809E+01 0.  1.
</event>
<event>
 5   0  0.7416638E-02  0.4972134E+03  0.7818609E-02  0.1014509E+00
       -1   -1    0    0    0  501  0.00000000000E+00  0.00000000000E+00  0.49564919187E+02  0.49564919443E+02  0.50400001928E-02 0.  1.
        1   -1    0    0  501    0  0.00000000000E+00  0.00000000000E+00 -0.12469564876E+04  0.12469564876E+04  0.50400001928E-02 0. -1.
    10030    2    1    2    0    0  0.00000000000E+00  0.00000000000E+00 -0.11973915684E+04  0.12965214070E+04  0.49721342584E+03 0.  0.
        1    1    3    3  502    0  0.25095100731E+01 -0.15046731338E+03 -0.82695008401E+02  0.17171247618E+03  0.50400001928E-02 0.  1.
       -1    1    3    3    0  502 -0.25095100731E+01  0.15046731338E+03 -0.11146965600E+04  0.11248089309E+04  0.50400001928E-02 0. -1.
</event>
<event>
 5   0  0.5006750E-02  0.4955197E+03  0.7818609E-02  0.1014955E+00
        4   -1    0    0  501    0  0.00000000000E+00  0.00000000000E+00  0.13576156145E+03  0.13576750151E+03  0.12699999809E+01 0.  1.
       -4   -1    0    0    0  501  0.00000000000E+00  0.00000000000E+00 -0.45213592310E+03  0.45213770675E+03  0.12699999809E+01 0. -1.
    10030    2    1    2    0    0  0.00000000000E+00  0.00000000000E+00 -0.31637436166E+03  0.58790520826E+03  0.49551972431E+03 0.  0.
        3    1    3    3  502    0 -0.17811133420E+03 -0.11808747787E+03 -0.30692664212E+03  0.37399501821E+03  0.10100000352E+00 0. -1.
       -3    1    3    3    0  502  0.17811133420E+03  0.11808747787E+03 -0.94477195409E+01  0.21391019005E+03  0.10100000352E+00 0.  1.
</event>
<event>
 5   0  0.1191894E-01  0.4983772E+03  0.7818609E-02  0.1014203E+00
       -2   -1    0    0    0  501  0.00000000000E+00  0.00000000000E+00  0.11769120514E+03  0.11769120517E+03  0.25500000920E-02 0. -1.
        2   -1    0    0  501    0  0.00000000000E+00  0.00000000000E+00 -0.52760926387E+03  0.52760926388E+03  0.25500000920E-02 0.  1.
    10030    2    1    2    0    0  0.00000000000E+00  0.00000000000E+00 -0.40991805874E+03  0.64530046905E+03  0.49837724715E+03 0.  0.
        3    1    3    3  502    0 -0.12994642896E+03  0.19441985673E+03 -0.31641598037E+03  0.39345169706E+03  0.10100000352E+00 0.  1.
       -3    1    3    3    0  502  0.12994642896E+03 -0.19441985673E+03 -0.93502078367E+02  0.25184877198E+03  0.10100000352E+00 0. -1.
</event>
<event>
 5   0  0.5006750E-02  0.5025672E+03  0.7818609E-02  0.1013111E+00
       -4   -1    0    0    0  501  0.00000000000E+00  0.00000000000E+00  0.21376435259E+03  0.21376812517E+03  0.12699999809E+01 0.  1.
        4   -1    0    0  501    0  0.00000000000E+00  0.00000000000E+00 -0.29538037498E+03  0.29538310517E+03  0.12699999809E+01 0. -1.
    10030    2    1    2    0    0  0.00000000000E+00  0.00000000000E+00 -0.81616022388E+02  0.50915123034E+03  0.50256720968E+03 0.  0.
        5    1    3    3  502    0  0.19297568027E+03 -0.15605166708E+03 -0.80430796880E+02  0.26092707613E+03  0.46999998093E+01 0.  1.
       -5    1    3    3    0  502 -0.19297568027E+03  0.15605166708E+03 -0.11852255086E+01  0.24822415421E+03  0.46999998093E+01 0. -1.
</event>
<event>
 5   0  0.1243803E-01  0.4620984E+03  0.7818609E-02  0.1024174E+00
        2   -1    0    0  501    0  0.00000000000E+00  0.00000000000E+00  0.10487187715E+04  0.10487187715E+04  0.25500000920E-02 0. -1.
       -2   -1    0    0    0  501  0.00000000000E+00  0.00000000000E+00 -0.50903753648E+02  0.50903753712E+02  0.25500000920E-02 0.  1.
    10030    2    1    2    0    0  0.00000000000E+00  0.00000000000E+00  0.99781501788E+03  0.10996225252E+04  0.46209835329E+03 0.  0.
        4    1    3    3  502    0  0.14877843479E+03 -0.66917191202E+02  0.10956958554E+03  0.19651982117E+03  0.12699999809E+01 0.  1.
       -4    1    3    3    0  502 -0.14877843479E+03  0.66917191202E+02  0.88824543234E+03  0.90310270408E+03  0.12699999809E+01 0. -1.
</event>
<event>
 5   0  0.7531632E-02  0.5011000E+03  0.7818609E-02  0.1013492E+00
        1   -1    0    0  501    0  0.00000000000E+00  0.00000000000E+00  0.65587773581E+03  0.65587773583E+03  0.50400001928E-02 0.  1.
       -1   -1    0    0    0  501  0.00000000000E+00  0.00000000000E+00 -0.95711910788E+02  0.95711910920E+02  0.50400001928E-02 0. -1.
    10030    2    1    2    0    0  0.00000000000E+00  0.00000000000E+00  0.56016582503E+03  0.75158964675E+03  0.50110003550E+03 0.  0.
        3    1    3    3  502    0  0.83480711348E+02  0.44706214484E+02 -0.67836188776E+02  0.11648791134E+03  0.10100000352E+00 0. -1.
       -3    1    3    3    0  502 -0.83480711348E+02 -0.44706214484E+02  0.62800201380E+03  0.63510173541E+03  0.10100000352E+00 0.  1.
</event>
<event>
 5   0  0.7416638E-02  0.5022682E+03  0.7818609E-02  0.1013189E+00
        1   -1    0    0  501    0  0.00000000000E+00  0.00000000000E+00  0.13263377136E+04  0.13263377136E+04  0.50400001928E-02 0. -1.
       -1   -1    0    0    0  501  0.00000000000E+00  0.00000000000E+00 -0.47550746322E+02  0.47550746589E+02  0.50400001928E-02 0.  1.
    10030    2    1    2    0    0  0.00000000000E+00  0.00000000000E+00  0.12787869673E+04  0.13738884602E+04  0.50226824843E+03 0.  0.
        1    1    3    3  502    0 -0.23690351893E+03 -0.51374805555E+02  0.45990455941E+03  0.51987965119E+03  0.50400001928E-02 0.  1.
       -1    1    3    3    0  502  0.23690351893E+03  0.51374805555E+02  0.81888240786E+03  0.85400880900E+03  0.50400001928E-02 0. -1.
</event>
<event>
 5   0  0.1243803E-01  0.5033340E+03  0.7818609E-02  0.1012912E+00
       -2   -1    0    0    0  501  0.00000000000E+00  0.00000000000E+00  0.20484160299E+03  0.20484160300E+03  0.25500000920E-02 0.  1.
        2   -1    0    0  501    0  0.00000000000E+00  0.00000000000E+00 -0.30919638686E+03  0.30919638687E+03  0.25500000920E-02 0. -1.
    10030    2    1    2    0    0  0.00000000000E+00  0.00000000000E+00 -0.10435478387E+03  0.51403798988E+03  0.50333401844E+03 0.  0.
        4    1    3    3  502    0 -0.21219012966E+03 -0.66065496679E+01  0.85849940211E+02  0.22899808462E+03  0.12699999809E+01 0.  1.
       -4    1    3    3    0  502  0.21219012966E+03  0.66065496679E+01 -0.19020472409E+03  0.28503990526E+03  0.12699999809E+01 0. -1.
</event>
<event>
 5   0  0.1211345E-01  0.5025529E+03  0.7818609E-02  0.1013115E+00
        2   -1    0    0  501    0  0.00000000000E+00  0.00000000000E+00  0.16317232266E+04  0.16317232266E+04  0.25500000920E-02 0.  1.
       -2   -1    0    0    0  501  0.00000000000E+00  0.00000000000E+00 -0.38695193014E+02  0.38695193098E+02  0.25500000920E-02 0. -1.
    10030    2    1    2    0    0  0.00000000000E+00  0.00000000000E+00  0.15930280336E+04  0.16704184197E+04  0.50255286397E+03 0.  0.
        5    1    3    3  502    0 -0.12747275175E+03  0.13386125733E+03  0.13620560989E+04  0.13745497609E+04  0.46999998093E+01 0.  1.
       -5    1    3    3    0  502  0.12747275175E+03 -0.13386125733E+03  0.23097193473E+03  0.29586865884E+03  0.46999998093E+01 0. -1.
</event>
<event>
 5   0  0.5006750E-02  0.4972637E+03  0.7818609E-02  0.1014496E+00
        4   -1    0    0  501    0  0.00000000000E+00  0.00000000000E+00  0.11723559165E+04  0.11723566044E+04  0.12699999809E+01 0.  1.
       -4   -1    0    0    0  501  0.00000000000E+00  0.00000000000E+00 -0.52721196799E+02  0.52736491084E+02  0.12699999809E+01 0. -1.
    10030    2    1    2    0    0  0.00000000000E+00  0.00000000000E+00  0.11196347197E+04  0.12250930955E+04  0.49726369967E+03 0.  0.
        3    1    3    3  502    0  0.15044131216E+03  0.11529490478E+03  0.16338645052E+03  0.25024117545E+03  0.10100000352E+00 0. -1.
       -3    1    3    3    0  502 -0.15044131216E+03 -0.11529490478E+03  0.95624826916E+03  0.97485192001E+03  0.10100000352E+00 0.  1.
</event>
<event>
 5   0  0.7781754E-02  0.4961629E+03  0.7818609E-02  0.1014785E+00
       -1   -1    0    0    0  501  0.00000000000E+00  0.00000000000E+00  0.11971963234E+03  0.11971963244E+03  0.50400001928E-02 0. -1.
        1   -1    0    0  501    0  0.00000000000E+00  0.00000000000E+00 -0.51407103086E+03  0.51407103088E+03  0.50400001928E-02 0.  1.
    10030    2    1    2    0    0  0.00000000000E+00  0.00000000000E+00 -0.39435139852E+03  0.63379066332E+03  0.49616285572E+03 0.  0.
        2    1    3    3  502    0  0.35841731276E+02  0.20875677113E+03 -0.32198281388E+02  0.21424459976E+03  0.25500000920E-02 0. -1.
       -2    1    3    3    0  502 -0.35841731276E+02 -0.20875677113E+03 -0.36215311713E+03  0.41954606356E+03  0.25500000920E-02 0.  1.
</event>
<event>
 5   0  0.7416638E-02  0.5093006E+03  0.7818609E-02  0.1011379E+00
        1   -1    0    0  501    0  0.00000000000E+00  0.00000000000E+00  0.16374501812E+03  0.16374501819E+03  0.50400001928E-02 0. -1.
       -1   -1    0    0    0  501  0.00000000000E+00  0.00000000000E+00 -0.39602288538E+03  0.39602288541E+03  0.50400001928E-02 0.  1.
    10030    2    1    2    0    0  0.00000000000E+00  0.00000000000E+00 -0.23227786726E+03  0.55976790360E+03  0.50930059717E+03 0.  0.
        1    1    3    3  502    0 -0.51169642339E+02 -0.10649951627E+03  0.13179400299E+03  0.17700321611E+03  0.50400001928E-02 0. -1.
       -1    1    3    3    0  502  0.51169642339E+02  0.10649951627E+03 -0.36407187025E+03  0.38276468749E+03  0.50400001928E-02 0.  1.
</event>
<event>
 5   0  0.7602288E-02  0.4981096E+03  0.7818609E-02  0.1014274E+00
        1   -1    0    0  501    0  0.00000000000E+00  0.00000000000E+00  0.81918501999E+03  0.81918502001E+03  0.50400001928E-02 0.  1.
       -1   -1    0    0    0  501  0.00000000000E+00  0.00000000000E+00 -0.75719526724E+02  0.75719526892E+02  0.50400001928E-02 0. -1.
    10030    2    1    2    0    0  0.00000000000E+00  0.00000000000E+00  0.74346549327E+03  0.89490454690E+03  0.49810963490E+03 0.  0.
        5    1    3    3  502    0  0.12368332902E+03  0.88863361600E+02  0.72567670161E+03  0.74150052473E+03  0.46999998093E+01 0.  1.
       -5    1    3    3    0  502 -0.12368332902E+03 -0.88863361600E+02  0.17788791660E+02  0.15340402217E+03  0.46999998093E+01 0. -1.
</event>
<event>
 5   0  0.7531632E-02  0.4885557E+03  0.7818609E-02  0.1016810E+00
       -1   -1    0    0    0  501  0.00000000000E+00  0.00000000000E+00  0.66825770434E+02  0.66825770624E+02  0.50400001928E-02 0.  1.
        1   -1    0    0  501    0  0.00000000000E+00  0.00000000000E+00 -0.89294399839E+03  0.89294399841E+03  0.50400001928E-02 0. -1.
    10030    2    1    2    0    0  0.00000000000E+00  0.00000000000E+00 -0.82611822796E+03  0.95976976903E+03  0.48855571124E+03 0.  0.
        3    1    3    3  502    0  0.14079652575E+03  0.13191563180E+03 -0.11873556313E+03  0.22654699232E+03  0.10100000352E+00 0.  1.
       -3    1    3    3    0  502 -0.14079652575E+03 -0.13191563180E+03 -0.70738266483E+03  0.73322277671E+03  0.10100000352E+00 0. -1.
</event>
<event>
 5   0  0.1231822E-01  0.4795154E+03  0.7818609E-02  0.1019268E+00
       -2   -1    0    0    0  501  0.00000000000E+00  0.00000000000E+00  0.58863129423E+03  0.58863129423E+03  0.25500000920E-02 0.  1.
        2   -1    0    0  501    0  0.00000000000E+00  0.00000000000E+00 -0.97656651983E+02  0.97656652016E+02  0.25500000920E-02 0. -1.
    10030    2    1    2    0    0  0.00000000000E+00  0.00000000000E+00  0.49097464224E+03  0.68628794625E+03  0.47951542816E+03 0.  0.
        1    1    3    3  502    0  0.19226790804E+02 -0.12405370469E+03 -0.46861107261E+02  0.13399609894E+03  0.50400001928E-02 0. -1.
       -1    1    3    3    0  502 -0.19226790804E+02  0.12405370469E+03  0.53783574950E+03  0.55229184731E+03  0.50400001928E-02 0.  1.
</event>
<event>
 5   0  0.7531632E-02  0.5362788E+03  0.7818609E-02  0.1004721E+00
       -1   -1    0    0    0  501  0.00000000000E+00  0.00000000000E+00  0.22721957562E+03  0.22721957568E+03  0.50400001928E-02 0. -1.
        1   -1    0    0  501    0  0.00000000000E+00  0.00000000000E+00 -0.31642848024E+03  0.31642848028E+03  0.50400001928E-02 0.  1.
    10030    2    1    2    0    0  0.00000000000E+00  0.00000000000E+00 -0.89208904617E+02  0.54364805595E+03  0.53627882681E+03 0.  0.
        3    1    3    3  502    0  0.11884495978E+03 -0.48383217159E+02 -0.28328334977E+03  0.31098959247E+03  0.10100000352E+00 0.  1.
       -3    1    3    3    0  502 -0.11884495978E+03  0.48383217159E+02  0.19407444515E+03  0.23265846348E+03  0.10100000352E+00 0. -1.
</event>
<event>
 5   0  0.7416638E-02  0.4929819E+03  0.7818609E-02  0.1015627E+00
       -1   -1    0    0    0  501  0.00000000000E+00  0.00000000000E+00  0.26493080164E+03  0.26493080169E+03  0.50400001928E-02 0.  1.
        1   -1    0    0  501    0  0.00000000000E+00  0.00000000000E+00 -0.22933452071E+03  0.22933452076E+03  0.50400001928E-02 0. -1.
    10030    2    1    2    0    0  0.00000000000E+00  0.00000000000E+00  0.35596280933E+02  0.49426532245E+03  0.49298185946E+03 0.  0.
        1    1    3    3  502    0 -0.36174137926E+02 -0.21640424011E+02 -0.22569397826E+03  0.22959670742E+03  0.50400001928E-02 0. -1.
       -1    1    3    3    0  502  0.36174137926E+02  0.21640424011E+02  0.26129025920E+03  0.26466861503E+03  0.50400001928E-02 0.  1.
</event>
<event>
 5   0  0.7416638E-02  0.5008625E+03  0.7818609E-02  0.1013554E+00
       -1   -1    0    0    0  501  0.00000000000E+00  0.00000000000E+00  0.30946435703E+03  0.30946435707E+03  0.50400001928E-02 0. -1.
        1   -1    0    0  501    0  0.00000000000E+00  0.00000000000E+00 -0.20265925790E+03  0.20265925796E+03  0.50400001928E-02 0.  1.
    10030    2    1    2    0    0  0.00000000000E+00  0.00000000000E+00  0.10680509913E+03  0.51212361503E+03  0.50086252392E+03 0.  0.
        1    1    3    3  502    0  0.16876823307E+03 -0.10462213483E+03  0.20943535642E+03  0.28860297319E+03  0.50400001928E-02 0. -1.
       -1    1    3    3    0  502 -0.16876823307E+03  0.10462213483E+03 -0.10263025729E+03  0.22352064184E+03  0.50400001928E-02 0.  1.
</event>
<event>
 5   0  0.7781754E-02  0.5003844E+03  0.7818609E-02  0.1013679E+00
       -1   -1    0    0    0  501  0.00000000000E+00  0.00000000000E+00  0.18884989605E+03  0.18884989612E+03  0.50400001928E-02 0. -1.
        1   -1    0    0  501    0  0.00000000000E+00  0.00000000000E+00 -0.33145970898E+03  0.33145970901E+03  0.50400001928E-02 0.  1.
    10030    2    1    2    0    0  0.00000000000E+00  0.00000000000E+00 -0.14260981293E+03  0.52030960513E+03  0.50038437870E+03 0.  0.
        2    1    3    3  502    0 -0.76279145408E+02  0.12540923278E+03  0.13937128719E+03  0.20241131240E+03  0.25500000920E-02 0. -1.
       -2    1    3    3    0  502  0.76279145408E+02 -0.12540923278E+03 -0.28198110011E+03  0.31789829273E+03  0.25500000920E-02 0.  1.
</event>
<event>
 5   0  0.7531632E-02  0.5003177E+03  0.7818609E-02  0.1013696E+00
        1   -1    0    0  501    0  0.00000000000E+00  0.00000000000E+00  0.94320450980E+03  0.94320450981E+03  0.50400001928E-02 0.  1.
       -1   -1    0    0    0  501  0.00000000000E+00  0.00000000000E+00 -0.66347688879E+02  0.66347689071E+02  0.50400001928E-02 0. -1.
    10030    2    1    2    0    0  0.00000000000E+00  0.00000000000E+00  0.87685682092E+03  0.10095521989E+04  0.50031765697E+03 0.  0.
        3    1    3    3  502    0  0.77366207124E+02 -0.22917161516E+03  0.30963078523E+03  0.39290761327E+03  0.10100000352E+00 0. -1.
       -3    1    3    3    0  502 -0.77366207124E+02  0.22917161516E+03  0.56722603569E+03  0.61664458562E+03  0.10100000352E+00 0.  1.
</event>
<event>
 5   0  0.1231822E-01  0.4913396E+03  0.7818609E-02  0.1016064E+00
       -2   -1    0    0    0  501  0.00000000000E+00  0.00000000000E+00  0.13861826274E+03  0.13861826276E+03  0.25500000920E-02 0.  1.
        2   -1    0    0  501    0  0.00000000000E+00  0.00000000000E+00 -0.43539474215E+03  0.43539474216E+03  0.25500000920E-02 0. -1.
    10030    2    1    2    0    0  0.00000000000E+00  0.00000000000E+00 -0.29677647941E+03  0.57401300492E+03  0.49133964941E+03 0.  0.
        1    1    3    3  502    0  0.33246267996E+02 -0.24146223115E+03 -0.11248745338E+03  0.26844506067E+03  0.50400001928E-02 0. -1.
       -1    1    3    3    0  502 -0.33246267996E+02  0.24146223115E+03 -0.18428902603E+03  0.30556794424E+03  0.50400001928E-02 0.  1.
</event>
<event>
 5   0  0.1191894E-01  0.5001612E+03  0.7818609E-02  0.1013737E+00
        2   -1    0    0  501    0  0.00000000000E+00  0.00000000000E+00  0.33462152879E+03  0.33462152880E+03  0.25500000920E-02 0.  1.
       -2   -1    0    0    0  501  0.00000000000E+00  0.00000000000E+00 -0.18689866518E+03  0.18689866520E+03  0.25500000920E-02 0. -1.
    10030    2    1    2    0    0  0.00000000000E+00  0.00000000000E+00  0.14772286361E+03  0.52152019401E+03  0.50016124232E+03 0.  0.
        3    1    3    3  502    0 -0.20126361443E+01  0.21471725764E+03  0.20752599718E+03  0.29862116660E+03  0.10100000352E+00 0.  1.
       -3    1    3    3    0  502  0.20126361443E+01 -0.21471725764E+03 -0.59803133570E+02  0.22289902741E+03  0.10100000352E+00 0. -1.
</event>
<event>
 5   0  0.7531632E-02  0.5095298E+03  0.7818609E-02  0.1011321E+00
        1   -1    0    0  501    0  0.00000000000E+00  0.00000000000E+00  0.68658360897E+03  0.68658360899E+03  0.50400001928E-02 0. -1.
       -1   -1    0    0    0  501  0.00000000000E+00  0.00000000000E+00 -0.94533489369E+02  0.94533489503E+02  0.50400001928E-02 0.  1.
    10030    2    1    2    0    0  0.00000000000E+00  0.00000000000E+00  0.59205011960E+03  0.78111709849E+03  0.50952976109E+03 0.  0.
        3    1    3    3  502    0 -0.33439922727E+02 -0.15274919863E+03 -0.12315374864E+02  0.15685096357E+03  0.10100000352E+00 0.  1.
       -3    1    3    3    0  502  0.33439922727E+02  0.15274919863E+03  0.60436549447E+03  0.62426613492E+03  0.10100000352E+00 0. -1.
</event>
<event>
 5   0  0.1211345E-01  0.4981055E+03  0.7818609E-02  0.1014275E+00
        2   -1    0    0  501    0  0.00000000000E+00  0.00000000000E+00  0.24125250584E+03  0.24125250585E+03  0.25500000920E-02 0.  1.
       -2   -1    0    0    0  501  0.00000000000E+00  0.00000000000E+00 -0.25710519162E+03  0.25710519163E+03  0.25500000920E-02 0. -1.
    10030    2    1    2    0    0  0.00000000000E+00  0.00000000000E+00 -0.15852685780E+02  0.49835769748E+03  0.49810549785E+03 0.  0.
        5    1    3    3  502    0  0.73000610455E+02  0.36102651512E+02  0.22750682750E+03  0.24168975388E+03  0.46999998093E+01 0.  1.
       -5    1    3    3    0  502 -0.73000610455E+02 -0.36102651512E+02 -0.24335951328E+03  0.25666794360E+03  0.46999998093E+01 0. -1.
</event>
<event>
 5   0  0.7781754E-02  0.5017855E+03  0.7818609E-02  0.1013314E+00
       -1   -1    0    0    0  501  0.00000000000E+00  0.00000000000E+00  0.27573590220E+03  0.27573590225E+03  0.50400001928E-02 0.  1.
        1   -1    0    0  501    0  0.00000000000E+00  0.00000000000E+00 -0.22828793313E+03  0.22828793318E+03  0.50400001928E-02 0. -1.
    10030    2    1    2    0    0  0.00000000000E+00  0.00000000000E+00  0.47447969074E+02  0.50402383543E+03  0.50178552880E+03 0.  0.
        2    1    3    3  502    0  0.15609801111E+03  0.19015427729E+03 -0.25708759594E+02  0.24735840105E+03  0.25500000920E-02 0. -1.
       -2    1    3    3    0  502 -0.15609801111E+03 -0.19015427729E+03  0.73156728668E+02  0.25666543437E+03  0.25500000920E-02 0.  1.
</event>
<event>
 5   0  0.7781754E-02  0.4985255E+03  0.7818609E-02  0.1014164E+00
       -1   -1    0    0    0  501  0.00000000000E+00  0.00000000000E+00  0.50582956802E+02  0.50582957053E+02  0.50400001928E-02 0. -1.
        1   -1    0    0  501    0  0.00000000000E+00  0.00000000000E+00 -0.12283172782E+04  0.12283172782E+04  0.50400001928E-02 0.  1.
    10030    2    1    2    0    0  0.00000000000E+00  0.00000000000E+00 -0.11777343214E+04  0.12789002353E+04  0.49852550583E+03 0.  0.
        2    1    3    3  502    0  0.11143642360E+03  0.21636470953E+02 -0.11581570505E+04  0.11637069936E+04  0.25500000920E-02 0.  1.
       -2    1    3    3    0  502 -0.11143642360E+03 -0.21636470953E+02 -0.19577270916E+02  0.11519324166E+03  0.25500000920E-02 0. -1.
</event>
<event>
 5   0  0.7416638E-02  0.5009962E+03  0.7818609E-02  0.1013519E+00
       -1   -1    0    0    0  501  0.00000000000E+00  0.00000000000E+00  0.36075603526E+03  0.36075603529E+03  0.50400001928E-02 0. -1.
        1   -1    0    0  501    0  0.00000000000E+00  0.00000000000E+00 -0.17393831436E+03  0.17393831443E+03  0.50400001928E-02 0.  1.
    10030    2    1    2    0    0  0.00000000000E+00  0.00000000000E+00  0.18681772090E+03  0.53469434973E+03  0.50099619438E+03 0.  0.
        1    1    3    3  502    0 -0.43816922380E+02 -0.23932949720E+03  0.15700520875E+03  0.28956720553E+03  0.50400001928E-02 0. -1.
       -1    1    3    3    0  502  0.43816922380E+02  0.23932949720E+03  0.29812512150E+02  0.24512714420E+03  0.50400001928E-02 0.  1.
</event>
<event>
 5   0  0.7531632E-02  0.4952120E+03  0.7818609E-02  0.1015036E+00
        1   -1    0    0  501    0  0.00000000000E+00  0.00000000000E+00  0.25445191335E+03  0.25445191340E+03  0.50400001928E-02 0. -1.
       -1   -1    0    0    0  501  0.00000000000E+00  0.00000000000E+00 -0.24094428699E+03  0.24094428704E+03  0.50400001928E-02 0.  1.
    10030    2    1    2    0    0  0.00000000000E+00  0.00000000000E+00  0.13507626367E+02  0.49539620044E+03  0.49521201464E+03 0.  0.
        3    1    3    3  502    0  0.39032883843E+01 -0.13336575159E+03 -0.20190723917E+03  0.24200868329E+03  0.10100000352E+00 0.  1.
       -3    1    3    3    0  502 -0.39032883843E+01  0.13336575159E+03  0.21541486553E+03  0.25338751716E+03  0.10100000352E+00 0. -1.
</event>
<event>
 5   0  0.1211345E-01  0.4975310E+03  0.7818609E-02  0.1014425E+00
        2   -1    0    0  501    0  0.00000000000E+00  0.00000000000E+00  0.20630777729E+03  0.20630777730E+03  0.25500000920E-02 0. -1.
       -2   -1    0    0    0  501  0.00000000000E+00  0.00000000000E+00 -0.29996097617E+03  0.29996097618E+03  0.25500000920E-02 0.  1.
    10030    2    1    2    0    0  0.00000000000E+00  0.00000000000E+00 -0.93653198884E+02  0.50626875349E+03  0.49753103330E+03 0.  0.
        5    1    3    3  502    0  0.54716568330E+02  0.18550644384E+03  0.11230284363E+03  0.22369747929E+03  0.46999998093E+01 0. -1.
       -5    1    3    3    0  502 -0.54716568330E+02 -0.18550644384E+03 -0.20595604251E+03  0.28257127420E+03  0.46999998093E+01 0.  1.
</event>
<event>
 5   0  0.1243803E-01  0.4999194E+03  0.7818609E-02  0.1013800E+00
       -2   -1    0    0    0  501  0.00000000000E+00  0.00000000000E+00  0.75816637801E+02  0.75816637844E+02  0.25500000920E-02 0. -1.
        2   -1    0    0  501    0  0.00000000000E+00  0.00000000000E+00 -0.82409171600E+03  0.82409171600E+03  0.25500000920E-02 0.  1.
    10030    2    1    2    0    0  0.00000000000E+00  0.00000000000E+00 -0.74827507820E+03  0.89990835385E+03  0.49991944618E+03 0.  0.
        4    1    3    3  502    0  0.97687393756E+02  0.17357621393E+03 -0.64598775413E+03  0.67599801799E+03  0.12699999809E+01 0.  1.
       -4    1    3    3    0  502 -0.97687393756E+02 -0.17357621393E+03 -0.10228732407E+03  0.22391033586E+03  0.12699999809E+01 0. -1.
</event>
<event>
 5   0  0.7602288E-02  0.4962762E+03  0.7818609E-02  0.1014755E+00
        1   -1    0    0  501    0  0.00000000000E+00  0.00000000000E+00  0.19619335044E+03  0.19619335050E+03  0.50400001928E-02 0. -1.
       -1   -1    0    0    0  501  0.00000000000E+00  0.00000000000E+00 -0.31383584834E+03  0.31383584838E+03  0.50400001928E-02 0.  1.
    10030    2    1    2    0    0  0.00000000000E+00  0.00000000000E+00 -0.11764249790E+03  0.51002919888E+03  0.49627615941E+03 0.  0.
        5    1    3    3  502    0  0.24745017019E+03 -0.17646795703E+02 -0.56021703842E+02  0.25436886096E+03  0.46999998093E+01 0. -1.
       -5    1    3    3    0  502 -0.24745017019E+03  0.17646795703E+02 -0.61620794063E+02  0.25566033792E+03  0.46999998093E+01 0.  1.
</event>
<event>
 5   0  0.7602288E-02  0.4875821E+03  0.7818609E-02  0.1017072E+00
        1   -1    0    0  501    0  0.00000000000E+00  0.00000000000E+00  0.46276107390E+03  0.46276107393E+03  0.50400001928E-02 0. -1.
       -1   -1    0    0    0  501  0.00000000000E+00  0.00000000000E+00 -0.12843359742E+03  0.12843359752E+03  0.50400001928E-02 0.  1.
    10030    2    1    2    0    0  0.00000000000E+00  0.00000000000E+00  0.33432747648E+03  0.59119467145E+03  0.48758207311E+03 0.  0.
        5    1    3    3  502    0 -0.17742031689E+01 -0.26292957833E+01  0.46268111113E+03  0.46271585405E+03  0.46999998093E+01 0. -1.
       -5    1    3    3    0  502  0.17742031689E+01  0.26292957833E+01 -0.12835363465E+03  0.12847881740E+03  0.46999998093E+01 0.  1.
</event>
<event>
 5   0  0.1191894E-01  0.4981711E+03  0.7818609E-02  0.1014257E+00
       -2   -1    0    0    0  501  0.00000000000E+00  0.00000000000E+00  0.64518091009E+02  0.64518091059E+02  0.25500000920E-02 0. -1.
        2   -1    0    0  501    0  0.00000000000E+00  0.00000000000E+00 -0.96164678882E+03  0.96164678882E+03  0.25500000920E-02 0.  1.
    10030    2    1    2    0    0  0.00000000000E+00  0.00000000000E+00 -0.89712869781E+03  0.10261648799E+04  0.49817111545E+03 0.  0.
        3    1    3    3  502    0 -0.57858682239E+02 -0.23504459891E+02 -0.94525874157E+03  0.94731947381E+03  0.10100000352E+00 0.  1.
       -3    1    3    3    0  502  0.57858682239E+02  0.23504459891E+02  0.48130043760E+02  0.78845406071E+02  0.10100000352E+00 0. -1.
</event>
<event>
 5   0  0.1243803E-01  0.4216770E+03  0.7818609E-02  0.1036522E+00
       -2   -1    0    0    0  501  0.00000000000E+00  0.00000000000E+00  0.48119696778E+02  0.48119696845E+02  0.25500000920E-02 0.  1.
        2   -1    0    0  501    0  0.00000000000E+00  0.00000000000E+00 -0.92379788284E+03  0.92379788284E+03  0.25500000920E-02 0. -1.
    10030    2    1    2    0    0  0.00000000000E+00  0.00000000000E+00 -0.87567818606E+03  0.97191757969E+03  0.42167700455E+03 0.  0.
        4    1    3    3  502    0  0.10341785166E+03  0.57594409233E+02 -0.35711432473E+02  0.12364985777E+03  0.12699999809E+01 0.  1.
       -4    1    3    3    0  502 -0.10341785166E+03 -0.57594409233E+02 -0.83996675359E+03  0.84826772192E+03  0.12699999809E+01 0. -1.
</event>
<event>
 5   0  0.1243803E-01  0.5003401E+03  0.7818609E-02  0.1013690E+00
       -2   -1    0    0    0  501  0.00000000000E+00  0.00000000000E+00  0.86445715535E+02  0.86445715572E+02  0.25500000920E-02 0. -1.
        2   -1    0    0  501    0  0.00000000000E+00  0.00000000000E+00 -0.72398111749E+03  0.72398111749E+03  0.25500000920E-02 0.  1.
    10030    2    1    2    0    0  0.00000000000E+00  0.00000000000E+00 -0.63753540195E+03  0.81042683307E+03  0.50034014731E+03 0.  0.
        4    1    3    3  502    0  0.22461953799E+03 -0.10940493395E+03 -0.29827438876E+03  0.38909202037E+03  0.12699999809E+01 0. -1.
       -4    1    3    3    0  502 -0.22461953799E+03  0.10940493395E+03 -0.33926101319E+03  0.42133481270E+03  0.12699999809E+01 0.  1.
</event>
<event>
 5   0  0.7812547E-02  0.4986897E+03  0.7818609E-02  0.1014121E+00
        1   -1    0    0  501    0  0.00000000000E+00  0.00000000000E+00  0.10571114089E+04  0.10571114089E+04  0.50400001928E-02 0.  1.
       -1   -1    0    0    0  501  0.00000000000E+00  0.00000000000E+00 -0.58813902845E+02  0.58813903061E+02  0.50400001928E-02 0. -1.
    10030    2    1    2    0    0  0.00000000000E+00  0.00000000000E+00  0.99829750607E+03  0.11159253120E+04  0.49868967436E+03 0.  0.
        4    1    3    3  502    0  0.18108950602E+03 -0.75737979989E+01  0.88231757780E+03  0.90074230089E+03  0.12699999809E+01 0.  1.
       -4    1    3    3    0  502 -0.18108950602E+03  0.75737979989E+01  0.11597992827E+03  0.21518301111E+03  0.12699999809E+01 0. -1.
</event>
<event>
 5   0  0.7531632E-02  0.4975975E+03  0.7818609E-02  0.1014408E+00
       -1   -1    0    0    0  501  0.00000000000E+00  0.00000000000E+00  0.45931954790E+02  0.45931955067E+02  0.50400001928E-02 0. -1.
        1   -1    0    0  501    0  0.00000000000E+00  0.00000000000E+00 -0.13476635984E+04  0.13476635984E+04  0.50400001928E-02 0.  1.
    10030    2    1    2    0    0  0.00000000000E+00  0.00000000000E+00 -0.13017316436E+04  0.13935955535E+04  0.49759752280E+03 0.  0.
        3    1    3    3  502    0  0.24002545794E+03  0.29610065211E+02 -0.48727735472E+03  0.54399283732E+03  0.10100000352E+00 0. -1.
       -3    1    3    3    0  502 -0.24002545794E+03 -0.29610065211E+02 -0.81445428889E+03  0.84960271617E+03  0.10100000352E+00 0.  1.
</event>
<event>
 5   0  0.7416638E-02  0.4982175E+03  0.7818609E-02  0.1014245E+00
       -1   -1    0    0    0  501  0.00000000000E+00  0.00000000000E+00  0.27746533171E+03  0.27746533176E+03  0.50400001928E-02 0.  1.
        1   -1    0    0  501    0  0.00000000000E+00  0.00000000000E+00 -0.22365019254E+03  0.22365019260E+03  0.50400001928E-02 0. -1.
    10030    2    1    2    0    0  0.00000000000E+00  0.00000000000E+00  0.53815139171E+02  0.50111552436E+03  0.49821752232E+03 0.  0.
        1    1    3    3  502    0  0.20813172871E+03  0.13669588622E+03  0.34061823093E+02  0.25132606236E+03  0.50400001928E-02 0.  1.
       -1    1    3    3    0  502 -0.20813172871E+03 -0.13669588622E+03  0.19753316077E+02  0.24978946200E+03  0.50400001928E-02 0. -1.
</event>
<event>
 5   0  0.1231822E-01  0.5032751E+03  0.7818609E-02  0.1012928E+00
       -2   -1    0    0    0  501  0.00000000000E+00  0.00000000000E+00  0.35390616888E+02  0.35390616980E+02  0.25500000920E-02 0.  1.
        2   -1    0    0  501    0  0.00000000000E+00  0.00000000000E+00 -0.17892162950E+04  0.17892162950E+04  0.25500000920E-02 0. -1.
    10030    2    1    2    0    0  0.00000000000E+00  0.00000000000E+00 -0.17538256781E+04  0.18246069120E+04  0.50327514746E+03 0.  0.
        1    1    3    3  502    0 -0.14938734047E+03  0.16377302770E+03 -0.13086826437E+04  0.13273237902E+04  0.50400001928E-02 0. -1.
       -1    1    3    3    0  502  0.14938734047E+03 -0.16377302770E+03 -0.44514303440E+03  0.49728312177E+03  0.50400001928E-02 0.  1.
</event>
<event>
 5   0  0.7812547E-02  0.5057160E+03  0.7818609E-02  0.1012298E+00
       -1   -1    0    0    0  501  0.00000000000E+00  0.00000000000E+00  0.15630428627E+03  0.15630428636E+03  0.50400001928E-02 0.  1.
        1   -1    0    0  501    0  0.00000000000E+00  0.00000000000E+00 -0.40905583071E+03  0.40905583075E+03  0.50400001928E-02 0. -1.
    10030    2    1    2    0    0  0.00000000000E+00  0.00000000000E+00 -0.25275154444E+03  0.56536011710E+03  0.50571604561E+03 0.  0.
        4    1    3    3  502    0 -0.23816384770E+03  0.23494119675E+02 -0.35131231619E+02  0.24188800785E+03  0.12699999809E+01 0.  1.
       -4    1    3    3    0  502  0.23816384770E+03 -0.23494119675E+02 -0.21762031282E+03  0.32347210925E+03  0.12699999809E+01 0. -1.
</event>
<event>
 5   0  0.5006750E-02  0.5007381E+03  0.7818609E-02  0.1013586E+00
        3   -1    0    0  501    0  0.00000000000E+00  0.00000000000E+00  0.21942855073E+03  0.21942857397E+03  0.10100000352E+00 0. -1.
       -3   -1    0    0    0  501  0.00000000000E+00  0.00000000000E+00 -0.28567225827E+03  0.28567227612E+03  0.10100000352E+00 0.  1.
    10030    2    1    2    0    0  0.00000000000E+00  0.00000000000E+00 -0.66243707538E+02  0.50510085009E+03  0.50073809519E+03 0.  0.
        1    1    3    3  502    0 -0.21883988926E+03 -0.12104706520E+03 -0.45115393733E+02  0.25412337143E+03  0.50400001928E-02 0. -1.
       -1    1    3    3    0  502  0.21883988926E+03  0.12104706520E+03 -0.21128313806E+02  0.25097747867E+03  0.50400001928E-02 0.  1.
</event>
<event>
 5   0  0.1191894E-01  0.5009587E+03  0.7818609E-02  0.1013529E+00
        2   -1    0    0  501    0  0.00000000000E+00  0.00000000000E+00  0.60369676180E+03  0.60369676180E+03  0.25500000920E-02 0. -1.
       -2   -1    0    0    0  501  0.00000000000E+00  0.00000000000E+00 -0.10392617875E+03  0.10392617878E+03  0.25500000920E-02 0.  1.
    10030    2    1    2    0    0  0.00000000000E+00  0.00000000000E+00  0.49977058305E+03  0.70762294058E+03  0.50095867131E+03 0.  0.
        3    1    3    3  502    0 -0.96150652303E+02  0.64604989199E+02  0.56358674858E+03  0.57536839150E+03  0.10100000352E+00 0. -1.
       -3    1    3    3    0  502  0.96150652303E+02 -0.64604989199E+02 -0.63816165531E+02  0.13225454908E+03  0.10100000352E+00 0.  1.
</event>
<event>
 5   0  0.7531632E-02  0.5002185E+03  0.7818609E-02  0.1013722E+00
       -1   -1    0    0    0  501  0.00000000000E+00  0.00000000000E+00  0.48960736207E+02  0.48960736466E+02  0.50400001928E-02 0.  1.
        1   -1    0    0  501    0  0.00000000000E+00  0.00000000000E+00 -0.12776489152E+04  0.12776489152E+04  0.50400001928E-02 0. -1.
    10030    2    1    2    0    0  0.00000000000E+00  0.00000000000E+00 -0.12286881790E+04  0.13266096517E+04  0.50021847899E+03 0.  0.
        3    1    3    3  502    0  0.10581594757E+03 -0.20274415054E+03 -0.88287639106E+03  0.91201586468E+03  0.10100000352E+00 0. -1.
       -3    1    3    3    0  502 -0.10581594757E+03  0.20274415054E+03 -0.34581178793E+03  0.41459378699E+03  0.10100000352E+00 0.  1.
</event>
<event>
 5   0  0.1191894E-01  0.5004582E+03  0.7818609E-02  0.1013659E+00
       -2   -1    0    0    0  501  0.00000000000E+00  0.00000000000E+00  0.14311952146E+03  0.14311952148E+03  0.25500000920E-02 0. -1.
        2   -1    0    0  501    0  0.00000000000E+00  0.00000000000E+00 -0.43749870112E+03  0.43749870112E+03  0.25500000920E-02 0.  1.
    10030    2    1    2    0    0  0.00000000000E+00  0.00000000000E+00 -0.29437917965E+03  0.58061822261E+03  0.50045820905E+03 0.  0.
        3    1    3    3  502    0 -0.19758662166E+02 -0.10320808175E+02 -0.43634440295E+03  0.43691346054E+03  0.10100000352E+00 0.  1.
       -3    1    3    3    0  502  0.19758662166E+02  0.10320808175E+02  0.14196522330E+03  0.14370476206E+03  0.10100000352E+00 0. -1.
</event>
<event>
 5   0  0.1231822E-01  0.5038734E+03  0.7818609E-02  0.1012773E+00
       -2   -1    0    0    0  501  0.00000000000E+00  0.00000000000E+00  0.55370901630E+02  0.55370901689E+02  0.25500000920E-02 0. -1.
        2   -1    0    0  501    0  0.00000000000E+00  0.00000000000E+00 -0.11463078089E+04  0.11463078089E+04  0.25500000920E-02 0.  1.
    10030    2    1    2    0    0  0.00000000000E+00  0.00000000000E+00 -0.10909369073E+04  0.12016787106E+04  0.50387338474E+03 0.  0.
        1    1    3    3  502    0  0.52467626008E+02 -0.54577812105E+02 -0.11185378901E+04  0.11210970525E+04  0.50400001928E-02 0.  1.
       -1    1    3    3    0  502 -0.52467626008E+02  0.54577812105E+02  0.27600982832E+02  0.80581658160E+02  0.50400001928E-02 0. -1.
</event>
<event>
 5   0  0.7602288E-02  0.5055865E+03  0.7818609E-02  0.1012331E+00
        1   -1    0    0  501    0  0.00000000000E+00  0.00000000000E+00  0.18026281990E+04  0.18026281990E+04  0.50400001928E-02 0.  1.
       -1   -1    0    0    0  501  0.00000000000E+00  0.00000000000E+00 -0.35450695831E+02  0.35450696189E+02  0.50400001928E-02 0. -1.
    10030    2    1    2    0    0  0.00000000000E+00  0.00000000000E+00  0.17671775032E+04  0.18380788952E+04  0.50558648840E+03 0.  0.
        5    1    3    3  502    0 -0.21930996705E+03 -0.10156051453E+03  0.61468339760E+03  0.66050675170E+03  0.46999998093E+01 0. -1.
       -5    1    3    3    0  502  0.21930996705E+03  0.10156051453E+03  0.11524941056E+04  0.11775721435E+04  0.46999998093E+01 0.  1.
</event>
<event>
 5   0  0.7781754E-02  0.5036594E+03  0.7818609E-02  0.1012828E+00
        1   -1    0    0  501    0  0.00000000000E+00  0.00000000000E+00  0.14646458008E+04  0.14646458009E+04  0.50400001928E-02 0.  1.
       -1   -1    0    0    0  501  0.00000000000E+00  0.00000000000E+00 -0.43299345598E+02  0.43299345891E+02  0.50400001928E-02 0. -1.
    10030    2    1    2    0    0  0.00000000000E+00  0.00000000000E+00  0.14213464552E+04  0.15079451467E+04  0.50365942833E+03 0.  0.
        2    1    3    3  502    0  0.16724565734E+03 -0.46217620506E+02  0.16423309989E+03  0.23891356062E+03  0.25500000920E-02 0. -1.
       -2    1    3    3    0  502 -0.16724565734E+03  0.46217620506E+02  0.12571133554E+04  0.12690315861E+04  0.25500000920E-02 0.  1.
</event>
<event>
 5   0  0.1279188E-01  0.5045627E+03  0.7818609E-02  0.1012595E+00
        2   -1    0    0  501    0  0.00000000000E+00  0.00000000000E+00  0.81525522449E+03  0.81525522450E+03  0.25500000920E-02 0. -1.
       -2   -1    0    0    0  501  0.00000000000E+00  0.00000000000E+00 -0.78068642850E+02  0.78068642892E+02  0.25500000920E-02 0.  1.
    10030    2    1    2    0    0  0.00000000000E+00  0.00000000000E+00  0.73718658164E+03  0.89332386739E+03  0.50456265804E+03 0.  0.
        2    1    3    3  502    0 -0.43560521962E+02  0.11680690269E+03  0.75691053079E+03  0.76710815614E+03  0.25500000920E-02 0. -1.
       -2    1    3    3    0  502  0.43560521962E+02 -0.11680690269E+03 -0.19723949144E+02  0.12621571125E+03  0.25500000920E-02 0.  1.
</event>
<event>
 5   0  0.1279188E-01  0.5007952E+03  0.7818609E-02  0.1013572E+00
        2   -1    0    0  501    0  0.00000000000E+00  0.00000000000E+00  0.51955269544E+03  0.51955269545E+03  0.25500000920E-02 0.  1.
       -2   -1    0    0    0  501  0.00000000000E+00  0.00000000000E+00 -0.12067874931E+03  0.12067874934E+03  0.25500000920E-02 0. -1.
    10030    2    1    2    0    0  0.00000000000E+00  0.00000000000E+00  0.39887394614E+03  0.64023144479E+03  0.50079524557E+03 0.  0.
        2    1    3    3  502    0  0.94567414611E+02  0.15157399216E+03 -0.24858377708E+02  0.18037630098E+03  0.25500000920E-02 0. -1.
       -2    1    3    3    0  502 -0.94567414611E+02 -0.15157399216E+03  0.42373232384E+03  0.45985514380E+03  0.25500000920E-02 0.  1.
</event>
<event>
 5   0  0.7416638E-02  0.4999117E+03  0.7818609E-02  0.1013802E+00
        1   -1    0    0  501    0  0.00000000000E+00  0.00000000000E+00  0.17345569327E+03  0.17345569334E+03  0.50400001928E-02 0. -1.
       -1   -1    0    0    0  501  0.00000000000E+00  0.00000000000E+00 -0.36019532881E+03  0.36019532885E+03  0.50400001928E-02 0.  1.
    10030    2    1    2    0    0  0.00000000000E+00  0.00000000000E+00 -0.18673963555E+03  0.53365102219E+03  0.49991171420E+03 0.  0.
        1    1    3    3  502    0 -0.44960393971E+02  0.57885349214E+02  0.16172642689E+03  0.17756009647E+03  0.50400001928E-02 0. -1.
       -1    1    3    3    0  502  0.44960393971E+02 -0.57885349214E+02 -0.34846606244E+03  0.35609092571E+03  0.50400001928E-02 0.  1.
</event>
<event>
 5   0  0.5006750E-02  0.4960860E+03  0.7818609E-02  0.1014806E+00
       -4   -1    0    0    0  501  0.00000000000E+00  0.00000000000E+00  0.13299482321E+03  0.13300088684E+03  0.12699999809E+01 0.  1.
        4   -1    0    0  501    0  0.00000000000E+00  0.00000000000E+00 -0.46259701151E+03  0.46259875482E+03  0.12699999809E+01 0. -1.
    10030    2    1    2    0    0  0.00000000000E+00  0.00000000000E+00 -0.32960218830E+03  0.59559964166E+03  0.49608601131E+03 0.  0.
        5    1    3    3  502    0 -0.37316446881E+01 -0.20335583939E+02  0.13190875534E+03  0.13360191196E+03  0.46999998093E+01 0.  1.
       -5    1    3    3    0  502  0.37316446881E+01  0.20335583939E+02 -0.46151094364E+03  0.46199772970E+03  0.46999998093E+01 0. -1.
</event>
<event>
 5   0  0.1231822E-01  0.4978662E+03  0.7818609E-02  0.1014337E+00
       -2   -1    0    0    0  501  0.00000000000E+00  0.00000000000E+00  0.69964598983E+02  0.69964599029E+02  0.25500000920E-02 0.  1.
        2   -1    0    0  501    0  0.00000000000E+00  0.00000000000E+00 -0.88570046685E+03  0.88570046685E+03  0.25500000920E-02 0. -1.
    10030    2    1    2    0    0  0.00000000000E+00  0.00000000000E+00 -0.81573586787E+03  0.95566506588E+03  0.49786615874E+03 0.  0.
        1    1    3    3  502    0 -0.83645531046E+02  0.20980402099E+03 -0.60876199566E+03  0.64931153499E+03  0.50400001928E-02 0. -1.
       -1    1    3    3    0  502  0.83645531046E+02 -0.20980402099E+03 -0.20697387221E+03  0.30635353089E+03  0.50400001928E-02 0.  1.
</event>
<event>
 5   0  0.7812547E-02  0.4518690E+03  0.7818609E-02  0.1027166E+00
        1   -1    0    0  501    0  0.00000000000E+00  0.00000000000E+00  0.32731656106E+03  0.32731656109E+03  0.50400001928E-02 0.  1.
       -1   -1    0    0    0  501  0.00000000000E+00  0.00000000000E+00 -0.15595418877E+03  0.15595418885E+03  0.50400001928E-02 0. -1.
    10030    2    1    2    0    0  0.00000000000E+00  0.00000000000E+00  0.17136237229E+03  0.48327074994E+03  0.45186895790E+03 0.  0.
        4    1    3    3  502    0 -0.14085440202E+03 -0.11750906152E+03  0.22674256238E+03  0.29165415238E+03  0.12699999809E+01 0.  1.
       -4    1    3    3    0  502  0.14085440202E+03  0.11750906152E+03 -0.55380190089E+02  0.19161659756E+03  0.12699999809E+01 0. -1.
</event>
<event>
 5   0  0.1231822E-01  0.5005267E+03  0.7818609E-02  0.1013642E+00
       -2   -1    0    0    0  501  0.00000000000E+00  0.00000000000E+00  0.70912983773E+03  0.70912983774E+03  0.25500000920E-02 0. -1.
        2   -1    0    0  501    0  0.00000000000E+00  0.00000000000E+00 -0.88321962466E+02  0.88321962503E+02  0.25500000920E-02 0.  1.
    10030    2    1    2    0    0  0.00000000000E+00  0.00000000000E+00  0.62080787527E+03  0.79745180024E+03  0.50052667832E+03 0.  0.
        1    1    3    3  502    0  0.23992600375E+03  0.69993909280E+02  0.33106090724E+03  0.41480713463E+03  0.50400001928E-02 0. -1.
       -1    1    3    3    0  502 -0.23992600375E+03 -0.69993909280E+02  0.28974696803E+03  0.38264466561E+03  0.50400001928E-02 0.  1.
</event>
<event>
 5   0  0.7416638E-02  0.4974481E+03  0.7818609E-02  0.1014447E+00
       -1   -1    0    0    0  501  0.00000000000E+00  0.00000000000E+00  0.27159315482E+02  0.27159315950E+02  0.50400001928E-02 0.  1.
        1   -1    0    0  501    0  0.00000000000E+00  0.00000000000E+00 -0.22778063339E+04  0.22778063339E+04  0.50400001928E-02 0. -1.
    10030    2    1    2    0    0  0.00000000000E+00  0.00000000000E+00 -0.22506470184E+04  0.23049656498E+04  0.49744813347E+03 0.  0.
        1    1    3    3  502    0  0.45699251987E+02  0.20060256112E+03 -0.17729291166E+04  0.17848270117E+04  0.50400001928E-02 0. -1.
       -1    1    3    3    0  502 -0.45699251987E+02 -0.20060256112E+03 -0.47771790178E+03  0.52013863813E+03  0.50400001928E-02 0.  1.
</event>
<event>
 5   0  0.1243803E-01  0.5030064E+03  0.7818609E-02  0.1012997E+00
       -2   -1    0    0    0  501  0.00000000000E+00  0.00000000000E+00  0.24272963254E+03  0.24272963255E+03  0.25500000920E-02 0. -1.
        2   -1    0    0  501    0  0.00000000000E+00  0.00000000000E+00 -0.26059388428E+03  0.26059388430E+03  0.25500000920E-02 0.  1.
    10030    2    1    2    0    0  0.00000000000E+00  0.00000000000E+00 -0.17864251746E+02  0.50332351685E+03  0.50300639273E+03 0.  0.
        4    1    3    3  502    0 -0.17950319363E+03  0.84405816466E+02  0.14578264419E+03  0.24617053159E+03  0.12699999809E+01 0. -1.
       -4    1    3    3    0  502  0.17950319363E+03 -0.84405816466E+02 -0.16364689594E+03  0.25715298526E+03  0.12699999809E+01 0.  1.
</event>
<event>
 5   0  0.7602288E-02  0.4999482E+03  0.7818609E-02  0.1013792E+00
       -1   -1    0    0    0  501  0.00000000000E+00  0.00000000000E+00  0.21696282372E+03  0.21696282378E+03  0.50400001928E-02 0. -1.
        1   -1    0    0  501    0  0.00000000000E+00  0.00000000000E+00 -0.28800813690E+03  0.28800813695E+03  0.50400001928E-02 0.  1.
    10030    2    1    2    0    0  0.00000000000E+00  0.00000000000E+00 -0.71045313185E+02  0.50497096073E+03  0.49994823197E+03 0.  0.
        5    1    3    3  502    0 -0.22449105250E+03 -0.39511547124E+01  0.75367037725E+02  0.23688420093E+03  0.46999998093E+01 0. -1.
       -5    1    3    3    0  502  0.22449105250E+03  0.39511547124E+01 -0.14641235091E+03  0.26808675979E+03  0.46999998093E+01 0.  1.
</event>
<event>
 5   0  0.1191894E-01  0.5011959E+03  0.7818609E-02  0.1013467E+00
        2   -1    0    0  501    0  0.00000000000E+00  0.00000000000E+00  0.12810400813E+04  0.12810400813E+04  0.25500000920E-02 0.  1.
       -2   -1    0    0    0  501  0.00000000000E+00  0.00000000000E+00 -0.49022150766E+02  0.49022150832E+02  0.25500000920E-02 0. -1.
    10030    2    1    2    0    0  0.00000000000E+00  0.00000000000E+00  0.12320179305E+04  0.13300622321E+04  0.50119592994E+03 0.  0.
        3    1    3    3  502    0  0.13409567561E+03  0.17789117577E+03  0.92058591503E+03  0.94715645898E+03  0.10100000352E+00 0.  1.
       -3    1    3    3    0  502 -0.13409567561E+03 -0.17789117577E+03  0.31143201550E+03  0.38290577315E+03  0.10100000352E+00 0. -1.
</event>
<event>
 5   0  0.1279188E-01  0.4849003E+03  0.7818609E-02  0.1017797E+00
        2   -1    0    0  501    0  0.00000000000E+00  0.00000000000E+00  0.44515129965E+03  0.44515129965E+03  0.25500000920E-02 0.  1.
       -2   -1    0    0    0  501  0.00000000000E+00  0.00000000000E+00 -0.13204964850E+03  0.13204964853E+03  0.25500000920E-02 0. -1.
    10030    2    1    2    0    0  0.00000000000E+00  0.00000000000E+00  0.31310165114E+03  0.57720094818E+03  0.48490028937E+03 0.  0.
        2    1    3    3  502    0  0.14244886411E+03 -0.18744056669E+03  0.87588286597E+02  0.25119186468E+03  0.25500000920E-02 0. -1.
       -2    1    3    3    0  502 -0.14244886411E+03  0.18744056669E+03  0.22551336455E+03  0.32600908350E+03  0.25500000920E-02 0.  1.
</event>
<event>
 5   0  0.1231822E-01  0.5026393E+03  0.7818609E-02  0.1013092E+00
        2   -1    0    0  501    0  0.00000000000E+00  0.00000000000E+00  0.51905090109E+03  0.51905090109E+03  0.25500000920E-02 0. -1.
       -2   -1    0    0    0  501  0.00000000000E+00  0.00000000000E+00 -0.12168663272E+03  0.12168663275E+03  0.25500000920E-02 0.  1.
    10030    2    1    2    0    0  0.00000000000E+00  0.00000000000E+00  0.39736426837E+03  0.64073753384E+03  0.50263925981E+03 0.  0.
        1    1    3    3  502    0  0.14252638693E+03  0.13913785931E+03  0.39404897725E+03  0.44152883412E+03  0.50400001928E-02 0. -1.
       -1    1    3    3    0  502 -0.14252638693E+03 -0.13913785931E+03  0.33152911165E+01  0.19920869972E+03  0.50400001928E-02 0.  1.
</event>
<event>
 5   0  0.7781754E-02  0.4918196E+03  0.7818609E-02  0.1015936E+00
        1   -1    0    0  501    0  0.00000000000E+00  0.00000000000E+00  0.53745666522E+03  0.53745666525E+03  0.50400001928E-02 0.  1.
       -1   -1    0    0    0  501  0.00000000000E+00  0.00000000000E+00 -0.11251442054E+03  0.11251442065E+03  0.50400001928E-02 0. -1.
    10030    2    1    2    0    0  0.00000000000E+00  0.00000000000E+00  0.42494224468E+03  0.64997108590E+03  0.49181958195E+03 0.  0.
        2    1    3    3  502    0 -0.24899444869E+02  0.23540136929E+03  0.30050989039E+03  0.38254409059E+03  0.25500000920E-02 0.  1.
       -2    1    3    3    0  502  0.24899444869E+02 -0.23540136929E+03  0.12443235429E+03  0.26742699531E+03  0.25500000920E-02 0. -1.
</event>
<event>
 5   0  0.1279188E-01  0.5032652E+03  0.7818609E-02  0.1012930E+00
       -2   -1    0    0    0  501  0.00000000000E+00  0.00000000000E+00  0.69046869837E+02  0.69046869884E+02  0.25500000920E-02 0.  1.
        2   -1    0    0  501    0  0.00000000000E+00  0.00000000000E+00 -0.91704330257E+03  0.91704330257E+03  0.25500000920E-02 0. -1.
    10030    2    1    2    0    0  0.00000000000E+00  0.00000000000E+00 -0.84799643273E+03  0.98609017245E+03  0.50326521665E+03 0.  0.
        2    1    3    3  502    0  0.82146912579E+02 -0.18048703846E+03 -0.12048147132E+03  0.23203334079E+03  0.25500000920E-02 0.  1.
       -2    1    3    3    0  502 -0.82146912579E+02  0.18048703846E+03 -0.72751496141E+03  0.75405683166E+03  0.25500000920E-02 0. -1.
</event>
<event>
 5   0  0.7531632E-02  0.5038515E+03  0.7818609E-02  0.1012778E+00
        1   -1    0    0  501    0  0.00000000000E+00  0.00000000000E+00  0.17410208363E+03  0.17410208370E+03  0.50400001928E-02 0. -1.
       -1   -1    0    0    0  501  0.00000000000E+00  0.00000000000E+00 -0.36453666516E+03  0.36453666519E+03  0.50400001928E-02 0.  1.
    10030    2    1    2    0    0  0.00000000000E+00  0.00000000000E+00 -0.19043458153E+03  0.53863874890E+03  0.50385153763E+03 0.  0.
        3    1    3    3  502    0 -0.78856961318E+02  0.10629441912E+03  0.13394130399E+03  0.18830084174E+03  0.10100000352E+00 0. -1.
       -3    1    3    3    0  502  0.78856961318E+02 -0.10629441912E+03 -0.32437588552E+03  0.35033790716E+03  0.10100000352E+00 0.  1.
</event>
<event>
 5   0  0.7781754E-02  0.4972552E+03  0.7818609E-02  0.1014498E+00
       -1   -1    0    0    0  501  0.00000000000E+00  0.00000000000E+00  0.36059731934E+03  0.36059731937E+03  0.50400001928E-02 0. -1.
        1   -1    0    0  501    0  0.00000000000E+00  0.00000000000E+00 -0.17142581347E+03  0.17142581354E+03  0.50400001928E-02 0.  1.
    10030    2    1    2    0    0  0.00000000000E+00  0.00000000000E+00  0.18917150587E+03  0.53202313291E+03  0.49725522151E+03 0.  0.
        2    1    3    3  502    0  0.22951445891E+03 -0.40919813323E+01 -0.76016991593E+01  0.22967676634E+03  0.25500000920E-02 0.  1.
       -2    1    3    3    0  502 -0.22951445891E+03  0.40919813323E+01  0.19677320503E+03  0.30234636658E+03  0.25500000920E-02 0. -1.
</event>
<event>
 5   0  0.7781754E-02  0.5057277E+03  0.7818609E-02  0.1012295E+00
        1   -1    0    0  501    0  0.00000000000E+00  0.00000000000E+00  0.67874372023E+02  0.67874372210E+02  0.50400001928E-02 0. -1.
       -1   -1    0    0    0  501  0.00000000000E+00  0.00000000000E+00 -0.94203637094E+03  0.94203637095E+03  0.50400001928E-02 0.  1.
    10030    2    1    2    0    0  0.00000000000E+00  0.00000000000E+00 -0.87416199891E+03  0.10099107432E+04  0.50572770223E+03 0.  0.
        2    1    3    3  502    0  0.19227090491E+02  0.15956019884E+03 -0.82692545217E+03  0.84239826776E+03  0.25500000920E-02 0.  1.
       -2    1    3    3    0  502 -0.19227090491E+02 -0.15956019884E+03 -0.47236546742E+02  0.16751247540E+03  0.25500000920E-02 0. -1.
</event>
<event>
 5   0  0.7602288E-02  0.4944170E+03  0.7818609E-02  0.1015247E+00
       -1   -1    0    0    0  501  0.00000000000E+00  0.00000000000E+00  0.51802680473E+02  0.51802680718E+02  0.50400001928E-02 0. -1.
        1   -1    0    0  501    0  0.00000000000E+00  0.00000000000E+00 -0.11797078856E+04  0.11797078856E+04  0.50400001928E-02 0.  1.
    10030    2    1    2    0    0  0.00000000000E+00  0.00000000000E+00 -0.11279052051E+04  0.12315105663E+04  0.49441695280E+03 0.  0.
        5    1    3    3  502    0 -0.15454772366E+02  0.24397280526E+03 -0.65473525454E+03  0.69890051025E+03  0.46999998093E+01 0.  1.
       -5    1    3    3    0  502  0.15454772366E+02 -0.24397280526E+03 -0.47316995055E+03  0.53261005604E+03  0.46999998093E+01 0. -1.
</event>
<event>
 5   0  0.1191894E-01  0.5029809E+03  0.7818609E-02  0.1013004E+00
        2   -1    0    0  501    0  0.00000000000E+00  0.00000000000E+00  0.10102248183E+03  0.10102248186E+03  0.25500000920E-02 0. -1.
       -2   -1    0    0    0  501  0.00000000000E+00  0.00000000000E+00 -0.62607298884E+03  0.62607298885E+03  0.25500000920E-02 0.  1.
    10030    2    1    2    0    0  0.00000000000E+00  0.00000000000E+00 -0.52505050701E+03  0.72709547071E+03  0.50298090283E+03 0.  0.
        3    1    3    3  502    0 -0.79344706419E+02  0.15410765748E+03 -0.52593178646E+03  0.55375897892E+03  0.10100000352E+00 0.  1.
       -3    1    3    3    0  502  0.79344706419E+02 -0.15410765748E+03  0.88127944742E+00  0.17333649179E+03  0.10100000352E+00 0. -1.
</event>
<event>
 5   0  0.1243803E-01  0.4976306E+03  0.7818609E-02  0.1014399E+00
        2   -1    0    0  501    0  0.00000000000E+00  0.00000000000E+00  0.11127442555E+04  0.11127442555E+04  0.25500000920E-02 0. -1.
       -2   -1    0    0    0  501  0.00000000000E+00  0.00000000000E+00 -0.55636374414E+02  0.55636374473E+02  0.25500000920E-02 0.  1.
    10030    2    1    2    0    0  0.00000000000E+00  0.00000000000E+00  0.10571078810E+04  0.11683806299E+04  0.49763061023E+03 0.  0.
        4    1    3    3  502    0  0.22075315609E+03  0.47630452287E+02  0.28335054556E+03  0.36233928917E+03  0.12699999809E+01 0.  1.
       -4    1    3    3    0  502 -0.22075315609E+03 -0.47630452287E+02  0.77375733549E+03  0.80604134077E+03  0.12699999809E+01 0. -1.
</event>
<event>
 5   0  0.1211345E-01  0.4712145E+03  0.7818609E-02  0.1021578E+00
       -2   -1    0    0    0  501  0.00000000000E+00  0.00000000000E+00  0.38420415172E+02  0.38420415257E+02  0.25500000920E-02 0. -1.
        2   -1    0    0  501    0  0.00000000000E+00  0.00000000000E+00 -0.14448251589E+04  0.14448251589E+04  0.25500000920E-02 0.  1.
    10030    2    1    2    0    0  0.00000000000E+00  0.00000000000E+00 -0.14064047437E+04  0.14832455742E+04  0.47121452660E+03 0.  0.
        5    1    3    3  502    0 -0.18739688121E+02  0.11780748759E+03 -0.13425738796E+04  0.13478710963E+04  0.46999998093E+01 0.  1.
       -5    1    3    3    0  502  0.18739688121E+02 -0.11780748759E+03 -0.63830864117E+02  0.13537447785E+03  0.46999998093E+01 0. -1.
</event>
<event>
 5   0  0.5006750E-02  0.5171749E+03  0.7818609E-02  0.1009391E+00
        4   -1    0    0  501    0  0.00000000000E+00  0.00000000000E+00  0.83851037887E+03  0.83851134064E+03  0.12699999809E+01 0.  1.
       -4   -1    0    0    0  501  0.00000000000E+00  0.00000000000E+00 -0.79739476232E+02  0.79749589151E+02  0.12699999809E+01 0. -1.
    10030    2    1    2    0    0  0.00000000000E+00  0.00000000000E+00  0.75877090264E+03  0.91826092979E+03  0.51717487611E+03 0.  0.
        5    1    3    3  502    0 -0.19026123553E+03 -0.91187539437E+02  0.11405842496E+03  0.23988730562E+03  0.46999998093E+01 0. -1.
       -5    1    3    3    0  502  0.19026123553E+03  0.91187539437E+02  0.64471247768E+03  0.67837362417E+03  0.46999998093E+01 0.  1.
</event>
<event>
 5   0  0.5006750E-02  0.5054791E+03  0.7818609E-02  0.1012359E+00
        4   -1    0    0  501    0  0.00000000000E+00  0.00000000000E+00  0.13516594694E+04  0.13516600660E+04  0.12699999809E+01 0.  1.
       -4   -1    0    0    0  501  0.00000000000E+00  0.00000000000E+00 -0.47249276629E+02  0.47266341533E+02  0.12699999809E+01 0. -1.
    10030    2    1    2    0    0  0.00000000000E+00  0.00000000000E+00  0.13044101927E+04  0.13989264075E+04  0.50547912201E+03 0.  0.
        4    1    3    3  502    0 -0.21366374181E+03  0.82719625627E+02  0.35696132342E+03  0.42416710191E+03  0.12699999809E+01 0. -1.
       -4    1    3    3    0  502  0.21366374181E+03 -0.82719625627E+02  0.94744886933E+03  0.97475930563E+03  0.12699999809E+01 0.  1.
</event>
<event>
 5   0  0.7602288E-02  0.5034722E+03  0.7818609E-02  0.1012877E+00
        1   -1    0    0  501    0  0.00000000000E+00  0.00000000000E+00  0.29018224544E+03  0.29018224548E+03  0.50400001928E-02 0.  1.
       -1   -1    0    0    0  501  0.00000000000E+00  0.00000000000E+00 -0.21838367549E+03  0.21838367555E+03  0.50400001928E-02 0. -1.
    10030    2    1    2    0    0  0.00000000000E+00  0.00000000000E+00  0.71798569952E+02  0.50856592103E+03  0.50347220518E+03 0.  0.
        5    1    3    3  502    0  0.23921095589E+03  0.66791656125E+02 -0.53299390796E+01  0.24846228083E+03  0.46999998093E+01 0.  1.
       -5    1    3    3    0  502 -0.23921095589E+03 -0.66791656125E+02  0.77128509031E+02  0.26010364020E+03  0.46999998093E+01 0. -1.
</event>
<event>
 5   0  0.7602288E-02  0.4989772E+03  0.7818609E-02  0.1014046E+00
        1   -1    0    0  501    0  0.00000000000E+00  0.00000000000E+00  0.30769277775E+03  0.30769277779E+03  0.50400001928E-02 0.  1.
       -1   -1    0    0    0  501  0.00000000000E+00  0.00000000000E+00 -0.20229452591E+03  0.20229452597E+03  0.50400001928E-02 0. -1.
    10030    2    1    2    0    0  0.00000000000E+00  0.00000000000E+00  0.10539825184E+03  0.50998730377E+03  0.49897721242E+03 0.  0.
        5    1    3    3  502    0  0.18968872675E+03 -0.26449089977E+02  0.21604136779E+03  0.28875132902E+03  0.46999998093E+01 0.  1.
       -5    1    3    3    0  502 -0.18968872675E+03  0.26449089977E+02 -0.11064311595E+03  0.22123597475E+03  0.46999998093E+01 0. -1.
</event>
<event>
 5   0  0.7812547E-02  0.4984262E+03  0.7818609E-02  0.1014191E+00
        1   -1    0    0  501    0  0.00000000000E+00  0.00000000000E+00  0.20464381476E+03  0.20464381482E+03  0.50400001928E-02 0. -1.
       -1   -1    0    0    0  501  0.00000000000E+00  0.00000000000E+00 -0.30348909775E+03  0.30348909779E+03  0.50400001928E-02 0.  1.
    10030    2    1    2    0    0  0.00000000000E+00  0.00000000000E+00 -0.98845282987E+02  0.50813291261E+03  0.49842619003E+03 0.  0.
        4    1    3    3  502    0  0.20949201405E+03  0.97952934884E+02 -0.14409596711E+03  0.27248292064E+03  0.12699999809E+01 0.  1.
       -4    1    3    3    0  502 -0.20949201405E+03 -0.97952934884E+02  0.45250684120E+02  0.23564999197E+03  0.12699999809E+01 0. -1.
</event>
<event>
 5   0  0.7416638E-02  0.4999964E+03  0.7818609E-02  0.1013780E+00
        1   -1    0    0  501    0  0.00000000000E+00  0.00000000000E+00  0.18555334182E+03  0.18555334188E+03  0.50400001928E-02 0. -1.
       -1   -1    0    0    0  501  0.00000000000E+00  0.00000000000E+00 -0.33682553164E+03  0.33682553168E+03  0.50400001928E-02 0.  1.
    10030    2    1    2    0    0  0.00000000000E+00  0.00000000000E+00 -0.15127218982E+03  0.52237887356E+03  0.49999641212E+03 0.  0.
        1    1    3    3  502    0 -0.13531736077E+03 -0.18502949123E+03 -0.17986368039E+03  0.29137200329E+03  0.50400001928E-02 0. -1.
       -1    1    3    3    0  502  0.13531736077E+03  0.18502949123E+03  0.28591490570E+02  0.23100687027E+03  0.50400001928E-02 0.  1.
</event>
<event>
 5   0  0.1243803E-01  0.4975395E+03  0.7818609E-02  0.1014423E+00
        2   -1    0    0  501    0  0.00000000000E+00  0.00000000000E+00  0.12231064422E+03  0.12231064425E+03  0.25500000920E-02 0.  1.
       -2   -1    0    0    0  501  0.00000000000E+00  0.00000000000E+00 -0.50597712761E+03  0.50597712762E+03  0.25500000920E-02 0. -1.
    10030    2    1    2    0    0  0.00000000000E+00  0.00000000000E+00 -0.38366648340E+03  0.62828777187E+03  0.49753949973E+03 0.  0.
        4    1    3    3  502    0 -0.16006640176E+03 -0.83896703300E+02 -0.40771070419E+03  0.44597033647E+03  0.12699999809E+01 0.  1.
       -4    1    3    3    0  502  0.16006640176E+03  0.83896703300E+02  0.24044220795E+02  0.18231743540E+03  0.12699999809E+01 0. -1.
</event>
<event>
 5   0  0.1211345E-01  0.5772461E+03  0.7818609E-02  0.9953771E-01
       -2   -1    0    0    0  501  0.00000000000E+00  0.00000000000E+00  0.76136198878E+03  0.76136198878E+03  0.25500000920E-02 0.  1.
        2   -1    0    0  501    0  0.00000000000E+00  0.00000000000E+00 -0.10941348655E+03  0.10941348658E+03  0.25500000920E-02 0. -1.
    10030    2    1    2    0    0  0.00000000000E+00  0.00000000000E+00  0.65194850223E+03  0.87077547536E+03  0.57724611643E+03 0.  0.
        5    1    3    3  502    0  0.16277428197E+03  0.13831874163E+03  0.33256780273E+02  0.21623053575E+03  0.46999998093E+01 0. -1.
       -5    1    3    3    0  502 -0.16277428197E+03 -0.13831874163E+03  0.61869172195E+03  0.65454493961E+03  0.46999998093E+01 0.  1.
</event>
<event>
 5   0  0.7602288E-02  0.4999678E+03  0.7818609E-02  0.1013787E+00
        1   -1    0    0  501    0  0.00000000000E+00  0.00000000000E+00  0.70622758566E+03  0.70622758568E+03  0.50400001928E-02 0. -1.
       -1   -1    0    0    0  501  0.00000000000E+00  0.00000000000E+00 -0.88486983031E+02  0.88486983175E+02  0.50400001928E-02 0.  1.
    10030    2    1    2    0    0  0.00000000000E+00  0.00000000000E+00  0.61774060263E+03  0.79471456885E+03  0.49996779277E+03 0.  0.
        5    1    3    3  502    0 -0.12577373659E+03 -0.12499840568E+03  0.58885455635E+03  0.61499220546E+03  0.46999998093E+01 0. -1.
       -5    1    3    3    0  502  0.12577373659E+03  0.12499840568E+03  0.28886046278E+02  0.17972236340E+03  0.46999998093E+01 0.  1.
</event>
<event>
 5   0  0.1231822E-01  0.4957192E+03  0.7818609E-02  0.1014902E+00
        2   -1    0    0  501    0  0.00000000000E+00  0.00000000000E+00  0.38742852268E+03  0.38742852269E+03  0.25500000920E-02 0. -1.
       -2   -1    0    0    0  501  0.00000000000E+00  0.00000000000E+00 -0.15856958400E+03  0.15856958402E+03  0.25500000920E-02 0.  1.
    10030    2    1    2    0    0  0.00000000000E+00  0.00000000000E+00  0.22885893868E+03  0.54599810670E+03  0.49571919340E+03 0.  0.
        1    1    3    3  502    0  0.28112614344E+02  0.16644940479E+03 -0.85468480993E+02  0.18921042442E+03  0.50400001928E-02 0.  1.
       -1    1    3    3    0  502 -0.28112614344E+02 -0.16644940479E+03  0.31432741968E+03  0.35678768228E+03  0.50400001928E-02 0. -1.
</event>
<event>
 5   0  0.1279188E-01  0.5019860E+03  0.7818609E-02  0.1013262E+00
       -2   -1    0    0    0  501  0.00000000000E+00  0.00000000000E+00  0.10182413695E+03  0.10182413698E+03  0.25500000920E-02 0. -1.
        2   -1    0    0  501    0  0.00000000000E+00  0.00000000000E+00 -0.61868923759E+03  0.61868923759E+03  0.25500000920E-02 0.  1.
    10030    2    1    2    0    0  0.00000000000E+00  0.00000000000E+00 -0.51686510064E+03  0.72051337457E+03  0.50198604630E+03 0.  0.
        2    1    3    3  502    0 -0.21342339083E+03  0.13186744910E+03 -0.26945093172E+03  0.36816079706E+03  0.25500000920E-02 0.  1.
       -2    1    3    3    0  502  0.21342339083E+03 -0.13186744910E+03 -0.24741416893E+03  0.35235257751E+03  0.25500000920E-02 0. -1.
</event>
<event>
 5   0  0.1279188E-01  0.4932622E+03  0.7818609E-02  0.1015553E+00
        2   -1    0    0  501    0  0.00000000000E+00  0.00000000000E+00  0.46917325846E+03  0.46917325846E+03  0.25500000920E-02 0.  1.
       -2   -1    0    0    0  501  0.00000000000E+00  0.00000000000E+00 -0.12964696320E+03  0.12964696322E+03  0.25500000920E-02 0. -1.
    10030    2    1    2    0    0  0.00000000000E+00  0.00000000000E+00  0.33952629526E+03  0.59882022168E+03  0.49326215416E+03 0.  0.
        2    1    3    3  502    0  0.15525542005E+03 -0.19163039687E+03  0.16896364330E+03  0.29895679826E+03  0.25500000920E-02 0.  1.
       -2    1    3    3    0  502 -0.15525542005E+03  0.19163039687E+03  0.17056265196E+03  0.29986342343E+03  0.25500000920E-02 0. -1.
</event>
<event>
 5   0  0.7812547E-02  0.5419274E+03  0.7818609E-02  0.1003380E+00
       -1   -1    0    0    0  501  0.00000000000E+00  0.00000000000E+00  0.58432778161E+02  0.58432778379E+02  0.50400001928E-02 0. -1.
        1   -1    0    0  501    0  0.00000000000E+00  0.00000000000E+00 -0.12565090626E+04  0.12565090626E+04  0.50400001928E-02 0.  1.
    10030    2    1    2    0    0  0.00000000000E+00  0.00000000000E+00 -0.11980762844E+04  0.13149418410E+04  0.54192735845E+03 0.  0.
        4    1    3    3  502    0  0.10863052101E+03 -0.12869943168E+03 -0.83999627968E+02  0.18820649353E+03  0.12699999809E+01 0. -1.
       -4    1    3    3    0  502 -0.10863052101E+03  0.12869943168E+03 -0.11140766564E+04  0.11267353474E+04  0.12699999809E+01 0.  1.
</event>
<event>
 5   0  0.7416638E-02  0.5062099E+03  0.7818609E-02  0.1012171E+00
        1   -1    0    0  501    0  0.00000000000E+00  0.00000000000E+00  0.23735131131E+03  0.23735131137E+03  0.50400001928E-02 0.  1.
       -1   -1    0    0    0  501  0.00000000000E+00  0.00000000000E+00 -0.26990422262E+03  0.26990422266E+03  0.50400001928E-02 0. -1.
    10030    2    1    2    0    0  0.00000000000E+00  0.00000000000E+00 -0.32552911304E+02  0.50725553403E+03  0.50620992164E+03 0.  0.
        1    1    3    3  502    0 -0.18407878780E+03 -0.11684375158E+03 -0.14509025527E+03  0.26189433862E+03  0.50400001928E-02 0. -1.
       -1    1    3    3    0  502  0.18407878780E+03  0.11684375158E+03  0.11253734396E+03  0.24536119541E+03  0.50400001928E-02 0.  1.
</event>
<event>
 5   0  0.1211345E-01  0.5005372E+03  0.7818609E-02  0.1013639E+00
       -2   -1    0    0    0  501  0.00000000000E+00  0.00000000000E+00  0.31370421710E+03  0.31370421711E+03  0.25500000920E-02 0.  1.
        2   -1    0    0  501    0  0.00000000000E+00  0.00000000000E+00 -0.19966057269E+03  0.19966057270E+03  0.25500000920E-02 0. -1.
    10030    2    1    2    0    0  0.00000000000E+00  0.00000000000E+00  0.11404364441E+03  0.51336478981E+03  0.50053716604E+03 0.  0.
        5    1    3    3  502    0  0.20903917873E+03 -0.12841573574E+03  0.65228649393E+01  0.24546408535E+03  0.46999998093E+01 0. -1.
       -5    1    3    3    0  502 -0.20903917873E+03  0.12841573574E+03  0.10752077947E+03  0.26790070446E+03  0.46999998093E+01 0.  1.
</event>
<event>
 5   0  0.7602288E-02  0.5045356E+03  0.7818609E-02  0.1012602E+00
       -1   -1    0    0    0  501  0.00000000000E+00  0.00000000000E+00  0.76424630125E+02  0.76424630291E+02  0.50400001928E-02 0. -1.
        1   -1    0    0  501    0  0.00000000000E+00  0.00000000000E+00 -0.83270341872E+03  0.83270341874E+03  0.50400001928E-02 0.  1.
    10030    2    1    2    0    0  0.00000000000E+00  0.00000000000E+00 -0.75627878860E+03  0.90912804903E+03  0.50453563149E+03 0.  0.
        5    1    3    3  502    0  0.14142126974E+03 -0.12544967009E+03 -0.67900646532E+03  0.70484712187E+03  0.46999998093E+01 0.  1.
       -5    1    3    3    0  502 -0.14142126974E+03  0.12544967009E+03 -0.77272323277E+02  0.20428092716E+03  0.46999998093E+01 0. -1.
</event>
<event>
 5   0  0.1279188E-01  0.5057156E+03  0.7818609E-02  0.1012298E+00
       -2   -1    0    0    0  501  0.00000000000E+00  0.00000000000E+00  0.78842207206E+02  0.78842207248E+02  0.25500000920E-02 0. -1.
        2   -1    0    0  501    0  0.00000000000E+00  0.00000000000E+00 -0.81094969647E+03  0.81094969647E+03  0.25500000920E-02 0.  1.
    10030    2    1    2    0    0  0.00000000000E+00  0.00000000000E+00 -0.73210748926E+03  0.88979190372E+03  0.50571558814E+03 0.  0.
        2    1    3    3  502    0 -0.12674432476E+03  0.19292223174E+03 -0.54766279626E+03  0.59432116719E+03  0.25500000920E-02 0.  1.
       -2    1    3    3    0  502  0.12674432476E+03 -0.19292223174E+03 -0.18444469300E+03  0.29547073653E+03  0.25500000920E-02 0. -1.
</event>
<event>
 5   0  0.1243803E-01  0.5275147E+03  0.7818609E-02  0.1006837E+00
        2   -1    0    0  501    0  0.00000000000E+00  0.00000000000E+00  0.10104269368E+04  0.10104269368E+04  0.25500000920E-02 0.  1.
       -2   -1    0    0    0  501  0.00000000000E+00  0.00000000000E+00 -0.68850032953E+02  0.68850033000E+02  0.25500000920E-02 0. -1.
    10030    2    1    2    0    0  0.00000000000E+00  0.00000000000E+00  0.94157690382E+03  0.10792769698E+04  0.52751465542E+03 0.  0.
        4    1    3    3  502    0  0.25746575860E+03  0.50532731318E+02  0.41573177189E+03  0.49160623760E+03  0.12699999809E+01 0.  1.
       -4    1    3    3    0  502 -0.25746575860E+03 -0.50532731318E+02  0.52584513193E+03  0.58767073218E+03  0.12699999809E+01 0. -1.
</event>
<event>
 5   0  0.7812547E-02  0.5110209E+03  0.7818609E-02  0.1010942E+00
       -1   -1    0    0    0  501  0.00000000000E+00  0.00000000000E+00  0.25819326700E+03  0.25819326705E+03  0.50400001928E-02 0. -1.
        1   -1    0    0  501    0  0.00000000000E+00  0.00000000000E+00 -0.25285549022E+03  0.25285549027E+03  0.50400001928E-02 0.  1.
    10030    2    1    2    0    0  0.00000000000E+00  0.00000000000E+00  0.53377767754E+01  0.51104875732E+03  0.51102088069E+03 0.  0.
        4    1    3    3  502    0  0.63640794598E+02  0.23988575068E+03 -0.58068666377E+02  0.25488999005E+03  0.12699999809E+01 0.  1.
       -4    1    3    3    0  502 -0.63640794598E+02 -0.23988575068E+03  0.63406443153E+02  0.25615876727E+03  0.12699999809E+01 0. -1.
</event>
<event>
 5   0  0.1211345E-01  0.4974721E+03  0.7818609E-02  0.1014441E+00
       -2   -1    0    0    0  501  0.00000000000E+00  0.00000000000E+00  0.65834417864E+02  0.65834417914E+02  0.25500000920E-02 0.  1.
        2   -1    0    0  501    0  0.00000000000E+00  0.00000000000E+00 -0.93977607276E+03  0.93977607276E+03  0.25500000920E-02 0. -1.
    10030    2    1    2    0    0  0.00000000000E+00  0.00000000000E+00 -0.87394165490E+03  0.10056104907E+04  0.49747205228E+03 0.  0.
        5    1    3    3  502    0 -0.21799021861E+03  0.71506304580E+02 -0.63101479497E+03  0.67144221529E+03  0.46999998093E+01 0. -1.
       -5    1    3    3    0  502  0.21799021861E+03 -0.71506304580E+02 -0.24292685993E+03  0.33416827539E+03  0.46999998093E+01 0.  1.
</event>
<event>
 5   0  0.1191894E-01  0.4989600E+03  0.7818609E-02  0.1014051E+00
       -2   -1    0    0    0  501  0.00000000000E+00  0.00000000000E+00  0.20908695796E+02  0.20908695952E+02  0.25500000920E-02 0.  1.
        2   -1    0    0  501    0  0.00000000000E+00  0.00000000000E+00 -0.29767649797E+04  0.29767649797E+04  0.25500000920E-02 0. -1.
    10030    2    1    2    0    0  0.00000000000E+00  0.00000000000E+00 -0.29558562839E+04  0.29976736757E+04  0.49896001304E+03 0.  0.
        3    1    3    3  502    0 -0.15020792519E+03 -0.14024365844E+03 -0.23277685355E+04  0.23368220021E+04  0.10100000352E+00 0. -1.
       -3    1    3    3    0  502  0.15020792519E+03  0.14024365844E+03 -0.62808774846E+03  0.66085167359E+03  0.10100000352E+00 0.  1.
</event>
<event>
 5   0  0.1243803E-01  0.4960069E+03  0.7818609E-02  0.1014826E+00
       -2   -1    0    0    0  501  0.00000000000E+00  0.00000000000E+00  0.99853842785E+02  0.99853842818E+02  0.25500000920E-02 0.  1.
        2   -1    0    0  501    0  0.00000000000E+00  0.00000000000E+00 -0.61595727440E+03  0.61595727440E+03  0.25500000920E-02 0. -1.
    10030    2    1    2    0    0  0.00000000000E+00  0.00000000000E+00 -0.51610343161E+03  0.71581111722E+03  0.49600685823E+03 0.  0.
        4    1    3    3  502    0  0.73917569857E+01 -0.23284562057E+03 -0.13532164593E+03  0.26941655823E+03  0.12699999809E+01 0.  1.
       -4    1    3    3    0  502 -0.73917569857E+01  0.23284562057E+03 -0.38078178569E+03  0.44639455900E+03  0.12699999809E+01 0. -1.
</event>
<event>
 5   0  0.7781754E-02  0.4991396E+03  0.7818609E-02  0.1014004E+00
       -1   -1    0    0    0  501  0.00000000000E+00  0.00000000000E+00  0.10251099872E+03  0.10251099885E+03  0.50400001928E-02 0. -1.
        1   -1    0    0  501    0  0.00000000000E+00  0.00000000000E+00 -0.60759408443E+03  0.60759408445E+03  0.50400001928E-02 0.  1.
    10030    2    1    2    0    0  0.00000000000E+00  0.00000000000E+00 -0.50508308571E+03  0.71010508330E+03  0.49913956551E+03 0.  0.
        2    1    3    3  502    0 -0.10983034382E+03  0.16289223359E+03 -0.47150383700E+03  0.51079590103E+03  0.25500000920E-02 0.  1.
       -2    1    3    3    0  502  0.10983034382E+03 -0.16289223359E+03 -0.33579248701E+02  0.19930918227E+03  0.25500000920E-02 0. -1.
</event>
<event>
 5   0  0.1211345E-01  0.5047735E+03  0.7818609E-02  0.1012540E+00
        2   -1    0    0  501    0  0.00000000000E+00  0.00000000000E+00  0.12362131831E+04  0.12362131831E+04  0.25500000920E-02 0. -1.
       -2   -1    0    0    0  501  0.00000000000E+00  0.00000000000E+00 -0.51527585310E+02  0.51527585373E+02  0.25500000920E-02 0.  1.
    10030    2    1    2    0    0  0.00000000000E+00  0.00000000000E+00  0.11846855978E+04  0.12877407685E+04  0.50477353455E+03 0.  0.
        5    1    3    3  502    0  0.18794080458E+03  0.10052604850E+03  0.24770697297E+03  0.32681503471E+03  0.46999998093E+01 0.  1.
       -5    1    3    3    0  502 -0.18794080458E+03 -0.10052604850E+03  0.93697862483E+03  0.96092573378E+03  0.46999998093E+01 0. -1.
</event>
<event>
 5   0  0.7531632E-02  0.5048082E+03  0.7818609E-02  0.1012531E+00
       -1   -1    0    0    0  501  0.00000000000E+00  0.00000000000E+00  0.35944922621E+03  0.35944922625E+03  0.50400001928E-02 0. -1.
        1   -1    0    0  501    0  0.00000000000E+00  0.00000000000E+00 -0.17723737477E+03  0.17723737484E+03  0.50400001928E-02 0.  1.
    10030    2    1    2    0    0  0.00000000000E+00  0.00000000000E+00  0.18221185144E+03  0.53668660109E+03  0.50480822991E+03 0.  0.
        3    1    3    3  502    0  0.22206128922E+03 -0.11997618844E+03  0.89484812140E+02  0.26779291209E+03  0.10100000352E+00 0.  1.
       -3    1    3    3    0  502 -0.22206128922E+03  0.11997618844E+03  0.92727039301E+02  0.26889368899E+03  0.10100000352E+00 0. -1.
</event>
<event>
 5   0  0.1243803E-01  0.4982510E+03  0.7818609E-02  0.1014236E+00
       -2   -1    0    0    0  501  0.00000000000E+00  0.00000000000E+00  0.13482202160E+03  0.13482202163E+03  0.25500000920E-02 0. -1.
        2   -1    0    0  501    0  0.00000000000E+00  0.00000000000E+00 -0.46033663884E+03  0.46033663885E+03  0.25500000920E-02 0.  1.
    10030    2    1    2    0    0  0.00000000000E+00  0.00000000000E+00 -0.32551461724E+03  0.59515866048E+03  0.49825100613E+03 0.  0.
        4    1    3    3  502    0 -0.17285534698E+03 -0.10841885389E+03 -0.33348364554E+03  0.39095597399E+03  0.12699999809E+01 0.  1.
       -4    1    3    3    0  502  0.17285534698E+03  0.10841885389E+03  0.79690283004E+01  0.20420268649E+03  0.12699999809E+01 0. -1.
</event>
<event>
 5   0  0.7416638E-02  0.4129873E+03  0.7818609E-02  0.1039373E+00
        1   -1    0    0  501    0  0.00000000000E+00  0.00000000000E+00  0.88693029010E+03  0.88693029012E+03  0.50400001928E-02 0.  1.
       -1   -1    0    0    0  501  0.00000000000E+00  0.00000000000E+00 -0.48075511036E+02  0.48075511300E+02  0.50400001928E-02 0. -1.
    10030    2    1    2    0    0  0.00000000000E+00  0.00000000000E+00  0.83885477907E+03  0.93500580142E+03  0.41298729801E+03 0.  0.
        1    1    3    3  502    0 -0.17724677608E+03 -0.10279880801E+03  0.36145766699E+03  0.41549447603E+03  0.50400001928E-02 0.  1.
       -1    1    3    3    0  502  0.17724677608E+03  0.10279880801E+03  0.47739711208E+03  0.51951132539E+03  0.50400001928E-02 0. -1.
</event>
<event>
 5   0  0.1211345E-01  0.4983680E+03  0.7818609E-02  0.1014206E+00
        2   -1    0    0  501    0  0.00000000000E+00  0.00000000000E+00  0.22514753317E+04  0.22514753317E+04  0.25500000920E-02 0.  1.
       -2   -1    0    0    0  501  0.00000000000E+00  0.00000000000E+00 -0.27578652871E+02  0.27578652988E+02  0.25500000920E-02 0. -1.
    10030    2    1    2    0    0  0.00000000000E+00  0.00000000000E+00  0.22238966788E+04  0.22790539847E+04  0.49836796348E+03 0.  0.
        5    1    3    3  502    0  0.17317945774E+03 -0.20988090558E+02  0.29852716501E+03  0.34579210918E+03  0.46999998093E+01 0. -1.
       -5    1    3    3    0  502 -0.17317945774E+03  0.20988090558E+02  0.19253695138E+04  0.19332618755E+04  0.46999998093E+01 0.  1.
</event>
<event>
 5   0  0.7602288E-02  0.5126075E+03  0.7818609E-02  0.1010540E+00
       -1   -1    0    0    0  501  0.00000000000E+00  0.00000000000E+00  0.45782278501E+03  0.45782278504E+03  0.50400001928E-02 0. -1.
        1   -1    0    0  501    0  0.00000000000E+00  0.00000000000E+00 -0.14348698081E+03  0.14348698090E+03  0.50400001928E-02 0.  1.
    10030    2    1    2    0    0  0.00000000000E+00  0.00000000000E+00  0.31433580420E+03  0.60130976594E+03  0.51260748805E+03 0.  0.
        5    1    3    3  502    0  0.14919306962E+03  0.11765386548E+03 -0.44542395034E+02  0.19521044808E+03  0.46999998093E+01 0.  1.
       -5    1    3    3    0  502 -0.14919306962E+03 -0.11765386548E+03  0.35887819923E+03  0.40609931786E+03  0.46999998093E+01 0. -1.
</event>
<event>
 5   0  0.7602288E-02  0.5024625E+03  0.7818609E-02  0.1013138E+00
        1   -1    0    0  501    0  0.00000000000E+00  0.00000000000E+00  0.34533083907E+03  0.34533083911E+03  0.50400001928E-02 0.  1.
       -1   -1    0    0    0  501  0.00000000000E+00  0.00000000000E+00 -0.18277296599E+03  0.18277296606E+03  0.50400001928E-02 0. -1.
    10030    2    1    2    0    0  0.00000000000E+00  0.00000000000E+00  0.16255787309E+03  0.52810380516E+03  0.50246250300E+03 0.  0.
        5    1    3    3  502    0  0.17729924255E+03 -0.17476782239E+03  0.11639405632E+03  0.27486083660E+03  0.46999998093E+01 0.  1.
       -5    1    3    3    0  502 -0.17729924255E+03  0.17476782239E+03  0.46163816764E+02  0.25324296856E+03  0.46999998093E+01 0. -1.
</event>
<event>
 5   0  0.1211345E-01  0.4962932E+03  0.7818609E-02  0.1014751E+00
        2   -1    0    0  501    0  0.00000000000E+00  0.00000000000E+00  0.87223845529E+03  0.87223845529E+03  0.25500000920E-02 0.  1.
       -2   -1    0    0    0  501  0.00000000000E+00  0.00000000000E+00 -0.70596205699E+02  0.70596205745E+02  0.25500000920E-02 0. -1.
    10030    2    1    2    0    0  0.00000000000E+00  0.00000000000E+00  0.80164224959E+03  0.94283466104E+03  0.49629316107E+03 0.  0.
        5    1    3    3  502    0  0.14561864084E+03 -0.63414126263E+02  0.38727435958E+02  0.16354829337E+03  0.46999998093E+01 0. -1.
       -5    1    3    3    0  502 -0.14561864084E+03  0.63414126263E+02  0.76291481363E+03  0.77928636766E+03  0.46999998093E+01 0.  1.
</event>
<event>
 5   0  0.7812547E-02  0.5024132E+03  0.7818609E-02  0.1013151E+00
       -1   -1    0    0    0  501  0.00000000000E+00  0.00000000000E+00  0.37665902369E+03  0.37665902372E+03  0.50400001928E-02 0. -1.
        1   -1    0    0  501    0  0.00000000000E+00  0.00000000000E+00 -0.16753816327E+03  0.16753816335E+03  0.50400001928E-02 0.  1.
    10030    2    1    2    0    0  0.00000000000E+00  0.00000000000E+00  0.20912086041E+03  0.54419718707E+03  0.50241322052E+03 0.  0.
        4    1    3    3  502    0 -0.19728478254E+03  0.85666459969E+02 -0.36014057549E+02  0.21807946494E+03  0.12699999809E+01 0.  1.
       -4    1    3    3    0  502  0.19728478254E+03 -0.85666459969E+02  0.24513491796E+03  0.32611772213E+03  0.12699999809E+01 0. -1.
</event>
<event>
 5   0  0.7812547E-02  0.5100423E+03  0.7818609E-02  0.1011190E+00
        1   -1    0    0  501    0  0.00000000000E+00  0.00000000000E+00  0.24427476781E+04  0.24427476781E+04  0.50400001928E-02 0. -1.
       -1   -1    0    0    0  501  0.00000000000E+00  0.00000000000E+00 -0.26624034466E+02  0.26624034943E+02  0.50400001928E-02 0.  1.
    10030    2    1    2    0    0  0.00000000000E+00  0.00000000000E+00  0.24161236436E+04  0.24693717130E+04  0.51004234714E+03 0.  0.
        4    1    3    3  502    0 -0.76098502940E+01 -0.18036411317E+03  0.33598540197E+03  0.38141437620E+03  0.12699999809E+01 0.  1.
       -4    1    3    3    0  502  0.76098502940E+01  0.18036411317E+03  0.20801382417E+04  0.20879573368E+04  0.12699999809E+01 0. -1.
</event>
<event>
 5   0  0.7602288E-02  0.5016996E+03  0.7818609E-02  0.1013336E+00
        1   -1    0    0  501    0  0.00000000000E+00  0.00000000000E+00  0.89562544979E+03  0.89562544980E+03  0.50400001928E-02 0. -1.
       -1   -1    0    0    0  501  0.00000000000E+00  0.00000000000E+00 -0.70258864741E+02  0.70258864922E+02  0.50400001928E-02 0.  1.
    10030    2    1    2    0    0  0.00000000000E+00  0.00000000000E+00  0.82536658505E+03  0.96588431473E+03  0.50169962101E+03 0.  0.
        5    1    3    3  502    0 -0.20752514762E+03  0.13552108192E+02  0.14278640462E+03  0.25231011449E+03  0.46999998093E+01 0.  1.
       -5    1    3    3    0  502  0.20752514762E+03 -0.13552108192E+02  0.68258018043E+03  0.71357420023E+03  0.46999998093E+01 0. -1.
</event>
<event>
 5   0  0.7781754E-02  0.5000242E+03  0.7818609E-02  0.1013773E+00
        1   -1    0    0  501    0  0.00000000000E+00  0.00000000000E+00  0.11324432866E+04  0.11324432866E+04  0.50400001928E-02 0. -1.
       -1   -1    0    0    0  501  0.00000000000E+00  0.00000000000E+00 -0.55195744408E+02  0.55195744638E+02  0.50400001928E-02 0.  1.
    10030    2    1    2    0    0  0.00000000000E+00  0.00000000000E+00  0.10772475422E+04  0.11876390312E+04  0.50002420080E+03 0.  0.
        2    1    3    3  502    0  0.65759633447E+02 -0.95146742376E+02  0.12168356172E+02  0.11629832705E+03  0.25500000920E-02 0.  1.
       -2    1    3    3    0  502 -0.65759633447E+02  0.95146742376E+02  0.10650791860E+04  0.10713407042E+04  0.25500000920E-02 0. -1.
</event>
<event>
 5   0  0.7812547E-02  0.5015524E+03  0.7818609E-02  0.1013375E+00
        1   -1    0    0  501    0  0.00000000000E+00  0.00000000000E+00  0.11004729397E+03  0.11004729408E+03  0.50400001928E-02 0. -1.
       -1   -1    0    0    0  501  0.00000000000E+00  0.00000000000E+00 -0.57146972539E+03  0.57146972541E+03  0.50400001928E-02 0.  1.
    10030    2    1    2    0    0  0.00000000000E+00  0.00000000000E+00 -0.46142243142E+03  0.68151701949E+03  0.50155237776E+03 0.  0.
        4    1    3    3  502    0  0.10915461524E+02  0.18839475859E+03 -0.45512296520E+03  0.49269692379E+03  0.12699999809E+01 0.  1.
       -4    1    3    3    0  502 -0.10915461524E+02 -0.18839475859E+03 -0.62994662235E+01  0.18882009570E+03  0.12699999809E+01 0. -1.
</event>
<event>
 5   0  0.7812547E-02  0.5226938E+03  0.7818609E-02  0.1008020E+00
        1   -1    0    0  501    0  0.00000000000E+00  0.00000000000E+00  0.26555578626E+03  0.26555578631E+03  0.50400001928E-02 0.  1.
       -1   -1    0    0    0  501  0.00000000000E+00  0.00000000000E+00 -0.25720471920E+03  0.25720471925E+03  0.50400001928E-02 0. -1.
    10030    2    1    2    0    0  0.00000000000E+00  0.00000000000E+00  0.83510670585E+01  0.52276050556E+03  0.52269379741E+03 0.  0.
        4    1    3    3  502    0  0.72790215090E+02  0.24457540958E+03  0.60618914039E+02  0.26228193232E+03  0.12699999809E+01 0.  1.
       -4    1    3    3    0  502 -0.72790215090E+02 -0.24457540958E+03 -0.52267846981E+02  0.26047857323E+03  0.12699999809E+01 0. -1.
</event>
<event>
 5   0  0.7416638E-02  0.5032589E+03  0.7818609E-02  0.1012932E+00
        1   -1    0    0  501    0  0.00000000000E+00  0.00000000000E+00  0.98911811335E+03  0.98911811336E+03  0.50400001928E-02 0.  1.
       -1   -1    0    0    0  501  0.00000000000E+00  0.00000000000E+00 -0.64013967633E+02  0.64013967831E+02  0.50400001928E-02 0. -1.
    10030    2    1    2    0    0  0.00000000000E+00  0.00000000000E+00  0.92510414572E+03  0.10531320812E+04  0.50325887972E+03 0.  0.
        1    1    3    3  502    0  0.22098550684E+03  0.12033537698E+03  0.46564023323E+03  0.52927877722E+03  0.50400001928E-02 0. -1.
       -1    1    3    3    0  502 -0.22098550684E+03 -0.12033537698E+03  0.45946391249E+03  0.52385330398E+03  0.50400001928E-02 0.  1.
</event>
<event>
 5   0  0.1279188E-01  0.4724413E+03  0.7818609E-02  0.1021233E+00
       -2   -1    0    0    0  501  0.00000000000E+00  0.00000000000E+00  0.79762003235E+02  0.79762003276E+02  0.25500000920E-02 0.  1.
        2   -1    0    0  501    0  0.00000000000E+00  0.00000000000E+00 -0.69958377339E+03  0.69958377340E+03  0.25500000920E-02 0. -1.
    10030    2    1    2    0    0  0.00000000000E+00  0.00000000000E+00 -0.61982177016E+03  0.77934577667E+03  0.47244133271E+03 0.  0.
        2    1    3    3  502    0  0.17577197393E+03 -0.17530010312E+02 -0.51194230235E+02  0.18391285245E+03  0.25500000920E-02 0.  1.
       -2    1    3    3    0  502 -0.17577197393E+03  0.17530010312E+02 -0.56862753992E+03  0.59543292422E+03  0.25500000920E-02 0. -1.
</event>
<event>
 5   0  0.7416638E-02  0.4991034E+03  0.7818609E-02  0.1014013E+00
        1   -1    0    0  501    0  0.00000000000E+00  0.00000000000E+00  0.12381451245E+04  0.12381451245E+04  0.50400001928E-02 0. -1.
       -1   -1    0    0    0  501  0.00000000000E+00  0.00000000000E+00 -0.50297862775E+02  0.50297863027E+02  0.50400001928E-02 0.  1.
    10030    2    1    2    0    0  0.00000000000E+00  0.00000000000E+00  0.11878472617E+04  0.12884429875E+04  0.49910341107E+03 0.  0.
        1    1    3    3  502    0 -0.12320353189E+03  0.72775265827E+02  0.11217200833E+04  0.11308100172E+04  0.50400001928E-02 0. -1.
       -1    1    3    3    0  502  0.12320353189E+03 -0.72775265827E+02  0.66127178339E+02  0.15763297030E+03  0.50400001928E-02 0.  1.
</event>
<event>
 5   0  0.7812547E-02  0.5046821E+03  0.7818609E-02  0.1012564E+00
       -1   -1    0    0    0  501  0.00000000000E+00  0.00000000000E+00  0.31954166913E+03  0.31954166917E+03  0.50400001928E-02 0.  1.
        1   -1    0    0  501    0  0.00000000000E+00  0.00000000000E+00 -0.19927292348E+03  0.19927292354E+03  0.50400001928E-02 0. -1.
    10030    2    1    2    0    0  0.00000000000E+00  0.00000000000E+00  0.12026874565E+03  0.51881459271E+03  0.50468208848E+03 0.  0.
        4    1    3    3  502    0  0.82343679735E+02  0.23502421191E+03  0.10198719218E+03  0.26910938677E+03  0.12699999809E+01 0.  1.
       -4    1    3    3    0  502 -0.82343679735E+02 -0.23502421191E+03  0.18281553469E+02  0.24970520594E+03  0.12699999809E+01 0. -1.
</event>
<event>
 5   0  0.5006750E-02  0.4952688E+03  0.7818609E-02  0.1015021E+00
        3   -1    0    0  501    0  0.00000000000E+00  0.00000000000E+00  0.73868585619E+02  0.73868654667E+02  0.10100000352E+00 0. -1.
       -3   -1    0    0    0  501  0.00000000000E+00  0.00000000000E+00 -0.83016012480E+03  0.83016013094E+03  0.10100000352E+00 0.  1.
    10030    2    1    2    0    0  0.00000000000E+00  0.00000000000E+00 -0.75629153918E+03  0.90402878561E+03  0.49526876842E+03 0.  0.
        5    1    3    3  502    0  0.22526113822E+03  0.92653369797E+02 -0.45923378712E+03  0.51985092917E+03  0.46999998093E+01 0. -1.
       -5    1    3    3    0  502 -0.22526113822E+03 -0.92653369797E+02 -0.29705775206E+03  0.38417785644E+03  0.46999998093E+01 0.  1.
</event>
<event>
 5   0  0.1211345E-01  0.5006176E+03  0.7818609E-02  0.1013618E+00
       -2   -1    0    0    0  501  0.00000000000E+00  0.00000000000E+00  0.66130249586E+02  0.66130249635E+02  0.25500000920E-02 0. -1.
        2   -1    0    0  501    0  0.00000000000E+00  0.00000000000E+00 -0.94744086370E+03  0.94744086370E+03  0.25500000920E-02 0.  1.
    10030    2    1    2    0    0  0.00000000000E+00  0.00000000000E+00 -0.88131061412E+03  0.10135711133E+04  0.50061762179E+03 0.  0.
        5    1    3    3  502    0 -0.11237914065E+03 -0.13155888309E+03 -0.74561192854E+02  0.18846292063E+03  0.46999998093E+01 0. -1.
       -5    1    3    3    0  502  0.11237914065E+03  0.13155888309E+03 -0.80674942126E+03  0.82510819271E+03  0.46999998093E+01 0.  1.
</event>
<event>
 5   0  0.5006750E-02  0.5020317E+03  0.7818609E-02  0.1013250E+00
       -4   -1    0    0    0  501  0.00000000000E+00  0.00000000000E+00  0.15664390665E+03  0.15664905487E+03  0.12699999809E+01 0. -1.
        4   -1    0    0  501    0  0.00000000000E+00  0.00000000000E+00 -0.40223045373E+03  0.40223245867E+03  0.12699999809E+01 0.  1.
    10030    2    1    2    0    0  0.00000000000E+00  0.00000000000E+00 -0.24558654708E+03  0.55888151354E+03  0.50203166641E+03 0.  0.
        2    1    3    3  502    0 -0.34495884435E+02  0.12896279142E+03  0.11385218738E+03  0.17545280902E+03  0.25500000920E-02 0. -1.
       -2    1    3    3    0  502  0.34495884435E+02 -0.12896279142E+03 -0.35943873446E+03  0.38342870452E+03  0.25500000920E-02 0.  1.
</event>
<event>
 5   0  0.7531632E-02  0.5145722E+03  0.7818609E-02  0.1010044E+00
        1   -1    0    0  501    0  0.00000000000E+00  0.00000000000E+00  0.14180924188E+04  0.14180924188E+04  0.50400001928E-02 0.  1.
       -1   -1    0    0    0  501  0.00000000000E+00  0.00000000000E+00 -0.46679713420E+02  0.46679713692E+02  0.50400001928E-02 0. -1.
    10030    2    1    2    0    0  0.00000000000E+00  0.00000000000E+00  0.13714127054E+04  0.14647721325E+04  0.51457224145E+03 0.  0.
        3    1    3    3  502    0  0.79883635263E+02  0.20959276723E+03  0.10444842856E+04  0.10682967548E+04  0.10100000352E+00 0.  1.
       -3    1    3    3    0  502 -0.79883635263E+02 -0.20959276723E+03  0.32692841979E+03  0.39647537771E+03  0.10100000352E+00 0. -1.
</event>
<event>
 5   0  0.7812547E-02  0.4934370E+03  0.7818609E-02  0.1015506E+00
       -1   -1    0    0    0  501  0.00000000000E+00  0.00000000000E+00  0.85051852882E+02  0.85051853031E+02  0.50400001928E-02 0.  1.
        1   -1    0    0  501    0  0.00000000000E+00  0.00000000000E+00 -0.71568131010E+03  0.71568131012E+03  0.50400001928E-02 0. -1.
    10030    2    1    2    0    0  0.00000000000E+00  0.00000000000E+00 -0.63062945722E+03  0.80073316315E+03  0.49343701346E+03 0.  0.
        4    1    3    3  502    0 -0.23061408255E+03  0.49811988681E+02 -0.19824676540E+03  0.30816794476E+03  0.12699999809E+01 0. -1.
       -4    1    3    3    0  502  0.23061408255E+03 -0.49811988681E+02 -0.43238269181E+03  0.49256521839E+03  0.12699999809E+01 0.  1.
</event>
<event>
 5   0  0.7781754E-02  0.4494433E+03  0.7818609E-02  0.1027888E+00
        1   -1    0    0  501    0  0.00000000000E+00  0.00000000000E+00  0.12859596296E+03  0.12859596306E+03  0.50400001928E-02 0.  1.
       -1   -1    0    0    0  501  0.00000000000E+00  0.00000000000E+00 -0.39270136350E+03  0.39270136353E+03  0.50400001928E-02 0. -1.
    10030    2    1    2    0    0  0.00000000000E+00  0.00000000000E+00 -0.26410540054E+03  0.52129732659E+03  0.44944325572E+03 0.  0.
        2    1    3    3  502    0  0.14250505356E+03 -0.14610906933E+03 -0.24113175620E+03  0.31591149755E+03  0.25500000920E-02 0. -1.
       -2    1    3    3    0  502 -0.14250505356E+03  0.14610906933E+03 -0.22973644334E+02  0.20538582904E+03  0.25500000920E-02 0.  1.
</event>
<event>
 5   0  0.1243803E-01  0.4939429E+03  0.7818609E-02  0.1015372E+00
        2   -1    0    0  501    0  0.00000000000E+00  0.00000000000E+00  0.52553319387E+03  0.52553319388E+03  0.25500000920E-02 0. -1.
       -2   -1    0    0    0  501  0.00000000000E+00  0.00000000000E+00 -0.11606289519E+03  0.11606289522E+03  0.25500000920E-02 0.  1.
    10030    2    1    2    0    0  0.00000000000E+00  0.00000000000E+00  0.40947029868E+03  0.64159608909E+03  0.49394292791E+03 0.  0.
        4    1    3    3  502    0  0.56164483118E+02  0.18167705937E+02  0.51623080922E+03  0.51959635871E+03  0.12699999809E+01 0. -1.
       -4    1    3    3    0  502 -0.56164483118E+02 -0.18167705937E+02 -0.10676051053E+03  0.12199973038E+03  0.12699999809E+01 0.  1.
</event>
<event>
 5   0  0.7602288E-02  0.5411170E+03  0.7818609E-02  0.1003571E+00
        1   -1    0    0  501    0  0.00000000000E+00  0.00000000000E+00  0.95334619899E+03  0.95334619900E+03  0.50400001928E-02 0.  1.
       -1   -1    0    0    0  501  0.00000000000E+00  0.00000000000E+00 -0.76784181547E+02  0.76784181713E+02  0.50400001928E-02 0. -1.
    10030    2    1    2    0    0  0.00000000000E+00  0.00000000000E+00  0.87656201744E+03  0.10301303807E+04  0.54111702140E+03 0.  0.
        5    1    3    3  502    0 -0.73534394825E+02 -0.24186778705E+03  0.25496556750E+03  0.35907779693E+03  0.46999998093E+01 0. -1.
       -5    1    3    3    0  502  0.73534394825E+02  0.24186778705E+03  0.62159644994E+03  0.67105258379E+03  0.46999998093E+01 0.  1.
</event>
<event>
 5   0  0.7531632E-02  0.4879810E+03  0.7818609E-02  0.1016965E+00
        1   -1    0    0  501    0  0.00000000000E+00  0.00000000000E+00  0.69447033453E+03  0.69447033454E+03  0.50400001928E-02 0.  1.
       -1   -1    0    0    0  501  0.00000000000E+00  0.00000000000E+00 -0.85721980085E+02  0.85721980234E+02  0.50400001928E-02 0. -1.
    10030    2    1    2    0    0  0.00000000000E+00  0.00000000000E+00  0.60874835444E+03  0.78019231478E+03  0.48798103345E+03 0.  0.
        3    1    3    3  502    0 -0.79729883965E+02  0.16939220108E+03  0.55453047370E+03  0.58528166608E+03  0.10100000352E+00 0.  1.
       -3    1    3    3    0  502  0.79729883965E+02 -0.16939220108E+03  0.54217880740E+02  0.19491064870E+03  0.10100000352E+00 0. -1.
</event>
<event>
 5   0  0.1279188E-01  0.5035324E+03  0.7818609E-02  0.1012861E+00
       -2   -1    0    0    0  501  0.00000000000E+00  0.00000000000E+00  0.12137897212E+03  0.12137897214E+03  0.25500000920E-02 0.  1.
        2   -1    0    0  501    0  0.00000000000E+00  0.00000000000E+00 -0.52221751626E+03  0.52221751627E+03  0.25500000920E-02 0. -1.
    10030    2    1    2    0    0  0.00000000000E+00  0.00000000000E+00 -0.40083854414E+03  0.64359648841E+03  0.50353242341E+03 0.  0.
        2    1    3    3  502    0 -0.12559813581E+03 -0.92942434746E+02  0.51910416934E+02  0.16464470622E+03  0.25500000920E-02 0.  1.
       -2    1    3    3    0  502  0.12559813581E+03  0.92942434746E+02 -0.45274896108E+03  0.47895178219E+03  0.25500000920E-02 0. -1.
</event>
<event>
 5   0  0.1211345E-01  0.4959807E+03  0.7818609E-02  0.1014833E+00
        2   -1    0    0  501    0  0.00000000000E+00  0.00000000000E+00  0.47918533791E+03  0.47918533792E+03  0.25500000920E-02 0. -1.
       -2   -1    0    0    0  501  0.00000000000E+00  0.00000000000E+00 -0.12834118983E+03  0.12834118985E+03  0.25500000920E-02 0.  1.
    10030    2    1    2    0    0  0.00000000000E+00  0.00000000000E+00  0.35084414808E+03  0.60752652777E+03  0.49598071101E+03 0.  0.
        5    1    3    3  502    0  0.19339672923E+03 -0.35245257425E+02 -0.96658889269E+01  0.19687570306E+03  0.46999998093E+01 0.  1.
       -5    1    3    3    0  502 -0.19339672923E+03  0.35245257425E+02  0.36051003701E+03  0.41065082471E+03  0.46999998093E+01 0. -1.
</event>
<event>
 5   0  0.1191894E-01  0.5055729E+03  0.7818609E-02  0.1012334E+00
        2   -1    0    0  501    0  0.00000000000E+00  0.00000000000E+00  0.29535443495E+03  0.29535443496E+03  0.25500000920E-02 0.  1.
       -2   -1    0    0    0  501  0.00000000000E+00  0.00000000000E+00 -0.21635355108E+03  0.21635355109E+03  0.25500000920E-02 0. -1.
    10030    2    1    2    0    0  0.00000000000E+00  0.00000000000E+00  0.79000883871E+02  0.51170798605E+03  0.50557286649E+03 0.  0.
        3    1    3    3  502    0 -0.10729047244E+03  0.13319541388E+03  0.22790089922E+03  0.28494050927E+03  0.10100000352E+00 0.  1.
       -3    1    3    3    0  502  0.10729047244E+03 -0.13319541388E+03 -0.14890001535E+03  0.22676747678E+03  0.10100000352E+00 0. -1.
</event>
<event>
 5   0  0.5006750E-02  0.4997447E+03  0.7818609E-02  0.1013846E+00
        4   -1    0    0  501    0  0.00000000000E+00  0.00000000000E+00  0.30892321254E+03  0.30892582305E+03  0.12699999809E+01 0. -1.
       -4   -1    0    0    0  501  0.00000000000E+00  0.00000000000E+00 -0.20210365492E+03  0.20210764516E+03  0.12699999809E+01 0.  1.
    10030    2    1    2    0    0  0.00000000000E+00  0.00000000000E+00  0.10681955762E+03  0.51103346821E+03  0.49974472258E+03 0.  0.
        1    1    3    3  502    0  0.75913323370E+02 -0.22621586073E+03  0.12924527729E+03  0.27136836595E+03  0.50400001928E-02 0. -1.
       -1    1    3    3    0  502 -0.75913323370E+02  0.22621586073E+03 -0.22425719675E+02  0.23966510226E+03  0.50400001928E-02 0.  1.
</event>
<event>
 5   0  0.1191894E-01  0.4925853E+03  0.7818609E-02  0.1015733E+00
       -2   -1    0    0    0  501  0.00000000000E+00  0.00000000000E+00  0.89106528025E+02  0.89106528061E+02  0.25500000920E-02 0.  1.
        2   -1    0    0  501    0  0.00000000000E+00  0.00000000000E+00 -0.68075902080E+03  0.68075902081E+03  0.25500000920E-02 0. -1.
    10030    2    1    2    0    0  0.00000000000E+00  0.00000000000E+00 -0.59165249278E+03  0.76986554887E+03  0.49258531355E+03 0.  0.
        3    1    3    3  502    0  0.61597340747E+02 -0.14098549852E+03 -0.59641259191E+03  0.61593760493E+03  0.10100000352E+00 0. -1.
       -3    1    3    3    0  502 -0.61597340747E+02  0.14098549852E+03  0.47600991301E+01  0.15392794394E+03  0.10100000352E+00 0.  1.
</event>
<event>
 5   0  0.7602288E-02  0.4958594E+03  0.7818609E-02  0.1014865E+00
       -1   -1    0    0    0  501  0.00000000000E+00  0.00000000000E+00  0.29210827263E+03  0.29210827268E+03  0.50400001928E-02 0. -1.
        1   -1    0    0  501    0  0.00000000000E+00  0.00000000000E+00 -0.21043268339E+03  0.21043268345E+03  0.50400001928E-02 0.  1.
    10030    2    1    2    0    0  0.00000000000E+00  0.00000000000E+00  0.81675589245E+02  0.50254095613E+03  0.49585936586E+03 0.  0.
        5    1    3    3  502    0 -0.24229821688E+01 -0.88068176265E+02  0.27566049596E+03  0.28943509383E+03  0.46999998093E+01 0. -1.
       -5    1    3    3    0  502  0.24229821688E+01  0.88068176265E+02 -0.19398490671E+03  0.21310586229E+03  0.46999998093E+01 0.  1.
</event>
<event>
 5   0  0.7531632E-02  0.5032351E+03  0.7818609E-02  0.1012938E+00
        1   -1    0    0  501    0  0.00000000000E+00  0.00000000000E+00  0.12687774323E+04  0.12687774323E+04  0.50400001928E-02 0.  1.
       -1   -1    0    0    0  501  0.00000000000E+00  0.00000000000E+00 -0.49899526886E+02  0.49899527141E+02  0.50400001928E-02 0. -1.
    10030    2    1    2    0    0  0.00000000000E+00  0.00000000000E+00  0.12188779054E+04  0.13186769594E+04  0.50323510914E+03 0.  0.
        3    1    3    3  502    0 -0.11561039378E+02 -0.81026921244E+02  0.12329198191E+04  0.12356335663E+04  0.10100000352E+00 0.  1.
       -3    1    3    3    0  502  0.11561039378E+02  0.81026921244E+02 -0.14041913737E+02  0.83043393116E+02  0.10100000352E+00 0. -1.
</event>
<event>
 5   0  0.5006750E-02  0.4989620E+03  0.7818609E-02  0.1014050E+00
        3   -1    0    0  501    0  0.00000000000E+00  0.00000000000E+00  0.89401046065E+02  0.89401103117E+02  0.10100000352E+00 0.  1.
       -3   -1    0    0    0  501  0.00000000000E+00  0.00000000000E+00 -0.69619703924E+03  0.69619704657E+03  0.10100000352E+00 0. -1.
    10030    2    1    2    0    0  0.00000000000E+00  0.00000000000E+00 -0.60679599318E+03  0.78559814968E+03  0.49896199800E+03 0.  0.
        4    1    3    3  502    0 -0.84846424189E+01 -0.34548785998E+02  0.85381824854E+02  0.92505549489E+02  0.12699999809E+01 0.  1.
       -4    1    3    3    0  502  0.84846424189E+01  0.34548785998E+02 -0.69217781803E+03  0.69309260019E+03  0.12699999809E+01 0. -1.
</event>
<event>
 5   0  0.7812547E-02  0.5121674E+03  0.7818609E-02  0.1010651E+00
       -1   -1    0    0    0  501  0.00000000000E+00  0.00000000000E+00  0.48296941490E+03  0.48296941493E+03  0.50400001928E-02 0.  1.
        1   -1    0    0  501    0  0.00000000000E+00  0.00000000000E+00 -0.13578262320E+03  0.13578262330E+03  0.50400001928E-02 0. -1.
    10030    2    1    2    0    0  0.00000000000E+00  0.00000000000E+00  0.34718679170E+03  0.61875203822E+03  0.51216737155E+03 0.  0.
        4    1    3    3  502    0  0.18614311218E+03 -0.18775698567E+02  0.38484071560E+03  0.42790860514E+03  0.12699999809E+01 0.  1.
       -4    1    3    3    0  502 -0.18614311218E+03  0.18775698567E+02 -0.37653923897E+02  0.19084343309E+03  0.12699999809E+01 0. -1.
</event>
<event>
 5   0  0.1243803E-01  0.5005952E+03  0.7818609E-02  0.1013624E+00
       -2   -1    0    0    0  501  0.00000000000E+00  0.00000000000E+00  0.53090915678E+02  0.53090915739E+02  0.25500000920E-02 0.  1.
        2   -1    0    0  501    0  0.00000000000E+00  0.00000000000E+00 -0.11800302950E+04  0.11800302950E+04  0.25500000920E-02 0. -1.
    10030    2    1    2    0    0  0.00000000000E+00  0.00000000000E+00 -0.11269393793E+04  0.12331212108E+04  0.50059520145E+03 0.  0.
        4    1    3    3  502    0 -0.50251171196E+02  0.24519294093E+03 -0.56737816516E+03  0.62013252913E+03  0.12699999809E+01 0. -1.
       -4    1    3    3    0  502  0.50251171196E+02 -0.24519294093E+03 -0.55956121418E+03  0.61298868162E+03  0.12699999809E+01 0.  1.
</event>
<event>
 5   0  0.7812547E-02  0.5027482E+03  0.7818609E-02  0.1013064E+00
        1   -1    0    0  501    0  0.00000000000E+00  0.00000000000E+00  0.10993180107E+03  0.10993180118E+03  0.50400001928E-02 0.  1.
       -1   -1    0    0    0  501  0.00000000000E+00  0.00000000000E+00 -0.57480136323E+03  0.57480136325E+03  0.50400001928E-02 0. -1.
    10030    2    1    2    0    0  0.00000000000E+00  0.00000000000E+00 -0.46486956216E+03  0.68473316443E+03  0.50274824380E+03 0.  0.
        4    1    3    3  502    0 -0.19054040107E+03  0.15670755985E+03 -0.29809907383E+03  0.38694647495E+03  0.12699999809E+01 0. -1.
       -4    1    3    3    0  502  0.19054040107E+03 -0.15670755985E+03 -0.16677048833E+03  0.29778668948E+03  0.12699999809E+01 0.  1.
</event>
<event>
 5   0  0.1211345E-01  0.5031145E+03  0.7818609E-02  0.1012969E+00
        2   -1    0    0  501    0  0.00000000000E+00  0.00000000000E+00  0.74783142117E+03  0.74783142118E+03  0.25500000920E-02 0.  1.
       -2   -1    0    0    0  501  0.00000000000E+00  0.00000000000E+00 -0.84619395131E+02  0.84619395169E+02  0.25500000920E-02 0. -1.
    10030    2    1    2    0    0  0.00000000000E+00  0.00000000000E+00  0.66321202604E+03  0.83245081635E+03  0.50311447022E+03 0.  0.
        5    1    3    3  502    0  0.11540175649E+03  0.22312545922E+03  0.35229947608E+03  0.43271185193E+03  0.46999998093E+01 0.  1.
       -5    1    3    3    0  502 -0.11540175649E+03 -0.22312545922E+03  0.31091254996E+03  0.39973896442E+03  0.46999998093E+01 0. -1.
</event>
<event>
 5   0  0.7531632E-02  0.4460558E+03  0.7818609E-02  0.1028905E+00
        1   -1    0    0  501    0  0.00000000000E+00  0.00000000000E+00  0.10987316481E+04  0.10987316481E+04  0.50400001928E-02 0. -1.
       -1   -1    0    0    0  501  0.00000000000E+00  0.00000000000E+00 -0.45271697084E+02  0.45271697364E+02  0.50400001928E-02 0.  1.
    10030    2    1    2    0    0  0.00000000000E+00  0.00000000000E+00  0.10534599510E+04  0.11440033454E+04  0.44605581048E+03 0.  0.
        3    1    3    3  502    0  0.13463684724E+03 -0.16148755225E+03  0.33590242211E+03  0.39627737451E+03  0.10100000352E+00 0. -1.
       -3    1    3    3    0  502 -0.13463684724E+03  0.16148755225E+03  0.71755752888E+03  0.74772597094E+03  0.10100000352E+00 0.  1.
</event>
<event>
 5   0  0.1279188E-01  0.5037993E+03  0.7818609E-02  0.1012792E+00
       -2   -1    0    0    0  501  0.00000000000E+00  0.00000000000E+00  0.10067051180E+03  0.10067051184E+03  0.25500000920E-02 0. -1.
        2   -1    0    0  501    0  0.00000000000E+00  0.00000000000E+00 -0.63030815249E+03  0.63030815250E+03  0.25500000920E-02 0.  1.
    10030    2    1    2    0    0  0.00000000000E+00  0.00000000000E+00 -0.52963764069E+03  0.73097866433E+03  0.50379934227E+03 0.  0.
        2    1    3    3  502    0 -0.14070688448E+03  0.12860768527E+03 -0.50373884561E+03  0.53860114058E+03  0.25500000920E-02 0.  1.
       -2    1    3    3    0  502  0.14070688448E+03 -0.12860768527E+03 -0.25898795081E+02  0.19237752375E+03  0.25500000920E-02 0. -1.
</event>
<event>
 5   0  0.1243803E-01  0.4992917E+03  0.7818609E-02  0.1013964E+00
       -2   -1    0    0    0  501  0.00000000000E+00  0.00000000000E+00  0.11573355418E+03  0.11573355420E+03  0.25500000920E-02 0.  1.
        2   -1    0    0  501    0  0.00000000000E+00  0.00000000000E+00 -0.53850453400E+03  0.53850453400E+03  0.25500000920E-02 0. -1.
    10030    2    1    2    0    0  0.00000000000E+00  0.00000000000E+00 -0.42277097982E+03  0.65423808821E+03  0.49929167295E+03 0.  0.
        4    1    3    3  502    0 -0.21499172203E+03  0.52099486158E+02 -0.36298610743E+03  0.42508390241E+03  0.12699999809E+01 0. -1.
       -4    1    3    3    0  502  0.21499172203E+03 -0.52099486158E+02 -0.59784872387E+02  0.22915418579E+03  0.12699999809E+01 0.  1.
</event>
<event>
 5   0  0.1279188E-01  0.4947681E+03  0.7818609E-02  0.1015154E+00
       -2   -1    0    0    0  501  0.00000000000E+00  0.00000000000E+00  0.14379100173E+03  0.14379100175E+03  0.25500000920E-02 0. -1.
        2   -1    0    0  501    0  0.00000000000E+00  0.00000000000E+00 -0.42560979678E+03  0.42560979679E+03  0.25500000920E-02 0.  1.
    10030    2    1    2    0    0  0.00000000000E+00  0.00000000000E+00 -0.28181879506E+03  0.56940079854E+03  0.49476806296E+03 0.  0.
        2    1    3    3  502    0  0.41404519082E+02 -0.69562555904E+02 -0.40993518798E+03  0.41785181792E+03  0.25500000920E-02 0.  1.
       -2    1    3    3    0  502 -0.41404519082E+02  0.69562555904E+02  0.12811639293E+03  0.15154898062E+03  0.25500000920E-02 0. -1.
</event>
<event>
 5   0  0.7812547E-02  0.4842634E+03  0.7818609E-02  0.1017970E+00
        1   -1    0    0  501    0  0.00000000000E+00  0.00000000000E+00  0.95229588297E+03  0.95229588298E+03  0.50400001928E-02 0.  1.
       -1   -1    0    0    0  501  0.00000000000E+00  0.00000000000E+00 -0.61564657381E+02  0.61564657587E+02  0.50400001928E-02 0. -1.
    10030    2    1    2    0    0  0.00000000000E+00  0.00000000000E+00  0.89073122559E+03  0.10138605406E+04  0.48426344017E+03 0.  0.
        4    1    3    3  502    0  0.20762242884E+03  0.11930713785E+03  0.37031924811E+03  0.44099798698E+03  0.12699999809E+01 0. -1.
       -4    1    3    3    0  502 -0.20762242884E+03 -0.11930713785E+03  0.52041197748E+03  0.57286255359E+03  0.12699999809E+01 0.  1.
</event>
<event>
 5   0  0.1211345E-01  0.4931408E+03  0.7818609E-02  0.1015585E+00
       -2   -1    0    0    0  501  0.00000000000E+00  0.00000000000E+00  0.64006102167E+02  0.64006102217E+02  0.25500000920E-02 0. -1.
        2   -1    0    0  501    0  0.00000000000E+00  0.00000000000E+00 -0.94986192380E+03  0.94986192380E+03  0.25500000920E-02 0.  1.
    10030    2    1    2    0    0  0.00000000000E+00  0.00000000000E+00 -0.88585582163E+03  0.10138680260E+04  0.49314078869E+03 0.  0.
        5    1    3    3  502    0 -0.72224303401E+02  0.55541192130E+02 -0.91388498681E+03  0.91842747843E+03  0.46999998093E+01 0.  1.
       -5    1    3    3    0  502  0.72224303401E+02 -0.55541192130E+02  0.28029165178E+02  0.95440547587E+02  0.46999998093E+01 0. -1.
</event>
<event>
 5   0  0.5006750E-02  0.4873699E+03  0.7818609E-02  0.1017129E+00
        4   -1    0    0  501    0  0.00000000000E+00  0.00000000000E+00  0.35481784907E+02  0.35504506195E+02  0.12699999809E+01 0. -1.
       -4   -1    0    0    0  501  0.00000000000E+00  0.00000000000E+00 -0.16730421349E+04  0.16730426170E+04  0.12699999809E+01 0.  1.
    10030    2    1    2    0    0  0.00000000000E+00  0.00000000000E+00 -0.16375603500E+04  0.17085471232E+04  0.48736985141E+03 0.  0.
        5    1    3    3  502    0 -0.14104508618E+03  0.19406033664E+03 -0.66975415993E+03  0.71143928436E+03  0.46999998093E+01 0. -1.
       -5    1    3    3    0  502  0.14104508618E+03 -0.19406033664E+03 -0.96780619011E+03  0.99710783880E+03  0.46999998093E+01 0.  1.
</event>
<event>
 5   0  0.7812547E-02  0.5051050E+03  0.7818609E-02  0.1012455E+00
       -1   -1    0    0    0  501  0.00000000000E+00  0.00000000000E+00  0.83422542987E+02  0.83422543139E+02  0.50400001928E-02 0. -1.
        1   -1    0    0  501    0  0.00000000000E+00  0.00000000000E+00 -0.76457477094E+03  0.76457477096E+03  0.50400001928E-02 0.  1.
    10030    2    1    2    0    0  0.00000000000E+00  0.00000000000E+00 -0.68115222796E+03  0.84799731410E+03  0.50510502578E+03 0.  0.
        4    1    3    3  502    0  0.15445507602E+03 -0.47077826728E+02 -0.14565137155E+02  0.16213096064E+03  0.12699999809E+01 0. -1.
       -4    1    3    3    0  502 -0.15445507602E+03  0.47077826728E+02 -0.66658709080E+03  0.68586635346E+03  0.12699999809E+01 0.  1.
</event>
<event>
 5   0  0.7602288E-02  0.4846527E+03  0.7818609E-02  0.1017864E+00
        1   -1    0    0  501    0  0.00000000000E+00  0.00000000000E+00  0.82419665054E+03  0.82419665056E+03  0.50400001928E-02 0. -1.
       -1   -1    0    0    0  501  0.00000000000E+00  0.00000000000E+00 -0.71247633441E+02  0.71247633619E+02  0.50400001928E-02 0.  1.
    10030    2    1    2    0    0  0.00000000000E+00  0.00000000000E+00  0.75294901710E+03  0.89544428418E+03  0.48465270422E+03 0.  0.
        5    1    3    3  502    0 -0.87708511621E+02 -0.17102238133E+03  0.10393922623E+03  0.21855637871E+03  0.46999998093E+01 0.  1.
       -5    1    3    3    0  502  0.87708511621E+02  0.17102238133E+03  0.64900979087E+03  0.67688790546E+03  0.46999998093E+01 0. -1.
</event>
<event>
 5   0  0.7781754E-02  0.4989390E+03  0.7818609E-02  0.1014056E+00
       -1   -1    0    0    0  501  0.00000000000E+00  0.00000000000E+00  0.24415291375E+03  0.24415291380E+03  0.50400001928E-02 0. -1.
        1   -1    0    0  501    0  0.00000000000E+00  0.00000000000E+00 -0.25490187662E+03  0.25490187667E+03  0.50400001928E-02 0.  1.
    10030    2    1    2    0    0  0.00000000000E+00  0.00000000000E+00 -0.10748962875E+02  0.49905479047E+03  0.49893901801E+03 0.  0.
        2    1    3    3  502    0 -0.82217240056E+02  0.23206872040E+03  0.34877499978E+02  0.24866042219E+03  0.25500000920E-02 0. -1.
       -2    1    3    3    0  502  0.82217240056E+02 -0.23206872040E+03 -0.45626462852E+02  0.25039436829E+03  0.25500000920E-02 0.  1.
</event>
<event>
 5   0  0.1231822E-01  0.4970999E+03  0.7818609E-02  0.1014539E+00
        2   -1    0    0  501    0  0.00000000000E+00  0.00000000000E+00  0.48170553627E+03  0.48170553628E+03  0.25500000920E-02 0.  1.
       -2   -1    0    0    0  501  0.00000000000E+00  0.00000000000E+00 -0.12824656599E+03  0.12824656602E+03  0.25500000920E-02 0. -1.
    10030    2    1    2    0    0  0.00000000000E+00  0.00000000000E+00  0.35345897028E+03  0.60995210230E+03  0.49709991292E+03 0.  0.
        1    1    3    3  502    0 -0.69988120687E+02  0.10123676288E+03  0.44169179968E+03  0.45851811865E+03  0.50400001928E-02 0.  1.
       -1    1    3    3    0  502  0.69988120687E+02 -0.10123676288E+03 -0.88232829400E+02  0.15143398365E+03  0.50400001928E-02 0. -1.
</event>
<event>
 5   0  0.7812547E-02  0.5161666E+03  0.7818609E-02  0.1009643E+00
        1   -1    0    0  501    0  0.00000000000E+00  0.00000000000E+00  0.60878081077E+03  0.60878081079E+03  0.50400001928E-02 0.  1.
       -1   -1    0    0    0  501  0.00000000000E+00  0.00000000000E+00 -0.10941047644E+03  0.10941047656E+03  0.50400001928E-02 0. -1.
    10030    2    1    2    0    0  0.00000000000E+00  0.00000000000E+00  0.49937033433E+03  0.71819128735E+03  0.51616663436E+03 0.  0.
        4    1    3    3  502    0 -0.11443746758E+03 -0.68394046370E+02  0.55715403852E+03  0.57288385831E+03  0.12699999809E+01 0.  1.
       -4    1    3    3    0  502  0.11443746758E+03  0.68394046370E+02 -0.57783704194E+02  0.14530742905E+03  0.12699999809E+01 0. -1.
</event>
<event>
 5   0  0.1191894E-01  0.4953769E+03  0.7818609E-02  0.1014993E+00
       -2   -1    0    0    0  501  0.00000000000E+00  0.00000000000E+00  0.43705464414E+02  0.43705464488E+02  0.25500000920E-02 0. -1.
        2   -1    0    0  501    0  0.00000000000E+00  0.00000000000E+00 -0.14037046634E+04  0.14037046634E+04  0.25500000920E-02 0.  1.
    10030    2    1    2    0    0  0.00000000000E+00  0.00000000000E+00 -0.13599991990E+04  0.14474101279E+04  0.49537688387E+03 0.  0.
        3    1    3    3  502    0  0.24553327136E+03  0.61290390883E+01 -0.58643687359E+03  0.63579270944E+03  0.10100000352E+00 0.  1.
       -3    1    3    3    0  502 -0.24553327136E+03 -0.61290390883E+01 -0.77356232539E+03  0.81161741845E+03  0.10100000352E+00 0. -1.
</event>
<event>
 5   0  0.1231822E-01  0.4960786E+03  0.7818609E-02  0.1014808E+00
        2   -1    0    0  501    0  0.00000000000E+00  0.00000000000E+00  0.13886073819E+04  0.13886073819E+04  0.25500000920E-02 0.  1.
       -2   -1    0    0    0  501  0.00000000000E+00  0.00000000000E+00 -0.44305894126E+02  0.44305894199E+02  0.25500000920E-02 0. -1.
    10030    2    1    2    0    0  0.00000000000E+00  0.00000000000E+00  0.13443014878E+04  0.14329132761E+04  0.49607858934E+03 0.  0.
        1    1    3    3  502    0  0.74193165342E+02 -0.21686622676E+03  0.39830961663E+03  0.45954992853E+03  0.50400001928E-02 0.  1.
       -1    1    3    3    0  502 -0.74193165342E+02  0.21686622676E+03  0.94599187117E+03  0.97336334759E+03  0.50400001928E-02 0. -1.
</event>
<event>
 5   0  0.1231822E-01  0.4713015E+03  0.7818609E-02  0.1021554E+00
       -2   -1    0    0    0  501  0.00000000000E+00  0.00000000000E+00  0.76997551056E+02  0.76997551098E+02  0.25500000920E-02 0.  1.
        2   -1    0    0  501    0  0.00000000000E+00  0.00000000000E+00 -0.72120826835E+03  0.72120826836E+03  0.25500000920E-02 0. -1.
    10030    2    1    2    0    0  0.00000000000E+00  0.00000000000E+00 -0.64421071730E+03  0.79820581946E+03  0.47130147669E+03 0.  0.
        1    1    3    3  502    0 -0.13776847581E+03  0.18743430115E+03 -0.25829608060E+03  0.34760413613E+03  0.50400001928E-02 0.  1.
       -1    1    3    3    0  502  0.13776847581E+03 -0.18743430115E+03 -0.38591463670E+03  0.45060168333E+03  0.50400001928E-02 0. -1.
</event>
<event>
 5   0  0.1211345E-01  0.5008616E+03  0.7818609E-02  0.1013554E+00
       -2   -1    0    0    0  501  0.00000000000E+00  0.00000000000E+00  0.10691516904E+03  0.10691516907E+03  0.25500000920E-02 0. -1.
        2   -1    0    0  501    0  0.00000000000E+00  0.00000000000E+00 -0.58659208212E+03  0.58659208212E+03  0.25500000920E-02 0.  1.
    10030    2    1    2    0    0  0.00000000000E+00  0.00000000000E+00 -0.47967691307E+03  0.69350725119E+03  0.50086162413E+03 0.  0.
        5    1    3    3  502    0 -0.10615526435E+03 -0.17825096016E+03 -0.43393924883E+03  0.48100697149E+03  0.46999998093E+01 0.  1.
       -5    1    3    3    0  502  0.10615526435E+03  0.17825096016E+03 -0.45737664244E+02  0.21250027971E+03  0.46999998093E+01 0. -1.
</event>
<event>
 5   0  0.7602288E-02  0.4965937E+03  0.7818609E-02  0.1014672E+00
        1   -1    0    0  501    0  0.00000000000E+00  0.00000000000E+00  0.10140102424E+04  0.10140102424E+04  0.50400001928E-02 0.  1.
       -1   -1    0    0    0  501  0.00000000000E+00  0.00000000000E+00 -0.60799503778E+02  0.60799503987E+02  0.50400001928E-02 0. -1.
    10030    2    1    2    0    0  0.00000000000E+00  0.00000000000E+00  0.95321073864E+03  0.10748097464E+04  0.49659367569E+03 0.  0.
        5    1    3    3  502    0  0.93711322702E+02 -0.22988367317E+03  0.47453560721E+03  0.53556927442E+03  0.46999998093E+01 0.  1.
       -5    1    3    3    0  502 -0.93711322702E+02  0.22988367317E+03  0.47867513143E+03  0.53924047200E+03  0.46999998093E+01 0. -1.
</event>
<event>
 5   0  0.1191894E-01  0.5002019E+03  0.7818609E-02  0.1013726E+00
        2   -1    0    0  501    0  0.00000000000E+00  0.00000000000E+00  0.16783795004E+04  0.16783795004E+04  0.25500000920E-02 0. -1.
       -2   -1    0    0    0  501  0.00000000000E+00  0.00000000000E+00 -0.37268372712E+02  0.37268372799E+02  0.25500000920E-02 0.  1.
    10030    2    1    2    0    0  0.00000000000E+00  0.00000000000E+00  0.16411111276E+04  0.17156478732E+04  0.50020185065E+03 0.  0.
        3    1    3    3  502    0  0.89389146289E+02  0.23246766793E+02  0.16177397384E+04  0.16203742479E+04  0.10100000352E+00 0. -1.
       -3    1    3    3    0  502 -0.89389146289E+02 -0.23246766793E+02  0.23371389206E+02  0.95273625285E+02  0.10100000352E+00 0.  1.
</event>
<event>
 5   0  0.7781754E-02  0.5011986E+03  0.7818609E-02  0.1013467E+00
       -1   -1    0    0    0  501  0.00000000000E+00  0.00000000000E+00  0.75161324647E+03  0.75161324649E+03  0.50400001928E-02 0.  1.
        1   -1    0    0  501    0  0.00000000000E+00  0.00000000000E+00 -0.83553626970E+02  0.83553627122E+02  0.50400001928E-02 0. -1.
    10030    2    1    2    0    0  0.00000000000E+00  0.00000000000E+00  0.66805961950E+03  0.83516687361E+03  0.50119861489E+03 0.  0.
        2    1    3    3  502    0  0.16945767795E+03  0.18328321573E+03  0.37096736970E+03  0.44713021725E+03  0.25500000920E-02 0.  1.
       -2    1    3    3    0  502 -0.16945767795E+03 -0.18328321573E+03  0.29709224980E+03  0.38803665636E+03  0.25500000920E-02 0. -1.
</event>
<event>
 5   0  0.7416638E-02  0.4991104E+03  0.7818609E-02  0.1014011E+00
       -1   -1    0    0    0  501  0.00000000000E+00  0.00000000000E+00  0.40074986763E+03  0.40074986766E+03  0.50400001928E-02 0.  1.
        1   -1    0    0  501    0  0.00000000000E+00  0.00000000000E+00 -0.15540315002E+03  0.15540315011E+03  0.50400001928E-02 0. -1.
    10030    2    1    2    0    0  0.00000000000E+00  0.00000000000E+00  0.24534671761E+03  0.55615301777E+03  0.49911037590E+03 0.  0.
        1    1    3    3  502    0  0.13560141954E+03  0.16428603363E+03  0.26753150655E+03  0.34198063227E+03  0.50400001928E-02 0.  1.
       -1    1    3    3    0  502 -0.13560141954E+03 -0.16428603363E+03 -0.22184788938E+02  0.21417238550E+03  0.50400001928E-02 0. -1.
</event>
<event>
 5   0  0.7416638E-02  0.5097034E+03  0.7818609E-02  0.1011277E+00
       -1   -1    0    0    0  501  0.00000000000E+00  0.00000000000E+00  0.25425483537E+03  0.25425483542E+03  0.50400001928E-02 0.  1.
        1   -1    0    0  501    0  0.00000000000E+00  0.00000000000E+00 -0.25544999458E+03  0.25544999463E+03  0.50400001928E-02 0. -1.
    10030    2    1    2    0    0  0.00000000000E+00  0.00000000000E+00 -0.11951592155E+01  0.50970483005E+03  0.50970342883E+03 0.  0.
        1    1    3    3  502    0  0.55814928225E+02  0.32797922002E+02  0.24589526101E+03  0.25427443700E+03  0.50400001928E-02 0.  1.
       -1    1    3    3    0  502 -0.55814928225E+02 -0.32797922002E+02 -0.24709042022E+03  0.25543039305E+03  0.50400001928E-02 0. -1.
</event>
<event>
 5   0  0.7531632E-02  0.4971343E+03  0.7818609E-02  0.1014530E+00
       -1   -1    0    0    0  501  0.00000000000E+00  0.00000000000E+00  0.75496323932E+02  0.75496324100E+02  0.50400001928E-02 0. -1.
        1   -1    0    0  501    0  0.00000000000E+00  0.00000000000E+00 -0.81839243763E+03  0.81839243765E+03  0.50400001928E-02 0.  1.
    10030    2    1    2    0    0  0.00000000000E+00  0.00000000000E+00 -0.74289611370E+03  0.89388876175E+03  0.49713427022E+03 0.  0.
        3    1    3    3  502    0  0.69836472438E+02  0.10853115609E+02  0.57049487768E+02  0.90827183468E+02  0.10100000352E+00 0. -1.
       -3    1    3    3    0  502 -0.69836472438E+02 -0.10853115609E+02 -0.79994560147E+03  0.80306157828E+03  0.10100000352E+00 0.  1.
</event>
<event>
 5   0  0.1279188E-01  0.5087769E+03  0.7818609E-02  0.1011513E+00
       -2   -1    0    0    0  501  0.00000000000E+00  0.00000000000E+00  0.53198315281E+02  0.53198315342E+02  0.25500000920E-02 0. -1.
        2   -1    0    0  501    0  0.00000000000E+00  0.00000000000E+00 -0.12164573265E+04  0.12164573265E+04  0.25500000920E-02 0.  1.
    10030    2    1    2    0    0  0.00000000000E+00  0.00000000000E+00 -0.11632590112E+04  0.12696556419E+04  0.50877688793E+03 0.  0.
        2    1    3    3  502    0  0.75656164909E+02 -0.23038031354E+03 -0.77354892530E+03  0.81066447066E+03  0.25500000920E-02 0. -1.
       -2    1    3    3    0  502 -0.75656164909E+02  0.23038031354E+03 -0.38971008595E+03  0.45899117121E+03  0.25500000920E-02 0.  1.
</event>
<event>
 5   0  0.7602288E-02  0.5025929E+03  0.7818609E-02  0.1013104E+00
       -1   -1    0    0    0  501  0.00000000000E+00  0.00000000000E+00  0.58644537036E+02  0.58644537252E+02  0.50400001928E-02 0.  1.
        1   -1    0    0  501    0  0.00000000000E+00  0.00000000000E+00 -0.10768251791E+04  0.10768251791E+04  0.50400001928E-02 0. -1.
    10030    2    1    2    0    0  0.00000000000E+00  0.00000000000E+00 -0.10181806420E+04  0.11354697163E+04  0.50259293359E+03 0.  0.
        5    1    3    3  502    0  0.86306610056E+02  0.23595717431E+03 -0.50504563007E+03  0.56410796617E+03  0.46999998093E+01 0. -1.
       -5    1    3    3    0  502 -0.86306610056E+02 -0.23595717431E+03 -0.51313501195E+03  0.57136175015E+03  0.46999998093E+01 0.  1.
</event>
<event>
 5   0  0.1211345E-01  0.5104988E+03  0.7818609E-02  0.1011074E+00
       -2   -1    0    0    0  501  0.00000000000E+00  0.00000000000E+00  0.58128640884E+02  0.58128640940E+02  0.25500000920E-02 0. -1.
        2   -1    0    0  501    0  0.00000000000E+00  0.00000000000E+00 -0.11208288090E+04  0.11208288090E+04  0.25500000920E-02 0.  1.
    10030    2    1    2    0    0  0.00000000000E+00  0.00000000000E+00 -0.10627001681E+04  0.11789574500E+04  0.51049879673E+03 0.  0.
        5    1    3    3  502    0 -0.20498977571E+03  0.10892970662E+03 -0.77623248474E+03  0.81021321237E+03  0.46999998093E+01 0.  1.
       -5    1    3    3    0  502  0.20498977571E+03 -0.10892970662E+03 -0.28646768339E+03  0.36874423759E+03  0.46999998093E+01 0. -1.
</event>
<event>
 5   0  0.5006750E-02  0.4968809E+03  0.7818609E-02  0.1014596E+00
       -4   -1    0    0    0  501  0.00000000000E+00  0.00000000000E+00  0.11446171419E+03  0.11446875956E+03  0.12699999809E+01 0. -1.
        4   -1    0    0  501    0  0.00000000000E+00  0.00000000000E+00 -0.53921845327E+03  0.53921994886E+03  0.12699999809E+01 0.  1.
    10030    2    1    2    0    0  0.00000000000E+00  0.00000000000E+00 -0.42475673908E+03  0.65368870842E+03  0.49688091141E+03 0.  0.
        1    1    3    3  502    0 -0.11576170744E+03  0.18711737771E+03 -0.36415012577E+03  0.42546327700E+03  0.50400001928E-02 0. -1.
       -1    1    3    3    0  502  0.11576170744E+03 -0.18711737771E+03 -0.60606613311E+02  0.22822543143E+03  0.50400001928E-02 0.  1.
</event>
<event>
 5   0  0.5006750E-02  0.5007941E+03  0.7818609E-02  0.1013572E+00
       -4   -1    0    0    0  501  0.00000000000E+00  0.00000000000E+00  0.18910730492E+03  0.18911156939E+03  0.12699999809E+01 0.  1.
        4   -1    0    0  501    0  0.00000000000E+00  0.00000000000E+00 -0.33154154938E+03  0.33154398179E+03  0.12699999809E+01 0. -1.
    10030    2    1    2    0    0  0.00000000000E+00  0.00000000000E+00 -0.14243424445E+03  0.52065555118E+03  0.50079405845E+03 0.  0.
        2    1    3    3  502    0  0.24875640559E+03  0.28479562547E+02 -0.68306550947E+02  0.25953153896E+03  0.25500000920E-02 0.  1.
       -2    1    3    3    0  502 -0.24875640559E+03 -0.28479562547E+02 -0.74127693506E+02  0.26112401222E+03  0.25500000920E-02 0. -1.
</event>
<event>
 5   0  0.7416638E-02  0.4931882E+03  0.7818609E-02  0.1015572E+00
       -1   -1    0    0    0  501  0.00000000000E+00  0.00000000000E+00  0.18044718957E+03  0.18044718964E+03  0.50400001928E-02 0.  1.
        1   -1    0    0  501    0  0.00000000000E+00  0.00000000000E+00 -0.33698867288E+03  0.33698867292E+03  0.50400001928E-02 0. -1.
    10030    2    1    2    0    0  0.00000000000E+00  0.00000000000E+00 -0.15654148331E+03  0.51743586256E+03  0.49318823574E+03 0.  0.
        1    1    3    3  502    0  0.11091206271E+03 -0.16636404213E+03 -0.22969320799E+03  0.30452824170E+03  0.50400001928E-02 0. -1.
       -1    1    3    3    0  502 -0.11091206271E+03  0.16636404213E+03  0.73151724685E+02  0.21290762086E+03  0.50400001928E-02 0.  1.
</event>
<event>
 5   0  0.7781754E-02  0.4952987E+03  0.7818609E-02  0.1015013E+00
       -1   -1    0    0    0  501  0.00000000000E+00  0.00000000000E+00  0.42765954447E+02  0.42765954744E+02  0.50400001928E-02 0. -1.
        1   -1    0    0  501    0  0.00000000000E+00  0.00000000000E+00 -0.14340892043E+04  0.14340892043E+04  0.50400001928E-02 0.  1.
    10030    2    1    2    0    0  0.00000000000E+00  0.00000000000E+00 -0.13913232499E+04  0.14768551591E+04  0.49529867276E+03 0.  0.
        2    1    3    3  502    0  0.44577716957E+02 -0.23583506884E+02 -0.14186158416E+04  0.14195119798E+04  0.25500000920E-02 0.  1.
       -2    1    3    3    0  502 -0.44577716957E+02  0.23583506884E+02  0.27292591713E+02  0.57343179323E+02  0.25500000920E-02 0. -1.
</event>
<event>
 5   0  0.1231822E-01  0.4960076E+03  0.7818609E-02  0.1014826E+00
        2   -1    0    0  501    0  0.00000000000E+00  0.00000000000E+00  0.66189696335E+03  0.66189696335E+03  0.25500000920E-02 0.  1.
       -2   -1    0    0    0  501  0.00000000000E+00  0.00000000000E+00 -0.92923640616E+02  0.92923640651E+02  0.25500000920E-02 0. -1.
    10030    2    1    2    0    0  0.00000000000E+00  0.00000000000E+00  0.56897332273E+03  0.75482060400E+03  0.49600756269E+03 0.  0.
        1    1    3    3  502    0  0.39437082929E+02 -0.39913456668E+02  0.65211062843E+03  0.65452015956E+03  0.50400001928E-02 0.  1.
       -1    1    3    3    0  502 -0.39437082929E+02  0.39913456668E+02 -0.83137305694E+02  0.10030044445E+03  0.50400001928E-02 0. -1.
</event>
<event>
 5   0  0.1231822E-01  0.4956094E+03  0.7818609E-02  0.1014931E+00
       -2   -1    0    0    0  501  0.00000000000E+00  0.00000000000E+00  0.52002868438E+03  0.52002868438E+03  0.25500000920E-02 0. -1.
        2   -1    0    0  501    0  0.00000000000E+00  0.00000000000E+00 -0.11808417907E+03  0.11808417910E+03  0.25500000920E-02 0.  1.
    10030    2    1    2    0    0  0.00000000000E+00  0.00000000000E+00  0.40194450530E+03  0.63811286349E+03  0.49560936351E+03 0.  0.
        1    1    3    3  502    0  0.12610491304E+02 -0.20901689564E+03  0.30355702391E+02  0.21158581202E+03  0.50400001928E-02 0.  1.
       -1    1    3    3    0  502 -0.12610491304E+02  0.20901689564E+03  0.37158880291E+03  0.42652705147E+03  0.50400001928E-02 0. -1.
</event>
<event>
 5   0  0.7602288E-02  0.4998215E+03  0.7818609E-02  0.1013826E+00
        1   -1    0    0  501    0  0.00000000000E+00  0.00000000000E+00  0.10834269740E+04  0.10834269740E+04  0.50400001928E-02 0.  1.
       -1   -1    0    0    0  501  0.00000000000E+00  0.00000000000E+00 -0.57646141247E+02  0.57646141467E+02  0.50400001928E-02 0. -1.
    10030    2    1    2    0    0  0.00000000000E+00  0.00000000000E+00  0.10257808327E+04  0.11410731155E+04  0.49982150616E+03 0.  0.
        5    1    3    3  502    0 -0.26699132989E+02  0.15903424416E+03  0.77158335312E+02  0.17883017985E+03  0.46999998093E+01 0. -1.
       -5    1    3    3    0  502  0.26699132989E+02 -0.15903424416E+03  0.94862249742E+03  0.96224293560E+03  0.46999998093E+01 0.  1.
</event>
<event>
 5   0  0.7781754E-02  0.4971628E+03  0.7818609E-02  0.1014522E+00
        1   -1    0    0  501    0  0.00000000000E+00  0.00000000000E+00  0.19604499740E+03  0.19604499746E+03  0.50400001928E-02 0. -1.
       -1   -1    0    0    0  501  0.00000000000E+00  0.00000000000E+00 -0.31519660173E+03  0.31519660177E+03  0.50400001928E-02 0.  1.
    10030    2    1    2    0    0  0.00000000000E+00  0.00000000000E+00 -0.11915160433E+03  0.51124159923E+03  0.49716281837E+03 0.  0.
        2    1    3    3  502    0 -0.21234535977E+03 -0.10864936685E+02  0.72850342989E+02  0.22475713814E+03  0.25500000920E-02 0. -1.
       -2    1    3    3    0  502  0.21234535977E+03  0.10864936685E+02 -0.19200194732E+03  0.28648446109E+03  0.25500000920E-02 0.  1.
</event>
<event>
 5   0  0.1211345E-01  0.4996917E+03  0.7818609E-02  0.1013859E+00
       -2   -1    0    0    0  501  0.00000000000E+00  0.00000000000E+00  0.95801225565E+02  0.95801225599E+02  0.25500000920E-02 0. -1.
        2   -1    0    0  501    0  0.00000000000E+00  0.00000000000E+00 -0.65158816347E+03  0.65158816347E+03  0.25500000920E-02 0.  1.
    10030    2    1    2    0    0  0.00000000000E+00  0.00000000000E+00 -0.55578693790E+03  0.74738938907E+03  0.49969168349E+03 0.  0.
        5    1    3    3  502    0  0.73581337230E+02 -0.18574436525E+03 -0.50217718556E+03  0.54048052519E+03  0.46999998093E+01 0.  1.
       -5    1    3    3    0  502 -0.73581337230E+02  0.18574436525E+03 -0.53609752341E+02  0.20690886388E+03  0.46999998093E+01 0. -1.
</event>
<event>
 5   0  0.7602288E-02  0.4985098E+03  0.7818609E-02  0.1014169E+00
        1   -1    0    0  501    0  0.00000000000E+00  0.00000000000E+00  0.24859478774E+03  0.24859478780E+03  0.50400001928E-02 0. -1.
       -1   -1    0    0    0  501  0.00000000000E+00  0.00000000000E+00 -0.24991678963E+03  0.24991678968E+03  0.50400001928E-02 0.  1.
    10030    2    1    2    0    0  0.00000000000E+00  0.00000000000E+00 -0.13220018819E+01  0.49851157747E+03  0.49850982456E+03 0.  0.
        5    1    3    3  502    0 -0.71975619756E+02 -0.14655947935E+03  0.18761007955E+03  0.24875651302E+03  0.46999998093E+01 0. -1.
       -5    1    3    3    0  502  0.71975619756E+02  0.14655947935E+03 -0.18893208143E+03  0.24975506445E+03  0.46999998093E+01 0.  1.
</event>
<event>
 5   0  0.7781754E-02  0.5053528E+03  0.7818609E-02  0.1012391E+00
        1   -1    0    0  501    0  0.00000000000E+00  0.00000000000E+00  0.26142170378E+03  0.26142170383E+03  0.50400001928E-02 0. -1.
       -1   -1    0    0    0  501  0.00000000000E+00  0.00000000000E+00 -0.24422362200E+03  0.24422362205E+03  0.50400001928E-02 0.  1.
    10030    2    1    2    0    0  0.00000000000E+00  0.00000000000E+00  0.17198081781E+02  0.50564532589E+03  0.50535276943E+03 0.  0.
        2    1    3    3  502    0  0.78329412762E+02 -0.83115045083E+02 -0.21692387282E+03  0.24515214506E+03  0.25500000920E-02 0.  1.
       -2    1    3    3    0  502 -0.78329412762E+02  0.83115045083E+02  0.23412195460E+03  0.26049318082E+03  0.25500000920E-02 0. -1.
</event>
<event>
 5   0  0.1211345E-01  0.5004897E+03  0.7818609E-02  0.1013651E+00
        2   -1    0    0  501    0  0.00000000000E+00  0.00000000000E+00  0.50324259769E+02  0.50324259834E+02  0.25500000920E-02 0. -1.
       -2   -1    0    0    0  501  0.00000000000E+00  0.00000000000E+00 -0.12443796156E+04  0.12443796156E+04  0.25500000920E-02 0.  1.
    10030    2    1    2    0    0  0.00000000000E+00  0.00000000000E+00 -0.11940553558E+04  0.12947038755E+04  0.50048969249E+03 0.  0.
        5    1    3    3  502    0 -0.20859516091E+03  0.66486038960E+02 -0.91032856721E+03  0.93629724170E+03  0.46999998093E+01 0. -1.
       -5    1    3    3    0  502  0.20859516091E+03 -0.66486038960E+02 -0.28372678864E+03  0.35840663376E+03  0.46999998093E+01 0.  1.
</event>
<event>
 5   0  0.1231822E-01  0.5013097E+03  0.7818609E-02  0.1013438E+00
       -2   -1    0    0    0  501  0.00000000000E+00  0.00000000000E+00  0.58323388625E+02  0.58323388681E+02  0.25500000920E-02 0. -1.
        2   -1    0    0  501    0  0.00000000000E+00  0.00000000000E+00 -0.10772323952E+04  0.10772323952E+04  0.25500000920E-02 0.  1.
    10030    2    1    2    0    0  0.00000000000E+00  0.00000000000E+00 -0.10189090066E+04  0.11355557839E+04  0.50130965943E+03 0.  0.
        1    1    3    3  502    0  0.14418457930E+03  0.83067001795E+02 -0.93406835536E+03  0.94877447910E+03  0.50400001928E-02 0.  1.
       -1    1    3    3    0  502 -0.14418457930E+03 -0.83067001795E+02 -0.84840651237E+02  0.18678130480E+03  0.50400001928E-02 0. -1.
</event>
<event>
 5   0  0.7781754E-02  0.4974576E+03  0.7818609E-02  0.1014445E+00
       -1   -1    0    0    0  501  0.00000000000E+00  0.00000000000E+00  0.27686158451E+03  0.27686158456E+03  0.50400001928E-02 0. -1.
        1   -1    0    0  501    0  0.00000000000E+00  0.00000000000E+00 -0.22345466987E+03  0.22345466993E+03  0.50400001928E-02 0.  1.
    10030    2    1    2    0    0  0.00000000000E+00  0.00000000000E+00  0.53406914643E+02  0.50031625449E+03  0.49745759214E+03 0.  0.
        2    1    3    3  502    0  0.21507646712E+03  0.21078415396E+02  0.15055259001E+03  0.26337856531E+03  0.25500000920E-02 0.  1.
       -2    1    3    3    0  502 -0.21507646712E+03 -0.21078415396E+02 -0.97145675364E+02  0.23693768917E+03  0.25500000920E-02 0. -1.
</event>
<event>
 5   0  0.5006750E-02  0.5399264E+03  0.7818609E-02  0.1003853E+00
        3   -1    0    0  501    0  0.00000000000E+00  0.00000000000E+00  0.62192037319E+03  0.62192038139E+03  0.10100000352E+00 0.  1.
       -3   -1    0    0    0  501  0.00000000000E+00  0.00000000000E+00 -0.11718557837E+03  0.11718562189E+03  0.10100000352E+00 0. -1.
    10030    2    1    2    0    0  0.00000000000E+00  0.00000000000E+00  0.50473479482E+03  0.73910600328E+03  0.53992635700E+03 0.  0.
        5    1    3    3  502    0 -0.16687842955E+03  0.10586648470E+03  0.50404396898E+03  0.54142269577E+03  0.46999998093E+01 0.  1.
       -5    1    3    3    0  502  0.16687842955E+03 -0.10586648470E+03  0.69082584670E+00  0.19768330751E+03  0.46999998093E+01 0. -1.
</event>
<event>
 5   0  0.7602288E-02  0.5040072E+03  0.7818609E-02  0.1012738E+00
        1   -1    0    0  501    0  0.00000000000E+00  0.00000000000E+00  0.25677692710E+04  0.25677692710E+04  0.50400001928E-02 0.  1.
       -1   -1    0    0    0  501  0.00000000000E+00  0.00000000000E+00 -0.24731896286E+02  0.24731896799E+02  0.50400001928E-02 0. -1.
    10030    2    1    2    0    0  0.00000000000E+00  0.00000000000E+00  0.25430373747E+04  0.25925011678E+04  0.50400715855E+03 0.  0.
        5    1    3    3  502    0 -0.20752350448E+03  0.51597485752E+02  0.58611317900E+03  0.62392231411E+03  0.46999998093E+01 0. -1.
       -5    1    3    3    0  502  0.20752350448E+03 -0.51597485752E+02  0.19569241957E+04  0.19685788537E+04  0.46999998093E+01 0.  1.
</event>
<event>
 5   0  0.7531632E-02  0.5022134E+03  0.7818609E-02  0.1013203E+00
       -1   -1    0    0    0  501  0.00000000000E+00  0.00000000000E+00  0.27960653427E+03  0.27960653432E+03  0.50400001928E-02 0.  1.
        1   -1    0    0  501    0  0.00000000000E+00  0.00000000000E+00 -0.22551177431E+03  0.22551177436E+03  0.50400001928E-02 0. -1.
    10030    2    1    2    0    0  0.00000000000E+00  0.00000000000E+00  0.54094759968E+02  0.50511830868E+03  0.50221336373E+03 0.  0.
        3    1    3    3  502    0  0.12665674451E+03  0.16579393547E+03  0.16758749892E+03  0.26761005206E+03  0.10100000352E+00 0.  1.
       -3    1    3    3    0  502 -0.12665674451E+03 -0.16579393547E+03 -0.11349273895E+03  0.23750825662E+03  0.10100000352E+00 0. -1.
</event>
<event>
 5   0  0.7416638E-02  0.5000827E+03  0.7818609E-02  0.1013757E+00
        1   -1    0    0  501    0  0.00000000000E+00  0.00000000000E+00  0.44824434204E+03  0.44824434207E+03  0.50400001928E-02 0. -1.
       -1   -1    0    0    0  501  0.00000000000E+00  0.00000000000E+00 -0.13947898811E+03  0.13947898820E+03  0.50400001928E-02 0.  1.
    10030    2    1    2    0    0  0.00000000000E+00  0.00000000000E+00  0.30876535394E+03  0.58772333027E+03  0.50008266232E+03 0.  0.
        1    1    3    3  502    0  0.23485033524E+03 -0.12571432025E+02  0.54604191632E+02  0.24144220558E+03  0.50400001928E-02 0.  1.
       -1    1    3    3    0  502 -0.23485033524E+03  0.12571432025E+02  0.25416116230E+03  0.34628112469E+03  0.50400001928E-02 0. -1.
</event>
<event>
 5   0  0.7602288E-02  0.4987266E+03  0.7818609E-02  0.1014112E+00
        1   -1    0    0  501    0  0.00000000000E+00  0.00000000000E+00  0.47340238512E+03  0.47340238515E+03  0.50400001928E-02 0.  1.
       -1   -1    0    0    0  501  0.00000000000E+00  0.00000000000E+00 -0.13135137485E+03  0.13135137495E+03  0.50400001928E-02 0. -1.
    10030    2    1    2    0    0  0.00000000000E+00  0.00000000000E+00  0.34205101027E+03  0.60475376010E+03  0.49872659516E+03 0.  0.
        5    1    3    3  502    0  0.11496643445E+03  0.72920029921E+01  0.43914222074E+03  0.45402470681E+03  0.46999998093E+01 0.  1.
       -5    1    3    3    0  502 -0.11496643445E+03 -0.72920029921E+01 -0.97091210470E+02  0.15072905329E+03  0.46999998093E+01 0. -1.
</event>
<event>
 5   0  0.7812547E-02  0.5044213E+03  0.7818609E-02  0.1012631E+00
       -1   -1    0    0    0  501  0.00000000000E+00  0.00000000000E+00  0.17226371155E+03  0.17226371162E+03  0.50400001928E-02 0. -1.
        1   -1    0    0  501    0  0.00000000000E+00  0.00000000000E+00 -0.36926068021E+03  0.36926068024E+03  0.50400001928E-02 0.  1.
    10030    2    1    2    0    0  0.00000000000E+00  0.00000000000E+00 -0.19699696866E+03  0.54152439187E+03  0.50442131332E+03 0.  0.
        4    1    3    3  502    0  0.20825997526E+03  0.14113846701E+03 -0.79404932168E+02  0.26381630032E+03  0.12699999809E+01 0. -1.
       -4    1    3    3    0  502 -0.20825997526E+03 -0.14113846701E+03 -0.11759203649E+03  0.27770809155E+03  0.12699999809E+01 0.  1.
</event>
<event>
 5   0  0.7531632E-02  0.5024431E+03  0.7818609E-02  0.1013143E+00
       -1   -1    0    0    0  501  0.00000000000E+00  0.00000000000E+00  0.36468241389E+03  0.36468241392E+03  0.50400001928E-02 0.  1.
        1   -1    0    0  501    0  0.00000000000E+00  0.00000000000E+00 -0.17306089521E+03  0.17306089529E+03  0.50400001928E-02 0. -1.
    10030    2    1    2    0    0  0.00000000000E+00  0.00000000000E+00  0.19162151867E+03  0.53774330921E+03  0.50244309149E+03 0.  0.
        3    1    3    3  502    0 -0.12610158511E+03  0.21572251970E+03  0.12360531007E+03  0.27877607170E+03  0.10100000352E+00 0.  1.
       -3    1    3    3    0  502  0.12610158511E+03 -0.21572251970E+03  0.68016208598E+02  0.25896723751E+03  0.10100000352E+00 0. -1.
</event>
<event>
 5   0  0.1243803E-01  0.5038538E+03  0.7818609E-02  0.1012778E+00
       -2   -1    0    0    0  501  0.00000000000E+00  0.00000000000E+00  0.90977542586E+02  0.90977542621E+02  0.25500000920E-02 0. -1.
        2   -1    0    0  501    0  0.00000000000E+00  0.00000000000E+00 -0.69761343517E+03  0.69761343517E+03  0.25500000920E-02 0.  1.
    10030    2    1    2    0    0  0.00000000000E+00  0.00000000000E+00 -0.60663589258E+03  0.78859097779E+03  0.50385377253E+03 0.  0.
        4    1    3    3  502    0  0.13841992632E+03  0.20387166388E+03 -0.38527118269E+03  0.45733929248E+03  0.12699999809E+01 0. -1.
       -4    1    3    3    0  502 -0.13841992632E+03 -0.20387166388E+03 -0.22136470989E+03  0.33125168531E+03  0.12699999809E+01 0.  1.
</event>
<event>
 5   0  0.7531632E-02  0.4141227E+03  0.7818609E-02  0.1038996E+00
        1   -1    0    0  501    0  0.00000000000E+00  0.00000000000E+00  0.21056807456E+03  0.21056807462E+03  0.50400001928E-02 0. -1.
       -1   -1    0    0    0  501  0.00000000000E+00  0.00000000000E+00 -0.20361306795E+03  0.20361306802E+03  0.50400001928E-02 0.  1.
    10030    2    1    2    0    0  0.00000000000E+00  0.00000000000E+00  0.69550066089E+01  0.41418114264E+03  0.41412274364E+03 0.  0.
        3    1    3    3  502    0  0.62779918409E+02  0.15263200628E+03 -0.12158633800E+03  0.20499047609E+03  0.10100000352E+00 0.  1.
       -3    1    3    3    0  502 -0.62779918409E+02 -0.15263200628E+03  0.12854134461E+03  0.20919066655E+03  0.10100000352E+00 0. -1.
</event>
<event>
 5   0  0.1191894E-01  0.5011125E+03  0.7818609E-02  0.1013489E+00
       -2   -1    0    0    0  501  0.00000000000E+00  0.00000000000E+00  0.79065211662E+02  0.79065211703E+02  0.25500000920E-02 0.  1.
        2   -1    0    0  501    0  0.00000000000E+00  0.00000000000E+00 -0.79400842011E+03  0.79400842011E+03  0.25500000920E-02 0. -1.
    10030    2    1    2    0    0  0.00000000000E+00  0.00000000000E+00 -0.71494320844E+03  0.87307363181E+03  0.50111253753E+03 0.  0.
        3    1    3    3  502    0 -0.21590914484E+02  0.19210638523E+03 -0.63518430346E+03  0.66395040507E+03  0.10100000352E+00 0. -1.
       -3    1    3    3    0  502  0.21590914484E+02 -0.19210638523E+03 -0.79758904986E+02  0.20912322674E+03  0.10100000352E+00 0.  1.
</event>
<event>
 5   0  0.1191894E-01  0.5007121E+03  0.7818609E-02  0.1013593E+00
       -2   -1    0    0    0  501  0.00000000000E+00  0.00000000000E+00  0.13142670218E+04  0.13142670218E+04  0.25500000920E-02 0.  1.
        2   -1    0    0  501    0  0.00000000000E+00  0.00000000000E+00 -0.47690574249E+02  0.47690574317E+02  0.25500000920E-02 0. -1.
    10030    2    1    2    0    0  0.00000000000E+00  0.00000000000E+00  0.12665764475E+04  0.13619575961E+04  0.50071208906E+03 0.  0.
        3    1    3    3  502    0  0.27774674657E+02 -0.20757809859E+03  0.26015605328E+03  0.33397796608E+03  0.10100000352E+00 0. -1.
       -3    1    3    3    0  502 -0.27774674657E+02  0.20757809859E+03  0.10064203943E+04  0.10279796300E+04  0.10100000352E+00 0.  1.
</event>
<event>
 5   0  0.5006750E-02  0.5055460E+03  0.7818609E-02  0.1012341E+00
       -4   -1    0    0    0  501  0.00000000000E+00  0.00000000000E+00  0.23831263937E+03  0.23831602334E+03  0.12699999809E+01 0. -1.
        4   -1    0    0  501    0  0.00000000000E+00  0.00000000000E+00 -0.26810402013E+03  0.26810702809E+03  0.12699999809E+01 0.  1.
    10030    2    1    2    0    0  0.00000000000E+00  0.00000000000E+00 -0.29791380763E+02  0.50642305143E+03  0.50554602229E+03 0.  0.
        2    1    3    3  502    0 -0.13959207015E+03 -0.13650169400E+03  0.14593044501E+03  0.24375059651E+03  0.25500000920E-02 0. -1.
       -2    1    3    3    0  502  0.13959207015E+03  0.13650169400E+03 -0.17572182577E+03  0.26267245492E+03  0.25500000920E-02 0.  1.
</event>
<event>
 5   0  0.1211345E-01  0.5004637E+03  0.7818609E-02  0.1013658E+00
       -2   -1    0    0    0  501  0.00000000000E+00  0.00000000000E+00  0.69589507041E+02  0.69589507087E+02  0.25500000920E-02 0. -1.
        2   -1    0    0  501    0  0.00000000000E+00  0.00000000000E+00 -0.89979041809E+03  0.89979041809E+03  0.25500000920E-02 0.  1.
    10030    2    1    2    0    0  0.00000000000E+00  0.00000000000E+00 -0.83020091105E+03  0.96937992518E+03  0.50046367164E+03 0.  0.
        5    1    3    3  502    0 -0.21629542945E+03  0.19463023694E+01 -0.17157874607E+03  0.27613195577E+03  0.46999998093E+01 0. -1.
       -5    1    3    3    0  502  0.21629542945E+03 -0.19463023694E+01 -0.65862216497E+03  0.69324796941E+03  0.46999998093E+01 0.  1.
</event>
<event>
 5   0  0.7602288E-02  0.5020200E+03  0.7818609E-02  0.1013253E+00
       -1   -1    0    0    0  501  0.00000000000E+00  0.00000000000E+00  0.26052580743E+03  0.26052580748E+03  0.50400001928E-02 0. -1.
        1   -1    0    0  501    0  0.00000000000E+00  0.00000000000E+00 -0.24184171753E+03  0.24184171758E+03  0.50400001928E-02 0.  1.
    10030    2    1    2    0    0  0.00000000000E+00  0.00000000000E+00  0.18684089899E+02  0.50236752506E+03  0.50201995481E+03 0.  0.
        5    1    3    3  502    0  0.10711444643E+03  0.10045593327E+03 -0.19431549070E+03  0.24360931650E+03  0.46999998093E+01 0.  1.
       -5    1    3    3    0  502 -0.10711444643E+03 -0.10045593327E+03  0.21299958060E+03  0.25875820856E+03  0.46999998093E+01 0. -1.
</event>
<event>
 5   0  0.7781754E-02  0.4992420E+03  0.7818609E-02  0.1013977E+00
        1   -1    0    0  501    0  0.00000000000E+00  0.00000000000E+00  0.23511798736E+03  0.23511798741E+03  0.50400001928E-02 0. -1.
       -1   -1    0    0    0  501  0.00000000000E+00  0.00000000000E+00 -0.26501860301E+03  0.26501860305E+03  0.50400001928E-02 0.  1.
    10030    2    1    2    0    0  0.00000000000E+00  0.00000000000E+00 -0.29900615649E+02  0.50013659046E+03  0.49924198772E+03 0.  0.
        2    1    3    3  502    0  0.18974505442E+03  0.89223328591E+02 -0.15064283888E+03  0.25818065952E+03  0.25500000920E-02 0.  1.
       -2    1    3    3    0  502 -0.18974505442E+03 -0.89223328591E+02  0.12074222323E+03  0.24195593094E+03  0.25500000920E-02 0. -1.
</event>
<event>
 5   0  0.1211345E-01  0.5416067E+03  0.7818609E-02  0.1003456E+00
       -2   -1    0    0    0  501  0.00000000000E+00  0.00000000000E+00  0.73167375410E+03  0.73167375411E+03  0.25500000920E-02 0. -1.
        2   -1    0    0  501    0  0.00000000000E+00  0.00000000000E+00 -0.10022834534E+03  0.10022834537E+03  0.25500000920E-02 0.  1.
    10030    2    1    2    0    0  0.00000000000E+00  0.00000000000E+00  0.63144540877E+03  0.83190209948E+03  0.54160668281E+03 0.  0.
        5    1    3    3  502    0 -0.28155314901E+02  0.11486066374E+03  0.68984464371E+03  0.69992386464E+03  0.46999998093E+01 0. -1.
       -5    1    3    3    0  502  0.28155314901E+02 -0.11486066374E+03 -0.58399234944E+02  0.13197823484E+03  0.46999998093E+01 0.  1.
</event>
<event>
 5   0  0.1231822E-01  0.5143794E+03  0.7818609E-02  0.1010092E+00
        2   -1    0    0  501    0  0.00000000000E+00  0.00000000000E+00  0.10752074418E+04  0.10752074418E+04  0.25500000920E-02 0.  1.
       -2   -1    0    0    0  501  0.00000000000E+00  0.00000000000E+00 -0.61519785875E+02  0.61519785928E+02  0.25500000920E-02 0. -1.
    10030    2    1    2    0    0  0.00000000000E+00  0.00000000000E+00  0.10136876560E+04  0.11367272278E+04  0.51437936049E+03 0.  0.
        1    1    3    3  502    0  0.19679357685E+03  0.16389762988E+03  0.45471702731E+03  0.52187902805E+03  0.50400001928E-02 0. -1.
       -1    1    3    3    0  502 -0.19679357685E+03 -0.16389762988E+03  0.55897062865E+03  0.61484819972E+03  0.50400001928E-02 0.  1.
</event>
<event>
 5   0  0.7781754E-02  0.4984118E+03  0.7818609E-02  0.1014194E+00
       -1   -1    0    0    0  501  0.00000000000E+00  0.00000000000E+00  0.53602504100E+03  0.53602504102E+03  0.50400001928E-02 0. -1.
        1   -1    0    0  501    0  0.00000000000E+00  0.00000000000E+00 -0.11585945518E+03  0.11585945529E+03  0.50400001928E-02 0.  1.
    10030    2    1    2    0    0  0.00000000000E+00  0.00000000000E+00  0.42016558582E+03  0.65188449631E+03  0.49841175450E+03 0.  0.
        2    1    3    3  502    0  0.18107476245E+02  0.16991473501E+03 -0.27169902536E+02  0.17302341309E+03  0.25500000920E-02 0.  1.
       -2    1    3    3    0  502 -0.18107476245E+02 -0.16991473501E+03  0.44733548836E+03  0.47886108322E+03  0.25500000920E-02 0. -1.
</event>
<event>
 5   0  0.1231822E-01  0.5064811E+03  0.7818609E-02  0.1012101E+00
       -2   -1    0    0    0  501  0.00000000000E+00  0.00000000000E+00  0.31577391622E+03  0.31577391623E+03  0.25500000920E-02 0. -1.
        2   -1    0    0  501    0  0.00000000000E+00  0.00000000000E+00 -0.20309082217E+03  0.20309082218E+03  0.25500000920E-02 0.  1.
    10030    2    1    2    0    0  0.00000000000E+00  0.00000000000E+00  0.11268309406E+03  0.51886473841E+03  0.50648113201E+03 0.  0.
        1    1    3    3  502    0  0.20956318321E+03  0.13256452143E+03  0.36973192080E+01  0.24799949656E+03  0.50400001928E-02 0. -1.
       -1    1    3    3    0  502 -0.20956318321E+03 -0.13256452143E+03  0.10898577485E+03  0.27086524185E+03  0.50400001928E-02 0.  1.
</event>
<event>
 5   0  0.7812547E-02  0.4924088E+03  0.7818609E-02  0.1015780E+00
       -1   -1    0    0    0  501  0.00000000000E+00  0.00000000000E+00  0.85271411425E+02  0.85271411574E+02  0.50400001928E-02 0.  1.
        1   -1    0    0  501    0  0.00000000000E+00  0.00000000000E+00 -0.71086662509E+03  0.71086662511E+03  0.50400001928E-02 0. -1.
    10030    2    1    2    0    0  0.00000000000E+00  0.00000000000E+00 -0.62559521367E+03  0.79613803668E+03  0.49240877540E+03 0.  0.
        4    1    3    3  502    0 -0.23459600738E+03  0.12311608276E+02 -0.43191838431E+03  0.49167262074E+03  0.12699999809E+01 0. -1.
       -4    1    3    3    0  502  0.23459600738E+03 -0.12311608276E+02 -0.19367682936E+03  0.30446541595E+03  0.12699999809E+01 0.  1.
</event>
<event>
 5   0  0.5006750E-02  0.4982987E+03  0.7818609E-02  0.1014224E+00
       -3   -1    0    0    0  501  0.00000000000E+00  0.00000000000E+00  0.72766219679E+03  0.72766220380E+03  0.10100000352E+00 0.  1.
        3   -1    0    0  501    0  0.00000000000E+00  0.00000000000E+00 -0.85307954652E+02  0.85308014441E+02  0.10100000352E+00 0. -1.
    10030    2    1    2    0    0  0.00000000000E+00  0.00000000000E+00  0.64235424213E+03  0.81297021824E+03  0.49829870896E+03 0.  0.
        4    1    3    3  502    0 -0.23898724479E+02 -0.11948356110E+03 -0.33372410328E+02  0.12634397919E+03  0.12699999809E+01 0. -1.
       -4    1    3    3    0  502  0.23898724479E+02  0.11948356110E+03  0.67572665246E+03  0.68662623905E+03  0.12699999809E+01 0.  1.
</event>
<event>
 5   0  0.1191894E-01  0.4941413E+03  0.7818609E-02  0.1015320E+00
        2   -1    0    0  501    0  0.00000000000E+00  0.00000000000E+00  0.10964563565E+04  0.10964563565E+04  0.25500000920E-02 0.  1.
       -2   -1    0    0    0  501  0.00000000000E+00  0.00000000000E+00 -0.55673812827E+02  0.55673812886E+02  0.25500000920E-02 0. -1.
    10030    2    1    2    0    0  0.00000000000E+00  0.00000000000E+00  0.10407825437E+04  0.11521301694E+04  0.49414129964E+03 0.  0.
        3    1    3    3  502    0  0.17557625436E+03 -0.17364129846E+03  0.50151062735E+03  0.55900916018E+03  0.10100000352E+00 0.  1.
       -3    1    3    3    0  502 -0.17557625436E+03  0.17364129846E+03  0.53927191636E+03  0.59312100924E+03  0.10100000352E+00 0. -1.
</event>
<event>
 5   0  0.7812547E-02  0.4964263E+03  0.7818609E-02  0.1014716E+00
        1   -1    0    0  501    0  0.00000000000E+00  0.00000000000E+00  0.29713133006E+03  0.29713133011E+03  0.50400001928E-02 0.  1.
       -1   -1    0    0    0  501  0.00000000000E+00  0.00000000000E+00 -0.20734858031E+03  0.20734858037E+03  0.50400001928E-02 0. -1.
    10030    2    1    2    0    0  0.00000000000E+00  0.00000000000E+00  0.89782749755E+02  0.50447991048E+03  0.49642626635E+03 0.  0.
        4    1    3    3  502    0 -0.65186213731E+02 -0.19138166656E+03 -0.10143052256E+03  0.22619891371E+03  0.12699999809E+01 0. -1.
       -4    1    3    3    0  502  0.65186213731E+02  0.19138166656E+03  0.19121327232E+03  0.27828099677E+03  0.12699999809E+01 0.  1.
</event>
<event>
 5   0  0.1191894E-01  0.4918816E+03  0.7818609E-02  0.1015920E+00
       -2   -1    0    0    0  501  0.00000000000E+00  0.00000000000E+00  0.66398682180E+02  0.66398682229E+02  0.25500000920E-02 0.  1.
        2   -1    0    0  501    0  0.00000000000E+00  0.00000000000E+00 -0.91096488234E+03  0.91096488234E+03  0.25500000920E-02 0. -1.
    10030    2    1    2    0    0  0.00000000000E+00  0.00000000000E+00 -0.84456620016E+03  0.97736356457E+03  0.49188156186E+03 0.  0.
        3    1    3    3  502    0  0.16287369277E+03 -0.17480871507E+03 -0.53815936902E+03  0.58881358962E+03  0.10100000352E+00 0. -1.
       -3    1    3    3    0  502 -0.16287369277E+03  0.17480871507E+03 -0.30640683114E+03  0.38854997495E+03  0.10100000352E+00 0.  1.
</event>
<event>
 5   0  0.1243803E-01  0.5025369E+03  0.7818609E-02  0.1013119E+00
        2   -1    0    0  501    0  0.00000000000E+00  0.00000000000E+00  0.10539716807E+03  0.10539716810E+03  0.25500000920E-02 0.  1.
       -2   -1    0    0    0  501  0.00000000000E+00  0.00000000000E+00 -0.59902791042E+03  0.59902791043E+03  0.25500000920E-02 0. -1.
    10030    2    1    2    0    0  0.00000000000E+00  0.00000000000E+00 -0.49363074235E+03  0.70442507853E+03  0.50253694537E+03 0.  0.
        4    1    3    3  502    0 -0.18941620770E+03  0.10743447971E+03 -0.71102255032E+02  0.22908035870E+03  0.12699999809E+01 0.  1.
       -4    1    3    3    0  502  0.18941620770E+03 -0.10743447971E+03 -0.42252848732E+03  0.47534471983E+03  0.12699999809E+01 0. -1.
</event>
<event>
 5   0  0.1279188E-01  0.5058727E+03  0.7818609E-02  0.1012257E+00
       -2   -1    0    0    0  501  0.00000000000E+00  0.00000000000E+00  0.17651516277E+03  0.17651516279E+03  0.25500000920E-02 0. -1.
        2   -1    0    0  501    0  0.00000000000E+00  0.00000000000E+00 -0.36244362799E+03  0.36244362800E+03  0.25500000920E-02 0.  1.
    10030    2    1    2    0    0  0.00000000000E+00  0.00000000000E+00 -0.18592846522E+03  0.53895879079E+03  0.50587269544E+03 0.  0.
        2    1    3    3  502    0  0.19166121495E+03  0.16477876002E+03 -0.10311272560E+03  0.27298039354E+03  0.25500000920E-02 0.  1.
       -2    1    3    3    0  502 -0.19166121495E+03 -0.16477876002E+03 -0.82815739621E+02  0.26597839725E+03  0.25500000920E-02 0. -1.
</event>
<event>
 5   0  0.1279188E-01  0.5027085E+03  0.7818609E-02  0.1013074E+00
        2   -1    0    0  501    0  0.00000000000E+00  0.00000000000E+00  0.20488502013E+04  0.20488502013E+04  0.25500000920E-02 0. -1.
       -2   -1    0    0    0  501  0.00000000000E+00  0.00000000000E+00 -0.30836295692E+02  0.30836295798E+02  0.25500000920E-02 0.  1.
    10030    2    1    2    0    0  0.00000000000E+00  0.00000000000E+00  0.20180139057E+04  0.20796864971E+04  0.50270846720E+03 0.  0.
        2    1    3    3  502    0  0.47915510208E+02 -0.42116645982E+02  0.32121904670E+01  0.63875082476E+02  0.25500000920E-02 0.  1.
       -2    1    3    3    0  502 -0.47915510208E+02  0.42116645982E+02  0.20148017152E+04  0.20158114147E+04  0.25500000920E-02 0. -1.
</event>
<event>
 5   0  0.7781754E-02  0.5008657E+03  0.7818609E-02  0.1013553E+00
        1   -1    0    0  501    0  0.00000000000E+00  0.00000000000E+00  0.25478973065E+03  0.25478973070E+03  0.50400001928E-02 0.  1.
       -1   -1    0    0    0  501  0.00000000000E+00  0.00000000000E+00 -0.24615045412E+03  0.24615045418E+03  0.50400001928E-02 0. -1.
    10030    2    1    2    0    0  0.00000000000E+00  0.00000000000E+00  0.86392765295E+01  0.50094018488E+03  0.50086568232E+03 0.  0.
        2    1    3    3  502    0  0.78350218319E+02  0.11072305553E+02  0.24195812774E+03  0.25456843529E+03  0.25500000920E-02 0.  1.
       -2    1    3    3    0  502 -0.78350218319E+02 -0.11072305553E+02 -0.23331885121E+03  0.24637174959E+03  0.25500000920E-02 0. -1.
</event>
<event>
 5   0  0.1279188E-01  0.5080649E+03  0.7818609E-02  0.1011695E+00
        2   -1    0    0  501    0  0.00000000000E+00  0.00000000000E+00  0.51661854754E+03  0.51661854754E+03  0.25500000920E-02 0. -1.
       -2   -1    0    0    0  501  0.00000000000E+00  0.00000000000E+00 -0.12491320084E+03  0.12491320086E+03  0.25500000920E-02 0.  1.
    10030    2    1    2    0    0  0.00000000000E+00  0.00000000000E+00  0.39170534670E+03  0.64153174841E+03  0.50806486356E+03 0.  0.
        2    1    3    3  502    0 -0.14224297239E+03  0.11431948240E+03 -0.27292884930E+02  0.18451804471E+03  0.25500000920E-02 0.  1.
       -2    1    3    3    0  502  0.14224297239E+03 -0.11431948240E+03  0.41899823163E+03  0.45701370369E+03  0.25500000920E-02 0. -1.
</event>
<event>
 5   0  0.1211345E-01  0.5017327E+03  0.7818609E-02  0.1013328E+00
        2   -1    0    0  501    0  0.00000000000E+00  0.00000000000E+00  0.43238646468E+03  0.43238646469E+03  0.25500000920E-02 0.  1.
       -2   -1    0    0    0  501  0.00000000000E+00  0.00000000000E+00 -0.14555015053E+03  0.14555015056E+03  0.25500000920E-02 0. -1.
    10030    2    1    2    0    0  0.00000000000E+00  0.00000000000E+00  0.28683631414E+03  0.57793661524E+03  0.50173265802E+03 0.  0.
        5    1    3    3  502    0  0.46219335106E+02 -0.90545012416E+02 -0.12070504994E+03  0.15788104791E+03  0.46999998093E+01 0. -1.
       -5    1    3    3    0  502 -0.46219335106E+02  0.90545012416E+02  0.40754136408E+03  0.42005556733E+03  0.46999998093E+01 0.  1.
</event>
<event>
 5   0  0.1211345E-01  0.4717067E+03  0.7818609E-02  0.1021440E+00
       -2   -1    0    0    0  501  0.00000000000E+00  0.00000000000E+00  0.63352717411E+02  0.63352717463E+02  0.25500000920E-02 0.  1.
        2   -1    0    0  501    0  0.00000000000E+00  0.00000000000E+00 -0.87804902760E+03  0.87804902760E+03  0.25500000920E-02 0. -1.
    10030    2    1    2    0    0  0.00000000000E+00  0.00000000000E+00 -0.81469631019E+03  0.94140174507E+03  0.47170665437E+03 0.  0.
        5    1    3    3  502    0 -0.95021352350E+02 -0.18413359814E+03 -0.18270187503E+03  0.27629025409E+03  0.46999998093E+01 0.  1.
       -5    1    3    3    0  502  0.95021352350E+02  0.18413359814E+03 -0.63199443515E+03  0.66511149098E+03  0.46999998093E+01 0. -1.
</event>
<event>
 5   0  0.1191894E-01  0.4963558E+03  0.7818609E-02  0.1014734E+00
        2   -1    0    0  501    0  0.00000000000E+00  0.00000000000E+00  0.89640742957E+03  0.89640742958E+03  0.25500000920E-02 0. -1.
       -2   -1    0    0    0  501  0.00000000000E+00  0.00000000000E+00 -0.68710139590E+02  0.68710139637E+02  0.25500000920E-02 0.  1.
    10030    2    1    2    0    0  0.00000000000E+00  0.00000000000E+00  0.82769728998E+03  0.96511756921E+03  0.49635583865E+03 0.  0.
        3    1    3    3  502    0  0.13988706025E+03 -0.20027053575E+03  0.49895042244E+03  0.55554316787E+03  0.10100000352E+00 0. -1.
       -3    1    3    3    0  502 -0.13988706025E+03  0.20027053575E+03  0.32874686755E+03  0.40957440135E+03  0.10100000352E+00 0.  1.
</event>
<event>
 5   0  0.7531632E-02  0.5190740E+03  0.7818609E-02  0.1008917E+00
       -1   -1    0    0    0  501  0.00000000000E+00  0.00000000000E+00  0.82013590273E+02  0.82013590428E+02  0.50400001928E-02 0.  1.
        1   -1    0    0  501    0  0.00000000000E+00  0.00000000000E+00 -0.82132072320E+03  0.82132072322E+03  0.50400001928E-02 0. -1.
    10030    2    1    2    0    0  0.00000000000E+00  0.00000000000E+00 -0.73930713293E+03  0.90333431364E+03  0.51907402691E+03 0.  0.
        3    1    3    3  502    0 -0.40555635431E+02 -0.25537729053E+03 -0.40845561563E+03  0.48342354124E+03  0.10100000352E+00 0. -1.
       -3    1    3    3    0  502  0.40555635431E+02  0.25537729053E+03 -0.33085151730E+03  0.41991077241E+03  0.10100000352E+00 0.  1.
</event>
<event>
 5   0  0.5006750E-02  0.4982499E+03  0.7818609E-02  0.1014237E+00
       -3   -1    0    0    0  501  0.00000000000E+00  0.00000000000E+00  0.11446479192E+03  0.11446483648E+03  0.10100000352E+00 0. -1.
        3   -1    0    0  501    0  0.00000000000E+00  0.00000000000E+00 -0.54220369297E+03  0.54220370238E+03  0.10100000352E+00 0.  1.
    10030    2    1    2    0    0  0.00000000000E+00  0.00000000000E+00 -0.42773890105E+03  0.65666853886E+03  0.49824993974E+03 0.  0.
        3    1    3    3  502    0  0.15792709311E+03 -0.18910185996E+03 -0.26252234479E+03  0.36002565450E+03  0.10100000352E+00 0. -1.
       -3    1    3    3    0  502 -0.15792709311E+03  0.18910185996E+03 -0.16521655626E+03  0.29664288436E+03  0.10100000352E+00 0.  1.
</event>
<event>
 5   0  0.7416638E-02  0.5000042E+03  0.7818609E-02  0.1013778E+00
        1   -1    0    0  501    0  0.00000000000E+00  0.00000000000E+00  0.52525705533E+03  0.52525705535E+03  0.50400001928E-02 0. -1.
       -1   -1    0    0    0  501  0.00000000000E+00  0.00000000000E+00 -0.11899135082E+03  0.11899135093E+03  0.50400001928E-02 0.  1.
    10030    2    1    2    0    0  0.00000000000E+00  0.00000000000E+00  0.40626570451E+03  0.64424840628E+03  0.50000418632E+03 0.  0.
        1    1    3    3  502    0 -0.22161883331E+02  0.56785776911E+02  0.51553497929E+03  0.51912627407E+03  0.50400001928E-02 0. -1.
       -1    1    3    3    0  502  0.22161883331E+02 -0.56785776911E+02 -0.10926927478E+03  0.12512213221E+03  0.50400001928E-02 0.  1.
</event>
<event>
 5   0  0.1191894E-01  0.4997892E+03  0.7818609E-02  0.1013834E+00
       -2   -1    0    0    0  501  0.00000000000E+00  0.00000000000E+00  0.84523128042E+02  0.84523128081E+02  0.25500000920E-02 0. -1.
        2   -1    0    0  501    0  0.00000000000E+00  0.00000000000E+00 -0.73881914285E+03  0.73881914285E+03  0.25500000920E-02 0.  1.
    10030    2    1    2    0    0  0.00000000000E+00  0.00000000000E+00 -0.65429601480E+03  0.82334227093E+03  0.49978917567E+03 0.  0.
        3    1    3    3  502    0 -0.99021733420E+02  0.33767243565E+02  0.46708221411E+02  0.11457398734E+03  0.10100000352E+00 0. -1.
       -3    1    3    3    0  502  0.99021733420E+02 -0.33767243565E+02 -0.70100423622E+03  0.70876828359E+03  0.10100000352E+00 0.  1.
</event>
<event>
 5   0  0.5006750E-02  0.5020763E+03  0.7818609E-02  0.1013238E+00
       -4   -1    0    0    0  501  0.00000000000E+00  0.00000000000E+00  0.13007068859E+03  0.13007688853E+03  0.12699999809E+01 0. -1.
        4   -1    0    0  501    0  0.00000000000E+00  0.00000000000E+00 -0.48448844598E+03  0.48449011052E+03  0.12699999809E+01 0.  1.
    10030    2    1    2    0    0  0.00000000000E+00  0.00000000000E+00 -0.35441775739E+03  0.61456699905E+03  0.50207633839E+03 0.  0.
        4    1    3    3  502    0  0.66328496311E+02  0.17353685147E+03  0.29449348805E+02  0.18810471894E+03  0.12699999809E+01 0. -1.
       -4    1    3    3    0  502 -0.66328496311E+02 -0.17353685147E+03 -0.38386710619E+03  0.42646228011E+03  0.12699999809E+01 0.  1.
</event>
<event>
 5   0  0.1243803E-01  0.4884197E+03  0.7818609E-02  0.1016847E+00
        2   -1    0    0  501    0  0.00000000000E+00  0.00000000000E+00  0.21959087479E+03  0.21959087481E+03  0.25500000920E-02 0. -1.
       -2   -1    0    0    0  501  0.00000000000E+00  0.00000000000E+00 -0.27158894431E+03  0.27158894432E+03  0.25500000920E-02 0.  1.
    10030    2    1    2    0    0  0.00000000000E+00  0.00000000000E+00 -0.51998069514E+02  0.49117981913E+03  0.48841971242E+03 0.  0.
        4    1    3    3  502    0 -0.24193750012E+03  0.15835095176E+01 -0.59361492889E+02  0.24912177987E+03  0.12699999809E+01 0.  1.
       -4    1    3    3    0  502  0.24193750012E+03 -0.15835095176E+01  0.73634233750E+01  0.24205803926E+03  0.12699999809E+01 0. -1.
</event>
<event>
 5   0  0.5006750E-02  0.4902658E+03  0.7818609E-02  0.1016351E+00
        3   -1    0    0  501    0  0.00000000000E+00  0.00000000000E+00  0.99387905845E+03  0.99387906359E+03  0.10100000352E+00 0.  1.
       -3   -1    0    0    0  501  0.00000000000E+00  0.00000000000E+00 -0.60460168853E+02  0.60460253215E+02  0.10100000352E+00 0. -1.
    10030    2    1    2    0    0  0.00000000000E+00  0.00000000000E+00  0.93341888960E+03  0.10543393168E+04  0.49026581717E+03 0.  0.
        2    1    3    3  502    0  0.91181251885E+02 -0.22382928391E+03  0.55476568332E+03  0.60512687300E+03  0.25500000920E-02 0.  1.
       -2    1    3    3    0  502 -0.91181251885E+02  0.22382928391E+03  0.37865320628E+03  0.44921244380E+03  0.25500000920E-02 0. -1.
</event>
<event>
 5   0  0.7812547E-02  0.5017452E+03  0.7818609E-02  0.1013324E+00
        1   -1    0    0  501    0  0.00000000000E+00  0.00000000000E+00  0.17529548930E+04  0.17529548930E+04  0.50400001928E-02 0. -1.
       -1   -1    0    0    0  501  0.00000000000E+00  0.00000000000E+00 -0.35903416760E+02  0.35903417113E+02  0.50400001928E-02 0.  1.
    10030    2    1    2    0    0  0.00000000000E+00  0.00000000000E+00  0.17170514763E+04  0.17888583101E+04  0.50174523578E+03 0.  0.
        4    1    3    3  502    0  0.44736585442E+02 -0.40062721417E+02  0.17269390450E+04  0.17279833511E+04  0.12699999809E+01 0. -1.
       -4    1    3    3    0  502 -0.44736585442E+02  0.40062721417E+02 -0.98875687049E+01  0.60874959049E+02  0.12699999809E+01 0.  1.
</event>
<event>
 5   0  0.1243803E-01  0.4989272E+03  0.7818609E-02  0.1014059E+00
        2   -1    0    0  501    0  0.00000000000E+00  0.00000000000E+00  0.24586775273E+03  0.24586775274E+03  0.25500000920E-02 0.  1.
       -2   -1    0    0    0  501  0.00000000000E+00  0.00000000000E+00 -0.25311202648E+03  0.25311202649E+03  0.25500000920E-02 0. -1.
    10030    2    1    2    0    0  0.00000000000E+00  0.00000000000E+00 -0.72442737466E+01  0.49897977924E+03  0.49892718966E+03 0.  0.
        4    1    3    3  502    0 -0.10827650198E+03 -0.20360267187E+03  0.91533167042E+02  0.24810840865E+03  0.12699999809E+01 0.  1.
       -4    1    3    3    0  502  0.10827650198E+03  0.20360267187E+03 -0.98777440789E+02  0.25087137059E+03  0.12699999809E+01 0. -1.
</event>
<event>
 5   0  0.1231822E-01  0.4887098E+03  0.7818609E-02  0.1016769E+00
        2   -1    0    0  501    0  0.00000000000E+00  0.00000000000E+00  0.31988798914E+03  0.31988798915E+03  0.25500000920E-02 0. -1.
       -2   -1    0    0    0  501  0.00000000000E+00  0.00000000000E+00 -0.18665696566E+03  0.18665696567E+03  0.25500000920E-02 0.  1.
    10030    2    1    2    0    0  0.00000000000E+00  0.00000000000E+00  0.13323102349E+03  0.50654495483E+03  0.48870981742E+03 0.  0.
        1    1    3    3  502    0 -0.13088768640E+03  0.19595120148E+03 -0.40377861977E+00  0.23564512062E+03  0.50400001928E-02 0.  1.
       -1    1    3    3    0  502  0.13088768640E+03 -0.19595120148E+03  0.13363480211E+03  0.27089983420E+03  0.50400001928E-02 0. -1.
</event>
<event>
 5   0  0.1279188E-01  0.5032131E+03  0.7818609E-02  0.1012944E+00
        2   -1    0    0  501    0  0.00000000000E+00  0.00000000000E+00  0.72717985397E+03  0.72717985398E+03  0.25500000920E-02 0. -1.
       -2   -1    0    0    0  501  0.00000000000E+00  0.00000000000E+00 -0.87056678548E+02  0.87056678585E+02  0.25500000920E-02 0.  1.
    10030    2    1    2    0    0  0.00000000000E+00  0.00000000000E+00  0.64012317542E+03  0.81423653256E+03  0.50321312706E+03 0.  0.
        2    1    3    3  502    0  0.24235038646E+03  0.40075447321E+02  0.23193796157E+03  0.33783867351E+03  0.25500000920E-02 0.  1.
       -2    1    3    3    0  502 -0.24235038646E+03 -0.40075447321E+02  0.40818521385E+03  0.47639785905E+03  0.25500000920E-02 0. -1.
</event>
<event>
 5   0  0.7531632E-02  0.5001456E+03  0.7818609E-02  0.1013741E+00
       -1   -1    0    0    0  501  0.00000000000E+00  0.00000000000E+00  0.34124877016E+03  0.34124877019E+03  0.50400001928E-02 0.  1.
        1   -1    0    0  501    0  0.00000000000E+00  0.00000000000E+00 -0.18325755823E+03  0.18325755830E+03  0.50400001928E-02 0. -1.
    10030    2    1    2    0    0  0.00000000000E+00  0.00000000000E+00  0.15799121192E+03  0.52450632850E+03  0.50014564438E+03 0.  0.
        3    1    3    3  502    0  0.20983616007E+03  0.37102776145E+02 -0.58255190299E+02  0.22091063231E+03  0.10100000352E+00 0. -1.
       -3    1    3    3    0  502 -0.20983616007E+03 -0.37102776145E+02  0.21624640222E+03  0.30359569619E+03  0.10100000352E+00 0.  1.
</event>
<event>
 5   0  0.5006750E-02  0.5029766E+03  0.7818609E-02  0.1013005E+00
       -3   -1    0    0    0  501  0.00000000000E+00  0.00000000000E+00  0.35981799058E+03  0.35981800476E+03  0.10100000352E+00 0.  1.
        3   -1    0    0  501    0  0.00000000000E+00  0.00000000000E+00 -0.17577315214E+03  0.17577318116E+03  0.10100000352E+00 0. -1.
    10030    2    1    2    0    0  0.00000000000E+00  0.00000000000E+00  0.18404483844E+03  0.53559118591E+03  0.50297655598E+03 0.  0.
        2    1    3    3  502    0  0.13576719802E+03 -0.98468465723E+02  0.29157069900E+03  0.33636623392E+03  0.25500000920E-02 0.  1.
       -2    1    3    3    0  502 -0.13576719802E+03  0.98468465723E+02 -0.10752586056E+03  0.19922495199E+03  0.25500000920E-02 0. -1.
</event>
<event>
 5   0  0.7812547E-02  0.4971213E+03  0.7818609E-02  0.1014533E+00
        1   -1    0    0  501    0  0.00000000000E+00  0.00000000000E+00  0.20260208649E+03  0.20260208656E+03  0.50400001928E-02 0.  1.
       -1   -1    0    0    0  501  0.00000000000E+00  0.00000000000E+00 -0.30494448648E+03  0.30494448652E+03  0.50400001928E-02 0. -1.
    10030    2    1    2    0    0  0.00000000000E+00  0.00000000000E+00 -0.10234239999E+03  0.50754657308E+03  0.49712126992E+03 0.  0.
        4    1    3    3  502    0  0.26104460391E+02 -0.24092400140E+03  0.52596056913E+01  0.24239450005E+03  0.12699999809E+01 0. -1.
       -4    1    3    3    0  502 -0.26104460391E+02  0.24092400140E+03 -0.10760200568E+03  0.26515207302E+03  0.12699999809E+01 0.  1.
</event>
<event>
 5   0  0.7781754E-02  0.4973956E+03  0.7818609E-02  0.1014461E+00
        1   -1    0    0  501    0  0.00000000000E+00  0.00000000000E+00  0.24118517043E+03  0.24118517049E+03  0.50400001928E-02 0.  1.
       -1   -1    0    0    0  501  0.00000000000E+00  0.00000000000E+00 -0.25644439855E+03  0.25644439860E+03  0.50400001928E-02 0. -1.
    10030    2    1    2    0    0  0.00000000000E+00  0.00000000000E+00 -0.15259228118E+02  0.49762956909E+03  0.49739556088E+03 0.  0.
        2    1    3    3  502    0  0.22334303733E+03 -0.22902226315E+02 -0.11465639688E+03  0.25209663553E+03  0.25500000920E-02 0. -1.
       -2    1    3    3    0  502 -0.22334303733E+03  0.22902226315E+02  0.99397168760E+02  0.24553293355E+03  0.25500000920E-02 0.  1.
</event>
<event>
 5   0  0.1279188E-01  0.5018430E+03  0.7818609E-02  0.1013299E+00
        2   -1    0    0  501    0  0.00000000000E+00  0.00000000000E+00  0.90964055119E+03  0.90964055119E+03  0.25500000920E-02 0. -1.
       -2   -1    0    0    0  501  0.00000000000E+00  0.00000000000E+00 -0.69215908594E+02  0.69215908641E+02  0.25500000920E-02 0.  1.
    10030    2    1    2    0    0  0.00000000000E+00  0.00000000000E+00  0.84042464259E+03  0.97885645983E+03  0.50184299246E+03 0.  0.
        2    1    3    3  502    0  0.19950933015E+03 -0.14345594432E+03  0.32117611584E+03  0.40439792058E+03  0.25500000920E-02 0.  1.
       -2    1    3    3    0  502 -0.19950933015E+03  0.14345594432E+03  0.51924852675E+03  0.57445853925E+03  0.25500000920E-02 0. -1.
</event>
<event>
 5   0  0.1211345E-01  0.4993293E+03  0.7818609E-02  0.1013954E+00
       -2   -1    0    0    0  501  0.00000000000E+00  0.00000000000E+00  0.32669143276E+02  0.32669143376E+02  0.25500000920E-02 0.  1.
        2   -1    0    0  501    0  0.00000000000E+00  0.00000000000E+00 -0.19079908424E+04  0.19079908424E+04  0.25500000920E-02 0. -1.
    10030    2    1    2    0    0  0.00000000000E+00  0.00000000000E+00 -0.18753216991E+04  0.19406599858E+04  0.49932925529E+03 0.  0.
        5    1    3    3  502    0 -0.35016832248E+01  0.16295411841E+02  0.30332115120E+02  0.34927488291E+02  0.46999998093E+01 0.  1.
       -5    1    3    3    0  502  0.35016832248E+01 -0.16295411841E+02 -0.19056538142E+04  0.19057324975E+04  0.46999998093E+01 0. -1.
</event>
<event>
 5   0  0.7416638E-02  0.4986409E+03  0.7818609E-02  0.1014134E+00
       -1   -1    0    0    0  501  0.00000000000E+00  0.00000000000E+00  0.72162352107E+02  0.72162352283E+02  0.50400001928E-02 0. -1.
        1   -1    0    0  501    0  0.00000000000E+00  0.00000000000E+00 -0.86140043555E+03  0.86140043557E+03  0.50400001928E-02 0.  1.
    10030    2    1    2    0    0  0.00000000000E+00  0.00000000000E+00 -0.78923808345E+03  0.93356278785E+03  0.49864087929E+03 0.  0.
        1    1    3    3  502    0  0.15771669416E+03 -0.78426062639E+02 -0.64262108316E+02  0.18749619065E+03  0.50400001928E-02 0. -1.
       -1    1    3    3    0  502 -0.15771669416E+03  0.78426062639E+02 -0.72497597513E+03  0.74606659720E+03  0.50400001928E-02 0.  1.
</event>
<event>
 5   0  0.1231822E-01  0.4986475E+03  0.7818609E-02  0.1014133E+00
       -2   -1    0    0    0  501  0.00000000000E+00  0.00000000000E+00  0.43591890490E+02  0.43591890565E+02  0.25500000920E-02 0.  1.
        2   -1    0    0  501    0  0.00000000000E+00  0.00000000000E+00 -0.14260068868E+04  0.14260068868E+04  0.25500000920E-02 0. -1.
    10030    2    1    2    0    0  0.00000000000E+00  0.00000000000E+00 -0.13824149963E+04  0.14695987774E+04  0.49864751521E+03 0.  0.
        1    1    3    3  502    0 -0.68096012838E+02 -0.23857403952E+03 -0.76385966824E+03  0.80314147701E+03  0.50400001928E-02 0. -1.
       -1    1    3    3    0  502  0.68096012838E+02  0.23857403952E+03 -0.61855532810E+03  0.66645730039E+03  0.50400001928E-02 0.  1.
</event>
<event>
 5   0  0.7812547E-02  0.5118080E+03  0.7818609E-02  0.1010742E+00
       -1   -1    0    0    0  501  0.00000000000E+00  0.00000000000E+00  0.69051255221E+02  0.69051255405E+02  0.50400001928E-02 0. -1.
        1   -1    0    0  501    0  0.00000000000E+00  0.00000000000E+00 -0.94838027184E+03  0.94838027185E+03  0.50400001928E-02 0.  1.
    10030    2    1    2    0    0  0.00000000000E+00  0.00000000000E+00 -0.87932901662E+03  0.10174315273E+04  0.51180796515E+03 0.  0.
        4    1    3    3  502    0 -0.21778987267E+03  0.12280273705E+03 -0.54804324186E+03  0.60238355614E+03  0.12699999809E+01 0.  1.
       -4    1    3    3    0  502  0.21778987267E+03 -0.12280273705E+03 -0.33128577476E+03  0.41504797111E+03  0.12699999809E+01 0. -1.
</event>
<event>
 5   0  0.1211345E-01  0.4919981E+03  0.7818609E-02  0.1015889E+00
        2   -1    0    0  501    0  0.00000000000E+00  0.00000000000E+00  0.68102465464E+02  0.68102465512E+02  0.25500000920E-02 0. -1.
       -2   -1    0    0    0  501  0.00000000000E+00  0.00000000000E+00 -0.88859521118E+03  0.88859521118E+03  0.25500000920E-02 0.  1.
    10030    2    1    2    0    0  0.00000000000E+00  0.00000000000E+00 -0.82049274571E+03  0.95669767669E+03  0.49199806790E+03 0.  0.
        5    1    3    3  502    0  0.17708301048E+02 -0.61371621800E+02 -0.87209787733E+03  0.87444660074E+03  0.46999998093E+01 0.  1.
       -5    1    3    3    0  502 -0.17708301048E+02  0.61371621800E+02  0.51605131621E+02  0.82251075958E+02  0.46999998093E+01 0. -1.
</event>
<event>
 5   0  0.1231822E-01  0.4987550E+03  0.7818609E-02  0.1014104E+00
       -2   -1    0    0    0  501  0.00000000000E+00  0.00000000000E+00  0.90426101918E+02  0.90426101954E+02  0.25500000920E-02 0. -1.
        2   -1    0    0  501    0  0.00000000000E+00  0.00000000000E+00 -0.68773424391E+03  0.68773424391E+03  0.25500000920E-02 0.  1.
    10030    2    1    2    0    0  0.00000000000E+00  0.00000000000E+00 -0.59730814199E+03  0.77816034587E+03  0.49875495726E+03 0.  0.
        1    1    3    3  502    0  0.22280712250E+03  0.55492368996E+02 -0.14685070321E+03  0.27255741764E+03  0.50400001928E-02 0. -1.
       -1    1    3    3    0  502 -0.22280712250E+03 -0.55492368996E+02 -0.45045743877E+03  0.50560292822E+03  0.50400001928E-02 0.  1.
</event>
<event>
 5   0  0.1211345E-01  0.5010521E+03  0.7818609E-02  0.1013505E+00
        2   -1    0    0  501    0  0.00000000000E+00  0.00000000000E+00  0.98400302609E+03  0.98400302609E+03  0.25500000920E-02 0.  1.
       -2   -1    0    0    0  501  0.00000000000E+00  0.00000000000E+00 -0.63783649597E+02  0.63783649648E+02  0.25500000920E-02 0. -1.
    10030    2    1    2    0    0  0.00000000000E+00  0.00000000000E+00  0.92021937649E+03  0.10477866757E+04  0.50105211005E+03 0.  0.
        5    1    3    3  502    0 -0.85642637820E+02 -0.13028483931E+03  0.87006715903E+03  0.88393877163E+03  0.46999998093E+01 0.  1.
       -5    1    3    3    0  502  0.85642637820E+02  0.13028483931E+03  0.50152217458E+02  0.16384790411E+03  0.46999998093E+01 0. -1.
</event>
<event>
 5   0  0.1211345E-01  0.4970846E+03  0.7818609E-02  0.1014543E+00
       -2   -1    0    0    0  501  0.00000000000E+00  0.00000000000E+00  0.15426940004E+03  0.15426940006E+03  0.25500000920E-02 0.  1.
        2   -1    0    0  501    0  0.00000000000E+00  0.00000000000E+00 -0.40042475782E+03  0.40042475783E+03  0.25500000920E-02 0. -1.
    10030    2    1    2    0    0  0.00000000000E+00  0.00000000000E+00 -0.24615535778E+03  0.55469415790E+03  0.49708464937E+03 0.  0.
        5    1    3    3  502    0 -0.23413734284E+03  0.74369022965E+02 -0.16483287858E+03  0.29587668841E+03  0.46999998093E+01 0. -1.
       -5    1    3    3    0  502  0.23413734284E+03 -0.74369022965E+02 -0.81322479201E+02  0.25881746948E+03  0.46999998093E+01 0.  1.
</event>
<event>
 5   0  0.5006750E-02  0.4970770E+03  0.7818609E-02  0.1014545E+00
       -4   -1    0    0    0  501  0.00000000000E+00  0.00000000000E+00  0.74378616354E+03  0.74378724779E+03  0.12699999809E+01 0. -1.
        4   -1    0    0  501    0  0.00000000000E+00  0.00000000000E+00 -0.83043915341E+02  0.83053625900E+02  0.12699999809E+01 0.  1.
    10030    2    1    2    0    0  0.00000000000E+00  0.00000000000E+00  0.66074224820E+03  0.82684087369E+03  0.49707696773E+03 0.  0.
        2    1    3    3  502    0  0.88128491923E+02 -0.16379410668E+03  0.60458723136E+03  0.63255107367E+03  0.25500000920E-02 0. -1.
       -2    1    3    3    0  502 -0.88128491923E+02  0.16379410668E+03  0.56155016843E+02  0.19428980002E+03  0.25500000920E-02 0.  1.
</event>
<event>
 5   0  0.1191894E-01  0.5019924E+03  0.7818609E-02  0.1013260E+00
       -2   -1    0    0    0  501  0.00000000000E+00  0.00000000000E+00  0.42951966885E+03  0.42951966886E+03  0.25500000920E-02 0.  1.
        2   -1    0    0  501    0  0.00000000000E+00  0.00000000000E+00 -0.14667334391E+03  0.14667334393E+03  0.25500000920E-02 0. -1.
    10030    2    1    2    0    0  0.00000000000E+00  0.00000000000E+00  0.28284632494E+03  0.57619301279E+03  0.50199237490E+03 0.  0.
        3    1    3    3  502    0 -0.21209082647E+03  0.72150523724E+01 -0.12420084456E+02  0.21257667876E+03  0.10100000352E+00 0. -1.
       -3    1    3    3    0  502  0.21209082647E+03 -0.72150523724E+01  0.29526640940E+03  0.36361633403E+03  0.10100000352E+00 0.  1.
</event>
<event>
 5   0  0.7781754E-02  0.5398191E+03  0.7818609E-02  0.1003878E+00
       -1   -1    0    0    0  501  0.00000000000E+00  0.00000000000E+00  0.56437120800E+02  0.56437121025E+02  0.50400001928E-02 0. -1.
        1   -1    0    0  501    0  0.00000000000E+00  0.00000000000E+00 -0.12908377233E+04  0.12908377233E+04  0.50400001928E-02 0.  1.
    10030    2    1    2    0    0  0.00000000000E+00  0.00000000000E+00 -0.12344006025E+04  0.13472748443E+04  0.53981909814E+03 0.  0.
        2    1    3    3  502    0  0.10294499038E+03  0.55784075304E+02 -0.12241526588E+04  0.12297395115E+04  0.25500000920E-02 0.  1.
       -2    1    3    3    0  502 -0.10294499038E+03 -0.55784075304E+02 -0.10247943676E+02  0.11753533281E+03  0.25500000920E-02 0. -1.
</event>
<event>
 5   0  0.1243803E-01  0.5000089E+03  0.7818609E-02  0.1013777E+00
        2   -1    0    0  501    0  0.00000000000E+00  0.00000000000E+00  0.13820516859E+04  0.13820516859E+04  0.25500000920E-02 0. -1.
       -2   -1    0    0    0  501  0.00000000000E+00  0.00000000000E+00 -0.45224237144E+02  0.45224237216E+02  0.25500000920E-02 0.  1.
    10030    2    1    2    0    0  0.00000000000E+00  0.00000000000E+00  0.13368274487E+04  0.14272759231E+04  0.50000893288E+03 0.  0.
        4    1    3    3  502    0 -0.19247557849E+03 -0.12270529169E+03  0.37735003555E+03  0.44101938637E+03  0.12699999809E+01 0.  1.
       -4    1    3    3    0  502  0.19247557849E+03  0.12270529169E+03  0.95947741318E+03  0.98625653672E+03  0.12699999809E+01 0. -1.
</event>
<event>
 5   0  0.7531632E-02  0.4960838E+03  0.7818609E-02  0.1014806E+00
       -1   -1    0    0    0  501  0.00000000000E+00  0.00000000000E+00  0.12786958388E+04  0.12786958388E+04  0.50400001928E-02 0.  1.
        1   -1    0    0  501    0  0.00000000000E+00  0.00000000000E+00 -0.48115261796E+02  0.48115262060E+02  0.50400001928E-02 0. -1.
    10030    2    1    2    0    0  0.00000000000E+00  0.00000000000E+00  0.12305805770E+04  0.13268111008E+04  0.49608380429E+03 0.  0.
        3    1    3    3  502    0 -0.73854799995E+01 -0.12166963494E+03  0.11930639380E+04  0.11992746206E+04  0.10100000352E+00 0.  1.
       -3    1    3    3    0  502  0.73854799995E+01  0.12166963494E+03  0.37516638987E+02  0.12753648020E+03  0.10100000352E+00 0. -1.
</event>
<event>
 5   0  0.1191894E-01  0.4148567E+03  0.7818609E-02  0.1038753E+00
        2   -1    0    0  501    0  0.00000000000E+00  0.00000000000E+00  0.17496990352E+03  0.17496990354E+03  0.25500000920E-02 0.  1.
       -2   -1    0    0    0  501  0.00000000000E+00  0.00000000000E+00 -0.24590807685E+03  0.24590807686E+03  0.25500000920E-02 0. -1.
    10030    2    1    2    0    0  0.00000000000E+00  0.00000000000E+00 -0.70938173324E+02  0.42087798040E+03  0.41485666194E+03 0.  0.
        3    1    3    3  502    0  0.87343901168E+02 -0.79908890660E+02  0.13733254024E+03  0.18131360866E+03  0.10100000352E+00 0.  1.
       -3    1    3    3    0  502 -0.87343901168E+02  0.79908890660E+02 -0.20827071356E+03  0.23956437174E+03  0.10100000352E+00 0. -1.
</event>
<event>
 5   0  0.7812547E-02  0.4974976E+03  0.7818609E-02  0.1014434E+00
        1   -1    0    0  501    0  0.00000000000E+00  0.00000000000E+00  0.59927876905E+03  0.59927876907E+03  0.50400001928E-02 0. -1.
       -1   -1    0    0    0  501  0.00000000000E+00  0.00000000000E+00 -0.10325070224E+03  0.10325070236E+03  0.50400001928E-02 0.  1.
    10030    2    1    2    0    0  0.00000000000E+00  0.00000000000E+00  0.49602806681E+03  0.70252947143E+03  0.49749755293E+03 0.  0.
        4    1    3    3  502    0 -0.15917599954E+03  0.48575283852E+02  0.50907716806E+03  0.53559101278E+03  0.12699999809E+01 0. -1.
       -4    1    3    3    0  502  0.15917599954E+03 -0.48575283852E+02 -0.13049101259E+02  0.16693845865E+03  0.12699999809E+01 0.  1.
</event>
<event>
 5   0  0.1231822E-01  0.5023935E+03  0.7818609E-02  0.1013156E+00
       -2   -1    0    0    0  501  0.00000000000E+00  0.00000000000E+00  0.10095592591E+04  0.10095592591E+04  0.25500000920E-02 0.  1.
        2   -1    0    0  501    0  0.00000000000E+00  0.00000000000E+00 -0.62502326858E+02  0.62502326910E+02  0.25500000920E-02 0. -1.
    10030    2    1    2    0    0  0.00000000000E+00  0.00000000000E+00  0.94705693222E+03  0.10720615860E+04  0.50239348253E+03 0.  0.
        1    1    3    3  502    0  0.16042923008E+03  0.12484159904E+03  0.15862809757E+03  0.25784847504E+03  0.50400001928E-02 0. -1.
       -1    1    3    3    0  502 -0.16042923008E+03 -0.12484159904E+03  0.78842883464E+03  0.81421311095E+03  0.50400001928E-02 0.  1.
</event>
<event>
 5   0  0.7602288E-02  0.4952336E+03  0.7818609E-02  0.1015031E+00
       -1   -1    0    0    0  501  0.00000000000E+00  0.00000000000E+00  0.53844060148E+03  0.53844060150E+03  0.50400001928E-02 0. -1.
        1   -1    0    0  501    0  0.00000000000E+00  0.00000000000E+00 -0.11387343675E+03  0.11387343686E+03  0.50400001928E-02 0.  1.
    10030    2    1    2    0    0  0.00000000000E+00  0.00000000000E+00  0.42456716472E+03  0.65231403837E+03  0.49523360880E+03 0.  0.
        5    1    3    3  502    0 -0.13594637843E+03 -0.11861791887E+03  0.43558564874E+03  0.47149610377E+03  0.46999998093E+01 0. -1.
       -5    1    3    3    0  502  0.13594637843E+03  0.11861791887E+03 -0.11018484011E+02  0.18081793460E+03  0.46999998093E+01 0.  1.
</event>
<event>
 5   0  0.7812547E-02  0.4995446E+03  0.7818609E-02  0.1013898E+00
        1   -1    0    0  501    0  0.00000000000E+00  0.00000000000E+00  0.34998535376E+03  0.34998535380E+03  0.50400001928E-02 0.  1.
       -1   -1    0    0    0  501  0.00000000000E+00  0.00000000000E+00 -0.17825375724E+03  0.17825375731E+03  0.50400001928E-02 0. -1.
    10030    2    1    2    0    0  0.00000000000E+00  0.00000000000E+00  0.17173159652E+03  0.52823911111E+03  0.49954460989E+03 0.  0.
        4    1    3    3  502    0  0.20701557378E+03 -0.40902223380E+02 -0.55436820355E+02  0.21818179030E+03  0.12699999809E+01 0.  1.
       -4    1    3    3    0  502 -0.20701557378E+03  0.40902223380E+02  0.22716841688E+03  0.31005732082E+03  0.12699999809E+01 0. -1.
</event>
<event>
 5   0  0.1191894E-01  0.4472017E+03  0.7818609E-02  0.1028560E+00
       -2   -1    0    0    0  501  0.00000000000E+00  0.00000000000E+00  0.12436573352E+03  0.12436573355E+03  0.25500000920E-02 0.  1.
        2   -1    0    0  501    0  0.00000000000E+00  0.00000000000E+00 -0.40201863265E+03  0.40201863265E+03  0.25500000920E-02 0. -1.
    10030    2    1    2    0    0  0.00000000000E+00  0.00000000000E+00 -0.27765289912E+03  0.52638436620E+03  0.44720170907E+03 0.  0.
        3    1    3    3  502    0 -0.17465519166E+03 -0.65394497006E+02 -0.28402299411E+03  0.33977926305E+03  0.10100000352E+00 0. -1.
       -3    1    3    3    0  502  0.17465519166E+03  0.65394497006E+02  0.63700949892E+01  0.18660510316E+03  0.10100000352E+00 0.  1.
</event>
<event>
 5   0  0.7602288E-02  0.5020601E+03  0.7818609E-02  0.1013243E+00
       -1   -1    0    0    0  501  0.00000000000E+00  0.00000000000E+00  0.39013420215E+03  0.39013420219E+03  0.50400001928E-02 0.  1.
        1   -1    0    0  501    0  0.00000000000E+00  0.00000000000E+00 -0.16152410943E+03  0.16152410951E+03  0.50400001928E-02 0. -1.
    10030    2    1    2    0    0  0.00000000000E+00  0.00000000000E+00  0.22861009272E+03  0.55165831170E+03  0.50206007447E+03 0.  0.
        5    1    3    3  502    0  0.24953272853E+02  0.10167423565E+03 -0.13633861376E+03  0.17196111078E+03  0.46999998093E+01 0. -1.
       -5    1    3    3    0  502 -0.24953272853E+02 -0.10167423565E+03  0.36494870648E+03  0.37969720091E+03  0.46999998093E+01 0.  1.
</event>
<event>
 5   0  0.7531632E-02  0.4930417E+03  0.7818609E-02  0.1015611E+00
        1   -1    0    0  501    0  0.00000000000E+00  0.00000000000E+00  0.14401049929E+03  0.14401049938E+03  0.50400001928E-02 0.  1.
       -1   -1    0    0    0  501  0.00000000000E+00  0.00000000000E+00 -0.42200065278E+03  0.42200065281E+03  0.50400001928E-02 0. -1.
    10030    2    1    2    0    0  0.00000000000E+00  0.00000000000E+00 -0.27799015349E+03  0.56601115219E+03  0.49304168076E+03 0.  0.
        3    1    3    3  502    0  0.22971539001E+03  0.85361023875E+02 -0.10825850558E+03  0.26790964715E+03  0.10100000352E+00 0.  1.
       -3    1    3    3    0  502 -0.22971539001E+03 -0.85361023875E+02 -0.16973164791E+03  0.29810150504E+03  0.10100000352E+00 0. -1.
</event>
<event>
 5   0  0.7781754E-02  0.4833959E+03  0.7818609E-02  0.1018206E+00
       -1   -1    0    0    0  501  0.00000000000E+00  0.00000000000E+00  0.53081454270E+02  0.53081454509E+02  0.50400001928E-02 0. -1.
        1   -1    0    0  501    0  0.00000000000E+00  0.00000000000E+00 -0.11005332875E+04  0.11005332875E+04  0.50400001928E-02 0.  1.
    10030    2    1    2    0    0  0.00000000000E+00  0.00000000000E+00 -0.10474518332E+04  0.11536147420E+04  0.48339593510E+03 0.  0.
        2    1    3    3  502    0 -0.52305913384E+02  0.14979026462E+03 -0.88594782152E+02  0.18171974957E+03  0.25500000920E-02 0. -1.
       -2    1    3    3    0  502  0.52305913384E+02 -0.14979026462E+03 -0.95885705108E+03  0.97189499246E+03  0.25500000920E-02 0.  1.
</event>
<event>
 5   0  0.1279188E-01  0.5081846E+03  0.7818609E-02  0.1011664E+00
       -2   -1    0    0    0  501  0.00000000000E+00  0.00000000000E+00  0.79562722257E+02  0.79562722298E+02  0.25500000920E-02 0. -1.
        2   -1    0    0  501    0  0.00000000000E+00  0.00000000000E+00 -0.81147181981E+03  0.81147181981E+03  0.25500000920E-02 0.  1.
    10030    2    1    2    0    0  0.00000000000E+00  0.00000000000E+00 -0.73190909755E+03  0.89103454211E+03  0.50818463983E+03 0.  0.
        2    1    3    3  502    0 -0.12343861145E+03  0.12702544818E+03 -0.68538692619E+03  0.70790380270E+03  0.25500000920E-02 0.  1.
       -2    1    3    3    0  502  0.12343861145E+03 -0.12702544818E+03 -0.46522171360E+02  0.18313073941E+03  0.25500000920E-02 0. -1.
</event>
<event>
 5   0  0.7781754E-02  0.4944305E+03  0.7818609E-02  0.1015243E+00
       -1   -1    0    0    0  501  0.00000000000E+00  0.00000000000E+00  0.44560456266E+02  0.44560456551E+02  0.50400001928E-02 0.  1.
        1   -1    0    0  501    0  0.00000000000E+00  0.00000000000E+00 -0.13715158883E+04  0.13715158883E+04  0.50400001928E-02 0. -1.
    10030    2    1    2    0    0  0.00000000000E+00  0.00000000000E+00 -0.13269554320E+04  0.14160763448E+04  0.49443047627E+03 0.  0.
        2    1    3    3  502    0 -0.12533993345E+03  0.77530256210E+02 -0.95019799109E+02  0.17535621396E+03  0.25500000920E-02 0.  1.
       -2    1    3    3    0  502  0.12533993345E+03 -0.77530256210E+02 -0.12319356329E+04  0.12407201309E+04  0.25500000920E-02 0. -1.
</event>
<event>
 5   0  0.7781754E-02  0.4989524E+03  0.7818609E-02  0.1014053E+00
       -1   -1    0    0    0  501  0.00000000000E+00  0.00000000000E+00  0.12037519703E+03  0.12037519714E+03  0.50400001928E-02 0.  1.
        1   -1    0    0  501    0  0.00000000000E+00  0.00000000000E+00 -0.51703660121E+03  0.51703660123E+03  0.50400001928E-02 0. -1.
    10030    2    1    2    0    0  0.00000000000E+00  0.00000000000E+00 -0.39666140418E+03  0.63741179837E+03  0.49895243374E+03 0.  0.
        2    1    3    3  502    0 -0.18922897045E+03  0.95968792914E+02 -0.36597440295E+03  0.42303058529E+03  0.25500000920E-02 0. -1.
       -2    1    3    3    0  502  0.18922897045E+03 -0.95968792914E+02 -0.30687001224E+02  0.21438121308E+03  0.25500000920E-02 0.  1.
</event>
<event>
 5   0  0.7531632E-02  0.5021357E+03  0.7818609E-02  0.1013223E+00
       -1   -1    0    0    0  501  0.00000000000E+00  0.00000000000E+00  0.92363957363E+02  0.92363957500E+02  0.50400001928E-02 0.  1.
        1   -1    0    0  501    0  0.00000000000E+00  0.00000000000E+00 -0.68246377986E+03  0.68246377987E+03  0.50400001928E-02 0. -1.
    10030    2    1    2    0    0  0.00000000000E+00  0.00000000000E+00 -0.59009982249E+03  0.77482773737E+03  0.50213566105E+03 0.  0.
        3    1    3    3  502    0  0.16701777802E+03 -0.36004593090E+02 -0.11177293642E+02  0.17121977395E+03  0.10100000352E+00 0.  1.
       -3    1    3    3    0  502 -0.16701777802E+03  0.36004593090E+02 -0.57892252885E+03  0.60360796342E+03  0.10100000352E+00 0. -1.
</event>
<event>
 5   0  0.1231822E-01  0.5054024E+03  0.7818609E-02  0.1012378E+00
       -2   -1    0    0    0  501  0.00000000000E+00  0.00000000000E+00  0.38988802544E+03  0.38988802545E+03  0.25500000920E-02 0.  1.
        2   -1    0    0  501    0  0.00000000000E+00  0.00000000000E+00 -0.16378521612E+03  0.16378521614E+03  0.25500000920E-02 0. -1.
    10030    2    1    2    0    0  0.00000000000E+00  0.00000000000E+00  0.22610280932E+03  0.55367324159E+03  0.50540239222E+03 0.  0.
        1    1    3    3  502    0  0.22214564151E+03  0.55584400360E+01  0.24486955407E+03  0.33066702411E+03  0.50400001928E-02 0.  1.
       -1    1    3    3    0  502 -0.22214564151E+03 -0.55584400360E+01 -0.18766744751E+02  0.22300621747E+03  0.50400001928E-02 0. -1.
</event>
<event>
 5   0  0.5006750E-02  0.4972519E+03  0.7818609E-02  0.1014499E+00
       -3   -1    0    0    0  501  0.00000000000E+00  0.00000000000E+00  0.77661386416E+02  0.77661452092E+02  0.10100000352E+00 0. -1.
        3   -1    0    0  501    0  0.00000000000E+00  0.00000000000E+00 -0.79595332724E+03  0.79595333365E+03  0.10100000352E+00 0.  1.
    10030    2    1    2    0    0  0.00000000000E+00  0.00000000000E+00 -0.71829194083E+03  0.87361478574E+03  0.49725192972E+03 0.  0.
        4    1    3    3  502    0  0.24358718799E+03 -0.15564789763E+02 -0.27606410006E+03  0.36849692139E+03  0.12699999809E+01 0. -1.
       -4    1    3    3    0  502 -0.24358718799E+03  0.15564789763E+02 -0.44222784077E+03  0.50511786435E+03  0.12699999809E+01 0.  1.
</event>
<event>
 5   0  0.1243803E-01  0.4910800E+03  0.7818609E-02  0.1016134E+00
       -2   -1    0    0    0  501  0.00000000000E+00  0.00000000000E+00  0.12692456873E+03  0.12692456876E+03  0.25500000920E-02 0.  1.
        2   -1    0    0  501    0  0.00000000000E+00  0.00000000000E+00 -0.47500561234E+03  0.47500561235E+03  0.25500000920E-02 0. -1.
    10030    2    1    2    0    0  0.00000000000E+00  0.00000000000E+00 -0.34808104361E+03  0.60193018110E+03  0.49107996294E+03 0.  0.
        4    1    3    3  502    0 -0.15163565516E+03 -0.26621504798E+01  0.62648081795E+02  0.16409404016E+03  0.12699999809E+01 0.  1.
       -4    1    3    3    0  502  0.15163565516E+03  0.26621504798E+01 -0.41072912541E+03  0.43783614095E+03  0.12699999809E+01 0. -1.
</event>
<event>
 5   0  0.7416638E-02  0.5026010E+03  0.7818609E-02  0.1013102E+00
       -1   -1    0    0    0  501  0.00000000000E+00  0.00000000000E+00  0.25783046128E+03  0.25783046133E+03  0.50400001928E-02 0.  1.
        1   -1    0    0  501    0  0.00000000000E+00  0.00000000000E+00 -0.24493587744E+03  0.24493587749E+03  0.50400001928E-02 0. -1.
    10030    2    1    2    0    0  0.00000000000E+00  0.00000000000E+00  0.12894583838E+02  0.50276633882E+03  0.50260095618E+03 0.  0.
        1    1    3    3  502    0 -0.10667967839E+03 -0.13316689285E+03  0.19100178099E+03  0.25611648815E+03  0.50400001928E-02 0.  1.
       -1    1    3    3    0  502  0.10667967839E+03  0.13316689285E+03 -0.17810719715E+03  0.24664985067E+03  0.50400001928E-02 0. -1.
</event>
<event>
 5   0  0.1231822E-01  0.4975986E+03  0.7818609E-02  0.1014408E+00
        2   -1    0    0  501    0  0.00000000000E+00  0.00000000000E+00  0.98858837873E+03  0.98858837874E+03  0.25500000920E-02 0. -1.
       -2   -1    0    0    0  501  0.00000000000E+00  0.00000000000E+00 -0.62615641772E+02  0.62615641824E+02  0.25500000920E-02 0.  1.
    10030    2    1    2    0    0  0.00000000000E+00  0.00000000000E+00  0.92597273696E+03  0.10512040206E+04  0.49759861660E+03 0.  0.
        1    1    3    3  502    0  0.50651311654E+02  0.11285466155E+03  0.69517080870E+01  0.12389534404E+03  0.50400001928E-02 0.  1.
       -1    1    3    3    0  502 -0.50651311654E+02 -0.11285466155E+03  0.91902102887E+03  0.92730867652E+03  0.50400001928E-02 0. -1.
</event>
<event>
 5   0  0.5006750E-02  0.4484926E+03  0.7818609E-02  0.1028173E+00
        3   -1    0    0  501    0  0.00000000000E+00  0.00000000000E+00  0.51983969954E+02  0.51984068071E+02  0.10100000352E+00 0.  1.
       -3   -1    0    0    0  501  0.00000000000E+00  0.00000000000E+00 -0.96734346625E+03  0.96734347152E+03  0.10100000352E+00 0. -1.
    10030    2    1    2    0    0  0.00000000000E+00  0.00000000000E+00 -0.91535949629E+03  0.10193275396E+04  0.44849261478E+03 0.  0.
        1    1    3    3  502    0 -0.12449604583E+03  0.77136005612E+02 -0.71726377898E+02  0.16307636892E+03  0.50400001928E-02 0.  1.
       -1    1    3    3    0  502  0.12449604583E+03 -0.77136005612E+02 -0.84363311839E+03  0.85625117067E+03  0.50400001928E-02 0. -1.
</event>
<event>
 5   0  0.1243803E-01  0.4382910E+03  0.7818609E-02  0.1031272E+00
       -2   -1    0    0    0  501  0.00000000000E+00  0.00000000000E+00  0.25379710640E+03  0.25379710641E+03  0.25500000920E-02 0.  1.
        2   -1    0    0  501    0  0.00000000000E+00  0.00000000000E+00 -0.18922498754E+03  0.18922498756E+03  0.25500000920E-02 0. -1.
    10030    2    1    2    0    0  0.00000000000E+00  0.00000000000E+00  0.64572118858E+02  0.44302209396E+03  0.43829101885E+03 0.  0.
        4    1    3    3  502    0 -0.21767710689E+03  0.23869854369E+02  0.23826212367E+02  0.22027799279E+03  0.12699999809E+01 0.  1.
       -4    1    3    3    0  502  0.21767710689E+03 -0.23869854369E+02  0.40745906491E+02  0.22274410117E+03  0.12699999809E+01 0. -1.
</event>
<event>
 5   0  0.1211345E-01  0.5026212E+03  0.7818609E-02  0.1013097E+00
        2   -1    0    0  501    0  0.00000000000E+00  0.00000000000E+00  0.42754411066E+03  0.42754411067E+03  0.25500000920E-02 0. -1.
       -2   -1    0    0    0  501  0.00000000000E+00  0.00000000000E+00 -0.14772047165E+03  0.14772047167E+03  0.25500000920E-02 0.  1.
    10030    2    1    2    0    0  0.00000000000E+00  0.00000000000E+00  0.27982363901E+03  0.57526458234E+03  0.50262120006E+03 0.  0.
        5    1    3    3  502    0  0.23873480738E+03 -0.61213584718E+02  0.19590627740E+03  0.31486945030E+03  0.46999998093E+01 0.  1.
       -5    1    3    3    0  502 -0.23873480738E+03  0.61213584718E+02  0.83917361610E+02  0.26039513204E+03  0.46999998093E+01 0. -1.
</event>
<event>
 5   0  0.1231822E-01  0.4088484E+03  0.7818609E-02  0.1040758E+00
       -2   -1    0    0    0  501  0.00000000000E+00  0.00000000000E+00  0.35310329561E+02  0.35310329653E+02  0.25500000920E-02 0.  1.
        2   -1    0    0  501    0  0.00000000000E+00  0.00000000000E+00 -0.11834852059E+04  0.11834852059E+04  0.25500000920E-02 0. -1.
    10030    2    1    2    0    0  0.00000000000E+00  0.00000000000E+00 -0.11481748763E+04  0.12187955356E+04  0.40884839591E+03 0.  0.
        1    1    3    3  502    0  0.89635546342E+02  0.18117846005E+03 -0.48322240736E+03  0.52379772867E+03  0.50400001928E-02 0.  1.
       -1    1    3    3    0  502 -0.89635546342E+02 -0.18117846005E+03 -0.66495246899E+03  0.69499780690E+03  0.50400001928E-02 0. -1.
</event>
<event>
 5   0  0.1211345E-01  0.5006988E+03  0.7818609E-02  0.1013597E+00
       -2   -1    0    0    0  501  0.00000000000E+00  0.00000000000E+00  0.75694620172E+02  0.75694620215E+02  0.25500000920E-02 0. -1.
        2   -1    0    0  501    0  0.00000000000E+00  0.00000000000E+00 -0.82799565755E+03  0.82799565756E+03  0.25500000920E-02 0.  1.
    10030    2    1    2    0    0  0.00000000000E+00  0.00000000000E+00 -0.75230103738E+03  0.90369027777E+03  0.50069877900E+03 0.  0.
        5    1    3    3  502    0 -0.12905260285E+03 -0.11536746604E+03 -0.70246817702E+03  0.72349696354E+03  0.46999998093E+01 0.  1.
       -5    1    3    3    0  502  0.12905260285E+03  0.11536746604E+03 -0.49832860355E+02  0.18019331423E+03  0.46999998093E+01 0. -1.
</event>
<event>
 5   0  0.1231822E-01  0.4985471E+03  0.7818609E-02  0.1014159E+00
        2   -1    0    0  501    0  0.00000000000E+00  0.00000000000E+00  0.14081146267E+03  0.14081146269E+03  0.25500000920E-02 0. -1.
       -2   -1    0    0    0  501  0.00000000000E+00  0.00000000000E+00 -0.44128018441E+03  0.44128018442E+03  0.25500000920E-02 0.  1.
    10030    2    1    2    0    0  0.00000000000E+00  0.00000000000E+00 -0.30046872174E+03  0.58209164711E+03  0.49854712204E+03 0.  0.
        1    1    3    3  502    0  0.74849985126E+01  0.44186643580E+02  0.13606904012E+03  0.14325944429E+03  0.50400001928E-02 0. -1.
       -1    1    3    3    0  502 -0.74849985126E+01 -0.44186643580E+02 -0.43653776186E+03  0.43883220282E+03  0.50400001928E-02 0.  1.
</event>
<event>
 5   0  0.7812547E-02  0.5063146E+03  0.7818609E-02  0.1012144E+00
        1   -1    0    0  501    0  0.00000000000E+00  0.00000000000E+00  0.25609038839E+03  0.25609038844E+03  0.50400001928E-02 0. -1.
       -1   -1    0    0    0  501  0.00000000000E+00  0.00000000000E+00 -0.25025785225E+03  0.25025785230E+03  0.50400001928E-02 0.  1.
    10030    2    1    2    0    0  0.00000000000E+00  0.00000000000E+00  0.58325361382E+01  0.50634824074E+03  0.50631464764E+03 0.  0.
        4    1    3    3  502    0  0.12409601871E+03  0.16375314914E+03 -0.14498574151E+03  0.25147046319E+03  0.12699999809E+01 0.  1.
       -4    1    3    3    0  502 -0.12409601871E+03 -0.16375314914E+03  0.15081827765E+03  0.25487777755E+03  0.12699999809E+01 0. -1.
</event>
<event>
 5   0  0.7531632E-02  0.5001153E+03  0.7818609E-02  0.1013749E+00
       -1   -1    0    0    0  501  0.00000000000E+00  0.00000000000E+00  0.10029211266E+03  0.10029211279E+03  0.50400001928E-02 0.  1.
        1   -1    0    0  501    0  0.00000000000E+00  0.00000000000E+00 -0.62346715452E+03  0.62346715454E+03  0.50400001928E-02 0. -1.
    10030    2    1    2    0    0  0.00000000000E+00  0.00000000000E+00 -0.52317504186E+03  0.72375926733E+03  0.50011533932E+03 0.  0.
        3    1    3    3  502    0  0.39237023298E+02  0.20096304178E+03 -0.46931342944E+03  0.51203592981E+03  0.10100000352E+00 0. -1.
       -3    1    3    3    0  502 -0.39237023298E+02 -0.20096304178E+03 -0.53861612422E+02  0.21172333753E+03  0.10100000352E+00 0.  1.
</event>
<event>
 5   0  0.1231822E-01  0.4760225E+03  0.7818609E-02  0.1020234E+00
        2   -1    0    0  501    0  0.00000000000E+00  0.00000000000E+00  0.14958946957E+04  0.14958946957E+04  0.25500000920E-02 0.  1.
       -2   -1    0    0    0  501  0.00000000000E+00  0.00000000000E+00 -0.37869887272E+02  0.37869887358E+02  0.25500000920E-02 0. -1.
    10030    2    1    2    0    0  0.00000000000E+00  0.00000000000E+00  0.14580248084E+04  0.15337645830E+04  0.47602253544E+03 0.  0.
        1    1    3    3  502    0  0.25751752035E+02 -0.18507657982E+03  0.25401663978E+03  0.31534258583E+03  0.50400001928E-02 0. -1.
       -1    1    3    3    0  502 -0.25751752035E+02  0.18507657982E+03  0.12040081686E+04  0.12184219972E+04  0.50400001928E-02 0.  1.
</event>
<event>
 5   0  0.7781754E-02  0.4913468E+03  0.7818609E-02  0.1016063E+00
        1   -1    0    0  501    0  0.00000000000E+00  0.00000000000E+00  0.97789329898E+02  0.97789330028E+02  0.50400001928E-02 0.  1.
       -1   -1    0    0    0  501  0.00000000000E+00  0.00000000000E+00 -0.61719831960E+03  0.61719831962E+03  0.50400001928E-02 0. -1.
    10030    2    1    2    0    0  0.00000000000E+00  0.00000000000E+00 -0.51940898970E+03  0.71498764964E+03  0.49134676204E+03 0.  0.
        2    1    3    3  502    0 -0.20727927690E+03  0.90882651815E+02 -0.39875447251E+03  0.45850788912E+03  0.25500000920E-02 0. -1.
       -2    1    3    3    0  502  0.20727927690E+03 -0.90882651815E+02 -0.12065451719E+03  0.25647976052E+03  0.25500000920E-02 0.  1.
</event>
<event>
 5   0  0.1279188E-01  0.5039375E+03  0.7818609E-02  0.1012756E+00
        2   -1    0    0  501    0  0.00000000000E+00  0.00000000000E+00  0.28617316620E+03  0.28617316621E+03  0.25500000920E-02 0.  1.
       -2   -1    0    0    0  501  0.00000000000E+00  0.00000000000E+00 -0.22185254032E+03  0.22185254033E+03  0.25500000920E-02 0. -1.
    10030    2    1    2    0    0  0.00000000000E+00  0.00000000000E+00  0.64320625879E+02  0.50802570654E+03  0.50393747191E+03 0.  0.
        2    1    3    3  502    0  0.17649762794E+03  0.20387304893E+02 -0.14795414090E+03  0.23120874267E+03  0.25500000920E-02 0. -1.
       -2    1    3    3    0  502 -0.17649762794E+03 -0.20387304893E+02  0.21227476678E+03  0.27681696387E+03  0.25500000920E-02 0.  1.
</event>
<event>
 5   0  0.7812547E-02  0.4966582E+03  0.7818609E-02  0.1014655E+00
       -1   -1    0    0    0  501  0.00000000000E+00  0.00000000000E+00  0.23530067081E+03  0.23530067087E+03  0.50400001928E-02 0.  1.
        1   -1    0    0  501    0  0.00000000000E+00  0.00000000000E+00 -0.26207892147E+03  0.26207892152E+03  0.50400001928E-02 0. -1.
    10030    2    1    2    0    0  0.00000000000E+00  0.00000000000E+00 -0.26778250658E+02  0.49737959239E+03  0.49665821670E+03 0.  0.
        4    1    3    3  502    0 -0.10629745342E+03  0.13535532500E+03  0.16588350994E+03  0.23903799777E+03  0.12699999809E+01 0.  1.
       -4    1    3    3    0  502  0.10629745342E+03 -0.13535532500E+03 -0.19266176060E+03  0.25834159461E+03  0.12699999809E+01 0. -1.
</event>
<event>
 5   0  0.1211345E-01  0.4949739E+03  0.7818609E-02  0.1015099E+00
        2   -1    0    0  501    0  0.00000000000E+00  0.00000000000E+00  0.14283685257E+04  0.14283685257E+04  0.25500000920E-02 0. -1.
       -2   -1    0    0    0  501  0.00000000000E+00  0.00000000000E+00 -0.42880938976E+02  0.42880939051E+02  0.25500000920E-02 0.  1.
    10030    2    1    2    0    0  0.00000000000E+00  0.00000000000E+00  0.13854875867E+04  0.14712494647E+04  0.49497387261E+03 0.  0.
        5    1    3    3  502    0  0.21177886829E+02  0.43035669310E+02  0.14142858629E+04  0.14151067676E+04  0.46999998093E+01 0. -1.
       -5    1    3    3    0  502 -0.21177886829E+02 -0.43035669310E+02 -0.28798276239E+02  0.56142697086E+02  0.46999998093E+01 0.  1.
</event>
<event>
 5   0  0.7812547E-02  0.5018512E+03  0.7818609E-02  0.1013297E+00
       -1   -1    0    0    0  501  0.00000000000E+00  0.00000000000E+00  0.10166666516E+03  0.10166666528E+03  0.50400001928E-02 0.  1.
        1   -1    0    0  501    0  0.00000000000E+00  0.00000000000E+00 -0.61931456763E+03  0.61931456765E+03  0.50400001928E-02 0. -1.
    10030    2    1    2    0    0  0.00000000000E+00  0.00000000000E+00 -0.51764790247E+03  0.72098123293E+03  0.50185116052E+03 0.  0.
        4    1    3    3  502    0  0.74406846908E+02 -0.72538302364E+02  0.69296911751E+02  0.12490740192E+03  0.12699999809E+01 0.  1.
       -4    1    3    3    0  502 -0.74406846908E+02  0.72538302364E+02 -0.58694481422E+03  0.59607383101E+03  0.12699999809E+01 0. -1.
</event>
<event>
 5   0  0.1231822E-01  0.5034578E+03  0.7818609E-02  0.1012880E+00
       -2   -1    0    0    0  501  0.00000000000E+00  0.00000000000E+00  0.80784846852E+02  0.80784846892E+02  0.25500000920E-02 0.  1.
        2   -1    0    0  501    0  0.00000000000E+00  0.00000000000E+00 -0.78439770757E+03  0.78439770757E+03  0.25500000920E-02 0. -1.
    10030    2    1    2    0    0  0.00000000000E+00  0.00000000000E+00 -0.70361286071E+03  0.86518255446E+03  0.50345783814E+03 0.  0.
        1    1    3    3  502    0  0.24969114614E+01  0.18777200882E+03 -0.63989107757E+03  0.66687716488E+03  0.50400001928E-02 0. -1.
       -1    1    3    3    0  502 -0.24969114614E+01 -0.18777200882E+03 -0.63721783143E+02  0.19830538958E+03  0.50400001928E-02 0.  1.
</event>
<event>
 5   0  0.7781754E-02  0.4711238E+03  0.7818609E-02  0.1021604E+00
       -1   -1    0    0    0  501  0.00000000000E+00  0.00000000000E+00  0.20597538929E+03  0.20597538935E+03  0.50400001928E-02 0.  1.
        1   -1    0    0  501    0  0.00000000000E+00  0.00000000000E+00 -0.26939825720E+03  0.26939825724E+03  0.50400001928E-02 0. -1.
    10030    2    1    2    0    0  0.00000000000E+00  0.00000000000E+00 -0.63422867908E+02  0.47537364659E+03  0.47112380931E+03 0.  0.
        2    1    3    3  502    0  0.88663694423E+02 -0.52400840665E+02  0.18205408814E+03  0.20916689467E+03  0.25500000920E-02 0.  1.
       -2    1    3    3    0  502 -0.88663694423E+02  0.52400840665E+02 -0.24547695605E+03  0.26620675192E+03  0.25500000920E-02 0. -1.
</event>
<event>
 5   0  0.5006750E-02  0.5008471E+03  0.7818609E-02  0.1013558E+00
       -4   -1    0    0    0  501  0.00000000000E+00  0.00000000000E+00  0.47253365391E+03  0.47253536056E+03  0.12699999809E+01 0. -1.
        4   -1    0    0  501    0  0.00000000000E+00  0.00000000000E+00 -0.13270928873E+03  0.13271536541E+03  0.12699999809E+01 0.  1.
    10030    2    1    2    0    0  0.00000000000E+00  0.00000000000E+00  0.33982436518E+03  0.60525072597E+03  0.50084712450E+03 0.  0.
        3    1    3    3  502    0  0.63737185072E-02  0.21562194889E+03  0.32381403626E+03  0.38903517214E+03  0.10100000352E+00 0. -1.
       -3    1    3    3    0  502 -0.63737185072E-02 -0.21562194889E+03  0.16010328916E+02  0.21621555383E+03  0.10100000352E+00 0.  1.
</event>
<event>
 5   0  0.7531632E-02  0.5001070E+03  0.7818609E-02  0.1013751E+00
       -1   -1    0    0    0  501  0.00000000000E+00  0.00000000000E+00  0.14825418902E+04  0.14825418902E+04  0.50400001928E-02 0.  1.
        1   -1    0    0  501    0  0.00000000000E+00  0.00000000000E+00 -0.42175364452E+02  0.42175364753E+02  0.50400001928E-02 0. -1.
    10030    2    1    2    0    0  0.00000000000E+00  0.00000000000E+00  0.14403665257E+04  0.15247172549E+04  0.50010696763E+03 0.  0.
        3    1    3    3  502    0 -0.86863665761E+01  0.11604607022E+03  0.45412659998E+02  0.12491782606E+03  0.10100000352E+00 0. -1.
       -3    1    3    3    0  502  0.86863665761E+01 -0.11604607022E+03  0.13949538657E+04  0.13997994289E+04  0.10100000352E+00 0.  1.
</event>
<event>
 5   0  0.7602288E-02  0.5060531E+03  0.7818609E-02  0.1012211E+00
       -1   -1    0    0    0  501  0.00000000000E+00  0.00000000000E+00  0.62576107511E+02  0.62576107714E+02  0.50400001928E-02 0.  1.
        1   -1    0    0  501    0  0.00000000000E+00  0.00000000000E+00 -0.10231129363E+04  0.10231129363E+04  0.50400001928E-02 0. -1.
    10030    2    1    2    0    0  0.00000000000E+00  0.00000000000E+00 -0.96053682875E+03  0.10856890440E+04  0.50605306130E+03 0.  0.
        5    1    3    3  502    0 -0.13755142438E+03 -0.20039745290E+03 -0.32977159123E+03  0.40969613845E+03  0.46999998093E+01 0.  1.
       -5    1    3    3    0  502  0.13755142438E+03  0.20039745290E+03 -0.63076523752E+03  0.67599290554E+03  0.46999998093E+01 0. -1.
</event>
<event>
 5   0  0.7812547E-02  0.5002573E+03  0.7818609E-02  0.1013712E+00
        1   -1    0    0  501    0  0.00000000000E+00  0.00000000000E+00  0.10473714761E+04  0.10473714762E+04  0.50400001928E-02 0. -1.
       -1   -1    0    0    0  501  0.00000000000E+00  0.00000000000E+00 -0.59734613397E+02  0.59734613609E+02  0.50400001928E-02 0.  1.
    10030    2    1    2    0    0  0.00000000000E+00  0.00000000000E+00  0.98763686275E+03  0.11071060898E+04  0.50025725516E+03 0.  0.
        4    1    3    3  502    0 -0.13047830629E+03 -0.16326525270E+03  0.79792554745E+03  0.82484357507E+03  0.12699999809E+01 0.  1.
       -4    1    3    3    0  502  0.13047830629E+03  0.16326525270E+03  0.18971131530E+03  0.28226251470E+03  0.12699999809E+01 0. -1.
</event>
<event>
 5   0  0.1243803E-01  0.5035224E+03  0.7818609E-02  0.1012864E+00
        2   -1    0    0  501    0  0.00000000000E+00  0.00000000000E+00  0.19063546431E+04  0.19063546431E+04  0.25500000920E-02 0. -1.
       -2   -1    0    0    0  501  0.00000000000E+00  0.00000000000E+00 -0.33248635492E+02  0.33248635590E+02  0.25500000920E-02 0.  1.
    10030    2    1    2    0    0  0.00000000000E+00  0.00000000000E+00  0.18731060076E+04  0.19396032787E+04  0.50352235599E+03 0.  0.
        4    1    3    3  502    0  0.63113126918E+02 -0.20292557817E+03  0.14565113885E+04  0.14719337943E+04  0.12699999809E+01 0. -1.
       -4    1    3    3    0  502 -0.63113126918E+02  0.20292557817E+03  0.41659461911E+03  0.46766948439E+03  0.12699999809E+01 0.  1.
</event>
<event>
 5   0  0.1231822E-01  0.4838491E+03  0.7818609E-02  0.1018083E+00
        2   -1    0    0  501    0  0.00000000000E+00  0.00000000000E+00  0.16287206972E+04  0.16287206972E+04  0.25500000920E-02 0. -1.
       -2   -1    0    0    0  501  0.00000000000E+00  0.00000000000E+00 -0.35934632272E+02  0.35934632362E+02  0.25500000920E-02 0.  1.
    10030    2    1    2    0    0  0.00000000000E+00  0.00000000000E+00  0.15927860649E+04  0.16646553295E+04  0.48384906491E+03 0.  0.
        1    1    3    3  502    0  0.18252060974E+03 -0.21184297207E+02  0.25497466007E+03  0.31428430558E+03  0.50400001928E-02 0.  1.
       -1    1    3    3    0  502 -0.18252060974E+03  0.21184297207E+02  0.13378114048E+04  0.13503710240E+04  0.50400001928E-02 0. -1.
</event>
<event>
 5   0  0.1211345E-01  0.5022791E+03  0.7818609E-02  0.1013186E+00
       -2   -1    0    0    0  501  0.00000000000E+00  0.00000000000E+00  0.44812730288E+02  0.44812730361E+02  0.25500000920E-02 0.  1.
        2   -1    0    0  501    0  0.00000000000E+00  0.00000000000E+00 -0.14074364146E+04  0.14074364146E+04  0.25500000920E-02 0. -1.
    10030    2    1    2    0    0  0.00000000000E+00  0.00000000000E+00 -0.13626236843E+04  0.14522491449E+04  0.50227907979E+03 0.  0.
        5    1    3    3  502    0  0.31878418472E+02 -0.19330482266E+03 -0.22721830673E+03  0.30005538979E+03  0.46999998093E+01 0.  1.
       -5    1    3    3    0  502 -0.31878418472E+02  0.19330482266E+03 -0.11354053775E+04  0.11521937551E+04  0.46999998093E+01 0. -1.
</event>
<event>
 5   0  0.1279188E-01  0.5006547E+03  0.7818609E-02  0.1013608E+00
       -2   -1    0    0    0  501  0.00000000000E+00  0.00000000000E+00  0.16414750186E+03  0.16414750188E+03  0.25500000920E-02 0.  1.
        2   -1    0    0  501    0  0.00000000000E+00  0.00000000000E+00 -0.38175283593E+03  0.38175283594E+03  0.25500000920E-02 0. -1.
    10030    2    1    2    0    0  0.00000000000E+00  0.00000000000E+00 -0.21760533407E+03  0.54590033783E+03  0.50065466883E+03 0.  0.
        2    1    3    3  502    0 -0.27362368639E+02 -0.62924433609E+01  0.16242524710E+03  0.16483402247E+03  0.25500000920E-02 0.  1.
       -2    1    3    3    0  502  0.27362368639E+02  0.62924433609E+01 -0.38003058118E+03  0.38106631535E+03  0.25500000920E-02 0. -1.
</event>
<event>
 5   0  0.5006750E-02  0.5020488E+03  0.7818609E-02  0.1013246E+00
       -4   -1    0    0    0  501  0.00000000000E+00  0.00000000000E+00  0.31532188664E+03  0.31532444418E+03  0.12699999809E+01 0.  1.
        4   -1    0    0  501    0  0.00000000000E+00  0.00000000000E+00 -0.19983249888E+03  0.19983653447E+03  0.12699999809E+01 0. -1.
    10030    2    1    2    0    0  0.00000000000E+00  0.00000000000E+00  0.11548938777E+03  0.51516097864E+03  0.50204883750E+03 0.  0.
        3    1    3    3  502    0 -0.93812072033E+02  0.15837174065E+03  0.23288020318E+03  0.29684257163E+03  0.10100000352E+00 0.  1.
       -3    1    3    3    0  502  0.93812072033E+02 -0.15837174065E+03 -0.11739081541E+03  0.21831840701E+03  0.10100000352E+00 0. -1.
</event>
<event>
 5   0  0.7416638E-02  0.4910814E+03  0.7818609E-02  0.1016133E+00
        1   -1    0    0  501    0  0.00000000000E+00  0.00000000000E+00  0.61952660848E+03  0.61952660850E+03  0.50400001928E-02 0. -1.
       -1   -1    0    0    0  501  0.00000000000E+00  0.00000000000E+00 -0.97316621003E+02  0.97316621133E+02  0.50400001928E-02 0.  1.
    10030    2    1    2    0    0  0.00000000000E+00  0.00000000000E+00  0.52220998747E+03  0.71684322963E+03  0.49108140349E+03 0.  0.
        1    1    3    3  502    0 -0.21924428004E+02 -0.13903471216E+03 -0.32582243947E+02  0.14447468420E+03  0.50400001928E-02 0.  1.
       -1    1    3    3    0  502  0.21924428004E+02  0.13903471216E+03  0.55479223142E+03  0.57236854543E+03  0.50400001928E-02 0. -1.
</event>
<event>
 5   0  0.1211345E-01  0.4978074E+03  0.7818609E-02  0.1014353E+00
        2   -1    0    0  501    0  0.00000000000E+00  0.00000000000E+00  0.15885564473E+04  0.15885564473E+04  0.25500000920E-02 0. -1.
       -2   -1    0    0    0  501  0.00000000000E+00  0.00000000000E+00 -0.38999594726E+02  0.38999594809E+02  0.25500000920E-02 0.  1.
    10030    2    1    2    0    0  0.00000000000E+00  0.00000000000E+00  0.15495568526E+04  0.16275560421E+04  0.49780742346E+03 0.  0.
        5    1    3    3  502    0 -0.11007734755E+03  0.14638458348E+03  0.13256151032E+04  0.13382163354E+04  0.46999998093E+01 0. -1.
       -5    1    3    3    0  502  0.11007734755E+03 -0.14638458348E+03  0.22394174941E+03  0.28933970666E+03  0.46999998093E+01 0.  1.
</event>
<event>
 5   0  0.1231822E-01  0.5028957E+03  0.7818609E-02  0.1013026E+00
        2   -1    0    0  501    0  0.00000000000E+00  0.00000000000E+00  0.32995277409E+03  0.32995277410E+03  0.25500000920E-02 0.  1.
       -2   -1    0    0    0  501  0.00000000000E+00  0.00000000000E+00 -0.19162142079E+03  0.19162142081E+03  0.25500000920E-02 0. -1.
    10030    2    1    2    0    0  0.00000000000E+00  0.00000000000E+00  0.13833135329E+03  0.52157419490E+03  0.50289569245E+03 0.  0.
        1    1    3    3  502    0 -0.81159436414E+02 -0.23293004979E+03  0.11979219598E+03  0.27421420907E+03  0.50400001928E-02 0.  1.
       -1    1    3    3    0  502  0.81159436414E+02  0.23293004979E+03  0.18539157316E+02  0.24735998583E+03  0.50400001928E-02 0. -1.
</event>
<event>
 5   0  0.7602288E-02  0.5044419E+03  0.7818609E-02  0.1012626E+00
       -1   -1    0    0    0  501  0.00000000000E+00  0.00000000000E+00  0.16268925221E+03  0.16268925229E+03  0.50400001928E-02 0. -1.
        1   -1    0    0  501    0  0.00000000000E+00  0.00000000000E+00 -0.39102407117E+03  0.39102407120E+03  0.50400001928E-02 0.  1.
    10030    2    1    2    0    0  0.00000000000E+00  0.00000000000E+00 -0.22833481896E+03  0.55371332349E+03  0.50444192437E+03 0.  0.
        5    1    3    3  502    0  0.23213124936E+03  0.36204691845E+02 -0.21475678070E+03  0.31833671088E+03  0.46999998093E+01 0.  1.
       -5    1    3    3    0  502 -0.23213124936E+03 -0.36204691845E+02 -0.13578038264E+02  0.23537661261E+03  0.46999998093E+01 0. -1.
</event>
<event>
 5   0  0.7416638E-02  0.4895061E+03  0.7818609E-02  0.1016555E+00
        1   -1    0    0  501    0  0.00000000000E+00  0.00000000000E+00  0.18765373990E+04  0.18765373990E+04  0.50400001928E-02 0. -1.
       -1   -1    0    0    0  501  0.00000000000E+00  0.00000000000E+00 -0.31922650682E+02  0.31922651080E+02  0.50400001928E-02 0.  1.
    10030    2    1    2    0    0  0.00000000000E+00  0.00000000000E+00  0.18446147484E+04  0.19084600501E+04  0.48950607052E+03 0.  0.
        1    1    3    3  502    0  0.17496781872E+03 -0.12377473155E+03  0.46149390954E+03  0.50883253663E+03  0.50400001928E-02 0.  1.
       -1    1    3    3    0  502 -0.17496781872E+03  0.12377473155E+03  0.13831208388E+04  0.13996275135E+04  0.50400001928E-02 0. -1.
</event>
<event>
 5   0  0.1211345E-01  0.4989014E+03  0.7818609E-02  0.1014066E+00
       -2   -1    0    0    0  501  0.00000000000E+00  0.00000000000E+00  0.46481147015E+02  0.46481147085E+02  0.25500000920E-02 0.  1.
        2   -1    0    0  501    0  0.00000000000E+00  0.00000000000E+00 -0.13387285850E+04  0.13387285850E+04  0.25500000920E-02 0. -1.
    10030    2    1    2    0    0  0.00000000000E+00  0.00000000000E+00 -0.12922474380E+04  0.13852097321E+04  0.49890135387E+03 0.  0.
        5    1    3    3  502    0 -0.90695250658E+02 -0.10386452544E+03 -0.12231463762E+04  0.12309031708E+04  0.46999998093E+01 0. -1.
       -5    1    3    3    0  502  0.90695250658E+02  0.10386452544E+03 -0.69101061788E+02  0.15430656135E+03  0.46999998093E+01 0.  1.
</event>
<event>
 5   0  0.7531632E-02  0.5025515E+03  0.7818609E-02  0.1013115E+00
        1   -1    0    0  501    0  0.00000000000E+00  0.00000000000E+00  0.17433600353E+04  0.17433600353E+04  0.50400001928E-02 0. -1.
       -1   -1    0    0    0  501  0.00000000000E+00  0.00000000000E+00 -0.36217126300E+02  0.36217126651E+02  0.50400001928E-02 0.  1.
    10030    2    1    2    0    0  0.00000000000E+00  0.00000000000E+00  0.17071429090E+04  0.17795771620E+04  0.50255145370E+03 0.  0.
        3    1    3    3  502    0  0.82462278966E+02  0.47711241278E+02  0.30217216859E+02  0.99947388122E+02  0.10100000352E+00 0.  1.
       -3    1    3    3    0  502 -0.82462278966E+02 -0.47711241278E+02  0.16769256922E+04  0.16796297739E+04  0.10100000352E+00 0. -1.
</event>
<event>
 5   0  0.1211345E-01  0.4966967E+03  0.7818609E-02  0.1014645E+00
       -2   -1    0    0    0  501  0.00000000000E+00  0.00000000000E+00  0.20284901416E+03  0.20284901418E+03  0.25500000920E-02 0.  1.
        2   -1    0    0  501    0  0.00000000000E+00  0.00000000000E+00 -0.30405322782E+03  0.30405322783E+03  0.25500000920E-02 0. -1.
    10030    2    1    2    0    0  0.00000000000E+00  0.00000000000E+00 -0.10120421366E+03  0.50690224201E+03  0.49669667816E+03 0.  0.
        5    1    3    3  502    0 -0.16945903125E+03  0.17802676891E+03 -0.14593808490E+02  0.24626198035E+03  0.46999998093E+01 0.  1.
       -5    1    3    3    0  502  0.16945903125E+03 -0.17802676891E+03 -0.86610405169E+02  0.26064026167E+03  0.46999998093E+01 0. -1.
</event>
<event>
 5   0  0.7781754E-02  0.4980637E+03  0.7818609E-02  0.1014286E+00
        1   -1    0    0  501    0  0.00000000000E+00  0.00000000000E+00  0.30079377912E+03  0.30079377916E+03  0.50400001928E-02 0.  1.
       -1   -1    0    0    0  501  0.00000000000E+00  0.00000000000E+00 -0.20617732455E+03  0.20617732461E+03  0.50400001928E-02 0. -1.
    10030    2    1    2    0    0  0.00000000000E+00  0.00000000000E+00  0.94616454573E+02  0.50697110377E+03  0.49806367724E+03 0.  0.
        2    1    3    3  502    0  0.77314820433E+01  0.23905859935E+03 -0.23272086764E+02  0.24031308697E+03  0.25500000920E-02 0.  1.
       -2    1    3    3    0  502 -0.77314820433E+01 -0.23905859935E+03  0.11788854134E+03  0.26665801680E+03  0.25500000920E-02 0. -1.
</event>
<event>
 5   0  0.1231822E-01  0.4607787E+03  0.7818609E-02  0.1024556E+00
        2   -1    0    0  501    0  0.00000000000E+00  0.00000000000E+00  0.77447741524E+02  0.77447741566E+02  0.25500000920E-02 0. -1.
       -2   -1    0    0    0  501  0.00000000000E+00  0.00000000000E+00 -0.68535576763E+03  0.68535576764E+03  0.25500000920E-02 0.  1.
    10030    2    1    2    0    0  0.00000000000E+00  0.00000000000E+00 -0.60790802611E+03  0.76280350920E+03  0.46077871635E+03 0.  0.
        1    1    3    3  502    0 -0.19917057683E+02  0.16543582672E+03 -0.40565496036E+02  0.17149711789E+03  0.50400001928E-02 0. -1.
       -1    1    3    3    0  502  0.19917057683E+02 -0.16543582672E+03 -0.56734253008E+03  0.59130639131E+03  0.50400001928E-02 0.  1.
</event>
<event>
 5   0  0.5006750E-02  0.4982128E+03  0.7818609E-02  0.1014246E+00
       -4   -1    0    0    0  501  0.00000000000E+00  0.00000000000E+00  0.29066752582E+03  0.29067030028E+03  0.12699999809E+01 0. -1.
        4   -1    0    0  501    0  0.00000000000E+00  0.00000000000E+00 -0.21348223010E+03  0.21348600767E+03  0.12699999809E+01 0.  1.
    10030    2    1    2    0    0  0.00000000000E+00  0.00000000000E+00  0.77185295715E+02  0.50415630795E+03  0.49821281895E+03 0.  0.
        5    1    3    3  502    0  0.13015033172E+03 -0.35108072004E+02  0.25051938348E+03  0.28452370211E+03  0.46999998093E+01 0. -1.
       -5    1    3    3    0  502 -0.13015033172E+03  0.35108072004E+02 -0.17333408776E+03  0.21963260583E+03  0.46999998093E+01 0.  1.
</event>
<event>
 5   0  0.5006750E-02  0.5048722E+03  0.7818609E-02  0.1012515E+00
        3   -1    0    0  501    0  0.00000000000E+00  0.00000000000E+00  0.19156897860E+03  0.19156900522E+03  0.10100000352E+00 0.  1.
       -3   -1    0    0    0  501  0.00000000000E+00  0.00000000000E+00 -0.33264246010E+03  0.33264247543E+03  0.10100000352E+00 0. -1.
    10030    2    1    2    0    0  0.00000000000E+00  0.00000000000E+00 -0.14107348150E+03  0.52421148065E+03  0.50487221083E+03 0.  0.
        3    1    3    3  502    0 -0.26846320100E+02 -0.11137410873E+03  0.16302208662E+03  0.19925141888E+03  0.10100000352E+00 0.  1.
       -3    1    3    3    0  502  0.26846320100E+02  0.11137410873E+03 -0.30409556812E+03  0.32496006177E+03  0.10100000352E+00 0. -1.
</event>
<event>
 5   0  0.1243803E-01  0.4453085E+03  0.7818609E-02  0.1029130E+00
       -2   -1    0    0    0  501  0.00000000000E+00  0.00000000000E+00  0.25330978857E+03  0.25330978858E+03  0.25500000920E-02 0. -1.
        2   -1    0    0  501    0  0.00000000000E+00  0.00000000000E+00 -0.19570866391E+03  0.19570866393E+03  0.25500000920E-02 0.  1.
    10030    2    1    2    0    0  0.00000000000E+00  0.00000000000E+00  0.57601124656E+02  0.44901845251E+03  0.44530852353E+03 0.  0.
        4    1    3    3  502    0  0.12371657396E+03 -0.16799913156E+02  0.21468738522E+03  0.24835521743E+03  0.12699999809E+01 0. -1.
       -4    1    3    3    0  502 -0.12371657396E+03  0.16799913156E+02 -0.15708626056E+03  0.20066323508E+03  0.12699999809E+01 0.  1.
</event>
<event>
 5   0  0.7781754E-02  0.4996374E+03  0.7818609E-02  0.1013874E+00
        1   -1    0    0  501    0  0.00000000000E+00  0.00000000000E+00  0.17738181980E+04  0.17738181980E+04  0.50400001928E-02 0. -1.
       -1   -1    0    0    0  501  0.00000000000E+00  0.00000000000E+00 -0.35183638664E+02  0.35183639025E+02  0.50400001928E-02 0.  1.
    10030    2    1    2    0    0  0.00000000000E+00  0.00000000000E+00  0.17386345593E+04  0.18090018370E+04  0.49963738398E+03 0.  0.
        2    1    3    3  502    0  0.23153650944E+03 -0.36674668423E+02  0.55669961913E+03  0.60404358490E+03  0.25500000920E-02 0.  1.
       -2    1    3    3    0  502 -0.23153650944E+03  0.36674668423E+02  0.11819349402E+04  0.12049582521E+04  0.25500000920E-02 0. -1.
</event>
<event>
 5   0  0.5006750E-02  0.5069727E+03  0.7818609E-02  0.1011975E+00
       -4   -1    0    0    0  501  0.00000000000E+00  0.00000000000E+00  0.19949530383E+03  0.19949934624E+03  0.12699999809E+01 0. -1.
        4   -1    0    0  501    0  0.00000000000E+00  0.00000000000E+00 -0.32208083048E+03  0.32208333434E+03  0.12699999809E+01 0.  1.
    10030    2    1    2    0    0  0.00000000000E+00  0.00000000000E+00 -0.12258552665E+03  0.52158268059E+03  0.50697266331E+03 0.  0.
        4    1    3    3  502    0  0.13271684808E+03  0.53959926461E+02 -0.27643207645E+03  0.31135468717E+03  0.12699999809E+01 0.  1.
       -4    1    3    3    0  502 -0.13271684808E+03 -0.53959926461E+02  0.15384654981E+03  0.21022799342E+03  0.12699999809E+01 0. -1.
</event>
<event>
 5   0  0.7531632E-02  0.5000381E+03  0.7818609E-02  0.1013769E+00
        1   -1    0    0  501    0  0.00000000000E+00  0.00000000000E+00  0.85032713710E+03  0.85032713712E+03  0.50400001928E-02 0. -1.
       -1   -1    0    0    0  501  0.00000000000E+00  0.00000000000E+00 -0.73512318887E+02  0.73512319060E+02  0.50400001928E-02 0.  1.
    10030    2    1    2    0    0  0.00000000000E+00  0.00000000000E+00  0.77681481822E+03  0.92383945618E+03  0.50003807754E+03 0.  0.
        3    1    3    3  502    0 -0.47782811880E+02  0.92628475557E+02 -0.31460752785E+02  0.10887157922E+03  0.10100000352E+00 0.  1.
       -3    1    3    3    0  502  0.47782811880E+02 -0.92628475557E+02  0.80827557100E+03  0.81496787696E+03  0.10100000352E+00 0. -1.
</event>
<event>
 5   0  0.7781754E-02  0.4983404E+03  0.7818609E-02  0.1014213E+00
       -1   -1    0    0    0  501  0.00000000000E+00  0.00000000000E+00  0.30032855915E+03  0.30032855919E+03  0.50400001928E-02 0. -1.
        1   -1    0    0  501    0  0.00000000000E+00  0.00000000000E+00 -0.20672618820E+03  0.20672618826E+03  0.50400001928E-02 0.  1.
    10030    2    1    2    0    0  0.00000000000E+00  0.00000000000E+00  0.93602370956E+02  0.50705474745E+03  0.49834035866E+03 0.  0.
        2    1    3    3  502    0  0.23564774145E+03  0.64655337052E+02 -0.27913309685E+01  0.24437258887E+03  0.25500000920E-02 0.  1.
       -2    1    3    3    0  502 -0.23564774145E+03 -0.64655337052E+02  0.96393701924E+02  0.26268215858E+03  0.25500000920E-02 0. -1.
</event>
<event>
 5   0  0.7416638E-02  0.5027472E+03  0.7818609E-02  0.1013064E+00
       -1   -1    0    0    0  501  0.00000000000E+00  0.00000000000E+00  0.21690831520E+03  0.21690831526E+03  0.50400001928E-02 0. -1.
        1   -1    0    0  501    0  0.00000000000E+00  0.00000000000E+00 -0.29131516085E+03  0.29131516089E+03  0.50400001928E-02 0.  1.
    10030    2    1    2    0    0  0.00000000000E+00  0.00000000000E+00 -0.74406845643E+02  0.50822347615E+03  0.50274717606E+03 0.  0.
        1    1    3    3  502    0  0.12383123524E+02  0.19000121429E+03 -0.20310961104E+03  0.27840136010E+03  0.50400001928E-02 0.  1.
       -1    1    3    3    0  502 -0.12383123524E+02 -0.19000121429E+03  0.12870276540E+03  0.22982211605E+03  0.50400001928E-02 0. -1.
</event>
<event>
 5   0  0.7531632E-02  0.4995246E+03  0.7818609E-02  0.1013903E+00
        1   -1    0    0  501    0  0.00000000000E+00  0.00000000000E+00  0.70575962509E+03  0.70575962511E+03  0.50400001928E-02 0. -1.
       -1   -1    0    0    0  501  0.00000000000E+00  0.00000000000E+00 -0.88388759771E+02  0.88388759915E+02  0.50400001928E-02 0.  1.
    10030    2    1    2    0    0  0.00000000000E+00  0.00000000000E+00  0.61737086532E+03  0.79414838503E+03  0.49952464613E+03 0.  0.
        3    1    3    3  502    0 -0.16484020066E+03 -0.14259207090E+03  0.11477824231E+03  0.24633076451E+03  0.10100000352E+00 0.  1.
       -3    1    3    3    0  502  0.16484020066E+03  0.14259207090E+03  0.50259262302E+03  0.54781762052E+03  0.10100000352E+00 0. -1.
</event>
<event>
 5   0  0.7602288E-02  0.4973760E+03  0.7818609E-02  0.1014466E+00
        1   -1    0    0  501    0  0.00000000000E+00  0.00000000000E+00  0.26236066021E+03  0.26236066025E+03  0.50400001928E-02 0. -1.
       -1   -1    0    0    0  501  0.00000000000E+00  0.00000000000E+00 -0.23572791175E+03  0.23572791180E+03  0.50400001928E-02 0.  1.
    10030    2    1    2    0    0  0.00000000000E+00  0.00000000000E+00  0.26632748457E+02  0.49808857206E+03  0.49737603714E+03 0.  0.
        5    1    3    3  502    0  0.81565424258E+02 -0.21218585112E+03 -0.87564659872E+02  0.24365018675E+03  0.46999998093E+01 0.  1.
       -5    1    3    3    0  502 -0.81565424258E+02  0.21218585112E+03  0.11419740833E+03  0.25443838530E+03  0.46999998093E+01 0. -1.
</event>
<event>
 5   0  0.7602288E-02  0.5000614E+03  0.7818609E-02  0.1013763E+00
       -1   -1    0    0    0  501  0.00000000000E+00  0.00000000000E+00  0.28105451733E+03  0.28105451737E+03  0.50400001928E-02 0.  1.
        1   -1    0    0  501    0  0.00000000000E+00  0.00000000000E+00 -0.22243143042E+03  0.22243143048E+03  0.50400001928E-02 0. -1.
    10030    2    1    2    0    0  0.00000000000E+00  0.00000000000E+00  0.58623086909E+02  0.50348594785E+03  0.50006142959E+03 0.  0.
        5    1    3    3  502    0 -0.97047196280E+02 -0.14929543963E+03  0.20597246827E+03  0.27231238364E+03  0.46999998093E+01 0.  1.
       -5    1    3    3    0  502  0.97047196280E+02  0.14929543963E+03 -0.14734938136E+03  0.23117356420E+03  0.46999998093E+01 0. -1.
</event>
<event>
 5   0  0.1243803E-01  0.5034300E+03  0.7818609E-02  0.1012887E+00
        2   -1    0    0  501    0  0.00000000000E+00  0.00000000000E+00  0.10813738999E+04  0.10813738999E+04  0.25500000920E-02 0. -1.
       -2   -1    0    0    0  501  0.00000000000E+00  0.00000000000E+00 -0.58592537284E+02  0.58592537339E+02  0.25500000920E-02 0.  1.
    10030    2    1    2    0    0  0.00000000000E+00  0.00000000000E+00  0.10227813626E+04  0.11399664372E+04  0.50342999743E+03 0.  0.
        4    1    3    3  502    0 -0.16106432909E+03  0.10421803615E+03  0.88039541548E+03  0.90105539101E+03  0.12699999809E+01 0. -1.
       -4    1    3    3    0  502  0.16106432909E+03 -0.10421803615E+03  0.14238594709E+03  0.23891104619E+03  0.12699999809E+01 0.  1.
</event>
<event>
 5   0  0.7812547E-02  0.4951063E+03  0.7818609E-02  0.1015064E+00
        1   -1    0    0  501    0  0.00000000000E+00  0.00000000000E+00  0.75501018615E+03  0.75501018617E+03  0.50400001928E-02 0.  1.
       -1   -1    0    0    0  501  0.00000000000E+00  0.00000000000E+00 -0.81167866469E+02  0.81167866625E+02  0.50400001928E-02 0. -1.
    10030    2    1    2    0    0  0.00000000000E+00  0.00000000000E+00  0.67384231968E+03  0.83617805279E+03  0.49510631603E+03 0.  0.
        4    1    3    3  502    0 -0.23841996399E+03 -0.30974641899E+02  0.23732778196E+03  0.33783072190E+03  0.12699999809E+01 0. -1.
       -4    1    3    3    0  502  0.23841996399E+03  0.30974641899E+02  0.43651453772E+03  0.49834733089E+03  0.12699999809E+01 0.  1.
</event>
<event>
 5   0  0.1191894E-01  0.5118173E+03  0.7818609E-02  0.1010740E+00
        2   -1    0    0  501    0  0.00000000000E+00  0.00000000000E+00  0.10489079161E+03  0.10489079164E+03  0.25500000920E-02 0. -1.
       -2   -1    0    0    0  501  0.00000000000E+00  0.00000000000E+00 -0.62435632454E+03  0.62435632454E+03  0.25500000920E-02 0.  1.
    10030    2    1    2    0    0  0.00000000000E+00  0.00000000000E+00 -0.51946553293E+03  0.72924711619E+03  0.51181726873E+03 0.  0.
        3    1    3    3  502    0 -0.10977230564E+03 -0.22466570566E+03 -0.18215426015E+03  0.30936196126E+03  0.10100000352E+00 0. -1.
       -3    1    3    3    0  502  0.10977230564E+03  0.22466570566E+03 -0.33731127278E+03  0.41988515493E+03  0.10100000352E+00 0.  1.
</event>
<event>
 5   0  0.5006750E-02  0.5130590E+03  0.7818609E-02  0.1010425E+00
        3   -1    0    0  501    0  0.00000000000E+00  0.00000000000E+00  0.18111714907E+03  0.18111717723E+03  0.10100000352E+00 0.  1.
       -3   -1    0    0    0  501  0.00000000000E+00  0.00000000000E+00 -0.36334148944E+03  0.36334150348E+03  0.10100000352E+00 0. -1.
    10030    2    1    2    0    0  0.00000000000E+00  0.00000000000E+00 -0.18222434037E+03  0.54445868072E+03  0.51305900712E+03 0.  0.
        3    1    3    3  502    0  0.33652513348E+02  0.43407260458E+02  0.17480430902E+03  0.18323001546E+03  0.10100000352E+00 0.  1.
       -3    1    3    3    0  502 -0.33652513348E+02 -0.43407260458E+02 -0.35702864939E+03  0.36122866525E+03  0.10100000352E+00 0. -1.
</event>
<event>
 5   0  0.1231822E-01  0.5011746E+03  0.7818609E-02  0.1013473E+00
       -2   -1    0    0    0  501  0.00000000000E+00  0.00000000000E+00  0.60639045416E+02  0.60639045469E+02  0.25500000920E-02 0.  1.
        2   -1    0    0  501    0  0.00000000000E+00  0.00000000000E+00 -0.10355373553E+04  0.10355373553E+04  0.25500000920E-02 0. -1.
    10030    2    1    2    0    0  0.00000000000E+00  0.00000000000E+00 -0.97489830991E+03  0.10961764008E+04  0.50117460730E+03 0.  0.
        1    1    3    3  502    0  0.19677951625E+03  0.14372370411E+03 -0.61527150832E+03  0.66176862280E+03  0.50400001928E-02 0. -1.
       -1    1    3    3    0  502 -0.19677951625E+03 -0.14372370411E+03 -0.35962680159E+03  0.43440777800E+03  0.50400001928E-02 0.  1.
</event>
<event>
 5   0  0.7781754E-02  0.4996596E+03  0.7818609E-02  0.1013868E+00
        1   -1    0    0  501    0  0.00000000000E+00  0.00000000000E+00  0.23671337052E+03  0.23671337057E+03  0.50400001928E-02 0.  1.
       -1   -1    0    0    0  501  0.00000000000E+00  0.00000000000E+00 -0.26367306584E+03  0.26367306589E+03  0.50400001928E-02 0. -1.
    10030    2    1    2    0    0  0.00000000000E+00  0.00000000000E+00 -0.26959695319E+02  0.50038643646E+03  0.49965964478E+03 0.  0.
        2    1    3    3  502    0 -0.46800457816E+01  0.63302754717E+02 -0.25546285320E+03  0.26323071810E+03  0.25500000920E-02 0. -1.
       -2    1    3    3    0  502  0.46800457816E+01 -0.63302754717E+02  0.22850315788E+03  0.23715571836E+03  0.25500000920E-02 0.  1.
</event>
<event>
 5   0  0.1231822E-01  0.4860659E+03  0.7818609E-02  0.1017481E+00
       -2   -1    0    0    0  501  0.00000000000E+00  0.00000000000E+00  0.72006083128E+02  0.72006083173E+02  0.25500000920E-02 0.  1.
        2   -1    0    0  501    0  0.00000000000E+00  0.00000000000E+00 -0.82027808554E+03  0.82027808555E+03  0.25500000920E-02 0. -1.
    10030    2    1    2    0    0  0.00000000000E+00  0.00000000000E+00 -0.74827200242E+03  0.89228416872E+03  0.48606588869E+03 0.  0.
        1    1    3    3  502    0 -0.24163210210E+03 -0.13292088637E+02 -0.33299525374E+03  0.41164133834E+03  0.50400001928E-02 0. -1.
       -1    1    3    3    0  502  0.24163210210E+03  0.13292088637E+02 -0.41527674867E+03  0.48064283038E+03  0.50400001928E-02 0.  1.
</event>
<event>
 5   0  0.1191894E-01  0.4958825E+03  0.7818609E-02  0.1014859E+00
        2   -1    0    0  501    0  0.00000000000E+00  0.00000000000E+00  0.36536547453E+03  0.36536547453E+03  0.25500000920E-02 0. -1.
       -2   -1    0    0    0  501  0.00000000000E+00  0.00000000000E+00 -0.16825581695E+03  0.16825581697E+03  0.25500000920E-02 0.  1.
    10030    2    1    2    0    0  0.00000000000E+00  0.00000000000E+00  0.19710965758E+03  0.53362129150E+03  0.49588251192E+03 0.  0.
        3    1    3    3  502    0 -0.20221955488E+03  0.50548029753E+02  0.24303762596E+03  0.32017987057E+03  0.10100000352E+00 0. -1.
       -3    1    3    3    0  502  0.20221955488E+03 -0.50548029753E+02 -0.45927968380E+02  0.21344142093E+03  0.10100000352E+00 0.  1.
</event>
<event>
 5   0  0.7781754E-02  0.4968092E+03  0.7818609E-02  0.1014615E+00
        1   -1    0    0  501    0  0.00000000000E+00  0.00000000000E+00  0.53063873099E+03  0.53063873102E+03  0.50400001928E-02 0. -1.
       -1   -1    0    0    0  501  0.00000000000E+00  0.00000000000E+00 -0.11628407385E+03  0.11628407396E+03  0.50400001928E-02 0.  1.
    10030    2    1    2    0    0  0.00000000000E+00  0.00000000000E+00  0.41435465715E+03  0.64692280497E+03  0.49680915219E+03 0.  0.
        2    1    3    3  502    0  0.12314630219E+03  0.15083658790E+03  0.40801406964E+03  0.45209752159E+03  0.25500000920E-02 0. -1.
       -2    1    3    3    0  502 -0.12314630219E+03 -0.15083658790E+03  0.63405875036E+01  0.19482528339E+03  0.25500000920E-02 0.  1.
</event>
<event>
 5   0  0.1191894E-01  0.4955635E+03  0.7818609E-02  0.1014943E+00
       -2   -1    0    0    0  501  0.00000000000E+00  0.00000000000E+00  0.10794888836E+03  0.10794888839E+03  0.25500000920E-02 0.  1.
        2   -1    0    0  501    0  0.00000000000E+00  0.00000000000E+00 -0.56874877710E+03  0.56874877711E+03  0.25500000920E-02 0. -1.
    10030    2    1    2    0    0  0.00000000000E+00  0.00000000000E+00 -0.46079988875E+03  0.67669766550E+03  0.49556351058E+03 0.  0.
        3    1    3    3  502    0  0.15363427339E+03 -0.19075058840E+03 -0.28161137894E+03  0.37322145690E+03  0.10100000352E+00 0. -1.
       -3    1    3    3    0  502 -0.15363427339E+03  0.19075058840E+03 -0.17918850981E+03  0.30347620860E+03  0.10100000352E+00 0.  1.
</event>
<event>
 5   0  0.7812547E-02  0.4936304E+03  0.7818609E-02  0.1015455E+00
       -1   -1    0    0    0  501  0.00000000000E+00  0.00000000000E+00  0.36740616370E+02  0.36740616715E+02  0.50400001928E-02 0. -1.
        1   -1    0    0  501    0  0.00000000000E+00  0.00000000000E+00 -0.16580490577E+04  0.16580490577E+04  0.50400001928E-02 0.  1.
    10030    2    1    2    0    0  0.00000000000E+00  0.00000000000E+00 -0.16213084413E+04  0.16947896744E+04  0.49363040688E+03 0.  0.
        4    1    3    3  502    0  0.29183981560E+02 -0.81969393685E+02 -0.17673591213E+02  0.88795579885E+02  0.12699999809E+01 0. -1.
       -4    1    3    3    0  502 -0.29183981560E+02  0.81969393685E+02 -0.16036348501E+04  0.16059940945E+04  0.12699999809E+01 0.  1.
</event>
<event>
 5   0  0.5006750E-02  0.4901085E+03  0.7818609E-02  0.1016393E+00
       -4   -1    0    0    0  501  0.00000000000E+00  0.00000000000E+00  0.62819417985E+03  0.62819546361E+03  0.12699999809E+01 0. -1.
        4   -1    0    0  501    0  0.00000000000E+00  0.00000000000E+00 -0.95588376753E+02  0.95596813076E+02  0.12699999809E+01 0.  1.
    10030    2    1    2    0    0  0.00000000000E+00  0.00000000000E+00  0.53260580310E+03  0.72379227669E+03  0.49010847605E+03 0.  0.
        1    1    3    3  502    0  0.11124648340E+03  0.71270959623E+02 -0.38491800510E+02  0.13761158558E+03  0.50400001928E-02 0.  1.
       -1    1    3    3    0  502 -0.11124648340E+03 -0.71270959623E+02  0.57109760361E+03  0.58618069111E+03  0.50400001928E-02 0. -1.
</event>
<event>
 5   0  0.7812547E-02  0.4968197E+03  0.7818609E-02  0.1014612E+00
        1   -1    0    0  501    0  0.00000000000E+00  0.00000000000E+00  0.25153795968E+03  0.25153795973E+03  0.50400001928E-02 0. -1.
       -1   -1    0    0    0  501  0.00000000000E+00  0.00000000000E+00 -0.24532061807E+03  0.24532061812E+03  0.50400001928E-02 0.  1.
    10030    2    1    2    0    0  0.00000000000E+00  0.00000000000E+00  0.62173416148E+01  0.49685857786E+03  0.49681967659E+03 0.  0.
        4    1    3    3  502    0  0.44016133915E+02  0.86812993683E+01  0.24744941285E+03  0.25148679851E+03  0.12699999809E+01 0. -1.
       -4    1    3    3    0  502 -0.44016133915E+02 -0.86812993683E+01 -0.24123207124E+03  0.24537177934E+03  0.12699999809E+01 0.  1.
</event>
<event>
 5   0  0.1231822E-01  0.5188956E+03  0.7818609E-02  0.1008961E+00
       -2   -1    0    0    0  501  0.00000000000E+00  0.00000000000E+00  0.15252581248E+03  0.15252581250E+03  0.25500000920E-02 0.  1.
        2   -1    0    0  501    0  0.00000000000E+00  0.00000000000E+00 -0.44132309747E+03  0.44132309747E+03  0.25500000920E-02 0. -1.
    10030    2    1    2    0    0  0.00000000000E+00  0.00000000000E+00 -0.28879728499E+03  0.59384890997E+03  0.51889561191E+03 0.  0.
        1    1    3    3  502    0  0.21651514754E+03 -0.12961041501E+03 -0.75394088487E+02  0.26336654570E+03  0.50400001928E-02 0.  1.
       -1    1    3    3    0  502 -0.21651514754E+03  0.12961041501E+03 -0.21340319650E+03  0.33048236427E+03  0.50400001928E-02 0. -1.
</event>
<event>
 5   0  0.7416638E-02  0.5107260E+03  0.7818609E-02  0.1011017E+00
       -1   -1    0    0    0  501  0.00000000000E+00  0.00000000000E+00  0.19072835184E+03  0.19072835191E+03  0.50400001928E-02 0. -1.
        1   -1    0    0  501    0  0.00000000000E+00  0.00000000000E+00 -0.34190126828E+03  0.34190126831E+03  0.50400001928E-02 0.  1.
    10030    2    1    2    0    0  0.00000000000E+00  0.00000000000E+00 -0.15117291643E+03  0.53262962022E+03  0.51072601429E+03 0.  0.
        1    1    3    3  502    0 -0.15394443156E+03  0.22317741602E+02  0.13561634103E+03  0.20637044745E+03  0.50400001928E-02 0. -1.
       -1    1    3    3    0  502  0.15394443156E+03 -0.22317741602E+02 -0.28678925746E+03  0.32625917278E+03  0.50400001928E-02 0.  1.
</event>
<event>
 5   0  0.7781754E-02  0.5016175E+03  0.7818609E-02  0.1013358E+00
       -1   -1    0    0    0  501  0.00000000000E+00  0.00000000000E+00  0.72398287737E+02  0.72398287913E+02  0.50400001928E-02 0. -1.
        1   -1    0    0  501    0  0.00000000000E+00  0.00000000000E+00 -0.86887445316E+03  0.86887445317E+03  0.50400001928E-02 0.  1.
    10030    2    1    2    0    0  0.00000000000E+00  0.00000000000E+00 -0.79647616542E+03  0.94127274109E+03  0.50161747480E+03 0.  0.
        2    1    3    3  502    0 -0.10065437418E+03  0.22047520499E+03 -0.51933113764E+03  0.57310160494E+03  0.25500000920E-02 0.  1.
       -2    1    3    3    0  502  0.10065437418E+03 -0.22047520499E+03 -0.27714502778E+03  0.36817113614E+03  0.25500000920E-02 0. -1.
</event>
<event>
 5   0  0.1279188E-01  0.5007213E+03  0.7818609E-02  0.1013591E+00
       -2   -1    0    0    0  501  0.00000000000E+00  0.00000000000E+00  0.14814706995E+03  0.14814706998E+03  0.25500000920E-02 0.  1.
        2   -1    0    0  501    0  0.00000000000E+00  0.00000000000E+00 -0.42309616003E+03  0.42309616003E+03  0.25500000920E-02 0. -1.
    10030    2    1    2    0    0  0.00000000000E+00  0.00000000000E+00 -0.27494909007E+03  0.57124323001E+03  0.50072130542E+03 0.  0.
        2    1    3    3  502    0 -0.95532089422E+02 -0.12248871762E+03  0.86521583372E+02  0.17780846563E+03  0.25500000920E-02 0.  1.
       -2    1    3    3    0  502  0.95532089422E+02  0.12248871762E+03 -0.36147067344E+03  0.39343476438E+03  0.25500000920E-02 0. -1.
</event>
<event>
 5   0  0.1279188E-01  0.4982299E+03  0.7818609E-02  0.1014242E+00
       -2   -1    0    0    0  501  0.00000000000E+00  0.00000000000E+00  0.11381933752E+03  0.11381933755E+03  0.25500000920E-02 0. -1.
        2   -1    0    0  501    0  0.00000000000E+00  0.00000000000E+00 -0.54523480959E+03  0.54523480959E+03  0.25500000920E-02 0.  1.
    10030    2    1    2    0    0  0.00000000000E+00  0.00000000000E+00 -0.43141547207E+03  0.65905414714E+03  0.49822992617E+03 0.  0.
        2    1    3    3  502    0  0.29578810266E+02 -0.20723640606E+02 -0.54175332639E+03  0.54295583794E+03  0.25500000920E-02 0.  1.
       -2    1    3    3    0  502 -0.29578810266E+02  0.20723640606E+02  0.11033785432E+03  0.11609830920E+03  0.25500000920E-02 0. -1.
</event>
<event>
 5   0  0.1211345E-01  0.4946785E+03  0.7818609E-02  0.1015177E+00
        2   -1    0    0  501    0  0.00000000000E+00  0.00000000000E+00  0.12093064086E+03  0.12093064088E+03  0.25500000920E-02 0.  1.
       -2   -1    0    0    0  501  0.00000000000E+00  0.00000000000E+00 -0.50588267506E+03  0.50588267507E+03  0.25500000920E-02 0. -1.
    10030    2    1    2    0    0  0.00000000000E+00  0.00000000000E+00 -0.38495203420E+03  0.62681331595E+03  0.49467854655E+03 0.  0.
        5    1    3    3  502    0 -0.18115625235E+03 -0.18941974542E+02  0.19470035813E+02  0.18324180325E+03  0.46999998093E+01 0.  1.
       -5    1    3    3    0  502  0.18115625235E+03  0.18941974542E+02 -0.40442207002E+03  0.44357151270E+03  0.46999998093E+01 0. -1.
</event>
<event>
 5   0  0.1231822E-01  0.4954540E+03  0.7818609E-02  0.1014972E+00
        2   -1    0    0  501    0  0.00000000000E+00  0.00000000000E+00  0.49578594908E+03  0.49578594908E+03  0.25500000920E-02 0. -1.
       -2   -1    0    0    0  501  0.00000000000E+00  0.00000000000E+00 -0.12378057048E+03  0.12378057050E+03  0.25500000920E-02 0.  1.
    10030    2    1    2    0    0  0.00000000000E+00  0.00000000000E+00  0.37200537860E+03  0.61956651958E+03  0.49545400441E+03 0.  0.
        1    1    3    3  502    0  0.14944942467E+03 -0.10498935332E+03 -0.23286667524E+02  0.18411997109E+03  0.50400001928E-02 0.  1.
       -1    1    3    3    0  502 -0.14944942467E+03  0.10498935332E+03  0.39529204612E+03  0.43544654850E+03  0.50400001928E-02 0. -1.
</event>
<event>
 5   0  0.7416638E-02  0.5073651E+03  0.7818609E-02  0.1011874E+00
        1   -1    0    0  501    0  0.00000000000E+00  0.00000000000E+00  0.75740914396E+03  0.75740914398E+03  0.50400001928E-02 0. -1.
       -1   -1    0    0    0  501  0.00000000000E+00  0.00000000000E+00 -0.84967082684E+02  0.84967082833E+02  0.50400001928E-02 0.  1.
    10030    2    1    2    0    0  0.00000000000E+00  0.00000000000E+00  0.67244206128E+03  0.84237622681E+03  0.50736513649E+03 0.  0.
        1    1    3    3  502    0  0.12920192136E+03  0.38122364271E+02  0.69312051376E+03  0.70608958197E+03  0.50400001928E-02 0. -1.
       -1    1    3    3    0  502 -0.12920192136E+03 -0.38122364271E+02 -0.20678452484E+02  0.13628664484E+03  0.50400001928E-02 0.  1.
</event>
<event>
 5   0  0.1243803E-01  0.5103523E+03  0.7818609E-02  0.1011112E+00
        2   -1    0    0  501    0  0.00000000000E+00  0.00000000000E+00  0.19030271767E+04  0.19030271767E+04  0.25500000920E-02 0.  1.
       -2   -1    0    0    0  501  0.00000000000E+00  0.00000000000E+00 -0.34216462832E+02  0.34216462927E+02  0.25500000920E-02 0. -1.
    10030    2    1    2    0    0  0.00000000000E+00  0.00000000000E+00  0.18688107139E+04  0.19372436397E+04  0.51035226562E+03 0.  0.
        4    1    3    3  502    0  0.15529585980E+02 -0.15354779792E+03  0.16303360833E+03  0.22449869628E+03  0.12699999809E+01 0. -1.
       -4    1    3    3    0  502 -0.15529585980E+02  0.15354779792E+03  0.17057771056E+04  0.17127449434E+04  0.12699999809E+01 0.  1.
</event>
<event>
 5   0  0.1211345E-01  0.4991384E+03  0.7818609E-02  0.1014004E+00
        2   -1    0    0  501    0  0.00000000000E+00  0.00000000000E+00  0.30435543313E+03  0.30435543314E+03  0.25500000920E-02 0. -1.
       -2   -1    0    0    0  501  0.00000000000E+00  0.00000000000E+00 -0.20464490396E+03  0.20464490397E+03  0.25500000920E-02 0.  1.
    10030    2    1    2    0    0  0.00000000000E+00  0.00000000000E+00  0.99710529173E+02  0.50900033711E+03  0.49913841122E+03 0.  0.
        5    1    3    3  502    0  0.66585858608E+02 -0.58941951189E+02 -0.18789242283E+03  0.20792662824E+03  0.46999998093E+01 0.  1.
       -5    1    3    3    0  502 -0.66585858608E+02  0.58941951189E+02  0.28760295200E+03  0.30107370887E+03  0.46999998093E+01 0. -1.
</event>
<event>
 5   0  0.1191894E-01  0.5033113E+03  0.7818609E-02  0.1012918E+00
        2   -1    0    0  501    0  0.00000000000E+00  0.00000000000E+00  0.10494352396E+04  0.10494352396E+04  0.25500000920E-02 0.  1.
       -2   -1    0    0    0  501  0.00000000000E+00  0.00000000000E+00 -0.60347274500E+02  0.60347274554E+02  0.25500000920E-02 0. -1.
    10030    2    1    2    0    0  0.00000000000E+00  0.00000000000E+00  0.98908796509E+03  0.11097825141E+04  0.50331126157E+03 0.  0.
        3    1    3    3  502    0  0.13671083870E+02  0.11697093752E+03  0.98492611864E+03  0.99194181691E+03  0.10100000352E+00 0.  1.
       -3    1    3    3    0  502 -0.13671083870E+02 -0.11697093752E+03  0.41618464509E+01  0.11784069724E+03  0.10100000352E+00 0. -1.
</event>
<event>
 5   0  0.7416638E-02  0.5214918E+03  0.7818609E-02  0.1008317E+00
        1   -1    0    0  501    0  0.00000000000E+00  0.00000000000E+00  0.11834248502E+03  0.11834248513E+03  0.50400001928E-02 0. -1.
       -1   -1    0    0    0  501  0.00000000000E+00  0.00000000000E+00 -0.57450566049E+03  0.57450566051E+03  0.50400001928E-02 0.  1.
    10030    2    1    2    0    0  0.00000000000E+00  0.00000000000E+00 -0.45616317547E+03  0.69284814564E+03  0.52149181227E+03 0.  0.
        1    1    3    3  502    0 -0.25501476256E+01 -0.22489936605E+03 -0.52817621488E+02  0.23103231217E+03  0.50400001928E-02 0.  1.
       -1    1    3    3    0  502  0.25501476256E+01  0.22489936605E+03 -0.40334555398E+03  0.46181583347E+03  0.50400001928E-02 0. -1.
</event>
<event>
 5   0  0.5006750E-02  0.5004111E+03  0.7818609E-02  0.1013672E+00
       -4   -1    0    0    0  501  0.00000000000E+00  0.00000000000E+00  0.11821839506E+03  0.11822521656E+03  0.12699999809E+01 0. -1.
        4   -1    0    0  501    0  0.00000000000E+00  0.00000000000E+00 -0.52952930222E+03  0.52953082518E+03  0.12699999809E+01 0.  1.
    10030    2    1    2    0    0  0.00000000000E+00  0.00000000000E+00 -0.41131090716E+03  0.64775604174E+03  0.50041105829E+03 0.  0.
        4    1    3    3  502    0 -0.16302365508E+03  0.91124534276E+02  0.98644886970E+01  0.18702757524E+03  0.12699999809E+01 0. -1.
       -4    1    3    3    0  502  0.16302365508E+03 -0.91124534276E+02 -0.42117539586E+03  0.46072846649E+03  0.12699999809E+01 0.  1.
</event>
<event>
 5   0  0.7781754E-02  0.5005061E+03  0.7818609E-02  0.1013647E+00
       -1   -1    0    0    0  501  0.00000000000E+00  0.00000000000E+00  0.17356497281E+03  0.17356497288E+03  0.50400001928E-02 0.  1.
        1   -1    0    0  501    0  0.00000000000E+00  0.00000000000E+00 -0.36082503897E+03  0.36082503901E+03  0.50400001928E-02 0. -1.
    10030    2    1    2    0    0  0.00000000000E+00  0.00000000000E+00 -0.18726006616E+03  0.53439001189E+03  0.50050609629E+03 0.  0.
        2    1    3    3  502    0 -0.15221652028E+03 -0.17412075623E+03 -0.19569829674E+03  0.30296159847E+03  0.25500000920E-02 0. -1.
       -2    1    3    3    0  502  0.15221652028E+03  0.17412075623E+03  0.84382305760E+01  0.23142841342E+03  0.25500000920E-02 0.  1.
</event>
<event>
 5   0  0.1279188E-01  0.4940311E+03  0.7818609E-02  0.1015349E+00
        2   -1    0    0  501    0  0.00000000000E+00  0.00000000000E+00  0.99735866758E+03  0.99735866758E+03  0.25500000920E-02 0. -1.
       -2   -1    0    0    0  501  0.00000000000E+00  0.00000000000E+00 -0.61178264594E+02  0.61178264647E+02  0.25500000920E-02 0.  1.
    10030    2    1    2    0    0  0.00000000000E+00  0.00000000000E+00  0.93618040298E+03  0.10585369322E+04  0.49403106173E+03 0.  0.
        2    1    3    3  502    0 -0.43859023797E+02 -0.20263717837E+03  0.18037390220E+03  0.27480936052E+03  0.25500000920E-02 0.  1.
       -2    1    3    3    0  502  0.43859023797E+02  0.20263717837E+03  0.75580650078E+03  0.78372757171E+03  0.25500000920E-02 0. -1.
</event>
<event>
 5   0  0.1243803E-01  0.4961212E+03  0.7818609E-02  0.1014796E+00
       -2   -1    0    0    0  501  0.00000000000E+00  0.00000000000E+00  0.34446036030E+02  0.34446036124E+02  0.25500000920E-02 0.  1.
        2   -1    0    0  501    0  0.00000000000E+00  0.00000000000E+00 -0.17863903427E+04  0.17863903427E+04  0.25500000920E-02 0. -1.
    10030    2    1    2    0    0  0.00000000000E+00  0.00000000000E+00 -0.17519443067E+04  0.18208363788E+04  0.49612121985E+03 0.  0.
        4    1    3    3  502    0  0.11108837876E+02 -0.24697556911E+03 -0.95047836420E+03  0.98210542801E+03  0.12699999809E+01 0. -1.
       -4    1    3    3    0  502 -0.11108837876E+02  0.24697556911E+03 -0.80146594248E+03  0.83873095083E+03  0.12699999809E+01 0.  1.
</event>
<event>
 5   0  0.1211345E-01  0.5030366E+03  0.7818609E-02  0.1012989E+00
       -2   -1    0    0    0  501  0.00000000000E+00  0.00000000000E+00  0.40828759774E+02  0.40828759854E+02  0.25500000920E-02 0.  1.
        2   -1    0    0  501    0  0.00000000000E+00  0.00000000000E+00 -0.15494333825E+04  0.15494333825E+04  0.25500000920E-02 0. -1.
    10030    2    1    2    0    0  0.00000000000E+00  0.00000000000E+00 -0.15086046227E+04  0.15902621423E+04  0.50303655304E+03 0.  0.
        5    1    3    3  502    0  0.15665242729E+03  0.19457929514E+03 -0.84583173163E+03  0.88196059623E+03  0.46999998093E+01 0. -1.
       -5    1    3    3    0  502 -0.15665242729E+03 -0.19457929514E+03 -0.66277289106E+03  0.70830154609E+03  0.46999998093E+01 0.  1.
</event>
<event>
 5   0  0.7812547E-02  0.5004466E+03  0.7818609E-02  0.1013662E+00
       -1   -1    0    0    0  501  0.00000000000E+00  0.00000000000E+00  0.21460228859E+03  0.21460228865E+03  0.50400001928E-02 0. -1.
        1   -1    0    0  501    0  0.00000000000E+00  0.00000000000E+00 -0.29175692446E+03  0.29175692451E+03  0.50400001928E-02 0.  1.
    10030    2    1    2    0    0  0.00000000000E+00  0.00000000000E+00 -0.77154635875E+02  0.50635921316E+03  0.50044661545E+03 0.  0.
        4    1    3    3  502    0 -0.24655344126E+03  0.22635046387E+02 -0.19677149906E+01  0.24760135203E+03  0.12699999809E+01 0. -1.
       -4    1    3    3    0  502  0.24655344126E+03 -0.22635046387E+02 -0.75186920884E+02  0.25875786113E+03  0.12699999809E+01 0.  1.
</event>
<event>
 5   0  0.7812547E-02  0.4924397E+03  0.7818609E-02  0.1015771E+00
        1   -1    0    0  501    0  0.00000000000E+00  0.00000000000E+00  0.90099035311E+03  0.90099035312E+03  0.50400001928E-02 0.  1.
       -1   -1    0    0    0  501  0.00000000000E+00  0.00000000000E+00 -0.67286206371E+02  0.67286206560E+02  0.50400001928E-02 0. -1.
    10030    2    1    2    0    0  0.00000000000E+00  0.00000000000E+00  0.83370414674E+03  0.96827655968E+03  0.49243973412E+03 0.  0.
        4    1    3    3  502    0 -0.15874928519E+02  0.73531531835E+02 -0.44130334516E+02  0.87223843379E+02  0.12699999809E+01 0. -1.
       -4    1    3    3    0  502  0.15874928519E+02 -0.73531531835E+02  0.87783448125E+03  0.88105271630E+03  0.12699999809E+01 0.  1.
</event>
<event>
 5   0  0.1279188E-01  0.4956660E+03  0.7818609E-02  0.1014916E+00
       -2   -1    0    0    0  501  0.00000000000E+00  0.00000000000E+00  0.14466501775E+03  0.14466501777E+03  0.25500000920E-02 0. -1.
        2   -1    0    0  501    0  0.00000000000E+00  0.00000000000E+00 -0.42457526453E+03  0.42457526454E+03  0.25500000920E-02 0.  1.
    10030    2    1    2    0    0  0.00000000000E+00  0.00000000000E+00 -0.27991024678E+03  0.56924028232E+03  0.49566596893E+03 0.  0.
        2    1    3    3  502    0  0.92180996869E+02  0.22373922729E+03 -0.78488509709E+02  0.25439540911E+03  0.25500000920E-02 0.  1.
       -2    1    3    3    0  502 -0.92180996869E+02 -0.22373922729E+03 -0.20142173707E+03  0.31484487321E+03  0.25500000920E-02 0. -1.
</event>
<event>
 5   0  0.1231822E-01  0.4936039E+03  0.7818609E-02  0.1015462E+00
        2   -1    0    0  501    0  0.00000000000E+00  0.00000000000E+00  0.19354591774E+03  0.19354591776E+03  0.25500000920E-02 0. -1.
       -2   -1    0    0    0  501  0.00000000000E+00  0.00000000000E+00 -0.31471193406E+03  0.31471193407E+03  0.25500000920E-02 0.  1.
    10030    2    1    2    0    0  0.00000000000E+00  0.00000000000E+00 -0.12116601632E+03  0.50825785183E+03  0.49360393074E+03 0.  0.
        1    1    3    3  502    0  0.87244113989E+02 -0.16326009950E+03  0.10749851993E+03  0.21405916782E+03  0.50400001928E-02 0. -1.
       -1    1    3    3    0  502 -0.87244113989E+02  0.16326009950E+03 -0.22866453624E+03  0.29419868401E+03  0.50400001928E-02 0.  1.
</event>
<event>
 5   0  0.1231822E-01  0.5037911E+03  0.7818609E-02  0.1012794E+00
       -2   -1    0    0    0  501  0.00000000000E+00  0.00000000000E+00  0.67331834322E+02  0.67331834370E+02  0.25500000920E-02 0. -1.
        2   -1    0    0  501    0  0.00000000000E+00  0.00000000000E+00 -0.94236787506E+03  0.94236787507E+03  0.25500000920E-02 0.  1.
    10030    2    1    2    0    0  0.00000000000E+00  0.00000000000E+00 -0.87503604074E+03  0.10096997094E+04  0.50379105852E+03 0.  0.
        1    1    3    3  502    0 -0.15152685019E+03 -0.13407036479E+03 -0.13677992611E+03  0.24422120558E+03  0.50400001928E-02 0. -1.
       -1    1    3    3    0  502  0.15152685019E+03  0.13407036479E+03 -0.73825611464E+03  0.76547850386E+03  0.50400001928E-02 0.  1.
</event>
<event>
 5   0  0.5006750E-02  0.4901480E+03  0.7818609E-02  0.1016383E+00
       -4   -1    0    0    0  501  0.00000000000E+00  0.00000000000E+00  0.59490074083E+03  0.59490209643E+03  0.12699999809E+01 0. -1.
        4   -1    0    0  501    0  0.00000000000E+00  0.00000000000E+00 -0.10095468140E+03  0.10096266932E+03  0.12699999809E+01 0.  1.
    10030    2    1    2    0    0  0.00000000000E+00  0.00000000000E+00  0.49394605943E+03  0.69586476575E+03  0.49014800069E+03 0.  0.
        3    1    3    3  502    0  0.19328903318E+03  0.10204835746E+03  0.89605217366E+02  0.23622790434E+03  0.10100000352E+00 0.  1.
       -3    1    3    3    0  502 -0.19328903318E+03 -0.10204835746E+03  0.40434084207E+03  0.45963686141E+03  0.10100000352E+00 0. -1.
</event>
<event>
 5   0  0.1211345E-01  0.4993349E+03  0.7818609E-02  0.1013953E+00
        2   -1    0    0  501    0  0.00000000000E+00  0.00000000000E+00  0.52587899200E+03  0.52587899200E+03  0.25500000920E-02 0.  1.
       -2   -1    0    0    0  501  0.00000000000E+00  0.00000000000E+00 -0.11853266358E+03  0.11853266361E+03  0.25500000920E-02 0. -1.
    10030    2    1    2    0    0  0.00000000000E+00  0.00000000000E+00  0.40734632841E+03  0.64441165561E+03  0.49933490827E+03 0.  0.
        5    1    3    3  502    0 -0.38204704615E+02  0.15266176412E+03 -0.46393836198E+02  0.16413315239E+03  0.46999998093E+01 0. -1.
       -5    1    3    3    0  502  0.38204704615E+02 -0.15266176412E+03  0.45374016461E+03  0.48027850322E+03  0.46999998093E+01 0.  1.
</event>
<event>
 5   0  0.7812547E-02  0.5124693E+03  0.7818609E-02  0.1010575E+00
        1   -1    0    0  501    0  0.00000000000E+00  0.00000000000E+00  0.10101174701E+04  0.10101174701E+04  0.50400001928E-02 0. -1.
       -1   -1    0    0    0  501  0.00000000000E+00  0.00000000000E+00 -0.64998585758E+02  0.64998585954E+02  0.50400001928E-02 0.  1.
    10030    2    1    2    0    0  0.00000000000E+00  0.00000000000E+00  0.94511888436E+03  0.10751160561E+04  0.51246934394E+03 0.  0.
        4    1    3    3  502    0  0.19148584755E+03 -0.80582658804E+02  0.78720581398E+03  0.81415907609E+03  0.12699999809E+01 0. -1.
       -4    1    3    3    0  502 -0.19148584755E+03  0.80582658804E+02  0.15791307038E+03  0.26095698000E+03  0.12699999809E+01 0.  1.
</event>
<event>
 5   0  0.7416638E-02  0.5177560E+03  0.7818609E-02  0.1009246E+00
       -1   -1    0    0    0  501  0.00000000000E+00  0.00000000000E+00  0.12813603824E+03  0.12813603834E+03  0.50400001928E-02 0.  1.
        1   -1    0    0  501    0  0.00000000000E+00  0.00000000000E+00 -0.52302081948E+03  0.52302081951E+03  0.50400001928E-02 0. -1.
    10030    2    1    2    0    0  0.00000000000E+00  0.00000000000E+00 -0.39488478124E+03  0.65115685785E+03  0.51775598796E+03 0.  0.
        1    1    3    3  502    0 -0.50803858441E+02 -0.24305080749E+03 -0.28954416090E+03  0.38143223276E+03  0.50400001928E-02 0. -1.
       -1    1    3    3    0  502  0.50803858441E+02  0.24305080749E+03 -0.10534062035E+03  0.26972462508E+03  0.50400001928E-02 0.  1.
</event>
<event>
 5   0  0.7416638E-02  0.5040590E+03  0.7818609E-02  0.1012725E+00
        1   -1    0    0  501    0  0.00000000000E+00  0.00000000000E+00  0.67472103745E+03  0.67472103747E+03  0.50400001928E-02 0.  1.
       -1   -1    0    0    0  501  0.00000000000E+00  0.00000000000E+00 -0.94140928476E+02  0.94140928610E+02  0.50400001928E-02 0. -1.
    10030    2    1    2    0    0  0.00000000000E+00  0.00000000000E+00  0.58058010897E+03  0.76886196608E+03  0.50405898459E+03 0.  0.
        1    1    3    3  502    0  0.10735775885E+03  0.46071491297E+02  0.63092507012E+03  0.64164999402E+03  0.50400001928E-02 0.  1.
       -1    1    3    3    0  502 -0.10735775885E+03 -0.46071491297E+02 -0.50344961150E+02  0.12721197205E+03  0.50400001928E-02 0. -1.
</event>
<event>
 5   0  0.5006750E-02  0.4926674E+03  0.7818609E-02  0.1015711E+00
       -4   -1    0    0    0  501  0.00000000000E+00  0.00000000000E+00  0.20413091085E+03  0.20413486147E+03  0.12699999809E+01 0.  1.
        4   -1    0    0  501    0  0.00000000000E+00  0.00000000000E+00 -0.29725346498E+03  0.29725617797E+03  0.12699999809E+01 0. -1.
    10030    2    1    2    0    0  0.00000000000E+00  0.00000000000E+00 -0.93122554125E+02  0.50139103943E+03  0.49266739728E+03 0.  0.
        1    1    3    3  502    0  0.20295096395E+03 -0.28815670805E+02  0.92462315497E+02  0.22487489070E+03  0.50400001928E-02 0.  1.
       -1    1    3    3    0  502 -0.20295096395E+03  0.28815670805E+02 -0.18558486962E+03  0.27651614874E+03  0.50400001928E-02 0. -1.
</event>
<event>
 5   0  0.5006750E-02  0.5411035E+03  0.7818609E-02  0.1003574E+00
       -3   -1    0    0    0  501  0.00000000000E+00  0.00000000000E+00  0.28135341108E+03  0.28135342921E+03  0.10100000352E+00 0. -1.
        3   -1    0    0  501    0  0.00000000000E+00  0.00000000000E+00 -0.26016479523E+03  0.26016481484E+03  0.10100000352E+00 0.  1.
    10030    2    1    2    0    0  0.00000000000E+00  0.00000000000E+00  0.21188615851E+02  0.54151824405E+03  0.54110354942E+03 0.  0.
        4    1    3    3  502    0 -0.65940654383E+02  0.79810643078E+02 -0.23955473508E+03  0.26097124870E+03  0.12699999809E+01 0.  1.
       -4    1    3    3    0  502  0.65940654383E+02 -0.79810643078E+02  0.26074335093E+03  0.28054699535E+03  0.12699999809E+01 0. -1.
</event>
<event>
 5   0  0.7416638E-02  0.5005354E+03  0.7818609E-02  0.1013639E+00
        1   -1    0    0  501    0  0.00000000000E+00  0.00000000000E+00  0.70349619461E+03  0.70349619463E+03  0.50400001928E-02 0.  1.
       -1   -1    0    0    0  501  0.00000000000E+00  0.00000000000E+00 -0.89032343836E+02  0.89032343979E+02  0.50400001928E-02 0. -1.
    10030    2    1    2    0    0  0.00000000000E+00  0.00000000000E+00  0.61446385078E+03  0.79252853861E+03  0.50053537398E+03 0.  0.
        1    1    3    3  502    0  0.10076847628E+03 -0.90499393464E+02  0.64045147243E+03  0.65461631097E+03  0.50400001928E-02 0.  1.
       -1    1    3    3    0  502 -0.10076847628E+03  0.90499393464E+02 -0.25987621649E+02  0.13791222764E+03  0.50400001928E-02 0. -1.
</event>
<event>
 5   0  0.1191894E-01  0.4971130E+03  0.7818609E-02  0.1014535E+00
       -2   -1    0    0    0  501  0.00000000000E+00  0.00000000000E+00  0.19119988868E+03  0.19119988870E+03  0.25500000920E-02 0. -1.
        2   -1    0    0  501    0  0.00000000000E+00  0.00000000000E+00 -0.32311910400E+03  0.32311910401E+03  0.25500000920E-02 0.  1.
    10030    2    1    2    0    0  0.00000000000E+00  0.00000000000E+00 -0.13191921531E+03  0.51431899271E+03  0.49711301219E+03 0.  0.
        3    1    3    3  502    0  0.13053715069E+03 -0.16427290299E+03 -0.20381864050E+03  0.29251937163E+03  0.10100000352E+00 0.  1.
       -3    1    3    3    0  502 -0.13053715069E+03  0.16427290299E+03  0.71899425186E+02  0.22179962107E+03  0.10100000352E+00 0. -1.
</event>
<event>
 5   0  0.7416638E-02  0.5183368E+03  0.7818609E-02  0.1009101E+00
       -1   -1    0    0    0  501  0.00000000000E+00  0.00000000000E+00  0.87699223375E+02  0.87699223520E+02  0.50400001928E-02 0. -1.
        1   -1    0    0  501    0  0.00000000000E+00  0.00000000000E+00 -0.76589344179E+03  0.76589344181E+03  0.50400001928E-02 0.  1.
    10030    2    1    2    0    0  0.00000000000E+00  0.00000000000E+00 -0.67819421842E+03  0.85359266533E+03  0.51833680210E+03 0.  0.
        1    1    3    3  502    0 -0.23648922756E+03 -0.83508352265E+02 -0.23151913026E+03  0.34132375737E+03  0.50400001928E-02 0. -1.
       -1    1    3    3    0  502  0.23648922756E+03  0.83508352265E+02 -0.44667508816E+03  0.51226890796E+03  0.50400001928E-02 0.  1.
</event>
<event>
 5   0  0.1243803E-01  0.5028991E+03  0.7818609E-02  0.1013025E+00
        2   -1    0    0  501    0  0.00000000000E+00  0.00000000000E+00  0.20088516906E+03  0.20088516908E+03  0.25500000920E-02 0. -1.
       -2   -1    0    0    0  501  0.00000000000E+00  0.00000000000E+00 -0.31474137889E+03  0.31474137891E+03  0.25500000920E-02 0.  1.
    10030    2    1    2    0    0  0.00000000000E+00  0.00000000000E+00 -0.11385620983E+03  0.51562654799E+03  0.50289909572E+03 0.  0.
        4    1    3    3  502    0  0.25184375495E+02  0.21788024612E+03  0.69143979424E+02  0.22997512302E+03  0.12699999809E+01 0. -1.
       -4    1    3    3    0  502 -0.25184375495E+02 -0.21788024612E+03 -0.18300018925E+03  0.28565142497E+03  0.12699999809E+01 0.  1.
</event>
<event>
 5   0  0.1191894E-01  0.5073488E+03  0.7818609E-02  0.1011878E+00
       -2   -1    0    0    0  501  0.00000000000E+00  0.00000000000E+00  0.48449295473E+02  0.48449295540E+02  0.25500000920E-02 0.  1.
        2   -1    0    0  501    0  0.00000000000E+00  0.00000000000E+00 -0.13282073386E+04  0.13282073386E+04  0.25500000920E-02 0. -1.
    10030    2    1    2    0    0  0.00000000000E+00  0.00000000000E+00 -0.12797580431E+04  0.13766566341E+04  0.50734883401E+03 0.  0.
        3    1    3    3  502    0  0.14726016455E+03 -0.10987218679E+03 -0.11144834059E+04  0.11295267707E+04  0.10100000352E+00 0. -1.
       -3    1    3    3    0  502 -0.14726016455E+03  0.10987218679E+03 -0.16527463722E+03  0.24712986344E+03  0.10100000352E+00 0.  1.
</event>
<event>
 5   0  0.1279188E-01  0.4981374E+03  0.7818609E-02  0.1014266E+00
       -2   -1    0    0    0  501  0.00000000000E+00  0.00000000000E+00  0.61968434408E+02  0.61968434461E+02  0.25500000920E-02 0. -1.
        2   -1    0    0  501    0  0.00000000000E+00  0.00000000000E+00 -0.10010775689E+04  0.10010775689E+04  0.25500000920E-02 0.  1.
    10030    2    1    2    0    0  0.00000000000E+00  0.00000000000E+00 -0.93910913450E+03  0.10630460034E+04  0.49813736939E+03 0.  0.
        2    1    3    3  502    0  0.13309827463E+03 -0.11458429657E+03 -0.92665022179E+02  0.19857370942E+03  0.25500000920E-02 0. -1.
       -2    1    3    3    0  502 -0.13309827463E+03  0.11458429657E+03 -0.84644411232E+03  0.86447229395E+03  0.25500000920E-02 0.  1.
</event>
<event>
 5   0  0.7602288E-02  0.5032333E+03  0.7818609E-02  0.1012938E+00
       -1   -1    0    0    0  501  0.00000000000E+00  0.00000000000E+00  0.60273343714E+03  0.60273343716E+03  0.50400001928E-02 0.  1.
        1   -1    0    0  501    0  0.00000000000E+00  0.00000000000E+00 -0.10503969684E+03  0.10503969696E+03  0.50400001928E-02 0. -1.
    10030    2    1    2    0    0  0.00000000000E+00  0.00000000000E+00  0.49769374030E+03  0.70777313412E+03  0.50323329605E+03 0.  0.
        5    1    3    3  502    0 -0.14079788213E+03 -0.15631918343E+03  0.54832444806E+02  0.21745900240E+03  0.46999998093E+01 0. -1.
       -5    1    3    3    0  502  0.14079788213E+03  0.15631918343E+03  0.44286129549E+03  0.49031413172E+03  0.46999998093E+01 0.  1.
</event>
<event>
 5   0  0.7416638E-02  0.4993688E+03  0.7818609E-02  0.1013944E+00
        1   -1    0    0  501    0  0.00000000000E+00  0.00000000000E+00  0.10358451529E+04  0.10358451529E+04  0.50400001928E-02 0.  1.
       -1   -1    0    0    0  501  0.00000000000E+00  0.00000000000E+00 -0.60184965493E+02  0.60184965704E+02  0.50400001928E-02 0. -1.
    10030    2    1    2    0    0  0.00000000000E+00  0.00000000000E+00  0.97566018740E+03  0.10960301186E+04  0.49936882123E+03 0.  0.
        1    1    3    3  502    0 -0.10891709751E+03 -0.22453153803E+03  0.50551982898E+03  0.56376204485E+03  0.50400001928E-02 0.  1.
       -1    1    3    3    0  502  0.10891709751E+03  0.22453153803E+03  0.47014035842E+03  0.53226807376E+03  0.50400001928E-02 0. -1.
</event>
<event>
 5   0  0.1231822E-01  0.4856211E+03  0.7818609E-02  0.1017602E+00
        2   -1    0    0  501    0  0.00000000000E+00  0.00000000000E+00  0.16096467960E+04  0.16096467960E+04  0.25500000920E-02 0. -1.
       -2   -1    0    0    0  501  0.00000000000E+00  0.00000000000E+00 -0.36627266088E+02  0.36627266177E+02  0.25500000920E-02 0.  1.
    10030    2    1    2    0    0  0.00000000000E+00  0.00000000000E+00  0.15730195300E+04  0.16462740622E+04  0.48562109337E+03 0.  0.
        1    1    3    3  502    0 -0.18118408514E+03 -0.75204736111E+02  0.12715759800E+04  0.12866191737E+04  0.50400001928E-02 0. -1.
       -1    1    3    3    0  502  0.18118408514E+03  0.75204736111E+02  0.30144354993E+03  0.35965488856E+03  0.50400001928E-02 0.  1.
</event>
<event>
 5   0  0.1243803E-01  0.5052633E+03  0.7818609E-02  0.1012414E+00
        2   -1    0    0  501    0  0.00000000000E+00  0.00000000000E+00  0.30804205130E+03  0.30804205131E+03  0.25500000920E-02 0. -1.
       -2   -1    0    0    0  501  0.00000000000E+00  0.00000000000E+00 -0.20718840408E+03  0.20718840410E+03  0.25500000920E-02 0.  1.
    10030    2    1    2    0    0  0.00000000000E+00  0.00000000000E+00  0.10085364722E+03  0.51523045541E+03  0.50526326210E+03 0.  0.
        4    1    3    3  502    0  0.87394350178E+02 -0.15337328151E+03 -0.13385896394E+03  0.22154225568E+03  0.12699999809E+01 0.  1.
       -4    1    3    3    0  502 -0.87394350178E+02  0.15337328151E+03  0.23471261116E+03  0.29368819973E+03  0.12699999809E+01 0. -1.
</event>
<event>
 5   0  0.1211345E-01  0.5024110E+03  0.7818609E-02  0.1013152E+00
       -2   -1    0    0    0  501  0.00000000000E+00  0.00000000000E+00  0.69852855750E+02  0.69852855796E+02  0.25500000920E-02 0.  1.
        2   -1    0    0  501    0  0.00000000000E+00  0.00000000000E+00 -0.90338746261E+03  0.90338746261E+03  0.25500000920E-02 0. -1.
    10030    2    1    2    0    0  0.00000000000E+00  0.00000000000E+00 -0.83353460686E+03  0.97324031841E+03  0.50241096380E+03 0.  0.
        5    1    3    3  502    0 -0.46374407837E+02 -0.24682542366E+03 -0.42249045302E+03  0.49152176794E+03  0.46999998093E+01 0.  1.
       -5    1    3    3    0  502  0.46374407837E+02  0.24682542366E+03 -0.41104415384E+03  0.48171855047E+03  0.46999998093E+01 0. -1.
</event>
<event>
 5   0  0.1191894E-01  0.5366278E+03  0.7818609E-02  0.1004637E+00
        2   -1    0    0  501    0  0.00000000000E+00  0.00000000000E+00  0.61600937986E+03  0.61600937986E+03  0.25500000920E-02 0. -1.
       -2   -1    0    0    0  501  0.00000000000E+00  0.00000000000E+00 -0.11686893079E+03  0.11686893081E+03  0.25500000920E-02 0.  1.
    10030    2    1    2    0    0  0.00000000000E+00  0.00000000000E+00  0.49914044907E+03  0.73287831068E+03  0.53662783226E+03 0.  0.
        3    1    3    3  502    0  0.14212741368E+03 -0.49080885166E+02 -0.53922541700E+02  0.15973974369E+03  0.10100000352E+00 0.  1.
       -3    1    3    3    0  502 -0.14212741368E+03  0.49080885166E+02  0.55306299077E+03  0.57313856699E+03  0.10100000352E+00 0. -1.
</event>
<event>
 5   0  0.5006750E-02  0.5017675E+03  0.7818609E-02  0.1013319E+00
        3   -1    0    0  501    0  0.00000000000E+00  0.00000000000E+00  0.91582249052E+03  0.91582249609E+03  0.10100000352E+00 0. -1.
       -3   -1    0    0    0  501  0.00000000000E+00  0.00000000000E+00 -0.68727953097E+02  0.68728027310E+02  0.10100000352E+00 0.  1.
    10030    2    1    2    0    0  0.00000000000E+00  0.00000000000E+00  0.84709453743E+03  0.98455052340E+03  0.50176745390E+03 0.  0.
        1    1    3    3  502    0 -0.36983558737E+02  0.12426484227E+03  0.84499321855E+03  0.85488190650E+03  0.50400001928E-02 0. -1.
       -1    1    3    3    0  502  0.36983558737E+02 -0.12426484227E+03  0.21013188714E+01  0.12966861690E+03  0.50400001928E-02 0.  1.
</event>
<event>
 5   0  0.1243803E-01  0.5103831E+03  0.7818609E-02  0.1011104E+00
        2   -1    0    0  501    0  0.00000000000E+00  0.00000000000E+00  0.14582100815E+03  0.14582100818E+03  0.25500000920E-02 0.  1.
       -2   -1    0    0    0  501  0.00000000000E+00  0.00000000000E+00 -0.44659356503E+03  0.44659356504E+03  0.25500000920E-02 0. -1.
    10030    2    1    2    0    0  0.00000000000E+00  0.00000000000E+00 -0.30077255688E+03  0.59241457321E+03  0.51038308709E+03 0.  0.
        4    1    3    3  502    0  0.75512024266E+01 -0.13192646913E+03 -0.40378486417E+03  0.42485932183E+03  0.12699999809E+01 0. -1.
       -4    1    3    3    0  502 -0.75512024266E+01  0.13192646913E+03  0.10301230729E+03  0.16755525139E+03  0.12699999809E+01 0.  1.
</event>
<event>
 5   0  0.5006750E-02  0.5003832E+03  0.7818609E-02  0.1013679E+00
        3   -1    0    0  501    0  0.00000000000E+00  0.00000000000E+00  0.30998768987E+03  0.30998770632E+03  0.10100000352E+00 0.  1.
       -3   -1    0    0    0  501  0.00000000000E+00  0.00000000000E+00 -0.20193006700E+03  0.20193009225E+03  0.10100000352E+00 0. -1.
    10030    2    1    2    0    0  0.00000000000E+00  0.00000000000E+00  0.10805762287E+03  0.51191779858E+03  0.50038323577E+03 0.  0.
        4    1    3    3  502    0 -0.16479570522E+03  0.11439903692E+03  0.20697233084E+03  0.28824281906E+03  0.12699999809E+01 0. -1.
       -4    1    3    3    0  502  0.16479570522E+03 -0.11439903692E+03 -0.98914707970E+02  0.22367497951E+03  0.12699999809E+01 0.  1.
</event>
<event>
 5   0  0.7602288E-02  0.5042238E+03  0.7818609E-02  0.1012682E+00
       -1   -1    0    0    0  501  0.00000000000E+00  0.00000000000E+00  0.11851199255E+04  0.11851199255E+04  0.50400001928E-02 0. -1.
        1   -1    0    0  501    0  0.00000000000E+00  0.00000000000E+00 -0.53632057780E+02  0.53632058016E+02  0.50400001928E-02 0.  1.
    10030    2    1    2    0    0  0.00000000000E+00  0.00000000000E+00  0.11314878677E+04  0.12387519835E+04  0.50422384106E+03 0.  0.
        5    1    3    3  502    0  0.10611981265E+03 -0.20241093478E+02  0.62344571677E+01  0.10831470333E+03  0.46999998093E+01 0.  1.
       -5    1    3    3    0  502 -0.10611981265E+03  0.20241093478E+02  0.11252534106E+04  0.11304372802E+04  0.46999998093E+01 0. -1.
</event>
<event>
 5   0  0.7781754E-02  0.4988757E+03  0.7818609E-02  0.1014073E+00
        1   -1    0    0  501    0  0.00000000000E+00  0.00000000000E+00  0.62585072025E+03  0.62585072027E+03  0.50400001928E-02 0. -1.
       -1   -1    0    0    0  501  0.00000000000E+00  0.00000000000E+00 -0.99415466491E+02  0.99415466619E+02  0.50400001928E-02 0.  1.
    10030    2    1    2    0    0  0.00000000000E+00  0.00000000000E+00  0.52643525376E+03  0.72526618689E+03  0.49887570140E+03 0.  0.
        2    1    3    3  502    0 -0.65508886574E+01  0.23695049820E+03  0.37611715640E+03  0.44458134024E+03  0.25500000920E-02 0. -1.
       -2    1    3    3    0  502  0.65508886574E+01 -0.23695049820E+03  0.15031809736E+03  0.28068484665E+03  0.25500000920E-02 0.  1.
</event>
<event>
 5   0  0.5006750E-02  0.4927361E+03  0.7818609E-02  0.1015692E+00
       -3   -1    0    0    0  501  0.00000000000E+00  0.00000000000E+00  0.23068089546E+03  0.23068091757E+03  0.10100000352E+00 0. -1.
        3   -1    0    0  501    0  0.00000000000E+00  0.00000000000E+00 -0.26312194567E+03  0.26312196506E+03  0.10100000352E+00 0.  1.
    10030    2    1    2    0    0  0.00000000000E+00  0.00000000000E+00 -0.32441050213E+02  0.49380288263E+03  0.49273610092E+03 0.  0.
        4    1    3    3  502    0 -0.16624453443E+02  0.10373483870E+03  0.20710338553E+03  0.23222987407E+03  0.12699999809E+01 0. -1.
       -4    1    3    3    0  502  0.16624453443E+02 -0.10373483870E+03 -0.23954443574E+03  0.26157300856E+03  0.12699999809E+01 0.  1.
</event>
<event>
 5   0  0.1243803E-01  0.4990770E+03  0.7818609E-02  0.1014020E+00
        2   -1    0    0  501    0  0.00000000000E+00  0.00000000000E+00  0.26256213720E+03  0.26256213722E+03  0.25500000920E-02 0.  1.
       -2   -1    0    0    0  501  0.00000000000E+00  0.00000000000E+00 -0.23716090040E+03  0.23716090041E+03  0.25500000920E-02 0. -1.
    10030    2    1    2    0    0  0.00000000000E+00  0.00000000000E+00  0.25401236808E+02  0.49972303762E+03  0.49907703965E+03 0.  0.
        4    1    3    3  502    0 -0.21783471515E+02 -0.13112667593E+03  0.22415904660E+03  0.26061008393E+03  0.12699999809E+01 0.  1.
       -4    1    3    3    0  502  0.21783471515E+02  0.13112667593E+03 -0.19875780979E+03  0.23911295370E+03  0.12699999809E+01 0. -1.
</event>
<event>
 5   0  0.1191894E-01  0.4983856E+03  0.7818609E-02  0.1014201E+00
        2   -1    0    0  501    0  0.00000000000E+00  0.00000000000E+00  0.34856734265E+03  0.34856734266E+03  0.25500000920E-02 0.  1.
       -2   -1    0    0    0  501  0.00000000000E+00  0.00000000000E+00 -0.17814934091E+03  0.17814934092E+03  0.25500000920E-02 0. -1.
    10030    2    1    2    0    0  0.00000000000E+00  0.00000000000E+00  0.17041800175E+03  0.52671668359E+03  0.49838556304E+03 0.  0.
        3    1    3    3  502    0  0.24359029693E+03 -0.39583931270E+02  0.48691778043E+02  0.25154327624E+03  0.10100000352E+00 0. -1.
       -3    1    3    3    0  502 -0.24359029693E+03  0.39583931270E+02  0.12172622370E+03  0.27517340734E+03  0.10100000352E+00 0.  1.
</event>
<event>
 5   0  0.7602288E-02  0.4940360E+03  0.7818609E-02  0.1015347E+00
        1   -1    0    0  501    0  0.00000000000E+00  0.00000000000E+00  0.10427636775E+04  0.10427636776E+04  0.50400001928E-02 0. -1.
       -1   -1    0    0    0  501  0.00000000000E+00  0.00000000000E+00 -0.58515541953E+02  0.58515542170E+02  0.50400001928E-02 0.  1.
    10030    2    1    2    0    0  0.00000000000E+00  0.00000000000E+00  0.98424813559E+03  0.11012792197E+04  0.49403595758E+03 0.  0.
        5    1    3    3  502    0 -0.16229557446E+02 -0.24561153448E+03  0.53711573066E+03  0.59085008464E+03  0.46999998093E+01 0.  1.
       -5    1    3    3    0  502  0.16229557446E+02  0.24561153448E+03  0.44713240492E+03  0.51042913508E+03  0.46999998093E+01 0. -1.
</event>
<event>
 5   0  0.1279188E-01  0.4718790E+03  0.7818609E-02  0.1021391E+00
        2   -1    0    0  501    0  0.00000000000E+00  0.00000000000E+00  0.64978778404E+03  0.64978778404E+03  0.25500000920E-02 0.  1.
       -2   -1    0    0    0  501  0.00000000000E+00  0.00000000000E+00 -0.85670193355E+02  0.85670193393E+02  0.25500000920E-02 0. -1.
    10030    2    1    2    0    0  0.00000000000E+00  0.00000000000E+00  0.56411759068E+03  0.73545797744E+03  0.47187898921E+03 0.  0.
        2    1    3    3  502    0  0.19537203828E+03 -0.10124936453E+02  0.76500190207E+02  0.21005957914E+03  0.25500000920E-02 0. -1.
       -2    1    3    3    0  502 -0.19537203828E+03  0.10124936453E+02  0.48761740048E+03  0.52539839830E+03  0.25500000920E-02 0.  1.
</event>
<event>
 5   0  0.5006750E-02  0.4969740E+03  0.7818609E-02  0.1014572E+00
        3   -1    0    0  501    0  0.00000000000E+00  0.00000000000E+00  0.56683109434E+03  0.56683110334E+03  0.10100000352E+00 0. -1.
       -3   -1    0    0    0  501  0.00000000000E+00  0.00000000000E+00 -0.10893151125E+03  0.10893155807E+03  0.10100000352E+00 0.  1.
    10030    2    1    2    0    0  0.00000000000E+00  0.00000000000E+00  0.45789958310E+03  0.67576266142E+03  0.49697398963E+03 0.  0.
        1    1    3    3  502    0 -0.15638271303E+03 -0.10976885182E+02  0.49110307601E+03  0.51551748393E+03  0.50400001928E-02 0. -1.
       -1    1    3    3    0  502  0.15638271303E+03  0.10976885182E+02 -0.33203492914E+02  0.16024517749E+03  0.50400001928E-02 0.  1.
</event>
<event>
 5   0  0.1243803E-01  0.4994530E+03  0.7818609E-02  0.1013922E+00
        2   -1    0    0  501    0  0.00000000000E+00  0.00000000000E+00  0.10596699616E+03  0.10596699619E+03  0.25500000920E-02 0. -1.
       -2   -1    0    0    0  501  0.00000000000E+00  0.00000000000E+00 -0.58851651471E+03  0.58851651472E+03  0.25500000920E-02 0.  1.
    10030    2    1    2    0    0  0.00000000000E+00  0.00000000000E+00 -0.48254951855E+03  0.69448351091E+03  0.49945300987E+03 0.  0.
        4    1    3    3  502    0 -0.13824813071E+02 -0.18934933384E+03 -0.46684871159E+03  0.50397780517E+03  0.12699999809E+01 0.  1.
       -4    1    3    3    0  502  0.13824813071E+02  0.18934933384E+03 -0.15700806960E+02  0.19050570575E+03  0.12699999809E+01 0. -1.
</event>
<event>
 5   0  0.7416638E-02  0.5022925E+03  0.7818609E-02  0.1013182E+00
        1   -1    0    0  501    0  0.00000000000E+00  0.00000000000E+00  0.17600467619E+04  0.17600467619E+04  0.50400001928E-02 0.  1.
       -1   -1    0    0    0  501  0.00000000000E+00  0.00000000000E+00 -0.35836794073E+02  0.35836794428E+02  0.50400001928E-02 0. -1.
    10030    2    1    2    0    0  0.00000000000E+00  0.00000000000E+00  0.17242099678E+04  0.17958835563E+04  0.50229247930E+03 0.  0.
        1    1    3    3  502    0  0.16778391946E+03 -0.14238705270E+03  0.42936775336E+03  0.48247506055E+03  0.50400001928E-02 0. -1.
       -1    1    3    3    0  502 -0.16778391946E+03  0.14238705270E+03  0.12948422145E+04  0.13134084958E+04  0.50400001928E-02 0.  1.
</event>
<event>
 5   0  0.1279188E-01  0.4977566E+03  0.7818609E-02  0.1014366E+00
       -2   -1    0    0    0  501  0.00000000000E+00  0.00000000000E+00  0.11308648762E+03  0.11308648765E+03  0.25500000920E-02 0.  1.
        2   -1    0    0  501    0  0.00000000000E+00  0.00000000000E+00 -0.54772588463E+03  0.54772588463E+03  0.25500000920E-02 0. -1.
    10030    2    1    2    0    0  0.00000000000E+00  0.00000000000E+00 -0.43463939701E+03  0.66081237228E+03  0.49775655287E+03 0.  0.
        2    1    3    3  502    0 -0.87883044775E+02  0.76075671344E+02 -0.50947649170E+03  0.52256792184E+03  0.25500000920E-02 0. -1.
       -2    1    3    3    0  502  0.87883044775E+02 -0.76075671344E+02  0.74837094692E+02  0.13824445044E+03  0.25500000920E-02 0.  1.
</event>
<event>
 5   0  0.7602288E-02  0.5035243E+03  0.7818609E-02  0.1012863E+00
        1   -1    0    0  501    0  0.00000000000E+00  0.00000000000E+00  0.61814610301E+03  0.61814610303E+03  0.50400001928E-02 0. -1.
       -1   -1    0    0    0  501  0.00000000000E+00  0.00000000000E+00 -0.10253916964E+03  0.10253916976E+03  0.50400001928E-02 0.  1.
    10030    2    1    2    0    0  0.00000000000E+00  0.00000000000E+00  0.51560693337E+03  0.72068527279E+03  0.50352433176E+03 0.  0.
        5    1    3    3  502    0  0.71945029754E+02 -0.24020624304E+03  0.22621874653E+03  0.33774567026E+03  0.46999998093E+01 0. -1.
       -5    1    3    3    0  502 -0.71945029754E+02  0.24020624304E+03  0.28938818684E+03  0.38293960253E+03  0.46999998093E+01 0.  1.
</event>
<event>
 5   0  0.5006750E-02  0.5014377E+03  0.7818609E-02  0.1013404E+00
       -3   -1    0    0    0  501  0.00000000000E+00  0.00000000000E+00  0.26891298261E+03  0.26891300158E+03  0.10100000352E+00 0. -1.
        3   -1    0    0  501    0  0.00000000000E+00  0.00000000000E+00 -0.23375566687E+03  0.23375568869E+03  0.10100000352E+00 0.  1.
    10030    2    1    2    0    0  0.00000000000E+00  0.00000000000E+00  0.35157315743E+02  0.50266869027E+03  0.50143770832E+03 0.  0.
        2    1    3    3  502    0  0.66116296317E+02 -0.20609203006E+03 -0.10928102744E+03  0.24246161027E+03  0.25500000920E-02 0.  1.
       -2    1    3    3    0  502 -0.66116296317E+02  0.20609203006E+03  0.14443834318E+03  0.26020708000E+03  0.25500000920E-02 0. -1.
</event>
<event>
 5   0  0.7416638E-02  0.5031182E+03  0.7818609E-02  0.1012968E+00
        1   -1    0    0  501    0  0.00000000000E+00  0.00000000000E+00  0.17549951709E+03  0.17549951716E+03  0.50400001928E-02 0. -1.
       -1   -1    0    0    0  501  0.00000000000E+00  0.00000000000E+00 -0.36058210641E+03  0.36058210644E+03  0.50400001928E-02 0.  1.
    10030    2    1    2    0    0  0.00000000000E+00  0.00000000000E+00 -0.18508258932E+03  0.53608162361E+03  0.50311821901E+03 0.  0.
        1    1    3    3  502    0  0.82269706962E+01 -0.24545608500E+03 -0.15056668927E+03  0.28807412354E+03  0.50400001928E-02 0. -1.
       -1    1    3    3    0  502 -0.82269706962E+01  0.24545608500E+03 -0.34515900045E+02  0.24800750007E+03  0.50400001928E-02 0.  1.
</event>
<event>
 5   0  0.1211345E-01  0.5057714E+03  0.7818609E-02  0.1012283E+00
       -2   -1    0    0    0  501  0.00000000000E+00  0.00000000000E+00  0.95707301561E+02  0.95707301595E+02  0.25500000920E-02 0.  1.
        2   -1    0    0  501    0  0.00000000000E+00  0.00000000000E+00 -0.66819544604E+03  0.66819544605E+03  0.25500000920E-02 0. -1.
    10030    2    1    2    0    0  0.00000000000E+00  0.00000000000E+00 -0.57248814448E+03  0.76390274764E+03  0.50577142296E+03 0.  0.
        5    1    3    3  502    0  0.13805220475E+03 -0.50806296474E+02 -0.59684271759E+03  0.61472189690E+03  0.46999998093E+01 0. -1.
       -5    1    3    3    0  502 -0.13805220475E+03  0.50806296474E+02  0.24354573106E+02  0.14918085074E+03  0.46999998093E+01 0.  1.
</event>
<event>
 5   0  0.7602288E-02  0.5246070E+03  0.7818609E-02  0.1007548E+00
        1   -1    0    0  501    0  0.00000000000E+00  0.00000000000E+00  0.13162169803E+03  0.13162169813E+03  0.50400001928E-02 0. -1.
       -1   -1    0    0    0  501  0.00000000000E+00  0.00000000000E+00 -0.52273399312E+03  0.52273399315E+03  0.50400001928E-02 0.  1.
    10030    2    1    2    0    0  0.00000000000E+00  0.00000000000E+00 -0.39111229509E+03  0.65435569127E+03  0.52460703706E+03 0.  0.
        5    1    3    3  502    0  0.42646686907E+02  0.25837848544E+03 -0.21332185355E+03  0.33779651396E+03  0.46999998093E+01 0. -1.
       -5    1    3    3    0  502 -0.42646686907E+02 -0.25837848544E+03 -0.17779044154E+03  0.31655917732E+03  0.46999998093E+01 0.  1.
</event>
<event>
 5   0  0.1191894E-01  0.4972889E+03  0.7818609E-02  0.1014489E+00
        2   -1    0    0  501    0  0.00000000000E+00  0.00000000000E+00  0.59067222600E+03  0.59067222600E+03  0.25500000920E-02 0.  1.
       -2   -1    0    0    0  501  0.00000000000E+00  0.00000000000E+00 -0.10466727402E+03  0.10466727405E+03  0.25500000920E-02 0. -1.
    10030    2    1    2    0    0  0.00000000000E+00  0.00000000000E+00  0.48600495198E+03  0.69533950006E+03  0.49728885670E+03 0.  0.
        3    1    3    3  502    0 -0.88433714537E+02  0.41104446526E+02  0.56281605943E+03  0.57120226221E+03  0.10100000352E+00 0.  1.
       -3    1    3    3    0  502  0.88433714537E+02 -0.41104446526E+02 -0.76811107459E+02  0.12413723785E+03  0.10100000352E+00 0. -1.
</event>
<event>
 5   0  0.7416638E-02  0.5025556E+03  0.7818609E-02  0.1013114E+00
        1   -1    0    0  501    0  0.00000000000E+00  0.00000000000E+00  0.15561756558E+04  0.15561756558E+04  0.50400001928E-02 0. -1.
       -1   -1    0    0    0  501  0.00000000000E+00  0.00000000000E+00 -0.40574167262E+02  0.40574167575E+02  0.50400001928E-02 0.  1.
    10030    2    1    2    0    0  0.00000000000E+00  0.00000000000E+00  0.15156014885E+04  0.15967498234E+04  0.50255559535E+03 0.  0.
        1    1    3    3  502    0  0.13348122750E+03 -0.10102157648E+03  0.16238920554E+03  0.23322274998E+03  0.50400001928E-02 0.  1.
       -1    1    3    3    0  502 -0.13348122750E+03  0.10102157648E+03  0.13532122830E+04  0.13635270734E+04  0.50400001928E-02 0. -1.
</event>
<event>
 5   0  0.7531632E-02  0.5015707E+03  0.7818609E-02  0.1013370E+00
       -1   -1    0    0    0  501  0.00000000000E+00  0.00000000000E+00  0.13465141931E+04  0.13465141931E+04  0.50400001928E-02 0.  1.
        1   -1    0    0  501    0  0.00000000000E+00  0.00000000000E+00 -0.46708224221E+02  0.46708224493E+02  0.50400001928E-02 0. -1.
    10030    2    1    2    0    0  0.00000000000E+00  0.00000000000E+00  0.12998059689E+04  0.13932224176E+04  0.50157068114E+03 0.  0.
        3    1    3    3  502    0  0.56935559853E+02 -0.42245676366E+02 -0.18292446491E+02  0.73218706264E+02  0.10100000352E+00 0. -1.
       -3    1    3    3    0  502 -0.56935559853E+02  0.42245676366E+02  0.13180984154E+04  0.13200037113E+04  0.10100000352E+00 0.  1.
</event>
<event>
 5   0  0.1191894E-01  0.5017711E+03  0.7818609E-02  0.1013318E+00
       -2   -1    0    0    0  501  0.00000000000E+00  0.00000000000E+00  0.25727681694E+03  0.25727681695E+03  0.25500000920E-02 0.  1.
        2   -1    0    0  501    0  0.00000000000E+00  0.00000000000E+00 -0.24465305905E+03  0.24465305906E+03  0.25500000920E-02 0. -1.
    10030    2    1    2    0    0  0.00000000000E+00  0.00000000000E+00  0.12623757893E+02  0.50192987602E+03  0.50177110436E+03 0.  0.
        3    1    3    3  502    0  0.24350969602E+03  0.58146083837E+02 -0.99908535852E+01  0.25055491709E+03  0.10100000352E+00 0.  1.
       -3    1    3    3    0  502 -0.24350969602E+03 -0.58146083837E+02  0.22614611478E+02  0.25137495893E+03  0.10100000352E+00 0. -1.
</event>
<event>
 5   0  0.1211345E-01  0.4944091E+03  0.7818609E-02  0.1015249E+00
        2   -1    0    0  501    0  0.00000000000E+00  0.00000000000E+00  0.20332509116E+03  0.20332509118E+03  0.25500000920E-02 0. -1.
       -2   -1    0    0    0  501  0.00000000000E+00  0.00000000000E+00 -0.30055355209E+03  0.30055355210E+03  0.25500000920E-02 0.  1.
    10030    2    1    2    0    0  0.00000000000E+00  0.00000000000E+00 -0.97228460923E+02  0.50387864328E+03  0.49440905487E+03 0.  0.
        5    1    3    3  502    0 -0.48855533211E+02  0.22330192564E+03 -0.14442210019E+03  0.27042641539E+03  0.46999998093E+01 0.  1.
       -5    1    3    3    0  502  0.48855533211E+02 -0.22330192564E+03  0.47193639270E+02  0.23345222789E+03  0.46999998093E+01 0. -1.
</event>
<event>
 5   0  0.1211345E-01  0.5003228E+03  0.7818609E-02  0.1013695E+00
        2   -1    0    0  501    0  0.00000000000E+00  0.00000000000E+00  0.47323351490E+03  0.47323351491E+03  0.25500000920E-02 0.  1.
       -2   -1    0    0    0  501  0.00000000000E+00  0.00000000000E+00 -0.13224068411E+03  0.13224068413E+03  0.25500000920E-02 0. -1.
    10030    2    1    2    0    0  0.00000000000E+00  0.00000000000E+00  0.34099283079E+03  0.60547419904E+03  0.50032279086E+03 0.  0.
        5    1    3    3  502    0  0.96998103611E+01 -0.95791562571E+02 -0.10886228423E+03  0.14540700364E+03  0.46999998093E+01 0. -1.
       -5    1    3    3    0  502 -0.96998103611E+01  0.95791562571E+02  0.44985511502E+03  0.46006719541E+03  0.46999998093E+01 0.  1.
</event>
<event>
 5   0  0.7812547E-02  0.4923327E+03  0.7818609E-02  0.1015800E+00
        1   -1    0    0  501    0  0.00000000000E+00  0.00000000000E+00  0.11471244833E+04  0.11471244833E+04  0.50400001928E-02 0. -1.
       -1   -1    0    0    0  501  0.00000000000E+00  0.00000000000E+00 -0.52825897783E+02  0.52825898023E+02  0.50400001928E-02 0.  1.
    10030    2    1    2    0    0  0.00000000000E+00  0.00000000000E+00  0.10942985855E+04  0.11999503813E+04  0.49233273647E+03 0.  0.
        4    1    3    3  502    0 -0.24368859208E+02  0.16654794110E+03  0.10936004432E+03  0.20073188630E+03  0.12699999809E+01 0.  1.
       -4    1    3    3    0  502  0.24368859208E+02 -0.16654794110E+03  0.98493854118E+03  0.99921849502E+03  0.12699999809E+01 0. -1.
</event>
<event>
 5   0  0.7602288E-02  0.5036439E+03  0.7818609E-02  0.1012832E+00
        1   -1    0    0  501    0  0.00000000000E+00  0.00000000000E+00  0.91892031301E+03  0.91892031302E+03  0.50400001928E-02 0.  1.
       -1   -1    0    0    0  501  0.00000000000E+00  0.00000000000E+00 -0.69009565076E+02  0.69009565260E+02  0.50400001928E-02 0. -1.
    10030    2    1    2    0    0  0.00000000000E+00  0.00000000000E+00  0.84991074793E+03  0.98792987828E+03  0.50364388704E+03 0.  0.
        5    1    3    3  502    0  0.10405935839E+02  0.21462435637E+03  0.68236391461E+03  0.71541211885E+03  0.46999998093E+01 0.  1.
       -5    1    3    3    0  502 -0.10405935839E+02 -0.21462435637E+03  0.16754683333E+03  0.27251775943E+03  0.46999998093E+01 0. -1.
</event>
<event>
 5   0  0.7781754E-02  0.4972077E+03  0.7818609E-02  0.1014510E+00
        1   -1    0    0  501    0  0.00000000000E+00  0.00000000000E+00  0.83158853444E+03  0.83158853445E+03  0.50400001928E-02 0.  1.
       -1   -1    0    0    0  501  0.00000000000E+00  0.00000000000E+00 -0.74320264462E+02  0.74320264633E+02  0.50400001928E-02 0. -1.
    10030    2    1    2    0    0  0.00000000000E+00  0.00000000000E+00  0.75726826998E+03  0.90590879909E+03  0.49720772274E+03 0.  0.
        2    1    3    3  502    0 -0.56107556846E+02 -0.23007460170E+03  0.24081752963E+03  0.33775059270E+03  0.25500000920E-02 0.  1.
       -2    1    3    3    0  502  0.56107556846E+02  0.23007460170E+03  0.51645074034E+03  0.56815820639E+03  0.25500000920E-02 0. -1.
</event>
<event>
 5   0  0.7416638E-02  0.5050427E+03  0.7818609E-02  0.1012471E+00
       -1   -1    0    0    0  501  0.00000000000E+00  0.00000000000E+00  0.21308309571E+03  0.21308309577E+03  0.50400001928E-02 0.  1.
        1   -1    0    0  501    0  0.00000000000E+00  0.00000000000E+00 -0.29925903238E+03  0.29925903242E+03  0.50400001928E-02 0. -1.
    10030    2    1    2    0    0  0.00000000000E+00  0.00000000000E+00 -0.86175936671E+02  0.51234212819E+03  0.50504273508E+03 0.  0.
        1    1    3    3  502    0 -0.15823728578E+03 -0.16627525556E+03 -0.14987350588E+03  0.27413238957E+03  0.50400001928E-02 0. -1.
       -1    1    3    3    0  502  0.15823728578E+03  0.16627525556E+03  0.63697569205E+02  0.23820973862E+03  0.50400001928E-02 0.  1.
</event>
<event>
 5   0  0.5006750E-02  0.4934638E+03  0.7818609E-02  0.1015499E+00
       -3   -1    0    0    0  501  0.00000000000E+00  0.00000000000E+00  0.11359221215E+04  0.11359221259E+04  0.10100000352E+00 0.  1.
        3   -1    0    0  501    0  0.00000000000E+00  0.00000000000E+00 -0.53592207125E+02  0.53592302298E+02  0.10100000352E+00 0. -1.
    10030    2    1    2    0    0  0.00000000000E+00  0.00000000000E+00  0.10823299143E+04  0.11895144282E+04  0.49346380976E+03 0.  0.
        4    1    3    3  502    0 -0.11168604741E+03  0.20341698162E+03  0.33915680832E+03  0.41095157273E+03  0.12699999809E+01 0.  1.
       -4    1    3    3    0  502  0.11168604741E+03 -0.20341698162E+03  0.74317310601E+03  0.77856285552E+03  0.12699999809E+01 0. -1.
</event>
<event>
 5   0  0.7812547E-02  0.4973108E+03  0.7818609E-02  0.1014483E+00
       -1   -1    0    0    0  501  0.00000000000E+00  0.00000000000E+00  0.28403841569E+03  0.28403841573E+03  0.50400001928E-02 0. -1.
        1   -1    0    0  501    0  0.00000000000E+00  0.00000000000E+00 -0.21768005983E+03  0.21768005988E+03  0.50400001928E-02 0.  1.
    10030    2    1    2    0    0  0.00000000000E+00  0.00000000000E+00  0.66358355863E+02  0.50171847562E+03  0.49731076540E+03 0.  0.
        4    1    3    3  502    0  0.10512037624E+03  0.22526746206E+03  0.27457626909E+02  0.25010249326E+03  0.12699999809E+01 0. -1.
       -4    1    3    3    0  502 -0.10512037624E+03 -0.22526746206E+03  0.38900728953E+02  0.25161598235E+03  0.12699999809E+01 0.  1.
</event>
<event>
 5   0  0.1191894E-01  0.5004991E+03  0.7818609E-02  0.1013649E+00
        2   -1    0    0  501    0  0.00000000000E+00  0.00000000000E+00  0.15898356787E+03  0.15898356789E+03  0.25500000920E-02 0.  1.
       -2   -1    0    0    0  501  0.00000000000E+00  0.00000000000E+00 -0.39390767416E+03  0.39390767417E+03  0.25500000920E-02 0. -1.
    10030    2    1    2    0    0  0.00000000000E+00  0.00000000000E+00 -0.23492410629E+03  0.55289124206E+03  0.50049914069E+03 0.  0.
        3    1    3    3  502    0  0.22111002285E+03 -0.11606910436E+03 -0.99541776335E+02  0.26883127540E+03  0.10100000352E+00 0. -1.
       -3    1    3    3    0  502 -0.22111002285E+03  0.11606910436E+03 -0.13538232995E+03  0.28405996666E+03  0.10100000352E+00 0.  1.
</event>
<event>
 5   0  0.5006750E-02  0.5006911E+03  0.7818609E-02  0.1013599E+00
       -3   -1    0    0    0  501  0.00000000000E+00  0.00000000000E+00  0.18439393721E+03  0.18439396487E+03  0.10100000352E+00 0.  1.
        3   -1    0    0  501    0  0.00000000000E+00  0.00000000000E+00 -0.33988587698E+03  0.33988589198E+03  0.10100000352E+00 0. -1.
    10030    2    1    2    0    0  0.00000000000E+00  0.00000000000E+00 -0.15549193976E+03  0.52427985686E+03  0.50069114729E+03 0.  0.
        5    1    3    3  502    0  0.11783164481E+03 -0.14694112986E+03 -0.25036021373E+03  0.31333419663E+03  0.46999998093E+01 0.  1.
       -5    1    3    3    0  502 -0.11783164481E+03  0.14694112986E+03  0.94868273964E+02  0.21094566022E+03  0.46999998093E+01 0. -1.
</event>
<event>
 5   0  0.1211345E-01  0.5017620E+03  0.7818609E-02  0.1013320E+00
        2   -1    0    0  501    0  0.00000000000E+00  0.00000000000E+00  0.15493092481E+03  0.15493092483E+03  0.25500000920E-02 0.  1.
       -2   -1    0    0    0  501  0.00000000000E+00  0.00000000000E+00 -0.40625372482E+03  0.40625372483E+03  0.25500000920E-02 0. -1.
    10030    2    1    2    0    0  0.00000000000E+00  0.00000000000E+00 -0.25132280000E+03  0.56118464966E+03  0.50176195672E+03 0.  0.
        5    1    3    3  502    0  0.10135527285E+03 -0.21866075695E+03 -0.47902434340E+02  0.24576849102E+03  0.46999998093E+01 0.  1.
       -5    1    3    3    0  502 -0.10135527285E+03  0.21866075695E+03 -0.20342036566E+03  0.31541615864E+03  0.46999998093E+01 0. -1.
</event>
<event>
 5   0  0.1211345E-01  0.4624592E+03  0.7818609E-02  0.1024070E+00
        2   -1    0    0  501    0  0.00000000000E+00  0.00000000000E+00  0.64564020530E+03  0.64564020531E+03  0.25500000920E-02 0.  1.
       -2   -1    0    0    0  501  0.00000000000E+00  0.00000000000E+00 -0.82812557957E+02  0.82812557996E+02  0.25500000920E-02 0. -1.
    10030    2    1    2    0    0  0.00000000000E+00  0.00000000000E+00  0.56282764735E+03  0.72845276330E+03  0.46245915252E+03 0.  0.
        5    1    3    3  502    0  0.71560944559E+02  0.21732984355E+03  0.33346122074E+03  0.40443998989E+03  0.46999998093E+01 0.  1.
       -5    1    3    3    0  502 -0.71560944559E+02 -0.21732984355E+03  0.22936642661E+03  0.32401277342E+03  0.46999998093E+01 0. -1.
</event>
<event>
 5   0  0.7416638E-02  0.4978843E+03  0.7818609E-02  0.1014333E+00
       -1   -1    0    0    0  501  0.00000000000E+00  0.00000000000E+00  0.13932661937E+03  0.13932661947E+03  0.50400001928E-02 0.  1.
        1   -1    0    0  501    0  0.00000000000E+00  0.00000000000E+00 -0.44479798932E+03  0.44479798935E+03  0.50400001928E-02 0. -1.
    10030    2    1    2    0    0  0.00000000000E+00  0.00000000000E+00 -0.30547136995E+03  0.58412460882E+03  0.49788432469E+03 0.  0.
        1    1    3    3  502    0 -0.12826455727E+03  0.13050163248E+03 -0.35076122081E+03  0.39562091297E+03  0.50400001928E-02 0. -1.
       -1    1    3    3    0  502  0.12826455727E+03 -0.13050163248E+03  0.45289850862E+02  0.18850369585E+03  0.50400001928E-02 0.  1.
</event>
<event>
 5   0  0.1231822E-01  0.5018563E+03  0.7818609E-02  0.1013296E+00
       -2   -1    0    0    0  501  0.00000000000E+00  0.00000000000E+00  0.33970228763E+03  0.33970228764E+03  0.25500000920E-02 0. -1.
        2   -1    0    0  501    0  0.00000000000E+00  0.00000000000E+00 -0.18535331710E+03  0.18535331712E+03  0.25500000920E-02 0.  1.
    10030    2    1    2    0    0  0.00000000000E+00  0.00000000000E+00  0.15434897053E+03  0.52505560476E+03  0.50185633740E+03 0.  0.
        1    1    3    3  502    0  0.25210555091E+00 -0.12953571442E+03 -0.14766788302E+03  0.19643158750E+03  0.50400001928E-02 0.  1.
       -1    1    3    3    0  502 -0.25210555091E+00  0.12953571442E+03  0.30201685355E+03  0.32862401726E+03  0.50400001928E-02 0. -1.
</event>
<event>
 5   0  0.1231822E-01  0.4921072E+03  0.7818609E-02  0.1015860E+00
        2   -1    0    0  501    0  0.00000000000E+00  0.00000000000E+00  0.65953512506E+03  0.65953512507E+03  0.25500000920E-02 0. -1.
       -2   -1    0    0    0  501  0.00000000000E+00  0.00000000000E+00 -0.91795515036E+02  0.91795515072E+02  0.25500000920E-02 0.  1.
    10030    2    1    2    0    0  0.00000000000E+00  0.00000000000E+00  0.56773961002E+03  0.75133064014E+03  0.49210716924E+03 0.  0.
        1    1    3    3  502    0  0.17569079508E+03 -0.23881257849E+02  0.54433739513E+03  0.57248647993E+03  0.50400001928E-02 0. -1.
       -1    1    3    3    0  502 -0.17569079508E+03  0.23881257849E+02  0.23402214899E+02  0.17884416020E+03  0.50400001928E-02 0.  1.
</event>
<event>
 5   0  0.7416638E-02  0.5010710E+03  0.7818609E-02  0.1013500E+00
       -1   -1    0    0    0  501  0.00000000000E+00  0.00000000000E+00  0.16108887859E+03  0.16108887866E+03  0.50400001928E-02 0. -1.
        1   -1    0    0  501    0  0.00000000000E+00  0.00000000000E+00 -0.38964854894E+03  0.38964854897E+03  0.50400001928E-02 0.  1.
    10030    2    1    2    0    0  0.00000000000E+00  0.00000000000E+00 -0.22855967036E+03  0.55073742764E+03  0.50107104415E+03 0.  0.
        1    1    3    3  502    0 -0.23391065211E+03 -0.80342283579E+02 -0.15823052823E+03  0.29360854175E+03  0.50400001928E-02 0.  1.
       -1    1    3    3    0  502  0.23391065211E+03  0.80342283579E+02 -0.70329142125E+02  0.25712888589E+03  0.50400001928E-02 0. -1.
</event>
<event>
 5   0  0.1243803E-01  0.4993029E+03  0.7818609E-02  0.1013961E+00
        2   -1    0    0  501    0  0.00000000000E+00  0.00000000000E+00  0.25557028035E+04  0.25557028035E+04  0.25500000920E-02 0.  1.
       -2   -1    0    0    0  501  0.00000000000E+00  0.00000000000E+00 -0.24386973221E+02  0.24386973355E+02  0.25500000920E-02 0. -1.
    10030    2    1    2    0    0  0.00000000000E+00  0.00000000000E+00  0.25313158303E+04  0.25800897768E+04  0.49930293812E+03 0.  0.
        4    1    3    3  502    0 -0.22971753008E+03  0.63927444857E+02  0.88357257351E+03  0.91518247765E+03  0.12699999809E+01 0. -1.
       -4    1    3    3    0  502  0.22971753008E+03 -0.63927444857E+02  0.16477432567E+04  0.16649072992E+04  0.12699999809E+01 0.  1.
</event>
<event>
 5   0  0.7781754E-02  0.4756249E+03  0.7818609E-02  0.1020345E+00
        1   -1    0    0  501    0  0.00000000000E+00  0.00000000000E+00  0.86981023965E+03  0.86981023966E+03  0.50400001928E-02 0. -1.
       -1   -1    0    0    0  501  0.00000000000E+00  0.00000000000E+00 -0.65019655761E+02  0.65019655956E+02  0.50400001928E-02 0.  1.
    10030    2    1    2    0    0  0.00000000000E+00  0.00000000000E+00  0.80479058389E+03  0.93482989562E+03  0.47562490455E+03 0.  0.
        2    1    3    3  502    0 -0.29534863452E+02  0.70062966544E+02  0.84527637855E+03  0.84868915604E+03  0.25500000920E-02 0. -1.
       -2    1    3    3    0  502  0.29534863452E+02 -0.70062966544E+02 -0.40485794659E+02  0.86140739582E+02  0.25500000920E-02 0.  1.
</event>
<event>
 5   0  0.1279188E-01  0.4967329E+03  0.7818609E-02  0.1014635E+00
       -2   -1    0    0    0  501  0.00000000000E+00  0.00000000000E+00  0.21788563463E+03  0.21788563464E+03  0.25500000920E-02 0. -1.
        2   -1    0    0  501    0  0.00000000000E+00  0.00000000000E+00 -0.28311137317E+03  0.28311137319E+03  0.25500000920E-02 0.  1.
    10030    2    1    2    0    0  0.00000000000E+00  0.00000000000E+00 -0.65225738548E+02  0.50099700783E+03  0.49673293114E+03 0.  0.
        2    1    3    3  502    0  0.81562702906E+02  0.10440056558E+03 -0.24449706873E+03  0.27808410459E+03  0.25500000920E-02 0.  1.
       -2    1    3    3    0  502 -0.81562702906E+02 -0.10440056558E+03  0.17927133018E+03  0.22291290324E+03  0.25500000920E-02 0. -1.
</event>
<event>
 5   0  0.7416638E-02  0.5024868E+03  0.7818609E-02  0.1013132E+00
        1   -1    0    0  501    0  0.00000000000E+00  0.00000000000E+00  0.11522209206E+04  0.11522209206E+04  0.50400001928E-02 0. -1.
       -1   -1    0    0    0  501  0.00000000000E+00  0.00000000000E+00 -0.54783985755E+02  0.54783985987E+02  0.50400001928E-02 0.  1.
    10030    2    1    2    0    0  0.00000000000E+00  0.00000000000E+00  0.10974369348E+04  0.12070049066E+04  0.50248683424E+03 0.  0.
        1    1    3    3  502    0  0.33608808227E+02 -0.11496777192E+03  0.18215341704E+02  0.12115667241E+03  0.50400001928E-02 0.  1.
       -1    1    3    3    0  502 -0.33608808227E+02  0.11496777192E+03  0.10792215931E+04  0.10858482342E+04  0.50400001928E-02 0. -1.
</event>
<event>
 5   0  0.1279188E-01  0.4841960E+03  0.7818609E-02  0.1017988E+00
        2   -1    0    0  501    0  0.00000000000E+00  0.00000000000E+00  0.40948648591E+03  0.40948648591E+03  0.25500000920E-02 0. -1.
       -2   -1    0    0    0  501  0.00000000000E+00  0.00000000000E+00 -0.14313402896E+03  0.14313402898E+03  0.25500000920E-02 0.  1.
    10030    2    1    2    0    0  0.00000000000E+00  0.00000000000E+00  0.26635245695E+03  0.55262051490E+03  0.48419603692E+03 0.  0.
        2    1    3    3  502    0 -0.19758852254E+03  0.14364186323E+02  0.29199511557E+03  0.35285790569E+03  0.25500000920E-02 0. -1.
       -2    1    3    3    0  502  0.19758852254E+03 -0.14364186323E+02 -0.25642658621E+02  0.19976260920E+03  0.25500000920E-02 0.  1.
</event>
<event>
 5   0  0.1211345E-01  0.4926422E+03  0.7818609E-02  0.1015717E+00
        2   -1    0    0  501    0  0.00000000000E+00  0.00000000000E+00  0.79267424427E+03  0.79267424427E+03  0.25500000920E-02 0.  1.
       -2   -1    0    0    0  501  0.00000000000E+00  0.00000000000E+00 -0.76543525003E+02  0.76543525046E+02  0.25500000920E-02 0. -1.
    10030    2    1    2    0    0  0.00000000000E+00  0.00000000000E+00  0.71613071926E+03  0.86921776932E+03  0.49264218600E+03 0.  0.
        5    1    3    3  502    0  0.16520228318E+03  0.40207783684E+02  0.67242342815E+03  0.69360205951E+03  0.46999998093E+01 0.  1.
       -5    1    3    3    0  502 -0.16520228318E+03 -0.40207783684E+02  0.43707291115E+02  0.17561570981E+03  0.46999998093E+01 0. -1.
</event>
<event>
 5   0  0.1211345E-01  0.5023051E+03  0.7818609E-02  0.1013179E+00
       -2   -1    0    0    0  501  0.00000000000E+00  0.00000000000E+00  0.53185023192E+02  0.53185023253E+02  0.25500000920E-02 0.  1.
        2   -1    0    0  501    0  0.00000000000E+00  0.00000000000E+00 -0.11860029700E+04  0.11860029700E+04  0.25500000920E-02 0. -1.
    10030    2    1    2    0    0  0.00000000000E+00  0.00000000000E+00 -0.11328179468E+04  0.12391879932E+04  0.50230506868E+03 0.  0.
        5    1    3    3  502    0  0.10604497677E+03  0.40643384255E+01 -0.49641851784E+01  0.10634279043E+03  0.46999998093E+01 0.  1.
       -5    1    3    3    0  502 -0.10604497677E+03 -0.40643384255E+01 -0.11278537616E+04  0.11328452028E+04  0.46999998093E+01 0. -1.
</event>
<event>
 5   0  0.1211345E-01  0.4993861E+03  0.7818609E-02  0.1013939E+00
        2   -1    0    0  501    0  0.00000000000E+00  0.00000000000E+00  0.50698581303E+03  0.50698581303E+03  0.25500000920E-02 0. -1.
       -2   -1    0    0    0  501  0.00000000000E+00  0.00000000000E+00 -0.12297508897E+03  0.12297508899E+03  0.25500000920E-02 0.  1.
    10030    2    1    2    0    0  0.00000000000E+00  0.00000000000E+00  0.38401072406E+03  0.62996090203E+03  0.49938612505E+03 0.  0.
        5    1    3    3  502    0  0.38048463420E+02 -0.17750996108E+03 -0.24170593109E+02  0.18320420143E+03  0.46999998093E+01 0.  1.
       -5    1    3    3    0  502 -0.38048463420E+02  0.17750996108E+03  0.40818131717E+03  0.44675670060E+03  0.46999998093E+01 0. -1.
</event>
<event>
 5   0  0.7416638E-02  0.5127475E+03  0.7818609E-02  0.1010504E+00
        1   -1    0    0  501    0  0.00000000000E+00  0.00000000000E+00  0.12903206454E+03  0.12903206464E+03  0.50400001928E-02 0. -1.
       -1   -1    0    0    0  501  0.00000000000E+00  0.00000000000E+00 -0.50938880079E+03  0.50938880082E+03  0.50400001928E-02 0.  1.
    10030    2    1    2    0    0  0.00000000000E+00  0.00000000000E+00 -0.38035673625E+03  0.63842086546E+03  0.51274745698E+03 0.  0.
        1    1    3    3  502    0 -0.12332183693E+03  0.15444589446E+03  0.13141528249E+02  0.19807702938E+03  0.50400001928E-02 0. -1.
       -1    1    3    3    0  502  0.12332183693E+03 -0.15444589446E+03 -0.39349826450E+03  0.44034383608E+03  0.50400001928E-02 0.  1.
</event>
<event>
 5   0  0.5006750E-02  0.4972779E+03  0.7818609E-02  0.1014492E+00
       -3   -1    0    0    0  501  0.00000000000E+00  0.00000000000E+00  0.53164702383E+03  0.53164703342E+03  0.10100000352E+00 0. -1.
        3   -1    0    0  501    0  0.00000000000E+00  0.00000000000E+00 -0.11628261982E+03  0.11628266368E+03  0.10100000352E+00 0.  1.
    10030    2    1    2    0    0  0.00000000000E+00  0.00000000000E+00  0.41536440402E+03  0.64792969710E+03  0.49727789441E+03 0.  0.
        3    1    3    3  502    0 -0.19038934221E+03 -0.13010122314E+03  0.32884201601E+03  0.40163604368E+03  0.10100000352E+00 0. -1.
       -3    1    3    3    0  502  0.19038934221E+03  0.13010122314E+03  0.86522388005E+02  0.24629365342E+03  0.10100000352E+00 0.  1.
</event>
<event>
 5   0  0.7416638E-02  0.4900161E+03  0.7818609E-02  0.1016418E+00
       -1   -1    0    0    0  501  0.00000000000E+00  0.00000000000E+00  0.12265198422E+03  0.12265198432E+03  0.50400001928E-02 0.  1.
        1   -1    0    0  501    0  0.00000000000E+00  0.00000000000E+00 -0.48942489731E+03  0.48942489733E+03  0.50400001928E-02 0. -1.
    10030    2    1    2    0    0  0.00000000000E+00  0.00000000000E+00 -0.36677291309E+03  0.61207688165E+03  0.49001606022E+03 0.  0.
        1    1    3    3  502    0  0.53359148574E+02 -0.11075180223E+03  0.81338635424E+02  0.14740805294E+03  0.50400001928E-02 0.  1.
       -1    1    3    3    0  502 -0.53359148574E+02  0.11075180223E+03 -0.44811154851E+03  0.46466882871E+03  0.50400001928E-02 0. -1.
</event>
<event>
 5   0  0.7531632E-02  0.4985088E+03  0.7818609E-02  0.1014169E+00
        1   -1    0    0  501    0  0.00000000000E+00  0.00000000000E+00  0.75249554973E+02  0.75249555142E+02  0.50400001928E-02 0. -1.
       -1   -1    0    0    0  501  0.00000000000E+00  0.00000000000E+00 -0.82562294632E+03  0.82562294633E+03  0.50400001928E-02 0.  1.
    10030    2    1    2    0    0  0.00000000000E+00  0.00000000000E+00 -0.75037339135E+03  0.90087250148E+03  0.49850881384E+03 0.  0.
        3    1    3    3  502    0 -0.38907158620E+02  0.12375059923E+03 -0.75981256814E+03  0.77080680246E+03  0.10100000352E+00 0.  1.
       -3    1    3    3    0  502  0.38907158620E+02 -0.12375059923E+03  0.94391767981E+01  0.13006569902E+03  0.10100000352E+00 0. -1.
</event>
<event>
 5   0  0.1231822E-01  0.4978469E+03  0.7818609E-02  0.1014342E+00
        2   -1    0    0  501    0  0.00000000000E+00  0.00000000000E+00  0.58436169115E+03  0.58436169116E+03  0.25500000920E-02 0.  1.
       -2   -1    0    0    0  501  0.00000000000E+00  0.00000000000E+00 -0.10603515272E+03  0.10603515275E+03  0.25500000920E-02 0. -1.
    10030    2    1    2    0    0  0.00000000000E+00  0.00000000000E+00  0.47832653843E+03  0.69039684391E+03  0.49784688882E+03 0.  0.
        1    1    3    3  502    0  0.14817730291E+03  0.14783355761E+03  0.42599926176E+03  0.47464370311E+03  0.50400001928E-02 0.  1.
       -1    1    3    3    0  502 -0.14817730291E+03 -0.14783355761E+03  0.52327276665E+02  0.21575314079E+03  0.50400001928E-02 0. -1.
</event>
<event>
 5   0  0.7531632E-02  0.5087993E+03  0.7818609E-02  0.1011507E+00
       -1   -1    0    0    0  501  0.00000000000E+00  0.00000000000E+00  0.51871785391E+03  0.51871785393E+03  0.50400001928E-02 0. -1.
        1   -1    0    0  501    0  0.00000000000E+00  0.00000000000E+00 -0.12476761644E+03  0.12476761655E+03  0.50400001928E-02 0.  1.
    10030    2    1    2    0    0  0.00000000000E+00  0.00000000000E+00  0.39395023747E+03  0.64348547048E+03  0.50879933286E+03 0.  0.
        3    1    3    3  502    0 -0.10428932781E+03 -0.12803369440E+02 -0.96042935132E+02  0.14235324286E+03  0.10100000352E+00 0.  1.
       -3    1    3    3    0  502  0.10428932781E+03  0.12803369440E+02  0.48999317260E+03  0.50113222762E+03  0.10100000352E+00 0. -1.
</event>
<event>
 5   0  0.1231822E-01  0.5066377E+03  0.7818609E-02  0.1012061E+00
        2   -1    0    0  501    0  0.00000000000E+00  0.00000000000E+00  0.20224546621E+04  0.20224546621E+04  0.25500000920E-02 0. -1.
       -2   -1    0    0    0  501  0.00000000000E+00  0.00000000000E+00 -0.31728991837E+02  0.31728991940E+02  0.25500000920E-02 0.  1.
    10030    2    1    2    0    0  0.00000000000E+00  0.00000000000E+00  0.19907256703E+04  0.20541836541E+04  0.50663773082E+03 0.  0.
        1    1    3    3  502    0 -0.37392690791E+02  0.18575749127E+03  0.16770371060E+04  0.16877077691E+04  0.50400001928E-02 0. -1.
       -1    1    3    3    0  502  0.37392690791E+02 -0.18575749127E+03  0.31368856430E+03  0.36647588500E+03  0.50400001928E-02 0.  1.
</event>
<event>
 5   0  0.1191894E-01  0.5030839E+03  0.7818609E-02  0.1012977E+00
        2   -1    0    0  501    0  0.00000000000E+00  0.00000000000E+00  0.43842478213E+03  0.43842478213E+03  0.25500000920E-02 0. -1.
       -2   -1    0    0    0  501  0.00000000000E+00  0.00000000000E+00 -0.14431974041E+03  0.14431974043E+03  0.25500000920E-02 0.  1.
    10030    2    1    2    0    0  0.00000000000E+00  0.00000000000E+00  0.29410504172E+03  0.58274452256E+03  0.50308389262E+03 0.  0.
        3    1    3    3  502    0  0.17940310182E+03 -0.17602417425E+03  0.13527621212E+03  0.28542888191E+03  0.10100000352E+00 0.  1.
       -3    1    3    3    0  502 -0.17940310182E+03  0.17602417425E+03  0.15882882960E+03  0.29731564065E+03  0.10100000352E+00 0. -1.
</event>
<event>
 5   0  0.1279188E-01  0.5021483E+03  0.7818609E-02  0.1013220E+00
        2   -1    0    0  501    0  0.00000000000E+00  0.00000000000E+00  0.10397636257E+04  0.10397636257E+04  0.25500000920E-02 0.  1.
       -2   -1    0    0    0  501  0.00000000000E+00  0.00000000000E+00 -0.60627462008E+02  0.60627462061E+02  0.25500000920E-02 0. -1.
    10030    2    1    2    0    0  0.00000000000E+00  0.00000000000E+00  0.97913616374E+03  0.11003910878E+04  0.50214830378E+03 0.  0.
        2    1    3    3  502    0 -0.62292499354E+01  0.16671105578E+03  0.90074492676E+03  0.91606375474E+03  0.25500000920E-02 0.  1.
       -2    1    3    3    0  502  0.62292499354E+01 -0.16671105578E+03  0.78391236980E+02  0.18432733306E+03  0.25500000920E-02 0. -1.
</event>
<event>
 5   0  0.7781754E-02  0.5023273E+03  0.7818609E-02  0.1013173E+00
       -1   -1    0    0    0  501  0.00000000000E+00  0.00000000000E+00  0.11030993971E+03  0.11030993983E+03  0.50400001928E-02 0. -1.
        1   -1    0    0  501    0  0.00000000000E+00  0.00000000000E+00 -0.57187215861E+03  0.57187215863E+03  0.50400001928E-02 0.  1.
    10030    2    1    2    0    0  0.00000000000E+00  0.00000000000E+00 -0.46156221890E+03  0.68218209845E+03  0.50232731713E+03 0.  0.
        2    1    3    3  502    0  0.22833919336E+03 -0.32829871484E+02 -0.36567652444E+03  0.43236085417E+03  0.25500000920E-02 0.  1.
       -2    1    3    3    0  502 -0.22833919336E+03  0.32829871484E+02 -0.95885694453E+02  0.24982124428E+03  0.25500000920E-02 0. -1.
</event>
<event>
 5   0  0.1211345E-01  0.4947898E+03  0.7818609E-02  0.1015148E+00
        2   -1    0    0  501    0  0.00000000000E+00  0.00000000000E+00  0.71613928102E+03  0.71613928102E+03  0.25500000920E-02 0. -1.
       -2   -1    0    0    0  501  0.00000000000E+00  0.00000000000E+00 -0.85464139924E+02  0.85464139962E+02  0.25500000920E-02 0.  1.
    10030    2    1    2    0    0  0.00000000000E+00  0.00000000000E+00  0.63067514109E+03  0.80160342098E+03  0.49478976438E+03 0.  0.
        5    1    3    3  502    0  0.23887633070E+03  0.59411548695E+02  0.35470620660E+03  0.43177565527E+03  0.46999998093E+01 0.  1.
       -5    1    3    3    0  502 -0.23887633070E+03 -0.59411548695E+02  0.27596893449E+03  0.36982776571E+03  0.46999998093E+01 0. -1.
</event>
<event>
 5   0  0.7602288E-02  0.4981421E+03  0.7818609E-02  0.1014265E+00
       -1   -1    0    0    0  501  0.00000000000E+00  0.00000000000E+00  0.54103281094E+03  0.54103281096E+03  0.50400001928E-02 0.  1.
        1   -1    0    0  501    0  0.00000000000E+00  0.00000000000E+00 -0.11466287974E+03  0.11466287985E+03  0.50400001928E-02 0. -1.
    10030    2    1    2    0    0  0.00000000000E+00  0.00000000000E+00  0.42636993120E+03  0.65569569081E+03  0.49814206881E+03 0.  0.
        5    1    3    3  502    0 -0.23811025650E+02  0.24668800681E+03  0.18114889556E+03  0.30701620480E+03  0.46999998093E+01 0. -1.
       -5    1    3    3    0  502  0.23811025650E+02 -0.24668800681E+03  0.24522103564E+03  0.34867948601E+03  0.46999998093E+01 0.  1.
</event>
<event>
 5   0  0.1211345E-01  0.5362055E+03  0.7818609E-02  0.1004738E+00
        2   -1    0    0  501    0  0.00000000000E+00  0.00000000000E+00  0.85886873860E+03  0.85886873861E+03  0.25500000920E-02 0.  1.
       -2   -1    0    0    0  501  0.00000000000E+00  0.00000000000E+00 -0.83690409974E+02  0.83690410013E+02  0.25500000920E-02 0. -1.
    10030    2    1    2    0    0  0.00000000000E+00  0.00000000000E+00  0.77517832863E+03  0.94255914862E+03  0.53620547132E+03 0.  0.
        5    1    3    3  502    0 -0.17548610421E+03  0.12437885027E+02  0.74311873317E+03  0.76367376237E+03  0.46999998093E+01 0.  1.
       -5    1    3    3    0  502  0.17548610421E+03 -0.12437885027E+02  0.32059595460E+02  0.17888538625E+03  0.46999998093E+01 0. -1.
</event>
<event>
 5   0  0.1231822E-01  0.5011352E+03  0.7818609E-02  0.1013483E+00
        2   -1    0    0  501    0  0.00000000000E+00  0.00000000000E+00  0.69449668464E+03  0.69449668464E+03  0.25500000920E-02 0. -1.
       -2   -1    0    0    0  501  0.00000000000E+00  0.00000000000E+00 -0.90402337029E+02  0.90402337065E+02  0.25500000920E-02 0.  1.
    10030    2    1    2    0    0  0.00000000000E+00  0.00000000000E+00  0.60409434761E+03  0.78489902170E+03  0.50113520477E+03 0.  0.
        1    1    3    3  502    0 -0.40791110413E+02  0.46375090222E+02  0.68238788755E+03  0.68517719809E+03  0.50400001928E-02 0. -1.
       -1    1    3    3    0  502  0.40791110413E+02 -0.46375090222E+02 -0.78293539946E+02  0.99721823612E+02  0.50400001928E-02 0.  1.
</event>
<event>
 5   0  0.1243803E-01  0.4945853E+03  0.7818609E-02  0.1015202E+00
       -2   -1    0    0    0  501  0.00000000000E+00  0.00000000000E+00  0.80495443260E+02  0.80495443301E+02  0.25500000920E-02 0. -1.
        2   -1    0    0  501    0  0.00000000000E+00  0.00000000000E+00 -0.75971576360E+03  0.75971576361E+03  0.25500000920E-02 0.  1.
    10030    2    1    2    0    0  0.00000000000E+00  0.00000000000E+00 -0.67922032034E+03  0.84021120691E+03  0.49458530978E+03 0.  0.
        4    1    3    3  502    0 -0.26197826767E+02  0.24044451466E+03 -0.25212254349E+03  0.34938128255E+03  0.12699999809E+01 0. -1.
       -4    1    3    3    0  502  0.26197826767E+02 -0.24044451466E+03 -0.42709777685E+03  0.49082992436E+03  0.12699999809E+01 0.  1.
</event>
<event>
 5   0  0.5006750E-02  0.4816038E+03  0.7818609E-02  0.1018695E+00
        3   -1    0    0  501    0  0.00000000000E+00  0.00000000000E+00  0.70460478851E+03  0.70460479575E+03  0.10100000352E+00 0. -1.
       -3   -1    0    0    0  501  0.00000000000E+00  0.00000000000E+00 -0.82295105265E+02  0.82295167243E+02  0.10100000352E+00 0.  1.
    10030    2    1    2    0    0  0.00000000000E+00  0.00000000000E+00  0.62230968325E+03  0.78689996299E+03  0.48160378933E+03 0.  0.
        5    1    3    3  502    0 -0.11882691151E+03 -0.16621497868E+03  0.51922236057E+03  0.55799749439E+03  0.46999998093E+01 0.  1.
       -5    1    3    3    0  502  0.11882691151E+03  0.16621497868E+03  0.10308732268E+03  0.22890246860E+03  0.46999998093E+01 0. -1.
</event>
<event>
 5   0  0.7781754E-02  0.4995589E+03  0.7818609E-02  0.1013894E+00
       -1   -1    0    0    0  501  0.00000000000E+00  0.00000000000E+00  0.10639528510E+03  0.10639528522E+03  0.50400001928E-02 0. -1.
        1   -1    0    0  501    0  0.00000000000E+00  0.00000000000E+00 -0.58639607223E+03  0.58639607225E+03  0.50400001928E-02 0.  1.
    10030    2    1    2    0    0  0.00000000000E+00  0.00000000000E+00 -0.48000078713E+03  0.69279135748E+03  0.49955891479E+03 0.  0.
        2    1    3    3  502    0  0.16880764877E+03 -0.12813703294E+03 -0.56676081790E+02  0.21937935124E+03  0.25500000920E-02 0. -1.
       -2    1    3    3    0  502 -0.16880764877E+03  0.12813703294E+03 -0.42332470534E+03  0.47341200624E+03  0.25500000920E-02 0.  1.
</event>
<event>
 5   0  0.7781754E-02  0.5050349E+03  0.7818609E-02  0.1012473E+00
        1   -1    0    0  501    0  0.00000000000E+00  0.00000000000E+00  0.72509898656E+03  0.72509898657E+03  0.50400001928E-02 0. -1.
       -1   -1    0    0    0  501  0.00000000000E+00  0.00000000000E+00 -0.87939798719E+02  0.87939798864E+02  0.50400001928E-02 0.  1.
    10030    2    1    2    0    0  0.00000000000E+00  0.00000000000E+00  0.63715918784E+03  0.81303878544E+03  0.50503488590E+03 0.  0.
        2    1    3    3  502    0 -0.11102114819E+02  0.17303038732E+03  0.23037346078E+02  0.17490995172E+03  0.25500000920E-02 0.  1.
       -2    1    3    3    0  502  0.11102114819E+02 -0.17303038732E+03  0.61412184176E+03  0.63812883372E+03  0.25500000920E-02 0. -1.
</event>
<event>
 5   0  0.1211345E-01  0.4974114E+03  0.7818609E-02  0.1014457E+00
       -2   -1    0    0    0  501  0.00000000000E+00  0.00000000000E+00  0.11804544203E+03  0.11804544206E+03  0.25500000920E-02 0.  1.
        2   -1    0    0  501    0  0.00000000000E+00  0.00000000000E+00 -0.52398913182E+03  0.52398913183E+03  0.25500000920E-02 0. -1.
    10030    2    1    2    0    0  0.00000000000E+00  0.00000000000E+00 -0.40594368979E+03  0.64203457389E+03  0.49741141401E+03 0.  0.
        5    1    3    3  502    0 -0.68110572282E+02 -0.20452546562E+03 -0.42987766938E+02  0.21986303520E+03  0.46999998093E+01 0.  1.
       -5    1    3    3    0  502  0.68110572282E+02  0.20452546562E+03 -0.36295592285E+03  0.42217153868E+03  0.46999998093E+01 0. -1.
</event>
<event>
 5   0  0.1191894E-01  0.5073331E+03  0.7818609E-02  0.1011882E+00
        2   -1    0    0  501    0  0.00000000000E+00  0.00000000000E+00  0.67596682805E+03  0.67596682806E+03  0.25500000920E-02 0.  1.
       -2   -1    0    0    0  501  0.00000000000E+00  0.00000000000E+00 -0.95192122629E+02  0.95192122663E+02  0.25500000920E-02 0. -1.
    10030    2    1    2    0    0  0.00000000000E+00  0.00000000000E+00  0.58077470542E+03  0.77115895072E+03  0.50733309454E+03 0.  0.
        3    1    3    3  502    0  0.63324476114E+02 -0.20853608591E+03  0.93080045090E+02  0.23698352980E+03  0.10100000352E+00 0. -1.
       -3    1    3    3    0  502 -0.63324476114E+02  0.20853608591E+03  0.48769466033E+03  0.53417542092E+03  0.10100000352E+00 0.  1.
</event>
<event>
 5   0  0.5006750E-02  0.5095428E+03  0.7818609E-02  0.1011318E+00
       -4   -1    0    0    0  501  0.00000000000E+00  0.00000000000E+00  0.90121158991E+02  0.90130107055E+02  0.12699999809E+01 0. -1.
        4   -1    0    0  501    0  0.00000000000E+00  0.00000000000E+00 -0.72019046434E+03  0.72019158411E+03  0.12699999809E+01 0.  1.
    10030    2    1    2    0    0  0.00000000000E+00  0.00000000000E+00 -0.63006930535E+03  0.81032169117E+03  0.50954284769E+03 0.  0.
        5    1    3    3  502    0  0.23703529294E+02 -0.25175936158E+03 -0.36383756214E+03  0.44310776914E+03  0.46999998093E+01 0.  1.
       -5    1    3    3    0  502 -0.23703529294E+02  0.25175936158E+03 -0.26623174320E+03  0.36721392203E+03  0.46999998093E+01 0. -1.
</event>
<event>
 5   0  0.1243803E-01  0.5169520E+03  0.7818609E-02  0.1009447E+00
        2   -1    0    0  501    0  0.00000000000E+00  0.00000000000E+00  0.25626731443E+03  0.25626731444E+03  0.25500000920E-02 0.  1.
       -2   -1    0    0    0  501  0.00000000000E+00  0.00000000000E+00 -0.26070374442E+03  0.26070374443E+03  0.25500000920E-02 0. -1.
    10030    2    1    2    0    0  0.00000000000E+00  0.00000000000E+00 -0.44364299885E+01  0.51697105888E+03  0.51695202273E+03 0.  0.
        4    1    3    3  502    0 -0.19057877947E+03 -0.16882473802E+03  0.42349918026E+02  0.25810306431E+03  0.12699999809E+01 0.  1.
       -4    1    3    3    0  502  0.19057877947E+03  0.16882473802E+03 -0.46786348015E+02  0.25886799457E+03  0.12699999809E+01 0. -1.
</event>
<event>
 5   0  0.7781754E-02  0.5041458E+03  0.7818609E-02  0.1012702E+00
       -1   -1    0    0    0  501  0.00000000000E+00  0.00000000000E+00  0.50546158760E+02  0.50546159011E+02  0.50400001928E-02 0.  1.
        1   -1    0    0  501    0  0.00000000000E+00  0.00000000000E+00 -0.12570834982E+04  0.12570834982E+04  0.50400001928E-02 0. -1.
    10030    2    1    2    0    0  0.00000000000E+00  0.00000000000E+00 -0.12065373395E+04  0.13076296572E+04  0.50414578148E+03 0.  0.
        2    1    3    3  502    0  0.17458382975E+03  0.11924987318E+03 -0.95929088634E+03  0.98231311224E+03  0.25500000920E-02 0. -1.
       -2    1    3    3    0  502 -0.17458382975E+03 -0.11924987318E+03 -0.24724645312E+03  0.32531654500E+03  0.25500000920E-02 0.  1.
</event>
<event>
 5   0  0.5006750E-02  0.5341408E+03  0.7818609E-02  0.1005233E+00
        3   -1    0    0  501    0  0.00000000000E+00  0.00000000000E+00  0.17421239080E+04  0.17421239109E+04  0.10100000352E+00 0.  1.
       -3   -1    0    0    0  501  0.00000000000E+00  0.00000000000E+00 -0.40942253283E+02  0.40942377861E+02  0.10100000352E+00 0. -1.
    10030    2    1    2    0    0  0.00000000000E+00  0.00000000000E+00  0.17011816547E+04  0.17830662888E+04  0.53414077533E+03 0.  0.
        1    1    3    3  502    0  0.13631849354E+03  0.52370790482E+02  0.10413897675E+03  0.17936097089E+03  0.50400001928E-02 0. -1.
       -1    1    3    3    0  502 -0.13631849354E+03 -0.52370790482E+02  0.15970426780E+04  0.16037053179E+04  0.50400001928E-02 0.  1.
</event>
<event>
 5   0  0.7531632E-02  0.5079770E+03  0.7818609E-02  0.1011718E+00
        1   -1    0    0  501    0  0.00000000000E+00  0.00000000000E+00  0.56466307023E+03  0.56466307026E+03  0.50400001928E-02 0.  1.
       -1   -1    0    0    0  501  0.00000000000E+00  0.00000000000E+00 -0.11424539617E+03  0.11424539628E+03  0.50400001928E-02 0. -1.
    10030    2    1    2    0    0  0.00000000000E+00  0.00000000000E+00  0.45041767407E+03  0.67890846654E+03  0.50797699242E+03 0.  0.
        3    1    3    3  502    0  0.17176786370E+03  0.82415542871E+02  0.71902856714E+00  0.19051784145E+03  0.10100000352E+00 0. -1.
       -3    1    3    3    0  502 -0.17176786370E+03 -0.82415542871E+02  0.44969864550E+03  0.48839062509E+03  0.10100000352E+00 0.  1.
</event>
<event>
 5   0  0.1191894E-01  0.4938858E+03  0.7818609E-02  0.1015387E+00
       -2   -1    0    0    0  501  0.00000000000E+00  0.00000000000E+00  0.13525182606E+03  0.13525182608E+03  0.25500000920E-02 0. -1.
        2   -1    0    0  501    0  0.00000000000E+00  0.00000000000E+00 -0.45086855543E+03  0.45086855544E+03  0.25500000920E-02 0.  1.
    10030    2    1    2    0    0  0.00000000000E+00  0.00000000000E+00 -0.31561672937E+03  0.58612038152E+03  0.49388579831E+03 0.  0.
        3    1    3    3  502    0  0.74337446609E+01  0.17639736775E+03 -0.36270630022E+03  0.40339454921E+03  0.10100000352E+00 0. -1.
       -3    1    3    3    0  502 -0.74337446609E+01 -0.17639736775E+03  0.47089570856E+02  0.18272583231E+03  0.10100000352E+00 0.  1.
</event>
<event>
 5   0  0.7781754E-02  0.4982978E+03  0.7818609E-02  0.1014224E+00
        1   -1    0    0  501    0  0.00000000000E+00  0.00000000000E+00  0.64752070816E+03  0.64752070818E+03  0.50400001928E-02 0.  1.
       -1   -1    0    0    0  501  0.00000000000E+00  0.00000000000E+00 -0.95865937327E+02  0.95865937459E+02  0.50400001928E-02 0. -1.
    10030    2    1    2    0    0  0.00000000000E+00  0.00000000000E+00  0.55165477083E+03  0.74338664564E+03  0.49829782132E+03 0.  0.
        2    1    3    3  502    0  0.12603916565E+03  0.19562880784E+03  0.14307201254E+03  0.27317778554E+03  0.25500000920E-02 0. -1.
       -2    1    3    3    0  502 -0.12603916565E+03 -0.19562880784E+03  0.40858275829E+03  0.47020886010E+03  0.25500000920E-02 0.  1.
</event>
<event>
 5   0  0.1231822E-01  0.5014117E+03  0.7818609E-02  0.1013411E+00
        2   -1    0    0  501    0  0.00000000000E+00  0.00000000000E+00  0.56726029581E+03  0.56726029582E+03  0.25500000920E-02 0.  1.
       -2   -1    0    0    0  501  0.00000000000E+00  0.00000000000E+00 -0.11080171679E+03  0.11080171682E+03  0.25500000920E-02 0. -1.
    10030    2    1    2    0    0  0.00000000000E+00  0.00000000000E+00  0.45645857902E+03  0.67806201264E+03  0.50141166582E+03 0.  0.
        1    1    3    3  502    0 -0.13017551648E+03  0.21414133482E+03  0.23790921861E+03  0.34554735232E+03  0.50400001928E-02 0. -1.
       -1    1    3    3    0  502  0.13017551648E+03 -0.21414133482E+03  0.21854936041E+03  0.33251466032E+03  0.50400001928E-02 0.  1.
</event>
<event>
 5   0  0.5006750E-02  0.4940879E+03  0.7818609E-02  0.1015334E+00
        3   -1    0    0  501    0  0.00000000000E+00  0.00000000000E+00  0.85852685684E+02  0.85852745094E+02  0.10100000352E+00 0. -1.
       -3   -1    0    0    0  501  0.00000000000E+00  0.00000000000E+00 -0.71087675527E+03  0.71087676245E+03  0.10100000352E+00 0.  1.
    10030    2    1    2    0    0  0.00000000000E+00  0.00000000000E+00 -0.62502406959E+03  0.79672950754E+03  0.49408786731E+03 0.  0.
        3    1    3    3  502    0 -0.22211769947E+03  0.46441615109E+02 -0.46999233718E+03  0.52190602913E+03  0.10100000352E+00 0.  1.
       -3    1    3    3    0  502  0.22211769947E+03 -0.46441615109E+02 -0.15503173241E+03  0.27482347841E+03  0.10100000352E+00 0. -1.
</event>
<event>
 5   0  0.1191894E-01  0.4906142E+03  0.7818609E-02  0.1016258E+00
        2   -1    0    0  501    0  0.00000000000E+00  0.00000000000E+00  0.25887452055E+03  0.25887452057E+03  0.25500000920E-02 0. -1.
       -2   -1    0    0    0  501  0.00000000000E+00  0.00000000000E+00 -0.23245071048E+03  0.23245071049E+03  0.25500000920E-02 0.  1.
    10030    2    1    2    0    0  0.00000000000E+00  0.00000000000E+00  0.26423810079E+02  0.49132523106E+03  0.49061417115E+03 0.  0.
        3    1    3    3  502    0  0.11558288275E+03  0.57031379357E+02 -0.19580948662E+03  0.23442130080E+03  0.10100000352E+00 0.  1.
       -3    1    3    3    0  502 -0.11558288275E+03 -0.57031379357E+02  0.22223329670E+03  0.25690393026E+03  0.10100000352E+00 0. -1.
</event>
<event>
 5   0  0.7416638E-02  0.5020762E+03  0.7818609E-02  0.1013238E+00
        1   -1    0    0  501    0  0.00000000000E+00  0.00000000000E+00  0.36791234454E+03  0.36791234457E+03  0.50400001928E-02 0.  1.
       -1   -1    0    0    0  501  0.00000000000E+00  0.00000000000E+00 -0.17129113381E+03  0.17129113389E+03  0.50400001928E-02 0. -1.
    10030    2    1    2    0    0  0.00000000000E+00  0.00000000000E+00  0.19662121073E+03  0.53920347846E+03  0.50207618015E+03 0.  0.
        1    1    3    3  502    0  0.12608380460E+03 -0.18781341726E+03 -0.18592504457E+02  0.22697287664E+03  0.50400001928E-02 0. -1.
       -1    1    3    3    0  502 -0.12608380460E+03  0.18781341726E+03  0.21521371519E+03  0.31223060182E+03  0.50400001928E-02 0.  1.
</event>
<event>
 5   0  0.7416638E-02  0.5017384E+03  0.7818609E-02  0.1013326E+00
        1   -1    0    0  501    0  0.00000000000E+00  0.00000000000E+00  0.73641549747E+03  0.73641549748E+03  0.50400001928E-02 0.  1.
       -1   -1    0    0    0  501  0.00000000000E+00  0.00000000000E+00 -0.85461758939E+02  0.85461759087E+02  0.50400001928E-02 0. -1.
    10030    2    1    2    0    0  0.00000000000E+00  0.00000000000E+00  0.65095373853E+03  0.82187725657E+03  0.50173843302E+03 0.  0.
        1    1    3    3  502    0  0.23571834118E+03  0.77746682079E+02  0.26579032502E+03  0.36366492798E+03  0.50400001928E-02 0. -1.
       -1    1    3    3    0  502 -0.23571834118E+03 -0.77746682079E+02  0.38516341351E+03  0.45821232859E+03  0.50400001928E-02 0.  1.
</event>
<event>
 5   0  0.1231822E-01  0.4994719E+03  0.7818609E-02  0.1013917E+00
        2   -1    0    0  501    0  0.00000000000E+00  0.00000000000E+00  0.19228613396E+03  0.19228613398E+03  0.25500000920E-02 0. -1.
       -2   -1    0    0    0  501  0.00000000000E+00  0.00000000000E+00 -0.32435018146E+03  0.32435018147E+03  0.25500000920E-02 0.  1.
    10030    2    1    2    0    0  0.00000000000E+00  0.00000000000E+00 -0.13206404750E+03  0.51663631545E+03  0.49947189090E+03 0.  0.
        1    1    3    3  502    0  0.52016864119E+02 -0.12540374780E+03 -0.28284489792E+03  0.31374048259E+03  0.50400001928E-02 0.  1.
       -1    1    3    3    0  502 -0.52016864119E+02  0.12540374780E+03  0.15078085041E+03  0.20289583286E+03  0.50400001928E-02 0. -1.
</event>
<event>
 5   0  0.5006750E-02  0.4881516E+03  0.7818609E-02  0.1016919E+00
       -4   -1    0    0    0  501  0.00000000000E+00  0.00000000000E+00  0.22262911700E+03  0.22263273936E+03  0.12699999809E+01 0.  1.
        4   -1    0    0  501    0  0.00000000000E+00  0.00000000000E+00 -0.26758116627E+03  0.26758418011E+03  0.12699999809E+01 0. -1.
    10030    2    1    2    0    0  0.00000000000E+00  0.00000000000E+00 -0.44952049274E+02  0.49021691947E+03  0.48815155577E+03 0.  0.
        3    1    3    3  502    0  0.90083733994E+02  0.88094935815E+02 -0.23239916550E+03  0.26435805108E+03  0.10100000352E+00 0. -1.
       -3    1    3    3    0  502 -0.90083733994E+02 -0.88094935815E+02  0.18744711623E+03  0.22585886839E+03  0.10100000352E+00 0.  1.
</event>
<event>
 5   0  0.7416638E-02  0.4820020E+03  0.7818609E-02  0.1018586E+00
        1   -1    0    0  501    0  0.00000000000E+00  0.00000000000E+00  0.66413595997E+03  0.66413595999E+03  0.50400001928E-02 0.  1.
       -1   -1    0    0    0  501  0.00000000000E+00  0.00000000000E+00 -0.87454216460E+02  0.87454216605E+02  0.50400001928E-02 0. -1.
    10030    2    1    2    0    0  0.00000000000E+00  0.00000000000E+00  0.57668174351E+03  0.75159017659E+03  0.48200203345E+03 0.  0.
        1    1    3    3  502    0  0.15961225620E+03  0.11828612327E+02  0.73816549394E+01  0.16022009004E+03  0.50400001928E-02 0. -1.
       -1    1    3    3    0  502 -0.15961225620E+03 -0.11828612327E+02  0.56930008857E+03  0.59137008655E+03  0.50400001928E-02 0.  1.
</event>
<event>
 5   0  0.1191894E-01  0.4994228E+03  0.7818609E-02  0.1013930E+00
       -2   -1    0    0    0  501  0.00000000000E+00  0.00000000000E+00  0.27590069990E+03  0.27590069991E+03  0.25500000920E-02 0. -1.
        2   -1    0    0  501    0  0.00000000000E+00  0.00000000000E+00 -0.22600810004E+03  0.22600810006E+03  0.25500000920E-02 0.  1.
    10030    2    1    2    0    0  0.00000000000E+00  0.00000000000E+00  0.49892599853E+02  0.50190879997E+03  0.49942283885E+03 0.  0.
        3    1    3    3  502    0 -0.15021047522E+03 -0.11000997611E+03 -0.14228633570E+03  0.23433052136E+03  0.10100000352E+00 0.  1.
       -3    1    3    3    0  502  0.15021047522E+03  0.11000997611E+03  0.19217893556E+03  0.26757827861E+03  0.10100000352E+00 0. -1.
</event>
<event>
 5   0  0.7812547E-02  0.5005509E+03  0.7818609E-02  0.1013635E+00
        1   -1    0    0  501    0  0.00000000000E+00  0.00000000000E+00  0.10727979426E+04  0.10727979426E+04  0.50400001928E-02 0. -1.
       -1   -1    0    0    0  501  0.00000000000E+00  0.00000000000E+00 -0.58387324043E+02  0.58387324260E+02  0.50400001928E-02 0.  1.
    10030    2    1    2    0    0  0.00000000000E+00  0.00000000000E+00  0.10144106186E+04  0.11311852669E+04  0.50055090146E+03 0.  0.
        4    1    3    3  502    0  0.13683899792E+03 -0.19966266676E+03  0.36345671385E+03  0.43668350964E+03  0.12699999809E+01 0.  1.
       -4    1    3    3    0  502 -0.13683899792E+03  0.19966266676E+03  0.65095390474E+03  0.69450175726E+03  0.12699999809E+01 0. -1.
</event>
<event>
 5   0  0.7812547E-02  0.5042914E+03  0.7818609E-02  0.1012665E+00
        1   -1    0    0  501    0  0.00000000000E+00  0.00000000000E+00  0.60021589766E+03  0.60021589768E+03  0.50400001928E-02 0. -1.
       -1   -1    0    0    0  501  0.00000000000E+00  0.00000000000E+00 -0.10592432105E+03  0.10592432117E+03  0.50400001928E-02 0.  1.
    10030    2    1    2    0    0  0.00000000000E+00  0.00000000000E+00  0.49429157661E+03  0.70614021884E+03  0.50429142959E+03 0.  0.
        4    1    3    3  502    0  0.99874964524E+01  0.16176812987E+03  0.51760732879E+03  0.54239066884E+03  0.12699999809E+01 0. -1.
       -4    1    3    3    0  502 -0.99874964524E+01 -0.16176812987E+03 -0.23315752180E+02  0.16374955000E+03  0.12699999809E+01 0.  1.
</event>
<event>
 5   0  0.7812547E-02  0.4984733E+03  0.7818609E-02  0.1014178E+00
        1   -1    0    0  501    0  0.00000000000E+00  0.00000000000E+00  0.56863198852E+03  0.56863198855E+03  0.50400001928E-02 0. -1.
       -1   -1    0    0    0  501  0.00000000000E+00  0.00000000000E+00 -0.10924273679E+03  0.10924273690E+03  0.50400001928E-02 0.  1.
    10030    2    1    2    0    0  0.00000000000E+00  0.00000000000E+00  0.45938925174E+03  0.67787472545E+03  0.49847332806E+03 0.  0.
        4    1    3    3  502    0  0.78288116338E+02 -0.27094125265E+02 -0.89966694684E+02  0.12230592723E+03  0.12699999809E+01 0.  1.
       -4    1    3    3    0  502 -0.78288116338E+02  0.27094125265E+02  0.54935594642E+03  0.55556879822E+03  0.12699999809E+01 0. -1.
</event>
<event>
 5   0  0.1279188E-01  0.4946905E+03  0.7818609E-02  0.1015174E+00
       -2   -1    0    0    0  501  0.00000000000E+00  0.00000000000E+00  0.24007522717E+03  0.24007522718E+03  0.25500000920E-02 0. -1.
        2   -1    0    0  501    0  0.00000000000E+00  0.00000000000E+00 -0.25483542634E+03  0.25483542635E+03  0.25500000920E-02 0.  1.
    10030    2    1    2    0    0  0.00000000000E+00  0.00000000000E+00 -0.14760199169E+02  0.49491065353E+03  0.49469050071E+03 0.  0.
        2    1    3    3  502    0 -0.20748707193E+03 -0.20475028622E+02  0.12575639873E+03  0.24348466819E+03  0.25500000920E-02 0. -1.
       -2    1    3    3    0  502  0.20748707193E+03  0.20475028622E+02 -0.14051659790E+03  0.25142598534E+03  0.25500000920E-02 0.  1.
</event>
<event>
 5   0  0.1243803E-01  0.5039338E+03  0.7818609E-02  0.1012757E+00
       -2   -1    0    0    0  501  0.00000000000E+00  0.00000000000E+00  0.47387857395E+02  0.47387857463E+02  0.25500000920E-02 0.  1.
        2   -1    0    0  501    0  0.00000000000E+00  0.00000000000E+00 -0.13397380704E+04  0.13397380704E+04  0.25500000920E-02 0. -1.
    10030    2    1    2    0    0  0.00000000000E+00  0.00000000000E+00 -0.12923502130E+04  0.13871259279E+04  0.50393379198E+03 0.  0.
        4    1    3    3  502    0 -0.93190246506E+02  0.22617946995E+03 -0.48001020851E+03  0.53875132282E+03  0.12699999809E+01 0. -1.
       -4    1    3    3    0  502  0.93190246506E+02 -0.22617946995E+03 -0.81234000450E+03  0.84837460505E+03  0.12699999809E+01 0.  1.
</event>
<event>
 5   0  0.1191894E-01  0.4985204E+03  0.7818609E-02  0.1014166E+00
        2   -1    0    0  501    0  0.00000000000E+00  0.00000000000E+00  0.26658806777E+04  0.26658806777E+04  0.25500000920E-02 0.  1.
       -2   -1    0    0    0  501  0.00000000000E+00  0.00000000000E+00 -0.23305858699E+02  0.23305858838E+02  0.25500000920E-02 0. -1.
    10030    2    1    2    0    0  0.00000000000E+00  0.00000000000E+00  0.26425748190E+04  0.26891865365E+04  0.49852036496E+03 0.  0.
        3    1    3    3  502    0 -0.15652298065E+03 -0.18949429833E+03  0.15452073324E+04  0.15646319832E+04  0.10100000352E+00 0.  1.
       -3    1    3    3    0  502  0.15652298065E+03  0.18949429833E+03  0.10973674866E+04  0.11245545534E+04  0.10100000352E+00 0. -1.
</event>
<event>
 5   0  0.7531632E-02  0.5101369E+03  0.7818609E-02  0.1011166E+00
        1   -1    0    0  501    0  0.00000000000E+00  0.00000000000E+00  0.57485379935E+03  0.57485379938E+03  0.50400001928E-02 0.  1.
       -1   -1    0    0    0  501  0.00000000000E+00  0.00000000000E+00 -0.11317644135E+03  0.11317644146E+03  0.50400001928E-02 0. -1.
    10030    2    1    2    0    0  0.00000000000E+00  0.00000000000E+00  0.46167735801E+03  0.68803024084E+03  0.51013687321E+03 0.  0.
        3    1    3    3  502    0 -0.12955745572E+03 -0.39126569291E+02 -0.60758396713E+02  0.14834964014E+03  0.10100000352E+00 0. -1.
       -3    1    3    3    0  502  0.12955745572E+03  0.39126569291E+02  0.52243575472E+03  0.53968060070E+03  0.10100000352E+00 0.  1.
</event>
<event>
 5   0  0.1211345E-01  0.5046901E+03  0.7818609E-02  0.1012562E+00
        2   -1    0    0  501    0  0.00000000000E+00  0.00000000000E+00  0.52988261913E+03  0.52988261913E+03  0.25500000920E-02 0. -1.
       -2   -1    0    0    0  501  0.00000000000E+00  0.00000000000E+00 -0.12017382956E+03  0.12017382959E+03  0.25500000920E-02 0.  1.
    10030    2    1    2    0    0  0.00000000000E+00  0.00000000000E+00  0.40970878956E+03  0.65005644872E+03  0.50469009727E+03 0.  0.
        5    1    3    3  502    0 -0.77696694590E+02 -0.22054723257E+03  0.82809979086E+02  0.24810772011E+03  0.46999998093E+01 0.  1.
       -5    1    3    3    0  502  0.77696694590E+02  0.22054723257E+03  0.32689881048E+03  0.40194872861E+03  0.46999998093E+01 0. -1.
</event>
<event>
 5   0  0.5006750E-02  0.4865656E+03  0.7818609E-02  0.1017346E+00
       -3   -1    0    0    0  501  0.00000000000E+00  0.00000000000E+00  0.22486730083E+03  0.22486732351E+03  0.10100000352E+00 0.  1.
        3   -1    0    0  501    0  0.00000000000E+00  0.00000000000E+00 -0.26320640716E+03  0.26320642654E+03  0.10100000352E+00 0. -1.
    10030    2    1    2    0    0  0.00000000000E+00  0.00000000000E+00 -0.38339106332E+02  0.48807375004E+03  0.48656561573E+03 0.  0.
        4    1    3    3  502    0  0.19122330169E+03  0.13369258308E+03  0.49926852148E+02  0.23860922309E+03  0.12699999809E+01 0.  1.
       -4    1    3    3    0  502 -0.19122330169E+03 -0.13369258308E+03 -0.88265958480E+02  0.24946452695E+03  0.12699999809E+01 0. -1.
</event>
<event>
 5   0  0.5006750E-02  0.4995055E+03  0.7818609E-02  0.1013908E+00
       -3   -1    0    0    0  501  0.00000000000E+00  0.00000000000E+00  0.16240679295E+03  0.16240682435E+03  0.10100000352E+00 0.  1.
        3   -1    0    0  501    0  0.00000000000E+00  0.00000000000E+00 -0.38407517478E+03  0.38407518806E+03  0.10100000352E+00 0. -1.
    10030    2    1    2    0    0  0.00000000000E+00  0.00000000000E+00 -0.22166838183E+03  0.54648201241E+03  0.49950547383E+03 0.  0.
        5    1    3    3  502    0  0.24600145355E+03 -0.33104000577E+02 -0.14063062404E+03  0.28532727248E+03  0.46999998093E+01 0. -1.
       -5    1    3    3    0  502 -0.24600145355E+03  0.33104000577E+02 -0.81037757795E+02  0.26115473993E+03  0.46999998093E+01 0.  1.
</event>
<event>
 5   0  0.1279188E-01  0.5074877E+03  0.7818609E-02  0.1011843E+00
        2   -1    0    0  501    0  0.00000000000E+00  0.00000000000E+00  0.17256016880E+04  0.17256016880E+04  0.25500000920E-02 0. -1.
       -2   -1    0    0    0  501  0.00000000000E+00  0.00000000000E+00 -0.37312171610E+02  0.37312171697E+02  0.25500000920E-02 0.  1.
    10030    2    1    2    0    0  0.00000000000E+00  0.00000000000E+00  0.16882895164E+04  0.17629138597E+04  0.50748771962E+03 0.  0.
        2    1    3    3  502    0 -0.35539331978E+02  0.86972893246E+02  0.25338275925E+02  0.97310618693E+02  0.25500000920E-02 0.  1.
       -2    1    3    3    0  502  0.35539331978E+02 -0.86972893246E+02  0.16629512405E+04  0.16656032410E+04  0.25500000920E-02 0. -1.
</event>
<event>
 5   0  0.7531632E-02  0.5020052E+03  0.7818609E-02  0.1013257E+00
        1   -1    0    0  501    0  0.00000000000E+00  0.00000000000E+00  0.22530106684E+03  0.22530106689E+03  0.50400001928E-02 0. -1.
       -1   -1    0    0    0  501  0.00000000000E+00  0.00000000000E+00 -0.27963612308E+03  0.27963612312E+03  0.50400001928E-02 0.  1.
    10030    2    1    2    0    0  0.00000000000E+00  0.00000000000E+00 -0.54335056238E+02  0.50493719002E+03  0.50200524651E+03 0.  0.
        3    1    3    3  502    0  0.24963011258E+03 -0.10239959940E+02 -0.28965999874E+01  0.24985685978E+03  0.10100000352E+00 0.  1.
       -3    1    3    3    0  502 -0.24963011258E+03  0.10239959940E+02 -0.51438456251E+02  0.25508033023E+03  0.10100000352E+00 0. -1.
</event>
<event>
 5   0  0.1211345E-01  0.5028539E+03  0.7818609E-02  0.1013037E+00
        2   -1    0    0  501    0  0.00000000000E+00  0.00000000000E+00  0.12884052627E+04  0.12884052627E+04  0.25500000920E-02 0.  1.
       -2   -1    0    0    0  501  0.00000000000E+00  0.00000000000E+00 -0.49064918807E+02  0.49064918873E+02  0.25500000920E-02 0. -1.
    10030    2    1    2    0    0  0.00000000000E+00  0.00000000000E+00  0.12393403439E+04  0.13374701816E+04  0.50285385412E+03 0.  0.
        5    1    3    3  502    0  0.81981098555E+02  0.14713428762E+02 -0.11180896538E+02  0.84169400329E+02  0.46999998093E+01 0. -1.
       -5    1    3    3    0  502 -0.81981098555E+02 -0.14713428762E+02  0.12505212404E+04  0.12533007812E+04  0.46999998093E+01 0.  1.
</event>
<event>
 5   0  0.7602288E-02  0.4984206E+03  0.7818609E-02  0.1014192E+00
       -1   -1    0    0    0  501  0.00000000000E+00  0.00000000000E+00  0.77136205562E+02  0.77136205727E+02  0.50400001928E-02 0. -1.
        1   -1    0    0  501    0  0.00000000000E+00  0.00000000000E+00 -0.80514436619E+03  0.80514436621E+03  0.50400001928E-02 0.  1.
    10030    2    1    2    0    0  0.00000000000E+00  0.00000000000E+00 -0.72800816063E+03  0.88228057194E+03  0.49842063126E+03 0.  0.
        5    1    3    3  502    0 -0.98280375221E+02 -0.15792411564E+02 -0.76834064038E+03  0.77477600768E+03  0.46999998093E+01 0.  1.
       -5    1    3    3    0  502  0.98280375221E+02  0.15792411564E+02  0.40332479744E+02  0.10750456426E+03  0.46999998093E+01 0. -1.
</event>
<event>
 5   0  0.1211345E-01  0.5011955E+03  0.7818609E-02  0.1013467E+00
        2   -1    0    0  501    0  0.00000000000E+00  0.00000000000E+00  0.68853282600E+03  0.68853282600E+03  0.25500000920E-02 0.  1.
       -2   -1    0    0    0  501  0.00000000000E+00  0.00000000000E+00 -0.91207300706E+02  0.91207300742E+02  0.25500000920E-02 0. -1.
    10030    2    1    2    0    0  0.00000000000E+00  0.00000000000E+00  0.59732552529E+03  0.77974012675E+03  0.50119545298E+03 0.  0.
        5    1    3    3  502    0  0.15687850962E+03  0.45151374318E+02  0.29552072456E+01  0.16334116637E+03  0.46999998093E+01 0. -1.
       -5    1    3    3    0  502 -0.15687850962E+03 -0.45151374318E+02  0.59437031805E+03  0.61639896038E+03  0.46999998093E+01 0.  1.
</event>
<event>
 5   0  0.1231822E-01  0.5015537E+03  0.7818609E-02  0.1013374E+00
       -2   -1    0    0    0  501  0.00000000000E+00  0.00000000000E+00  0.15180423788E+03  0.15180423791E+03  0.25500000920E-02 0. -1.
        2   -1    0    0  501    0  0.00000000000E+00  0.00000000000E+00 -0.41427709022E+03  0.41427709023E+03  0.25500000920E-02 0.  1.
    10030    2    1    2    0    0  0.00000000000E+00  0.00000000000E+00 -0.26247285234E+03  0.56608132814E+03  0.50155365800E+03 0.  0.
        1    1    3    3  502    0  0.61787510054E+02  0.16874238501E+03 -0.32866189881E+03  0.37458020857E+03  0.50400001928E-02 0.  1.
       -1    1    3    3    0  502 -0.61787510054E+02 -0.16874238501E+03  0.66189046471E+02  0.19150111957E+03  0.50400001928E-02 0. -1.
</event>
<event>
 5   0  0.1243803E-01  0.4894271E+03  0.7818609E-02  0.1016576E+00
        2   -1    0    0  501    0  0.00000000000E+00  0.00000000000E+00  0.44781448527E+03  0.44781448528E+03  0.25500000920E-02 0.  1.
       -2   -1    0    0    0  501  0.00000000000E+00  0.00000000000E+00 -0.13372664607E+03  0.13372664609E+03  0.25500000920E-02 0. -1.
    10030    2    1    2    0    0  0.00000000000E+00  0.00000000000E+00  0.31408783920E+03  0.58154113138E+03  0.48942713119E+03 0.  0.
        4    1    3    3  502    0 -0.17282848825E+03 -0.60185825074E+02  0.35007227608E+03  0.39502434263E+03  0.12699999809E+01 0.  1.
       -4    1    3    3    0  502  0.17282848825E+03  0.60185825074E+02 -0.35984436872E+02  0.18651678875E+03  0.12699999809E+01 0. -1.
</event>
<event>
 5   0  0.7531632E-02  0.5100830E+03  0.7818609E-02  0.1011180E+00
       -1   -1    0    0    0  501  0.00000000000E+00  0.00000000000E+00  0.25447044970E+03  0.25447044975E+03  0.50400001928E-02 0. -1.
        1   -1    0    0  501    0  0.00000000000E+00  0.00000000000E+00 -0.25561385447E+03  0.25561385452E+03  0.50400001928E-02 0.  1.
    10030    2    1    2    0    0  0.00000000000E+00  0.00000000000E+00 -0.11434047711E+01  0.51008430427E+03  0.51008302274E+03 0.  0.
        3    1    3    3  502    0  0.13492123727E+03  0.21314879606E+03  0.36978529029E+02  0.25495797955E+03  0.10100000352E+00 0. -1.
       -3    1    3    3    0  502 -0.13492123727E+03 -0.21314879606E+03 -0.38121933800E+02  0.25512632472E+03  0.10100000352E+00 0.  1.
</event>
<event>
 5   0  0.7812547E-02  0.5057828E+03  0.7818609E-02  0.1012280E+00
        1   -1    0    0  501    0  0.00000000000E+00  0.00000000000E+00  0.14633711025E+03  0.14633711034E+03  0.50400001928E-02 0.  1.
       -1   -1    0    0    0  501  0.00000000000E+00  0.00000000000E+00 -0.43703242332E+03  0.43703242335E+03  0.50400001928E-02 0. -1.
    10030    2    1    2    0    0  0.00000000000E+00  0.00000000000E+00 -0.29069531306E+03  0.58336953368E+03  0.50578280694E+03 0.  0.
        4    1    3    3  502    0 -0.10605108735E+03 -0.21803240770E+02 -0.40894478232E+03  0.42303624233E+03  0.12699999809E+01 0. -1.
       -4    1    3    3    0  502  0.10605108735E+03  0.21803240770E+02  0.11824946926E+03  0.16033329135E+03  0.12699999809E+01 0.  1.
</event>
<event>
 5   0  0.1231822E-01  0.5013556E+03  0.7818609E-02  0.1013426E+00
        2   -1    0    0  501    0  0.00000000000E+00  0.00000000000E+00  0.77489493688E+03  0.77489493689E+03  0.25500000920E-02 0. -1.
       -2   -1    0    0    0  501  0.00000000000E+00  0.00000000000E+00 -0.81094037209E+02  0.81094037249E+02  0.25500000920E-02 0.  1.
    10030    2    1    2    0    0  0.00000000000E+00  0.00000000000E+00  0.69380089967E+03  0.85598897413E+03  0.50135559781E+03 0.  0.
        1    1    3    3  502    0 -0.24853223074E+03 -0.32641583913E+02  0.34285431389E+03  0.42471499066E+03  0.50400001928E-02 0. -1.
       -1    1    3    3    0  502  0.24853223074E+03  0.32641583913E+02  0.35094658579E+03  0.43127398347E+03  0.50400001928E-02 0.  1.
</event>
<event>
 5   0  0.7812547E-02  0.4977301E+03  0.7818609E-02  0.1014373E+00
       -1   -1    0    0    0  501  0.00000000000E+00  0.00000000000E+00  0.55239087927E+02  0.55239088157E+02  0.50400001928E-02 0.  1.
        1   -1    0    0  501    0  0.00000000000E+00  0.00000000000E+00 -0.11211955165E+04  0.11211955165E+04  0.50400001928E-02 0. -1.
    10030    2    1    2    0    0  0.00000000000E+00  0.00000000000E+00 -0.10659564285E+04  0.11764346046E+04  0.49773011908E+03 0.  0.
        4    1    3    3  502    0  0.60164012141E+02 -0.13074674129E+03 -0.53116390667E+02  0.15341897722E+03  0.12699999809E+01 0.  1.
       -4    1    3    3    0  502 -0.60164012141E+02  0.13074674129E+03 -0.10128400379E+04  0.10230156274E+04  0.12699999809E+01 0. -1.
</event>
<event>
 5   0  0.1243803E-01  0.5588777E+03  0.7818609E-02  0.9994597E-01
        2   -1    0    0  501    0  0.00000000000E+00  0.00000000000E+00  0.18089327884E+04  0.18089327884E+04  0.25500000920E-02 0.  1.
       -2   -1    0    0    0  501  0.00000000000E+00  0.00000000000E+00 -0.43166926210E+02  0.43166926286E+02  0.25500000920E-02 0. -1.
    10030    2    1    2    0    0  0.00000000000E+00  0.00000000000E+00  0.17657658622E+04  0.18520997147E+04  0.55887769061E+03 0.  0.
        4    1    3    3  502    0 -0.25343502983E+02 -0.17592802404E+03  0.15974357481E+04  0.16072944799E+04  0.12699999809E+01 0.  1.
       -4    1    3    3    0  502  0.25343502983E+02  0.17592802404E+03  0.16833011407E+03  0.24480523480E+03  0.12699999809E+01 0. -1.
</event>
<event>
 5   0  0.1211345E-01  0.5009492E+03  0.7818609E-02  0.1013531E+00
       -2   -1    0    0    0  501  0.00000000000E+00  0.00000000000E+00  0.40616159681E+03  0.40616159682E+03  0.25500000920E-02 0.  1.
        2   -1    0    0  501    0  0.00000000000E+00  0.00000000000E+00 -0.15446445524E+03  0.15446445527E+03  0.25500000920E-02 0. -1.
    10030    2    1    2    0    0  0.00000000000E+00  0.00000000000E+00  0.25169714157E+03  0.56062605209E+03  0.50094921819E+03 0.  0.
        5    1    3    3  502    0 -0.14948869820E+02 -0.61285752384E+02 -0.14537776579E+03  0.15854399055E+03  0.46999998093E+01 0. -1.
       -5    1    3    3    0  502  0.14948869820E+02  0.61285752384E+02  0.39707490736E+03  0.40208206154E+03  0.46999998093E+01 0.  1.
</event>
<event>
 5   0  0.1211345E-01  0.5034382E+03  0.7818609E-02  0.1012885E+00
        2   -1    0    0  501    0  0.00000000000E+00  0.00000000000E+00  0.69738523263E+03  0.69738523263E+03  0.25500000920E-02 0. -1.
       -2   -1    0    0    0  501  0.00000000000E+00  0.00000000000E+00 -0.90857239885E+02  0.90857239920E+02  0.25500000920E-02 0.  1.
    10030    2    1    2    0    0  0.00000000000E+00  0.00000000000E+00  0.60652799274E+03  0.78824247255E+03  0.50343816855E+03 0.  0.
        5    1    3    3  502    0  0.41068498750E+01 -0.56685789427E+02  0.68713738403E+03  0.68949983282E+03  0.46999998093E+01 0. -1.
       -5    1    3    3    0  502 -0.41068498750E+01  0.56685789427E+02 -0.80609391285E+02  0.98742639728E+02  0.46999998093E+01 0.  1.
</event>
<event>
 5   0  0.7781754E-02  0.4989584E+03  0.7818609E-02  0.1014051E+00
        1   -1    0    0  501    0  0.00000000000E+00  0.00000000000E+00  0.36124042644E+03  0.36124042647E+03  0.50400001928E-02 0. -1.
       -1   -1    0    0    0  501  0.00000000000E+00  0.00000000000E+00 -0.17229489770E+03  0.17229489777E+03  0.50400001928E-02 0.  1.
    10030    2    1    2    0    0  0.00000000000E+00  0.00000000000E+00  0.18894552874E+03  0.53353532424E+03  0.49895844455E+03 0.  0.
        2    1    3    3  502    0  0.20124466586E+03 -0.12944347490E+03  0.18976579496E+02  0.24003153816E+03  0.25500000920E-02 0.  1.
       -2    1    3    3    0  502 -0.20124466586E+03  0.12944347490E+03  0.16996894924E+03  0.29350378609E+03  0.25500000920E-02 0. -1.
</event>
<event>
 5   0  0.7781754E-02  0.5059842E+03  0.7818609E-02  0.1012229E+00
        1   -1    0    0  501    0  0.00000000000E+00  0.00000000000E+00  0.93433643985E+03  0.93433643986E+03  0.50400001928E-02 0. -1.
       -1   -1    0    0    0  501  0.00000000000E+00  0.00000000000E+00 -0.68503176334E+02  0.68503176520E+02  0.50400001928E-02 0.  1.
    10030    2    1    2    0    0  0.00000000000E+00  0.00000000000E+00  0.86583326352E+03  0.10028396164E+04  0.50598424479E+03 0.  0.
        2    1    3    3  502    0 -0.44075427689E+02  0.22370101399E+03  0.65021217685E+03  0.68902878163E+03  0.25500000920E-02 0. -1.
       -2    1    3    3    0  502  0.44075427689E+02 -0.22370101399E+03  0.21562108667E+03  0.31381083476E+03  0.25500000920E-02 0.  1.
</event>
<event>
 5   0  0.5006750E-02  0.5028999E+03  0.7818609E-02  0.1013025E+00
       -3   -1    0    0    0  501  0.00000000000E+00  0.00000000000E+00  0.12045520374E+03  0.12045524608E+03  0.10100000352E+00 0. -1.
        3   -1    0    0  501    0  0.00000000000E+00  0.00000000000E+00 -0.52490101702E+03  0.52490102674E+03  0.10100000352E+00 0.  1.
    10030    2    1    2    0    0  0.00000000000E+00  0.00000000000E+00 -0.40444581328E+03  0.64535627282E+03  0.50289989361E+03 0.  0.
        2    1    3    3  502    0  0.82539845605E+02  0.72713188366E+01 -0.50687824440E+03  0.51360612617E+03  0.25500000920E-02 0.  1.
       -2    1    3    3    0  502 -0.82539845605E+02 -0.72713188366E+01  0.10243243112E+03  0.13175014665E+03  0.25500000920E-02 0. -1.
</event>
<event>
 5   0  0.7416638E-02  0.4986067E+03  0.7818609E-02  0.1014143E+00
        1   -1    0    0  501    0  0.00000000000E+00  0.00000000000E+00  0.10239235383E+03  0.10239235396E+03  0.50400001928E-02 0. -1.
       -1   -1    0    0    0  501  0.00000000000E+00  0.00000000000E+00 -0.60700007531E+03  0.60700007533E+03  0.50400001928E-02 0.  1.
    10030    2    1    2    0    0  0.00000000000E+00  0.00000000000E+00 -0.50460772148E+03  0.70939242929E+03  0.49860672494E+03 0.  0.
        1    1    3    3  502    0 -0.13260288911E+03 -0.11997829807E+03 -0.49944427421E+03  0.53049307373E+03  0.50400001928E-02 0.  1.
       -1    1    3    3    0  502  0.13260288911E+03  0.11997829807E+03 -0.51634472659E+01  0.17889935556E+03  0.50400001928E-02 0. -1.
</event>
<event>
 5   0  0.1211345E-01  0.5044318E+03  0.7818609E-02  0.1012629E+00
        2   -1    0    0  501    0  0.00000000000E+00  0.00000000000E+00  0.15218976357E+04  0.15218976357E+04  0.25500000920E-02 0.  1.
       -2   -1    0    0    0  501  0.00000000000E+00  0.00000000000E+00 -0.41798380429E+02  0.41798380507E+02  0.25500000920E-02 0. -1.
    10030    2    1    2    0    0  0.00000000000E+00  0.00000000000E+00  0.14800992552E+04  0.15636960162E+04  0.50443178493E+03 0.  0.
        5    1    3    3  502    0 -0.30273715825E+02 -0.18295595305E+03  0.12697760446E+04  0.12832547183E+04  0.46999998093E+01 0.  1.
       -5    1    3    3    0  502  0.30273715825E+02  0.18295595305E+03  0.21032321069E+03  0.28044129792E+03  0.46999998093E+01 0. -1.
</event>
<event>
 5   0  0.1231822E-01  0.4950848E+03  0.7818609E-02  0.1015070E+00
        2   -1    0    0  501    0  0.00000000000E+00  0.00000000000E+00  0.39575944683E+03  0.39575944684E+03  0.25500000920E-02 0.  1.
       -2   -1    0    0    0  501  0.00000000000E+00  0.00000000000E+00 -0.15483457432E+03  0.15483457434E+03  0.25500000920E-02 0. -1.
    10030    2    1    2    0    0  0.00000000000E+00  0.00000000000E+00  0.24092487251E+03  0.55059402118E+03  0.49508482299E+03 0.  0.
        1    1    3    3  502    0  0.67019389140E+02 -0.10659781858E+03  0.35748388238E+03  0.37901110754E+03  0.50400001928E-02 0.  1.
       -1    1    3    3    0  502 -0.67019389140E+02  0.10659781858E+03 -0.11655900987E+03  0.17158291364E+03  0.50400001928E-02 0. -1.
</event>
<event>
 5   0  0.1231822E-01  0.5036527E+03  0.7818609E-02  0.1012830E+00
        2   -1    0    0  501    0  0.00000000000E+00  0.00000000000E+00  0.98315886309E+03  0.98315886309E+03  0.25500000920E-02 0. -1.
       -2   -1    0    0    0  501  0.00000000000E+00  0.00000000000E+00 -0.64502819751E+02  0.64502819802E+02  0.25500000920E-02 0.  1.
    10030    2    1    2    0    0  0.00000000000E+00  0.00000000000E+00  0.91865604333E+03  0.10476616829E+04  0.50365273338E+03 0.  0.
        1    1    3    3  502    0  0.23408349383E+03 -0.46224479206E+02  0.29181986453E+03  0.37694909195E+03  0.50400001928E-02 0.  1.
       -1    1    3    3    0  502 -0.23408349383E+03  0.46224479206E+02  0.62683617881E+03  0.67071259094E+03  0.50400001928E-02 0. -1.
</event>
<event>
 5   0  0.1231822E-01  0.5046643E+03  0.7818609E-02  0.1012569E+00
        2   -1    0    0  501    0  0.00000000000E+00  0.00000000000E+00  0.12810213160E+03  0.12810213162E+03  0.25500000920E-02 0.  1.
       -2   -1    0    0    0  501  0.00000000000E+00  0.00000000000E+00 -0.49703707764E+03  0.49703707765E+03  0.25500000920E-02 0. -1.
    10030    2    1    2    0    0  0.00000000000E+00  0.00000000000E+00 -0.36893494605E+03  0.62513920927E+03  0.50466428104E+03 0.  0.
        1    1    3    3  502    0 -0.53099644062E+02 -0.24208309819E+03 -0.24319535756E+03  0.34722871510E+03  0.50400001928E-02 0.  1.
       -1    1    3    3    0  502  0.53099644062E+02  0.24208309819E+03 -0.12573958849E+03  0.27791049417E+03  0.50400001928E-02 0. -1.
</event>
<event>
 5   0  0.7781754E-02  0.4981939E+03  0.7818609E-02  0.1014251E+00
        1   -1    0    0  501    0  0.00000000000E+00  0.00000000000E+00  0.12179935496E+04  0.12179935496E+04  0.50400001928E-02 0. -1.
       -1   -1    0    0    0  501  0.00000000000E+00  0.00000000000E+00 -0.50943862577E+02  0.50943862826E+02  0.50400001928E-02 0.  1.
    10030    2    1    2    0    0  0.00000000000E+00  0.00000000000E+00  0.11670496870E+04  0.12689374124E+04  0.49819392278E+03 0.  0.
        2    1    3    3  502    0 -0.29309923019E+02 -0.24736081622E+03  0.57922399814E+03  0.63051319179E+03  0.25500000920E-02 0.  1.
       -2    1    3    3    0  502  0.29309923019E+02  0.24736081622E+03  0.58782568884E+03  0.63842422061E+03  0.25500000920E-02 0. -1.
</event>
<event>
 5   0  0.7602288E-02  0.4715214E+03  0.7818609E-02  0.1021492E+00
        1   -1    0    0  501    0  0.00000000000E+00  0.00000000000E+00  0.14612220033E+03  0.14612220041E+03  0.50400001928E-02 0. -1.
       -1   -1    0    0    0  501  0.00000000000E+00  0.00000000000E+00 -0.38038784591E+03  0.38038784594E+03  0.50400001928E-02 0.  1.
    10030    2    1    2    0    0  0.00000000000E+00  0.00000000000E+00 -0.23426564558E+03  0.52651004635E+03  0.47152140589E+03 0.  0.
        5    1    3    3  502    0 -0.16143441080E+02 -0.11207934309E+00 -0.37971749337E+03  0.38008957894E+03  0.46999998093E+01 0.  1.
       -5    1    3    3    0  502  0.16143441080E+02  0.11207934309E+00  0.14545184779E+03  0.14642046741E+03  0.46999998093E+01 0. -1.
</event>
<event>
 5   0  0.1211345E-01  0.5002657E+03  0.7818609E-02  0.1013710E+00
       -2   -1    0    0    0  501  0.00000000000E+00  0.00000000000E+00  0.41649232540E+02  0.41649232618E+02  0.25500000920E-02 0.  1.
        2   -1    0    0  501    0  0.00000000000E+00  0.00000000000E+00 -0.15022231175E+04  0.15022231175E+04  0.25500000920E-02 0. -1.
    10030    2    1    2    0    0  0.00000000000E+00  0.00000000000E+00 -0.14605738850E+04  0.15438723501E+04  0.50026568944E+03 0.  0.
        5    1    3    3  502    0 -0.10803801277E+03 -0.13948856406E+03 -0.18329649165E+03  0.25445818037E+03  0.46999998093E+01 0.  1.
       -5    1    3    3    0  502  0.10803801277E+03  0.13948856406E+03 -0.12772773933E+04  0.12894141697E+04  0.46999998093E+01 0. -1.
</event>
<event>
 5   0  0.7812547E-02  0.5003477E+03  0.7818609E-02  0.1013688E+00
        1   -1    0    0  501    0  0.00000000000E+00  0.00000000000E+00  0.41930129588E+03  0.41930129591E+03  0.50400001928E-02 0. -1.
       -1   -1    0    0    0  501  0.00000000000E+00  0.00000000000E+00 -0.14926490299E+03  0.14926490308E+03  0.50400001928E-02 0.  1.
    10030    2    1    2    0    0  0.00000000000E+00  0.00000000000E+00  0.27003639288E+03  0.56856619898E+03  0.50034774822E+03 0.  0.
        4    1    3    3  502    0  0.20181972774E+03  0.13634205828E+03  0.70087456843E+02  0.25344471561E+03  0.12699999809E+01 0. -1.
       -4    1    3    3    0  502 -0.20181972774E+03 -0.13634205828E+03  0.19994893604E+03  0.31512148338E+03  0.12699999809E+01 0.  1.
</event>
<event>
 5   0  0.1279188E-01  0.5002590E+03  0.7818609E-02  0.1013711E+00
       -2   -1    0    0    0  501  0.00000000000E+00  0.00000000000E+00  0.12054186365E+03  0.12054186368E+03  0.25500000920E-02 0. -1.
        2   -1    0    0  501    0  0.00000000000E+00  0.00000000000E+00 -0.51902938937E+03  0.51902938938E+03  0.25500000920E-02 0.  1.
    10030    2    1    2    0    0  0.00000000000E+00  0.00000000000E+00 -0.39848752572E+03  0.63957125306E+03  0.50025901250E+03 0.  0.
        2    1    3    3  502    0 -0.17211123200E+03 -0.15257562800E+03 -0.73567326856E+02  0.24148240107E+03  0.25500000920E-02 0. -1.
       -2    1    3    3    0  502  0.17211123200E+03  0.15257562800E+03 -0.32492019886E+03  0.39808885199E+03  0.25500000920E-02 0.  1.
</event>
<event>
 5   0  0.7416638E-02  0.5060700E+03  0.7818609E-02  0.1012207E+00
       -1   -1    0    0    0  501  0.00000000000E+00  0.00000000000E+00  0.14910997383E+03  0.14910997391E+03  0.50400001928E-02 0.  1.
        1   -1    0    0  501    0  0.00000000000E+00  0.00000000000E+00 -0.42939258291E+03  0.42939258294E+03  0.50400001928E-02 0. -1.
    10030    2    1    2    0    0  0.00000000000E+00  0.00000000000E+00 -0.28028260909E+03  0.57850255686E+03  0.50607002216E+03 0.  0.
        1    1    3    3  502    0 -0.22888586039E+03 -0.17732707339E+02 -0.18498729837E+02  0.23031584623E+03  0.50400001928E-02 0.  1.
       -1    1    3    3    0  502  0.22888586039E+03  0.17732707339E+02 -0.26178387925E+03  0.34818671062E+03  0.50400001928E-02 0. -1.
</event>
<event>
 5   0  0.1191894E-01  0.4964443E+03  0.7818609E-02  0.1014711E+00
        2   -1    0    0  501    0  0.00000000000E+00  0.00000000000E+00  0.46229547672E+03  0.46229547673E+03  0.25500000920E-02 0.  1.
       -2   -1    0    0    0  501  0.00000000000E+00  0.00000000000E+00 -0.13327891856E+03  0.13327891859E+03  0.25500000920E-02 0. -1.
    10030    2    1    2    0    0  0.00000000000E+00  0.00000000000E+00  0.32901655816E+03  0.59557439532E+03  0.49644432197E+03 0.  0.
        3    1    3    3  502    0  0.17371024047E+03 -0.51705840976E+02 -0.38962174871E+02  0.18538285494E+03  0.10100000352E+00 0. -1.
       -3    1    3    3    0  502 -0.17371024047E+03  0.51705840976E+02  0.36797873303E+03  0.41019154038E+03  0.10100000352E+00 0.  1.
</event>
<event>
 5   0  0.1211345E-01  0.4792678E+03  0.7818609E-02  0.1019337E+00
       -2   -1    0    0    0  501  0.00000000000E+00  0.00000000000E+00  0.11743246282E+03  0.11743246285E+03  0.25500000920E-02 0.  1.
        2   -1    0    0  501    0  0.00000000000E+00  0.00000000000E+00 -0.48899933266E+03  0.48899933266E+03  0.25500000920E-02 0. -1.
    10030    2    1    2    0    0  0.00000000000E+00  0.00000000000E+00 -0.37156686983E+03  0.60643179551E+03  0.47926775799E+03 0.  0.
        5    1    3    3  502    0  0.20225376825E+03 -0.48222689861E+02 -0.35159794363E+02  0.21092727592E+03  0.46999998093E+01 0.  1.
       -5    1    3    3    0  502 -0.20225376825E+03  0.48222689861E+02 -0.33640707547E+03  0.39550451959E+03  0.46999998093E+01 0. -1.
</event>
<event>
 5   0  0.7416638E-02  0.4990292E+03  0.7818609E-02  0.1014033E+00
        1   -1    0    0  501    0  0.00000000000E+00  0.00000000000E+00  0.97405215765E+03  0.97405215766E+03  0.50400001928E-02 0.  1.
       -1   -1    0    0    0  501  0.00000000000E+00  0.00000000000E+00 -0.63916008454E+02  0.63916008653E+02  0.50400001928E-02 0. -1.
    10030    2    1    2    0    0  0.00000000000E+00  0.00000000000E+00  0.91013614920E+03  0.10379681663E+04  0.49902916168E+03 0.  0.
        1    1    3    3  502    0  0.18647126786E+03 -0.12120724157E+03  0.21979360284E+03  0.31268507643E+03  0.50400001928E-02 0. -1.
       -1    1    3    3    0  502 -0.18647126786E+03  0.12120724157E+03  0.69034254635E+03  0.72528308989E+03  0.50400001928E-02 0.  1.
</event>
<event>
 5   0  0.7812547E-02  0.5016032E+03  0.7818609E-02  0.1013361E+00
        1   -1    0    0  501    0  0.00000000000E+00  0.00000000000E+00  0.12533729388E+04  0.12533729388E+04  0.50400001928E-02 0. -1.
       -1   -1    0    0    0  501  0.00000000000E+00  0.00000000000E+00 -0.50185737661E+02  0.50185737914E+02  0.50400001928E-02 0.  1.
    10030    2    1    2    0    0  0.00000000000E+00  0.00000000000E+00  0.12031872011E+04  0.13035586767E+04  0.50160321239E+03 0.  0.
        4    1    3    3  502    0  0.16331196400E+03  0.71005385409E+02  0.14265038033E+03  0.22817385094E+03  0.12699999809E+01 0.  1.
       -4    1    3    3    0  502 -0.16331196400E+03 -0.71005385409E+02  0.10605368208E+04  0.10753848258E+04  0.12699999809E+01 0. -1.
</event>
<event>
 5   0  0.7602288E-02  0.4971201E+03  0.7818609E-02  0.1014533E+00
       -1   -1    0    0    0  501  0.00000000000E+00  0.00000000000E+00  0.10159405785E+03  0.10159405797E+03  0.50400001928E-02 0. -1.
        1   -1    0    0  501    0  0.00000000000E+00  0.00000000000E+00 -0.60812707885E+03  0.60812707887E+03  0.50400001928E-02 0.  1.
    10030    2    1    2    0    0  0.00000000000E+00  0.00000000000E+00 -0.50653302100E+03  0.70972113684E+03  0.49712009687E+03 0.  0.
        5    1    3    3  502    0 -0.74398734666E+02  0.22037614530E+03 -0.37821121550E+03  0.44403449265E+03  0.46999998093E+01 0.  1.
       -5    1    3    3    0  502  0.74398734666E+02 -0.22037614530E+03 -0.12832180550E+03  0.26568664419E+03  0.46999998093E+01 0. -1.
</event>
<event>
 5   0  0.7602288E-02  0.4876679E+03  0.7818609E-02  0.1017049E+00
        1   -1    0    0  501    0  0.00000000000E+00  0.00000000000E+00  0.19254107919E+04  0.19254107919E+04  0.50400001928E-02 0.  1.
       -1   -1    0    0    0  501  0.00000000000E+00  0.00000000000E+00 -0.30879122926E+02  0.30879123337E+02  0.50400001928E-02 0. -1.
    10030    2    1    2    0    0  0.00000000000E+00  0.00000000000E+00  0.18945316690E+04  0.19562899153E+04  0.48766790723E+03 0.  0.
        5    1    3    3  502    0 -0.81593650142E+02 -0.22696768657E+03  0.10897201513E+04  0.11161021247E+04  0.46999998093E+01 0.  1.
       -5    1    3    3    0  502  0.81593650142E+02  0.22696768657E+03  0.80481151767E+03  0.84018779059E+03  0.46999998093E+01 0. -1.
</event>
<event>
 5   0  0.1211345E-01  0.4871705E+03  0.7818609E-02  0.1017183E+00
        2   -1    0    0  501    0  0.00000000000E+00  0.00000000000E+00  0.10549056908E+04  0.10549056908E+04  0.25500000920E-02 0.  1.
       -2   -1    0    0    0  501  0.00000000000E+00  0.00000000000E+00 -0.56245564961E+02  0.56245565019E+02  0.25500000920E-02 0. -1.
    10030    2    1    2    0    0  0.00000000000E+00  0.00000000000E+00  0.99866012585E+03  0.11111512558E+04  0.48717046952E+03 0.  0.
        5    1    3    3  502    0  0.23294949462E+03  0.15023288409E+02  0.65768759928E+03  0.69790130712E+03  0.46999998093E+01 0.  1.
       -5    1    3    3    0  502 -0.23294949462E+03 -0.15023288409E+02  0.34097252656E+03  0.41324994871E+03  0.46999998093E+01 0. -1.
</event>
<event>
 5   0  0.1211345E-01  0.5154327E+03  0.7818609E-02  0.1009827E+00
       -2   -1    0    0    0  501  0.00000000000E+00  0.00000000000E+00  0.17458457242E+03  0.17458457244E+03  0.25500000920E-02 0.  1.
        2   -1    0    0  501    0  0.00000000000E+00  0.00000000000E+00 -0.38043293454E+03  0.38043293455E+03  0.25500000920E-02 0. -1.
    10030    2    1    2    0    0  0.00000000000E+00  0.00000000000E+00 -0.20584836212E+03  0.55501750699E+03  0.51543271615E+03 0.  0.
        5    1    3    3  502    0  0.16982539758E+03  0.73161342993E+02 -0.29615603013E+03  0.34917578947E+03  0.46999998093E+01 0. -1.
       -5    1    3    3    0  502 -0.16982539758E+03 -0.73161342993E+02  0.90307668011E+02  0.20584171752E+03  0.46999998093E+01 0.  1.
</event>
<event>
 5   0  0.1191894E-01  0.4944632E+03  0.7818609E-02  0.1015234E+00
       -2   -1    0    0    0  501  0.00000000000E+00  0.00000000000E+00  0.14739638050E+03  0.14739638053E+03  0.25500000920E-02 0.  1.
        2   -1    0    0  501    0  0.00000000000E+00  0.00000000000E+00 -0.41468768623E+03  0.41468768624E+03  0.25500000920E-02 0. -1.
    10030    2    1    2    0    0  0.00000000000E+00  0.00000000000E+00 -0.26729130573E+03  0.56208406677E+03  0.49446319984E+03 0.  0.
        3    1    3    3  502    0 -0.71378396796E+02 -0.20153916857E+03  0.74703457885E+01  0.21393627151E+03  0.10100000352E+00 0.  1.
       -3    1    3    3    0  502  0.71378396796E+02  0.20153916857E+03 -0.27476165152E+03  0.34814779526E+03  0.10100000352E+00 0. -1.
</event>
<event>
 5   0  0.1211345E-01  0.4971275E+03  0.7818609E-02  0.1014531E+00
       -2   -1    0    0    0  501  0.00000000000E+00  0.00000000000E+00  0.84001532372E+02  0.84001532410E+02  0.25500000920E-02 0. -1.
        2   -1    0    0  501    0  0.00000000000E+00  0.00000000000E+00 -0.73550979186E+03  0.73550979187E+03  0.25500000920E-02 0.  1.
    10030    2    1    2    0    0  0.00000000000E+00  0.00000000000E+00 -0.65150825949E+03  0.81951132428E+03  0.49712754745E+03 0.  0.
        5    1    3    3  502    0  0.12084138560E+03 -0.21676627192E+03 -0.34734891691E+03  0.42692343247E+03  0.46999998093E+01 0. -1.
       -5    1    3    3    0  502 -0.12084138560E+03  0.21676627192E+03 -0.30415934258E+03  0.39258789180E+03  0.46999998093E+01 0.  1.
</event>
<event>
 5   0  0.7781754E-02  0.4837745E+03  0.7818609E-02  0.1018103E+00
        1   -1    0    0  501    0  0.00000000000E+00  0.00000000000E+00  0.91816864685E+03  0.91816864687E+03  0.50400001928E-02 0. -1.
       -1   -1    0    0    0  501  0.00000000000E+00  0.00000000000E+00 -0.63724066310E+02  0.63724066510E+02  0.50400001928E-02 0.  1.
    10030    2    1    2    0    0  0.00000000000E+00  0.00000000000E+00  0.85444458054E+03  0.98189271338E+03  0.48377449226E+03 0.  0.
        2    1    3    3  502    0  0.36970212917E+02  0.57852259864E+02  0.89797745333E+03  0.90059823857E+03  0.25500000920E-02 0. -1.
       -2    1    3    3    0  502 -0.36970212917E+02 -0.57852259864E+02 -0.43532872789E+02  0.81294474808E+02  0.25500000920E-02 0.  1.
</event>
<event>
 5   0  0.1191894E-01  0.4897391E+03  0.7818609E-02  0.1016492E+00
       -2   -1    0    0    0  501  0.00000000000E+00  0.00000000000E+00  0.45659044495E+03  0.45659044496E+03  0.25500000920E-02 0. -1.
        2   -1    0    0  501    0  0.00000000000E+00  0.00000000000E+00 -0.13132356514E+03  0.13132356517E+03  0.25500000920E-02 0.  1.
    10030    2    1    2    0    0  0.00000000000E+00  0.00000000000E+00  0.32526687981E+03  0.58791401012E+03  0.48973905317E+03 0.  0.
        3    1    3    3  502    0  0.18996217878E+03  0.35019285795E+02  0.34329863738E+03  0.39391108688E+03  0.10100000352E+00 0. -1.
       -3    1    3    3    0  502 -0.18996217878E+03 -0.35019285795E+02 -0.18031757565E+02  0.19400292324E+03  0.10100000352E+00 0.  1.
</event>
<event>
 5   0  0.1243803E-01  0.4997189E+03  0.7818609E-02  0.1013852E+00
        2   -1    0    0  501    0  0.00000000000E+00  0.00000000000E+00  0.26552912585E+03  0.26552912587E+03  0.25500000920E-02 0. -1.
       -2   -1    0    0    0  501  0.00000000000E+00  0.00000000000E+00 -0.23511453581E+03  0.23511453583E+03  0.25500000920E-02 0.  1.
    10030    2    1    2    0    0  0.00000000000E+00  0.00000000000E+00  0.30414590040E+02  0.50064366170E+03  0.49971894972E+03 0.  0.
        4    1    3    3  502    0  0.10991405037E+03 -0.14526226056E+03 -0.15612355061E+03  0.23991331511E+03  0.12699999809E+01 0.  1.
       -4    1    3    3    0  502 -0.10991405037E+03  0.14526226056E+03  0.18653814065E+03  0.26073034658E+03  0.12699999809E+01 0. -1.
</event>
<event>
 5   0  0.1191894E-01  0.4811467E+03  0.7818609E-02  0.1018820E+00
        2   -1    0    0  501    0  0.00000000000E+00  0.00000000000E+00  0.64316591558E+03  0.64316591559E+03  0.25500000920E-02 0.  1.
       -2   -1    0    0    0  501  0.00000000000E+00  0.00000000000E+00 -0.89985393412E+02  0.89985393448E+02  0.25500000920E-02 0. -1.
    10030    2    1    2    0    0  0.00000000000E+00  0.00000000000E+00  0.55318052217E+03  0.73315130903E+03  0.48114670510E+03 0.  0.
        3    1    3    3  502    0  0.17947622843E+03  0.10705172331E+03  0.94989589196E+02  0.22955352380E+03  0.10100000352E+00 0. -1.
       -3    1    3    3    0  502 -0.17947622843E+03 -0.10705172331E+03  0.45819093297E+03  0.50359778523E+03  0.10100000352E+00 0.  1.
</event>
<event>
 5   0  0.5006750E-02  0.4992031E+03  0.7818609E-02  0.1013987E+00
       -4   -1    0    0    0  501  0.00000000000E+00  0.00000000000E+00  0.85031498719E+02  0.85040982322E+02  0.12699999809E+01 0. -1.
        4   -1    0    0  501    0  0.00000000000E+00  0.00000000000E+00 -0.73262986437E+03  0.73263096513E+03  0.12699999809E+01 0.  1.
    10030    2    1    2    0    0  0.00000000000E+00  0.00000000000E+00 -0.64759836565E+03  0.81767194745E+03  0.49920313546E+03 0.  0.
        1    1    3    3  502    0 -0.45023520351E+02 -0.11781678321E+03 -0.67659884981E+03  0.68825425199E+03  0.50400001928E-02 0.  1.
       -1    1    3    3    0  502  0.45023520351E+02  0.11781678321E+03  0.29000484163E+02  0.12941769546E+03  0.50400001928E-02 0. -1.
</event>
<event>
 5   0  0.1279188E-01  0.4983034E+03  0.7818609E-02  0.1014223E+00
       -2   -1    0    0    0  501  0.00000000000E+00  0.00000000000E+00  0.85322452843E+02  0.85322452881E+02  0.25500000920E-02 0. -1.
        2   -1    0    0  501    0  0.00000000000E+00  0.00000000000E+00 -0.72755251118E+03  0.72755251118E+03  0.25500000920E-02 0.  1.
    10030    2    1    2    0    0  0.00000000000E+00  0.00000000000E+00 -0.64223005833E+03  0.81287496406E+03  0.49830338086E+03 0.  0.
        2    1    3    3  502    0  0.11936854559E+03  0.18721680702E+03 -0.13671785640E+03  0.26075036869E+03  0.25500000920E-02 0.  1.
       -2    1    3    3    0  502 -0.11936854559E+03 -0.18721680702E+03 -0.50551220193E+03  0.55212459537E+03  0.25500000920E-02 0. -1.
</event>
<event>
 5   0  0.7781754E-02  0.4576190E+03  0.7818609E-02  0.1025474E+00
       -1   -1    0    0    0  501  0.00000000000E+00  0.00000000000E+00  0.12155699735E+03  0.12155699745E+03  0.50400001928E-02 0. -1.
        1   -1    0    0  501    0  0.00000000000E+00  0.00000000000E+00 -0.43069335928E+03  0.43069335931E+03  0.50400001928E-02 0.  1.
    10030    2    1    2    0    0  0.00000000000E+00  0.00000000000E+00 -0.30913636194E+03  0.55225035676E+03  0.45761901870E+03 0.  0.
        2    1    3    3  502    0 -0.16725981445E+03 -0.87040428958E+02 -0.31099501786E+03  0.36368912954E+03  0.25500000920E-02 0.  1.
       -2    1    3    3    0  502  0.16725981445E+03  0.87040428958E+02  0.18586559184E+01  0.18856122723E+03  0.25500000920E-02 0. -1.
</event>
<event>
 5   0  0.7781754E-02  0.5121793E+03  0.7818609E-02  0.1010648E+00
       -1   -1    0    0    0  501  0.00000000000E+00  0.00000000000E+00  0.20548470636E+03  0.20548470642E+03  0.50400001928E-02 0. -1.
        1   -1    0    0  501    0  0.00000000000E+00  0.00000000000E+00 -0.31915717390E+03  0.31915717394E+03  0.50400001928E-02 0.  1.
    10030    2    1    2    0    0  0.00000000000E+00  0.00000000000E+00 -0.11367246754E+03  0.52464188036E+03  0.51217933652E+03 0.  0.
        2    1    3    3  502    0 -0.86290472689E+00  0.46750582959E+02 -0.31474749912E+03  0.31820174390E+03  0.25500000920E-02 0.  1.
       -2    1    3    3    0  502  0.86290472689E+00 -0.46750582959E+02  0.20107503158E+03  0.20644013646E+03  0.25500000920E-02 0. -1.
</event>
<event>
 5   0  0.5006750E-02  0.5026564E+03  0.7818609E-02  0.1013088E+00
        3   -1    0    0  501    0  0.00000000000E+00  0.00000000000E+00  0.17889669055E+03  0.17889671906E+03  0.10100000352E+00 0.  1.
       -3   -1    0    0    0  501  0.00000000000E+00  0.00000000000E+00 -0.35308563318E+03  0.35308564762E+03  0.10100000352E+00 0. -1.
    10030    2    1    2    0    0  0.00000000000E+00  0.00000000000E+00 -0.17418894263E+03  0.53198236669E+03  0.50265639430E+03 0.  0.
        5    1    3    3  502    0  0.59794717233E+02  0.17765541487E+03  0.90021891805E+02  0.20799732124E+03  0.46999998093E+01 0.  1.
       -5    1    3    3    0  502 -0.59794717233E+02 -0.17765541487E+03 -0.26421083443E+03  0.32398504544E+03  0.46999998093E+01 0. -1.
</event>
<event>
 5   0  0.1243803E-01  0.4926612E+03  0.7818609E-02  0.1015712E+00
        2   -1    0    0  501    0  0.00000000000E+00  0.00000000000E+00  0.31770131534E+03  0.31770131535E+03  0.25500000920E-02 0. -1.
       -2   -1    0    0    0  501  0.00000000000E+00  0.00000000000E+00 -0.19099312195E+03  0.19099312197E+03  0.25500000920E-02 0.  1.
    10030    2    1    2    0    0  0.00000000000E+00  0.00000000000E+00  0.12670819339E+03  0.50869443732E+03  0.49266120640E+03 0.  0.
        4    1    3    3  502    0 -0.23782610973E+03 -0.29901178632E+02  0.12196236232E+03  0.26894566305E+03  0.12699999809E+01 0.  1.
       -4    1    3    3    0  502  0.23782610973E+03  0.29901178632E+02  0.47458310668E+01  0.23974877427E+03  0.12699999809E+01 0. -1.
</event>
<event>
 5   0  0.5006750E-02  0.4990590E+03  0.7818609E-02  0.1014025E+00
        3   -1    0    0  501    0  0.00000000000E+00  0.00000000000E+00  0.63558868210E+02  0.63558948458E+02  0.10100000352E+00 0. -1.
       -3   -1    0    0    0  501  0.00000000000E+00  0.00000000000E+00 -0.97964202393E+03  0.97964202913E+03  0.10100000352E+00 0.  1.
    10030    2    1    2    0    0  0.00000000000E+00  0.00000000000E+00 -0.91608315572E+03  0.10432009776E+04  0.49905904606E+03 0.  0.
        3    1    3    3  502    0  0.17318574449E+03  0.10931622711E+03 -0.16005592412E+03  0.25992546749E+03  0.10100000352E+00 0. -1.
       -3    1    3    3    0  502 -0.17318574449E+03 -0.10931622711E+03 -0.75602723160E+03  0.78327551010E+03  0.10100000352E+00 0.  1.
</event>
<event>
 5   0  0.7531632E-02  0.5007776E+03  0.7818609E-02  0.1013576E+00
        1   -1    0    0  501    0  0.00000000000E+00  0.00000000000E+00  0.32744091045E+03  0.32744091048E+03  0.50400001928E-02 0. -1.
       -1   -1    0    0    0  501  0.00000000000E+00  0.00000000000E+00 -0.19146827464E+03  0.19146827471E+03  0.50400001928E-02 0.  1.
    10030    2    1    2    0    0  0.00000000000E+00  0.00000000000E+00  0.13597263580E+03  0.51890918519E+03  0.50077758016E+03 0.  0.
        3    1    3    3  502    0 -0.26644946362E+02  0.23737208193E+03 -0.98263873779E+01  0.23906490026E+03  0.10100000352E+00 0. -1.
       -3    1    3    3    0  502  0.26644946362E+02 -0.23737208193E+03  0.14579902318E+03  0.27984428493E+03  0.10100000352E+00 0.  1.
</event>
<event>
 5   0  0.5006750E-02  0.4992446E+03  0.7818609E-02  0.1013976E+00
       -4   -1    0    0    0  501  0.00000000000E+00  0.00000000000E+00  0.13413658527E+03  0.13414259730E+03  0.12699999809E+01 0.  1.
        4   -1    0    0  501    0  0.00000000000E+00  0.00000000000E+00 -0.46451892067E+03  0.46452065677E+03  0.12699999809E+01 0. -1.
    10030    2    1    2    0    0  0.00000000000E+00  0.00000000000E+00 -0.33038233540E+03  0.59866325406E+03  0.49924463364E+03 0.  0.
        4    1    3    3  502    0  0.97061819688E+02  0.22369223169E+03 -0.22921297819E+03  0.33466313455E+03  0.12699999809E+01 0.  1.
       -4    1    3    3    0  502 -0.97061819688E+02 -0.22369223169E+03 -0.10116935721E+03  0.26400011951E+03  0.12699999809E+01 0. -1.
</event>
<event>
 5   0  0.1191894E-01  0.5021083E+03  0.7818609E-02  0.1013230E+00
       -2   -1    0    0    0  501  0.00000000000E+00  0.00000000000E+00  0.45559162240E+02  0.45559162311E+02  0.25500000920E-02 0. -1.
        2   -1    0    0  501    0  0.00000000000E+00  0.00000000000E+00 -0.13834362320E+04  0.13834362320E+04  0.25500000920E-02 0.  1.
    10030    2    1    2    0    0  0.00000000000E+00  0.00000000000E+00 -0.13378770698E+04  0.14289953944E+04  0.50210833810E+03 0.  0.
        3    1    3    3  502    0  0.32034395164E+02 -0.16989565515E+03 -0.15086317782E+03  0.22945684721E+03  0.10100000352E+00 0.  1.
       -3    1    3    3    0  502 -0.32034395164E+02  0.16989565515E+03 -0.11870138920E+04  0.11995385471E+04  0.10100000352E+00 0. -1.
</event>
<event>
 5   0  0.1191894E-01  0.5054877E+03  0.7818609E-02  0.1012356E+00
        2   -1    0    0  501    0  0.00000000000E+00  0.00000000000E+00  0.80365391516E+03  0.80365391516E+03  0.25500000920E-02 0. -1.
       -2   -1    0    0    0  501  0.00000000000E+00  0.00000000000E+00 -0.79486267722E+02  0.79486267763E+02  0.25500000920E-02 0.  1.
    10030    2    1    2    0    0  0.00000000000E+00  0.00000000000E+00  0.72416764744E+03  0.88314018293E+03  0.50548768640E+03 0.  0.
        3    1    3    3  502    0 -0.20246509033E+03 -0.14451452221E+03  0.28389466411E+03  0.37745562712E+03  0.10100000352E+00 0.  1.
       -3    1    3    3    0  502  0.20246509033E+03  0.14451452221E+03  0.44027298333E+03  0.50568455581E+03  0.10100000352E+00 0. -1.
</event>
<event>
 5   0  0.1243803E-01  0.4831481E+03  0.7818609E-02  0.1018274E+00
        2   -1    0    0  501    0  0.00000000000E+00  0.00000000000E+00  0.18135194686E+03  0.18135194688E+03  0.25500000920E-02 0.  1.
       -2   -1    0    0    0  501  0.00000000000E+00  0.00000000000E+00 -0.32179427863E+03  0.32179427864E+03  0.25500000920E-02 0. -1.
    10030    2    1    2    0    0  0.00000000000E+00  0.00000000000E+00 -0.14044233177E+03  0.50314622553E+03  0.48314808880E+03 0.  0.
        4    1    3    3  502    0  0.20452886618E+02  0.18564351012E+03  0.89334709178E+02  0.20703655857E+03  0.12699999809E+01 0.  1.
       -4    1    3    3    0  502 -0.20452886618E+02 -0.18564351012E+03 -0.22977704095E+03  0.29610966696E+03  0.12699999809E+01 0. -1.
</event>
<event>
 5   0  0.7416638E-02  0.4990621E+03  0.7818609E-02  0.1014024E+00
       -1   -1    0    0    0  501  0.00000000000E+00  0.00000000000E+00  0.73962353986E+02  0.73962354157E+02  0.50400001928E-02 0. -1.
        1   -1    0    0  501    0  0.00000000000E+00  0.00000000000E+00 -0.84185709664E+03  0.84185709665E+03  0.50400001928E-02 0.  1.
    10030    2    1    2    0    0  0.00000000000E+00  0.00000000000E+00 -0.76789474265E+03  0.91581945081E+03  0.49906205094E+03 0.  0.
        1    1    3    3  502    0 -0.46830578167E+02 -0.14459250216E+03 -0.20779083632E+02  0.15340099438E+03  0.50400001928E-02 0. -1.
       -1    1    3    3    0  502  0.46830578167E+02  0.14459250216E+03 -0.74711565902E+03  0.76241845643E+03  0.50400001928E-02 0.  1.
</event>
<event>
 5   0  0.1243803E-01  0.4982669E+03  0.7818609E-02  0.1014232E+00
       -2   -1    0    0    0  501  0.00000000000E+00  0.00000000000E+00  0.20973680784E+03  0.20973680785E+03  0.25500000920E-02 0.  1.
        2   -1    0    0  501    0  0.00000000000E+00  0.00000000000E+00 -0.29593035634E+03  0.29593035635E+03  0.25500000920E-02 0. -1.
    10030    2    1    2    0    0  0.00000000000E+00  0.00000000000E+00 -0.86193548503E+02  0.50566716420E+03  0.49826694969E+03 0.  0.
        4    1    3    3  502    0  0.71791844727E+02 -0.18694841553E+03  0.10730036257E+03  0.22719762267E+03  0.12699999809E+01 0.  1.
       -4    1    3    3    0  502 -0.71791844727E+02  0.18694841553E+03 -0.19349391107E+03  0.27846954153E+03  0.12699999809E+01 0. -1.
</event>
<event>
 5   0  0.7416638E-02  0.4973397E+03  0.7818609E-02  0.1014476E+00
        1   -1    0    0  501    0  0.00000000000E+00  0.00000000000E+00  0.44096819393E+02  0.44096819681E+02  0.50400001928E-02 0.  1.
       -1   -1    0    0    0  501  0.00000000000E+00  0.00000000000E+00 -0.14022938233E+04  0.14022938233E+04  0.50400001928E-02 0. -1.
    10030    2    1    2    0    0  0.00000000000E+00  0.00000000000E+00 -0.13581970039E+04  0.14463906430E+04  0.49733971358E+03 0.  0.
        1    1    3    3  502    0  0.52455709719E+02 -0.16764337779E+03 -0.16720603787E+03  0.24251548966E+03  0.50400001928E-02 0.  1.
       -1    1    3    3    0  502 -0.52455709719E+02  0.16764337779E+03 -0.11909909660E+04  0.12038751533E+04  0.50400001928E-02 0. -1.
</event>
<event>
 5   0  0.1191894E-01  0.5015087E+03  0.7818609E-02  0.1013386E+00
       -2   -1    0    0    0  501  0.00000000000E+00  0.00000000000E+00  0.14742042734E+03  0.14742042736E+03  0.25500000920E-02 0.  1.
        2   -1    0    0  501    0  0.00000000000E+00  0.00000000000E+00 -0.42651989740E+03  0.42651989740E+03  0.25500000920E-02 0. -1.
    10030    2    1    2    0    0  0.00000000000E+00  0.00000000000E+00 -0.27909947006E+03  0.57394032477E+03  0.50150870601E+03 0.  0.
        3    1    3    3  502    0  0.22731092806E+03 -0.20850702205E+02 -0.20767618236E+02  0.22920801462E+03  0.10100000352E+00 0.  1.
       -3    1    3    3    0  502 -0.22731092806E+03  0.20850702205E+02 -0.25833185182E+03  0.34473231015E+03  0.10100000352E+00 0. -1.
</event>
<event>
 5   0  0.1191894E-01  0.5034154E+03  0.7818609E-02  0.1012891E+00
        2   -1    0    0  501    0  0.00000000000E+00  0.00000000000E+00  0.10918141774E+04  0.10918141774E+04  0.25500000920E-02 0.  1.
       -2   -1    0    0    0  501  0.00000000000E+00  0.00000000000E+00 -0.58028896042E+02  0.58028896098E+02  0.25500000920E-02 0. -1.
    10030    2    1    2    0    0  0.00000000000E+00  0.00000000000E+00  0.10337852814E+04  0.11498430735E+04  0.50341542064E+03 0.  0.
        3    1    3    3  502    0 -0.32986912056E+02 -0.23785709352E+03  0.34455963673E+03  0.41998272199E+03  0.10100000352E+00 0. -1.
       -3    1    3    3    0  502  0.32986912056E+02  0.23785709352E+03  0.68922564467E+03  0.72986035156E+03  0.10100000352E+00 0.  1.
</event>
<event>
 5   0  0.7812547E-02  0.5116432E+03  0.7818609E-02  0.1010784E+00
        1   -1    0    0  501    0  0.00000000000E+00  0.00000000000E+00  0.94359061897E+02  0.94359062032E+02  0.50400001928E-02 0.  1.
       -1   -1    0    0    0  501  0.00000000000E+00  0.00000000000E+00 -0.69357088989E+03  0.69357088991E+03  0.50400001928E-02 0. -1.
    10030    2    1    2    0    0  0.00000000000E+00  0.00000000000E+00 -0.59921182799E+03  0.78792995194E+03  0.51164322956E+03 0.  0.
        4    1    3    3  502    0  0.18196744156E+02  0.20827854070E+03 -0.72582650179E+02  0.22131634829E+03  0.12699999809E+01 0.  1.
       -4    1    3    3    0  502 -0.18196744156E+02 -0.20827854070E+03 -0.52662917781E+03  0.56661360365E+03  0.12699999809E+01 0. -1.
</event>
<event>
 5   0  0.7416638E-02  0.5037323E+03  0.7818609E-02  0.1012809E+00
       -1   -1    0    0    0  501  0.00000000000E+00  0.00000000000E+00  0.28013079936E+03  0.28013079941E+03  0.50400001928E-02 0. -1.
        1   -1    0    0  501    0  0.00000000000E+00  0.00000000000E+00 -0.22645336699E+03  0.22645336704E+03  0.50400001928E-02 0.  1.
    10030    2    1    2    0    0  0.00000000000E+00  0.00000000000E+00  0.53677432376E+02  0.50658416645E+03  0.50373232073E+03 0.  0.
        1    1    3    3  502    0  0.17611976890E+03  0.15811431419E+03  0.11345561401E+03  0.26246997109E+03  0.50400001928E-02 0.  1.
       -1    1    3    3    0  502 -0.17611976890E+03 -0.15811431419E+03 -0.59778181635E+02  0.24411419536E+03  0.50400001928E-02 0. -1.
</event>
<event>
 5   0  0.1231822E-01  0.4974904E+03  0.7818609E-02  0.1014436E+00
        2   -1    0    0  501    0  0.00000000000E+00  0.00000000000E+00  0.16791906729E+03  0.16791906731E+03  0.25500000920E-02 0.  1.
       -2   -1    0    0    0  501  0.00000000000E+00  0.00000000000E+00 -0.36847623275E+03  0.36847623276E+03  0.25500000920E-02 0. -1.
    10030    2    1    2    0    0  0.00000000000E+00  0.00000000000E+00 -0.20055716546E+03  0.53639530007E+03  0.49749044345E+03 0.  0.
        1    1    3    3  502    0 -0.55604974880E+02  0.23686665972E+03 -0.15605882601E+03  0.28905377513E+03  0.50400001928E-02 0.  1.
       -1    1    3    3    0  502  0.55604974880E+02 -0.23686665972E+03 -0.44498339452E+02  0.24734152494E+03  0.50400001928E-02 0. -1.
</event>
<event>
 5   0  0.7781754E-02  0.5008368E+03  0.7818609E-02  0.1013561E+00
       -1   -1    0    0    0  501  0.00000000000E+00  0.00000000000E+00  0.33163040154E+02  0.33163040537E+02  0.50400001928E-02 0. -1.
        1   -1    0    0  501    0  0.00000000000E+00  0.00000000000E+00 -0.18909417717E+04  0.18909417717E+04  0.50400001928E-02 0.  1.
    10030    2    1    2    0    0  0.00000000000E+00  0.00000000000E+00 -0.18577787315E+04  0.19241048122E+04  0.50083681286E+03 0.  0.
        2    1    3    3  502    0 -0.77916387147E+02  0.68767973212E+02 -0.53592433061E+02  0.11692795394E+03  0.25500000920E-02 0. -1.
       -2    1    3    3    0  502  0.77916387147E+02 -0.68767973212E+02 -0.18041862985E+04  0.18071768583E+04  0.25500000920E-02 0.  1.
</event>
<event>
 5   0  0.1211345E-01  0.4948544E+03  0.7818609E-02  0.1015131E+00
       -2   -1    0    0    0  501  0.00000000000E+00  0.00000000000E+00  0.84806578818E+02  0.84806578857E+02  0.25500000920E-02 0. -1.
        2   -1    0    0  501    0  0.00000000000E+00  0.00000000000E+00 -0.72188049202E+03  0.72188049203E+03  0.25500000920E-02 0.  1.
    10030    2    1    2    0    0  0.00000000000E+00  0.00000000000E+00 -0.63707391320E+03  0.80668707088E+03  0.49485438206E+03 0.  0.
        5    1    3    3  502    0 -0.15685773937E+03 -0.29856314031E+02 -0.62655505083E+03  0.64659807579E+03  0.46999998093E+01 0.  1.
       -5    1    3    3    0  502  0.15685773937E+03  0.29856314031E+02 -0.10518862368E+02  0.16008899510E+03  0.46999998093E+01 0. -1.
</event>
<event>
 5   0  0.7781754E-02  0.4866548E+03  0.7818609E-02  0.1017322E+00
        1   -1    0    0  501    0  0.00000000000E+00  0.00000000000E+00  0.22941746294E+03  0.22941746299E+03  0.50400001928E-02 0.  1.
       -1   -1    0    0    0  501  0.00000000000E+00  0.00000000000E+00 -0.25808070761E+03  0.25808070766E+03  0.50400001928E-02 0. -1.
    10030    2    1    2    0    0  0.00000000000E+00  0.00000000000E+00 -0.28663244676E+02  0.48749817065E+03  0.48665479017E+03 0.  0.
        2    1    3    3  502    0 -0.20536954149E+03  0.85474975466E+01 -0.14478215926E+03  0.25141913597E+03  0.25500000920E-02 0. -1.
       -2    1    3    3    0  502  0.20536954149E+03 -0.85474975466E+01  0.11611891458E+03  0.23607903468E+03  0.25500000920E-02 0.  1.
</event>
<event>
 5   0  0.7602288E-02  0.5014298E+03  0.7818609E-02  0.1013406E+00
        1   -1    0    0  501    0  0.00000000000E+00  0.00000000000E+00  0.41764369104E+03  0.41764369107E+03  0.50400001928E-02 0.  1.
       -1   -1    0    0    0  501  0.00000000000E+00  0.00000000000E+00 -0.15050617682E+03  0.15050617690E+03  0.50400001928E-02 0. -1.
    10030    2    1    2    0    0  0.00000000000E+00  0.00000000000E+00  0.26713751422E+03  0.56814986797E+03  0.50142977671E+03 0.  0.
        5    1    3    3  502    0  0.15477921489E+03  0.17055452818E+03  0.21456449548E+02  0.23136102021E+03  0.46999998093E+01 0. -1.
       -5    1    3    3    0  502 -0.15477921489E+03 -0.17055452818E+03  0.24568106467E+03  0.33678884777E+03  0.46999998093E+01 0.  1.
</event>
<event>
 5   0  0.7416638E-02  0.5050320E+03  0.7818609E-02  0.1012474E+00
        1   -1    0    0  501    0  0.00000000000E+00  0.00000000000E+00  0.63302966743E+03  0.63302966745E+03  0.50400001928E-02 0.  1.
       -1   -1    0    0    0  501  0.00000000000E+00  0.00000000000E+00 -0.10072882673E+03  0.10072882685E+03  0.50400001928E-02 0. -1.
    10030    2    1    2    0    0  0.00000000000E+00  0.00000000000E+00  0.53230084070E+03  0.73375849430E+03  0.50503202171E+03 0.  0.
        1    1    3    3  502    0 -0.37011814435E+02  0.16878925006E+03 -0.13742646794E+01  0.17280501720E+03  0.50400001928E-02 0. -1.
       -1    1    3    3    0  502  0.37011814435E+02 -0.16878925006E+03  0.53367510538E+03  0.56095347710E+03  0.50400001928E-02 0.  1.
</event>
<event>
 5   0  0.1211345E-01  0.5018940E+03  0.7818609E-02  0.1013286E+00
        2   -1    0    0  501    0  0.00000000000E+00  0.00000000000E+00  0.48723562446E+03  0.48723562447E+03  0.25500000920E-02 0. -1.
       -2   -1    0    0    0  501  0.00000000000E+00  0.00000000000E+00 -0.12924832004E+03  0.12924832006E+03  0.25500000920E-02 0.  1.
    10030    2    1    2    0    0  0.00000000000E+00  0.00000000000E+00  0.35798730442E+03  0.61648394453E+03  0.50189395666E+03 0.  0.
        5    1    3    3  502    0 -0.15305426608E+03 -0.18897540889E+03  0.25486120471E+03  0.35229765426E+03  0.46999998093E+01 0. -1.
       -5    1    3    3    0  502  0.15305426608E+03  0.18897540889E+03  0.10312609971E+03  0.26418629027E+03  0.46999998093E+01 0.  1.
</event>
<event>
 5   0  0.7781754E-02  0.5004249E+03  0.7818609E-02  0.1013668E+00
       -1   -1    0    0    0  501  0.00000000000E+00  0.00000000000E+00  0.42170683489E+03  0.42170683492E+03  0.50400001928E-02 0.  1.
        1   -1    0    0  501    0  0.00000000000E+00  0.00000000000E+00 -0.14845920159E+03  0.14845920167E+03  0.50400001928E-02 0. -1.
    10030    2    1    2    0    0  0.00000000000E+00  0.00000000000E+00  0.27324763330E+03  0.57016603659E+03  0.50042485967E+03 0.  0.
        2    1    3    3  502    0 -0.19638052849E+03  0.14331301936E+03  0.20405189553E+03  0.31739740005E+03  0.25500000920E-02 0.  1.
       -2    1    3    3    0  502  0.19638052849E+03 -0.14331301936E+03  0.69195737777E+02  0.25276863654E+03  0.25500000920E-02 0. -1.
</event>
<event>
 5   0  0.7531632E-02  0.5033330E+03  0.7818609E-02  0.1012913E+00
        1   -1    0    0  501    0  0.00000000000E+00  0.00000000000E+00  0.78801439351E+03  0.78801439353E+03  0.50400001928E-02 0.  1.
       -1   -1    0    0    0  501  0.00000000000E+00  0.00000000000E+00 -0.80374188153E+02  0.80374188311E+02  0.50400001928E-02 0. -1.
    10030    2    1    2    0    0  0.00000000000E+00  0.00000000000E+00  0.70764020536E+03  0.86838858184E+03  0.50333296021E+03 0.  0.
        3    1    3    3  502    0 -0.12542982018E+03 -0.16969528172E+03  0.11721882032E+03  0.24139053516E+03  0.10100000352E+00 0. -1.
       -3    1    3    3    0  502  0.12542982018E+03  0.16969528172E+03  0.59042138504E+03  0.62699804668E+03  0.10100000352E+00 0.  1.
</event>
<event>
 5   0  0.1191894E-01  0.5026281E+03  0.7818609E-02  0.1013095E+00
       -2   -1    0    0    0  501  0.00000000000E+00  0.00000000000E+00  0.45595040763E+02  0.45595040834E+02  0.25500000920E-02 0. -1.
        2   -1    0    0  501    0  0.00000000000E+00  0.00000000000E+00 -0.13852107967E+04  0.13852107967E+04  0.25500000920E-02 0.  1.
    10030    2    1    2    0    0  0.00000000000E+00  0.00000000000E+00 -0.13396157559E+04  0.14308058375E+04  0.50262806445E+03 0.  0.
        3    1    3    3  502    0  0.14202203952E+03 -0.20458495428E+03 -0.76564612530E+03  0.80513307137E+03  0.10100000352E+00 0. -1.
       -3    1    3    3    0  502 -0.14202203952E+03  0.20458495428E+03 -0.57396963062E+03  0.62567276615E+03  0.10100000352E+00 0.  1.
</event>
<event>
 5   0  0.1211345E-01  0.4970128E+03  0.7818609E-02  0.1014562E+00
        2   -1    0    0  501    0  0.00000000000E+00  0.00000000000E+00  0.37291880426E+03  0.37291880427E+03  0.25500000920E-02 0. -1.
       -2   -1    0    0    0  501  0.00000000000E+00  0.00000000000E+00 -0.16560020220E+03  0.16560020222E+03  0.25500000920E-02 0.  1.
    10030    2    1    2    0    0  0.00000000000E+00  0.00000000000E+00  0.20731860206E+03  0.53851900649E+03  0.49701279420E+03 0.  0.
        5    1    3    3  502    0  0.37857717107E+02 -0.10676258504E+03  0.34326451197E+03  0.36150251933E+03  0.46999998093E+01 0. -1.
       -5    1    3    3    0  502 -0.37857717107E+02  0.10676258504E+03 -0.13594590990E+03  0.17701648716E+03  0.46999998093E+01 0.  1.
</event>
<event>
 5   0  0.1231822E-01  0.5039766E+03  0.7818609E-02  0.1012746E+00
       -2   -1    0    0    0  501  0.00000000000E+00  0.00000000000E+00  0.11726783609E+03  0.11726783612E+03  0.25500000920E-02 0. -1.
        2   -1    0    0  501    0  0.00000000000E+00  0.00000000000E+00 -0.54147917335E+03  0.54147917336E+03  0.25500000920E-02 0.  1.
    10030    2    1    2    0    0  0.00000000000E+00  0.00000000000E+00 -0.42421133726E+03  0.65874700948E+03  0.50397655088E+03 0.  0.
        1    1    3    3  502    0 -0.84906701852E+02  0.92786913999E+02  0.73307703272E+02  0.14557671109E+03  0.50400001928E-02 0. -1.
       -1    1    3    3    0  502  0.84906701852E+02 -0.92786913999E+02 -0.49751904053E+03  0.51317029839E+03  0.50400001928E-02 0.  1.
</event>
<event>
 5   0  0.7812547E-02  0.4991990E+03  0.7818609E-02  0.1013988E+00
       -1   -1    0    0    0  501  0.00000000000E+00  0.00000000000E+00  0.10060524228E+03  0.10060524241E+03  0.50400001928E-02 0.  1.
        1   -1    0    0  501    0  0.00000000000E+00  0.00000000000E+00 -0.61925113811E+03  0.61925113813E+03  0.50400001928E-02 0. -1.
    10030    2    1    2    0    0  0.00000000000E+00  0.00000000000E+00 -0.51864589582E+03  0.71985638053E+03  0.49919900174E+03 0.  0.
        4    1    3    3  502    0  0.11598705685E+03  0.21262355019E+03 -0.34628214628E+03  0.42258100902E+03  0.12699999809E+01 0. -1.
       -4    1    3    3    0  502 -0.11598705685E+03 -0.21262355019E+03 -0.17236374954E+03  0.29727537151E+03  0.12699999809E+01 0.  1.
</event>
<event>
 5   0  0.7531632E-02  0.4998137E+03  0.7818609E-02  0.1013828E+00
        1   -1    0    0  501    0  0.00000000000E+00  0.00000000000E+00  0.34143504069E+03  0.34143504073E+03  0.50400001928E-02 0. -1.
       -1   -1    0    0    0  501  0.00000000000E+00  0.00000000000E+00 -0.18291457023E+03  0.18291457030E+03  0.50400001928E-02 0.  1.
    10030    2    1    2    0    0  0.00000000000E+00  0.00000000000E+00  0.15852047046E+03  0.52434961103E+03  0.49981374033E+03 0.  0.
        3    1    3    3  502    0 -0.13808900244E+03  0.72612138953E+02 -0.12554712318E+03  0.20025779799E+03  0.10100000352E+00 0.  1.
       -3    1    3    3    0  502  0.13808900244E+03 -0.72612138953E+02  0.28406759364E+03  0.32409181303E+03  0.10100000352E+00 0. -1.
</event>
<event>
 5   0  0.7416638E-02  0.4991469E+03  0.7818609E-02  0.1014002E+00
       -1   -1    0    0    0  501  0.00000000000E+00  0.00000000000E+00  0.80106279241E+02  0.80106279400E+02  0.50400001928E-02 0. -1.
        1   -1    0    0  501    0  0.00000000000E+00  0.00000000000E+00 -0.77755349203E+03  0.77755349204E+03  0.50400001928E-02 0.  1.
    10030    2    1    2    0    0  0.00000000000E+00  0.00000000000E+00 -0.69744721279E+03  0.85765977144E+03  0.49914694122E+03 0.  0.
        1    1    3    3  502    0 -0.60744609053E+02  0.19131636053E+03 -0.93894400945E+02  0.22160328492E+03  0.50400001928E-02 0. -1.
       -1    1    3    3    0  502  0.60744609053E+02 -0.19131636053E+03 -0.60355281184E+03  0.63605648652E+03  0.50400001928E-02 0.  1.
</event>
<event>
 5   0  0.1279188E-01  0.4969234E+03  0.7818609E-02  0.1014585E+00
       -2   -1    0    0    0  501  0.00000000000E+00  0.00000000000E+00  0.32402705140E+02  0.32402705240E+02  0.25500000920E-02 0.  1.
        2   -1    0    0  501    0  0.00000000000E+00  0.00000000000E+00 -0.19051874306E+04  0.19051874306E+04  0.25500000920E-02 0. -1.
    10030    2    1    2    0    0  0.00000000000E+00  0.00000000000E+00 -0.18727847255E+04  0.19375901358E+04  0.49692344138E+03 0.  0.
        2    1    3    3  502    0 -0.17805589287E+02  0.24768821991E+03 -0.90453983564E+03  0.93800789312E+03  0.25500000920E-02 0.  1.
       -2    1    3    3    0  502  0.17805589287E+02 -0.24768821991E+03 -0.96824488982E+03  0.99958224272E+03  0.25500000920E-02 0. -1.
</event>
<event>
 5   0  0.7416638E-02  0.4948977E+03  0.7818609E-02  0.1015119E+00
        1   -1    0    0  501    0  0.00000000000E+00  0.00000000000E+00  0.17556249871E+03  0.17556249878E+03  0.50400001928E-02 0.  1.
       -1   -1    0    0    0  501  0.00000000000E+00  0.00000000000E+00 -0.34877002102E+03  0.34877002105E+03  0.50400001928E-02 0. -1.
    10030    2    1    2    0    0  0.00000000000E+00  0.00000000000E+00 -0.17320752231E+03  0.52433251983E+03  0.49489771223E+03 0.  0.
        1    1    3    3  502    0 -0.22903413948E+03  0.93556006549E+02 -0.81682842259E+02  0.26054068809E+03  0.50400001928E-02 0.  1.
       -1    1    3    3    0  502  0.22903413948E+03 -0.93556006549E+02 -0.91524680053E+02  0.26379183174E+03  0.50400001928E-02 0. -1.
</event>
<event>
 5   0  0.5006750E-02  0.4719975E+03  0.7818609E-02  0.1021358E+00
       -4   -1    0    0    0  501  0.00000000000E+00  0.00000000000E+00  0.65679853438E+03  0.65679976222E+03  0.12699999809E+01 0. -1.
        4   -1    0    0  501    0  0.00000000000E+00  0.00000000000E+00 -0.84792264480E+02  0.84801774838E+02  0.12699999809E+01 0.  1.
    10030    2    1    2    0    0  0.00000000000E+00  0.00000000000E+00  0.57200626990E+03  0.74160153706E+03  0.47199752857E+03 0.  0.
        4    1    3    3  502    0  0.10005050284E+03 -0.17584969113E+03  0.47689292879E+03  0.51803638427E+03  0.12699999809E+01 0. -1.
       -4    1    3    3    0  502 -0.10005050284E+03  0.17584969113E+03  0.95113341102E+02  0.22356515280E+03  0.12699999809E+01 0.  1.
</event>
<event>
 5   0  0.7812547E-02  0.5056400E+03  0.7818609E-02  0.1012317E+00
        1   -1    0    0  501    0  0.00000000000E+00  0.00000000000E+00  0.54538607941E+03  0.54538607943E+03  0.50400001928E-02 0. -1.
       -1   -1    0    0    0  501  0.00000000000E+00  0.00000000000E+00 -0.11719761299E+03  0.11719761310E+03  0.50400001928E-02 0.  1.
    10030    2    1    2    0    0  0.00000000000E+00  0.00000000000E+00  0.42818846642E+03  0.66258369254E+03  0.50563997750E+03 0.  0.
        4    1    3    3  502    0 -0.11981819716E+03 -0.15240752647E+02  0.50512879404E+03  0.51937018819E+03  0.12699999809E+01 0. -1.
       -4    1    3    3    0  502  0.11981819716E+03  0.15240752647E+02 -0.76940327626E+02  0.14321350434E+03  0.12699999809E+01 0.  1.
</event>
<event>
 5   0  0.1191894E-01  0.4732018E+03  0.7818609E-02  0.1021020E+00
       -2   -1    0    0    0  501  0.00000000000E+00  0.00000000000E+00  0.27290389345E+02  0.27290389464E+02  0.25500000920E-02 0.  1.
        2   -1    0    0  501    0  0.00000000000E+00  0.00000000000E+00 -0.20512706892E+04  0.20512706892E+04  0.25500000920E-02 0. -1.
    10030    2    1    2    0    0  0.00000000000E+00  0.00000000000E+00 -0.20239802999E+04  0.20785610787E+04  0.47320175776E+03 0.  0.
        3    1    3    3  502    0  0.14790614921E+02 -0.22753007420E+03 -0.12894958618E+04  0.13094992496E+04  0.10100000352E+00 0. -1.
       -3    1    3    3    0  502 -0.14790614921E+02  0.22753007420E+03 -0.73448443812E+03  0.76906182911E+03  0.10100000352E+00 0.  1.
</event>
<event>
 5   0  0.1191894E-01  0.4987254E+03  0.7818609E-02  0.1014112E+00
       -2   -1    0    0    0  501  0.00000000000E+00  0.00000000000E+00  0.10214874489E+03  0.10214874492E+03  0.25500000920E-02 0.  1.
        2   -1    0    0  501    0  0.00000000000E+00  0.00000000000E+00 -0.60873724891E+03  0.60873724892E+03  0.25500000920E-02 0. -1.
    10030    2    1    2    0    0  0.00000000000E+00  0.00000000000E+00 -0.50658850402E+03  0.71088599384E+03  0.49872535912E+03 0.  0.
        3    1    3    3  502    0  0.33164804224E+02 -0.36322249319E+02  0.95165784469E+02  0.10712491199E+03  0.10100000352E+00 0.  1.
       -3    1    3    3    0  502 -0.33164804224E+02  0.36322249319E+02 -0.60175428849E+03  0.60376108185E+03  0.10100000352E+00 0. -1.
</event>
<event>
 5   0  0.5006750E-02  0.4991374E+03  0.7818609E-02  0.1014004E+00
       -4   -1    0    0    0  501  0.00000000000E+00  0.00000000000E+00  0.73881514205E+02  0.73892428849E+02  0.12699999809E+01 0.  1.
        4   -1    0    0  501    0  0.00000000000E+00  0.00000000000E+00 -0.84295923824E+03  0.84296019492E+03  0.12699999809E+01 0. -1.
    10030    2    1    2    0    0  0.00000000000E+00  0.00000000000E+00 -0.76907772403E+03  0.91685262377E+03  0.49913744412E+03 0.  0.
        3    1    3    3  502    0 -0.36806837837E+02  0.15370329036E+03 -0.73932238284E+03  0.75602714286E+03  0.10100000352E+00 0. -1.
       -3    1    3    3    0  502  0.36806837837E+02 -0.15370329036E+03 -0.29755341195E+02  0.16082548091E+03  0.10100000352E+00 0.  1.
</event>
<event>
 5   0  0.7602288E-02  0.4975135E+03  0.7818609E-02  0.1014430E+00
        1   -1    0    0  501    0  0.00000000000E+00  0.00000000000E+00  0.29168168571E+03  0.29168168576E+03  0.50400001928E-02 0.  1.
       -1   -1    0    0    0  501  0.00000000000E+00  0.00000000000E+00 -0.21214879589E+03  0.21214879595E+03  0.50400001928E-02 0. -1.
    10030    2    1    2    0    0  0.00000000000E+00  0.00000000000E+00  0.79532889820E+02  0.50383048171E+03  0.49751349101E+03 0.  0.
        5    1    3    3  502    0  0.54666260053E+02  0.17031537624E+03 -0.13523424356E+03  0.22429025392E+03  0.46999998093E+01 0. -1.
       -5    1    3    3    0  502 -0.54666260053E+02 -0.17031537624E+03  0.21476713338E+03  0.27954022779E+03  0.46999998093E+01 0.  1.
</event>
<event>
 5   0  0.7602288E-02  0.4979882E+03  0.7818609E-02  0.1014305E+00
        1   -1    0    0  501    0  0.00000000000E+00  0.00000000000E+00  0.19048844426E+03  0.19048844433E+03  0.50400001928E-02 0.  1.
       -1   -1    0    0    0  501  0.00000000000E+00  0.00000000000E+00 -0.32546883905E+03  0.32546883909E+03  0.50400001928E-02 0. -1.
    10030    2    1    2    0    0  0.00000000000E+00  0.00000000000E+00 -0.13498039479E+03  0.51595728342E+03  0.49798816385E+03 0.  0.
        5    1    3    3  502    0  0.98656655497E+02  0.85547720046E+02  0.15211162556E+03  0.20052826411E+03  0.46999998093E+01 0.  1.
       -5    1    3    3    0  502 -0.98656655497E+02 -0.85547720046E+02 -0.28709202034E+03  0.31542901931E+03  0.46999998093E+01 0. -1.
</event>
<event>
 5   0  0.1211345E-01  0.5004857E+03  0.7818609E-02  0.1013652E+00
       -2   -1    0    0    0  501  0.00000000000E+00  0.00000000000E+00  0.32235434869E+02  0.32235434970E+02  0.25500000920E-02 0.  1.
        2   -1    0    0  501    0  0.00000000000E+00  0.00000000000E+00 -0.19426290739E+04  0.19426290739E+04  0.25500000920E-02 0. -1.
    10030    2    1    2    0    0  0.00000000000E+00  0.00000000000E+00 -0.19103936390E+04  0.19748645088E+04  0.50048573640E+03 0.  0.
        5    1    3    3  502    0  0.12635190503E+03 -0.21672514377E+02 -0.10738092188E+03  0.16729391550E+03  0.46999998093E+01 0.  1.
       -5    1    3    3    0  502 -0.12635190503E+03  0.21672514377E+02 -0.18030127171E+04  0.18075705933E+04  0.46999998093E+01 0. -1.
</event>
<event>
 5   0  0.1231822E-01  0.5004939E+03  0.7818609E-02  0.1013650E+00
       -2   -1    0    0    0  501  0.00000000000E+00  0.00000000000E+00  0.69705974668E+02  0.69705974715E+02  0.25500000920E-02 0.  1.
        2   -1    0    0  501    0  0.00000000000E+00  0.00000000000E+00 -0.89839546459E+03  0.89839546460E+03  0.25500000920E-02 0. -1.
    10030    2    1    2    0    0  0.00000000000E+00  0.00000000000E+00 -0.82868948993E+03  0.96810143931E+03  0.50049388217E+03 0.  0.
        1    1    3    3  502    0  0.18084675107E+03 -0.12547228807E+03 -0.18405273894E+03  0.28692203328E+03  0.50400001928E-02 0.  1.
       -1    1    3    3    0  502 -0.18084675107E+03  0.12547228807E+03 -0.64463675099E+03  0.68117940603E+03  0.50400001928E-02 0. -1.
</event>
<event>
 5   0  0.7602288E-02  0.4917786E+03  0.7818609E-02  0.1015947E+00
        1   -1    0    0  501    0  0.00000000000E+00  0.00000000000E+00  0.24384940686E+03  0.24384940692E+03  0.50400001928E-02 0.  1.
       -1   -1    0    0    0  501  0.00000000000E+00  0.00000000000E+00 -0.24794627293E+03  0.24794627298E+03  0.50400001928E-02 0. -1.
    10030    2    1    2    0    0  0.00000000000E+00  0.00000000000E+00 -0.40968660643E+01  0.49179567990E+03  0.49177861529E+03 0.  0.
        5    1    3    3  502    0  0.20144592272E+02 -0.45812899938E+02 -0.24275334769E+03  0.24790301372E+03  0.46999998093E+01 0. -1.
       -5    1    3    3    0  502 -0.20144592272E+02  0.45812899938E+02  0.23865648162E+03  0.24389266618E+03  0.46999998093E+01 0.  1.
</event>
<event>
 5   0  0.7781754E-02  0.5050973E+03  0.7818609E-02  0.1012457E+00
        1   -1    0    0  501    0  0.00000000000E+00  0.00000000000E+00  0.29917648564E+03  0.29917648568E+03  0.50400001928E-02 0. -1.
       -1   -1    0    0    0  501  0.00000000000E+00  0.00000000000E+00 -0.21318798228E+03  0.21318798234E+03  0.50400001928E-02 0.  1.
    10030    2    1    2    0    0  0.00000000000E+00  0.00000000000E+00  0.85988503359E+02  0.51236446801E+03  0.50509734247E+03 0.  0.
        2    1    3    3  502    0 -0.14670916302E+03  0.23264885283E+02  0.25017778694E+03  0.29095318951E+03  0.25500000920E-02 0. -1.
       -2    1    3    3    0  502  0.14670916302E+03 -0.23264885283E+02 -0.16418928358E+03  0.22141127851E+03  0.25500000920E-02 0.  1.
</event>
<event>
 5   0  0.1243803E-01  0.5019472E+03  0.7818609E-02  0.1013272E+00
        2   -1    0    0  501    0  0.00000000000E+00  0.00000000000E+00  0.10283129817E+04  0.10283129817E+04  0.25500000920E-02 0. -1.
       -2   -1    0    0    0  501  0.00000000000E+00  0.00000000000E+00 -0.61253478669E+02  0.61253478722E+02  0.25500000920E-02 0.  1.
    10030    2    1    2    0    0  0.00000000000E+00  0.00000000000E+00  0.96705950306E+03  0.10895664605E+04  0.50194719771E+03 0.  0.
        4    1    3    3  502    0  0.22671785332E+03  0.26807616542E+02  0.25725267640E+03  0.34394794044E+03  0.12699999809E+01 0. -1.
       -4    1    3    3    0  502 -0.22671785332E+03 -0.26807616542E+02  0.70980682666E+03  0.74561852001E+03  0.12699999809E+01 0.  1.
</event>
<event>
 5   0  0.1191894E-01  0.4986988E+03  0.7818609E-02  0.1014119E+00
       -2   -1    0    0    0  501  0.00000000000E+00  0.00000000000E+00  0.10717761028E+03  0.10717761031E+03  0.25500000920E-02 0. -1.
        2   -1    0    0  501    0  0.00000000000E+00  0.00000000000E+00 -0.58011291875E+03  0.58011291875E+03  0.25500000920E-02 0.  1.
    10030    2    1    2    0    0  0.00000000000E+00  0.00000000000E+00 -0.47293530847E+03  0.68729052906E+03  0.49869877215E+03 0.  0.
        3    1    3    3  502    0  0.21514420387E+03  0.12590110546E+03 -0.24484951107E+03  0.34941295065E+03  0.10100000352E+00 0. -1.
       -3    1    3    3    0  502 -0.21514420387E+03 -0.12590110546E+03 -0.22808579740E+03  0.33787757841E+03  0.10100000352E+00 0.  1.
</event>
<event>
 5   0  0.1211345E-01  0.5016253E+03  0.7818609E-02  0.1013356E+00
       -2   -1    0    0    0  501  0.00000000000E+00  0.00000000000E+00  0.52513136736E+02  0.52513136798E+02  0.25500000920E-02 0. -1.
        2   -1    0    0  501    0  0.00000000000E+00  0.00000000000E+00 -0.11979283066E+04  0.11979283066E+04  0.25500000920E-02 0.  1.
    10030    2    1    2    0    0  0.00000000000E+00  0.00000000000E+00 -0.11454151698E+04  0.12504414434E+04  0.50162525058E+03 0.  0.
        5    1    3    3  502    0 -0.55119668140E+02 -0.17030014436E+03 -0.13491006049E+03  0.22419440538E+03  0.46999998093E+01 0. -1.
       -5    1    3    3    0  502  0.55119668140E+02  0.17030014436E+03 -0.10105051093E+04  0.10262470380E+04  0.46999998093E+01 0.  1.
</event>
<event>
 5   0  0.1211345E-01  0.4968764E+03  0.7818609E-02  0.1014597E+00
        2   -1    0    0  501    0  0.00000000000E+00  0.00000000000E+00  0.13838032618E+04  0.13838032618E+04  0.25500000920E-02 0. -1.
       -2   -1    0    0    0  501  0.00000000000E+00  0.00000000000E+00 -0.44602819488E+02  0.44602819561E+02  0.25500000920E-02 0.  1.
    10030    2    1    2    0    0  0.00000000000E+00  0.00000000000E+00  0.13392004423E+04  0.14284060814E+04  0.49687635140E+03 0.  0.
        5    1    3    3  502    0 -0.68425045683E+02 -0.15861750651E+03  0.15648820261E+03  0.23313547092E+03  0.46999998093E+01 0.  1.
       -5    1    3    3    0  502  0.68425045683E+02  0.15861750651E+03  0.11827122397E+04  0.11952706104E+04  0.46999998093E+01 0. -1.
</event>
<event>
 5   0  0.1211345E-01  0.5025646E+03  0.7818609E-02  0.1013112E+00
       -2   -1    0    0    0  501  0.00000000000E+00  0.00000000000E+00  0.18886825128E+03  0.18886825130E+03  0.25500000920E-02 0. -1.
        2   -1    0    0  501    0  0.00000000000E+00  0.00000000000E+00 -0.33432195568E+03  0.33432195568E+03  0.25500000920E-02 0.  1.
    10030    2    1    2    0    0  0.00000000000E+00  0.00000000000E+00 -0.14545370440E+03  0.52319020698E+03  0.50256463520E+03 0.  0.
        5    1    3    3  502    0  0.18416127690E+03 -0.58692991154E+02 -0.23981458767E+03  0.30804767420E+03  0.46999998093E+01 0.  1.
       -5    1    3    3    0  502 -0.18416127690E+03  0.58692991154E+02  0.94360883276E+02  0.21514253278E+03  0.46999998093E+01 0. -1.
</event>
<event>
 5   0  0.7602288E-02  0.4950838E+03  0.7818609E-02  0.1015070E+00
       -1   -1    0    0    0  501  0.00000000000E+00  0.00000000000E+00  0.16873077217E+03  0.16873077225E+03  0.50400001928E-02 0.  1.
        1   -1    0    0  501    0  0.00000000000E+00  0.00000000000E+00 -0.36316426508E+03  0.36316426511E+03  0.50400001928E-02 0. -1.
    10030    2    1    2    0    0  0.00000000000E+00  0.00000000000E+00 -0.19443349290E+03  0.53189503736E+03  0.49508377837E+03 0.  0.
        5    1    3    3  502    0 -0.14127163457E+03  0.22080444270E+01 -0.31553096625E+03  0.34575197882E+03  0.46999998093E+01 0. -1.
       -5    1    3    3    0  502  0.14127163457E+03 -0.22080444270E+01  0.12109747335E+03  0.18614305854E+03  0.46999998093E+01 0.  1.
</event>
<event>
 5   0  0.1231822E-01  0.5094853E+03  0.7818609E-02  0.1011332E+00
       -2   -1    0    0    0  501  0.00000000000E+00  0.00000000000E+00  0.69202101283E+02  0.69202101330E+02  0.25500000920E-02 0.  1.
        2   -1    0    0  501    0  0.00000000000E+00  0.00000000000E+00 -0.93774360412E+03  0.93774360412E+03  0.25500000920E-02 0. -1.
    10030    2    1    2    0    0  0.00000000000E+00  0.00000000000E+00 -0.86854150284E+03  0.10069457055E+04  0.50948533991E+03 0.  0.
        1    1    3    3  502    0  0.25148138114E+03  0.35481813171E+02 -0.47340062005E+03  0.53722433974E+03  0.50400001928E-02 0.  1.
       -1    1    3    3    0  502 -0.25148138114E+03 -0.35481813171E+02 -0.39514088279E+03  0.46972136571E+03  0.50400001928E-02 0. -1.
</event>
<event>
 5   0  0.5006750E-02  0.4866617E+03  0.7818609E-02  0.1017320E+00
       -4   -1    0    0    0  501  0.00000000000E+00  0.00000000000E+00  0.71248719741E+03  0.71248832929E+03  0.12699999809E+01 0.  1.
        4   -1    0    0  501    0  0.00000000000E+00  0.00000000000E+00 -0.83097056883E+02  0.83106761233E+02  0.12699999809E+01 0. -1.
    10030    2    1    2    0    0  0.00000000000E+00  0.00000000000E+00  0.62939014053E+03  0.79559509052E+03  0.48666168852E+03 0.  0.
        3    1    3    3  502    0  0.19406674084E+03  0.87809448166E+02  0.12238872982E+03  0.24566524067E+03  0.10100000352E+00 0. -1.
       -3    1    3    3    0  502 -0.19406674084E+03 -0.87809448166E+02  0.50700141071E+03  0.54992984985E+03  0.10100000352E+00 0.  1.
</event>
<event>
 5   0  0.7781754E-02  0.4988271E+03  0.7818609E-02  0.1014086E+00
        1   -1    0    0  501    0  0.00000000000E+00  0.00000000000E+00  0.11842181397E+04  0.11842181397E+04  0.50400001928E-02 0.  1.
       -1   -1    0    0    0  501  0.00000000000E+00  0.00000000000E+00 -0.52530114491E+02  0.52530114733E+02  0.50400001928E-02 0. -1.
    10030    2    1    2    0    0  0.00000000000E+00  0.00000000000E+00  0.11316880252E+04  0.12367482544E+04  0.49882708273E+03 0.  0.
        2    1    3    3  502    0 -0.53082236430E+02  0.17526318006E+03  0.14602523998E+03  0.23421843827E+03  0.25500000920E-02 0. -1.
       -2    1    3    3    0  502  0.53082236430E+02 -0.17526318006E+03  0.98566278520E+03  0.10025298161E+04  0.25500000920E-02 0.  1.
</event>
<event>
 5   0  0.7531632E-02  0.5005958E+03  0.7818609E-02  0.1013624E+00
        1   -1    0    0  501    0  0.00000000000E+00  0.00000000000E+00  0.55713553608E+03  0.55713553610E+03  0.50400001928E-02 0.  1.
       -1   -1    0    0    0  501  0.00000000000E+00  0.00000000000E+00 -0.11244845644E+03  0.11244845655E+03  0.50400001928E-02 0. -1.
    10030    2    1    2    0    0  0.00000000000E+00  0.00000000000E+00  0.44468707964E+03  0.66958399265E+03  0.50059576947E+03 0.  0.
        3    1    3    3  502    0  0.19034518984E+03  0.11103405055E+03  0.38111066475E+03  0.44023312082E+03  0.10100000352E+00 0.  1.
       -3    1    3    3    0  502 -0.19034518984E+03 -0.11103405055E+03  0.63576414895E+02  0.22935087183E+03  0.10100000352E+00 0. -1.
</event>
<event>
 5   0  0.1231822E-01  0.5011332E+03  0.7818609E-02  0.1013484E+00
        2   -1    0    0  501    0  0.00000000000E+00  0.00000000000E+00  0.26989842718E+03  0.26989842719E+03  0.25500000920E-02 0. -1.
       -2   -1    0    0    0  501  0.00000000000E+00  0.00000000000E+00 -0.23261948365E+03  0.23261948367E+03  0.25500000920E-02 0.  1.
    10030    2    1    2    0    0  0.00000000000E+00  0.00000000000E+00  0.37278943529E+02  0.50251791086E+03  0.50113324685E+03 0.  0.
        1    1    3    3  502    0  0.13673946124E+02  0.24742046061E+03 -0.18608440253E+02  0.24849574485E+03  0.50400001928E-02 0. -1.
       -1    1    3    3    0  502 -0.13673946124E+02 -0.24742046061E+03  0.55887383782E+02  0.25402216601E+03  0.50400001928E-02 0.  1.
</event>
<event>
 5   0  0.7812547E-02  0.4858829E+03  0.7818609E-02  0.1017531E+00
        1   -1    0    0  501    0  0.00000000000E+00  0.00000000000E+00  0.55007581425E+03  0.55007581427E+03  0.50400001928E-02 0. -1.
       -1   -1    0    0    0  501  0.00000000000E+00  0.00000000000E+00 -0.10729529471E+03  0.10729529483E+03  0.50400001928E-02 0.  1.
    10030    2    1    2    0    0  0.00000000000E+00  0.00000000000E+00  0.44278051954E+03  0.65737110910E+03  0.48588289391E+03 0.  0.
        4    1    3    3  502    0 -0.19633241050E+03 -0.56165096428E+02  0.43346041587E+02  0.20876164804E+03  0.12699999809E+01 0.  1.
       -4    1    3    3    0  502  0.19633241050E+03  0.56165096428E+02  0.39943447795E+03  0.44860946106E+03  0.12699999809E+01 0. -1.
</event>
<event>
 5   0  0.7812547E-02  0.4977830E+03  0.7818609E-02  0.1014359E+00
        1   -1    0    0  501    0  0.00000000000E+00  0.00000000000E+00  0.11660499108E+04  0.11660499108E+04  0.50400001928E-02 0. -1.
       -1   -1    0    0    0  501  0.00000000000E+00  0.00000000000E+00 -0.53125493234E+02  0.53125493473E+02  0.50400001928E-02 0.  1.
    10030    2    1    2    0    0  0.00000000000E+00  0.00000000000E+00  0.11129244176E+04  0.12191754043E+04  0.49778299208E+03 0.  0.
        4    1    3    3  502    0  0.53756255759E+02  0.21955995408E+03  0.81156904856E+03  0.84246201217E+03  0.12699999809E+01 0.  1.
       -4    1    3    3    0  502 -0.53756255759E+02 -0.21955995408E+03  0.30135536902E+03  0.37671339213E+03  0.12699999809E+01 0. -1.
</event>
<event>
 5   0  0.7531632E-02  0.5022081E+03  0.7818609E-02  0.1013204E+00
       -1   -1    0    0    0  501  0.00000000000E+00  0.00000000000E+00  0.61307484379E+02  0.61307484586E+02  0.50400001928E-02 0.  1.
        1   -1    0    0  501    0  0.00000000000E+00  0.00000000000E+00 -0.10284756205E+04  0.10284756205E+04  0.50400001928E-02 0. -1.
    10030    2    1    2    0    0  0.00000000000E+00  0.00000000000E+00 -0.96716813607E+03  0.10897831051E+04  0.50220813675E+03 0.  0.
        3    1    3    3  502    0  0.11161539962E+03 -0.22501691971E+02 -0.96923827711E+03  0.97590325934E+03  0.10100000352E+00 0. -1.
       -3    1    3    3    0  502 -0.11161539962E+03  0.22501691971E+02  0.20701410371E+01  0.11387984571E+03  0.10100000352E+00 0.  1.
</event>
<event>
 5   0  0.1279188E-01  0.4999623E+03  0.7818609E-02  0.1013789E+00
        2   -1    0    0  501    0  0.00000000000E+00  0.00000000000E+00  0.70466341511E+03  0.70466341511E+03  0.25500000920E-02 0. -1.
       -2   -1    0    0    0  501  0.00000000000E+00  0.00000000000E+00 -0.88681451737E+02  0.88681451774E+02  0.25500000920E-02 0.  1.
    10030    2    1    2    0    0  0.00000000000E+00  0.00000000000E+00  0.61598196337E+03  0.79334486688E+03  0.49996229719E+03 0.  0.
        2    1    3    3  502    0 -0.32888944562E+02  0.98644563856E+02 -0.52735650123E+02  0.11659108651E+03  0.25500000920E-02 0.  1.
       -2    1    3    3    0  502  0.32888944562E+02 -0.98644563856E+02  0.66871761349E+03  0.67675378038E+03  0.25500000920E-02 0. -1.
</event>
<event>
 5   0  0.1243803E-01  0.4919973E+03  0.7818609E-02  0.1015889E+00
        2   -1    0    0  501    0  0.00000000000E+00  0.00000000000E+00  0.15654540699E+04  0.15654540699E+04  0.25500000920E-02 0. -1.
       -2   -1    0    0    0  501  0.00000000000E+00  0.00000000000E+00 -0.38656735039E+02  0.38656735123E+02  0.25500000920E-02 0.  1.
    10030    2    1    2    0    0  0.00000000000E+00  0.00000000000E+00  0.15267973349E+04  0.16041108051E+04  0.49199733035E+03 0.  0.
        4    1    3    3  502    0  0.10896154678E+03 -0.18057066860E+03  0.11762662426E+04  0.11950239627E+04  0.12699999809E+01 0. -1.
       -4    1    3    3    0  502 -0.10896154678E+03  0.18057066860E+03  0.35053109233E+03  0.40908684240E+03  0.12699999809E+01 0.  1.
</event>
<event>
 5   0  0.1211345E-01  0.5010314E+03  0.7818609E-02  0.1013510E+00
       -2   -1    0    0    0  501  0.00000000000E+00  0.00000000000E+00  0.65238163419E+02  0.65238163469E+02  0.25500000920E-02 0. -1.
        2   -1    0    0  501    0  0.00000000000E+00  0.00000000000E+00 -0.96198453758E+03  0.96198453758E+03  0.25500000920E-02 0.  1.
    10030    2    1    2    0    0  0.00000000000E+00  0.00000000000E+00 -0.89674637416E+03  0.10272227011E+04  0.50103135430E+03 0.  0.
        5    1    3    3  502    0 -0.75083201314E+02 -0.20316822152E+03 -0.19049213709E+03  0.28848597479E+03  0.46999998093E+01 0. -1.
       -5    1    3    3    0  502  0.75083201314E+02  0.20316822152E+03 -0.70625423707E+03  0.73873672627E+03  0.46999998093E+01 0.  1.
</event>
<event>
 5   0  0.1191894E-01  0.5017196E+03  0.7818609E-02  0.1013331E+00
        2   -1    0    0  501    0  0.00000000000E+00  0.00000000000E+00  0.11189319218E+04  0.11189319218E+04  0.25500000920E-02 0. -1.
       -2   -1    0    0    0  501  0.00000000000E+00  0.00000000000E+00 -0.56241706128E+02  0.56241706186E+02  0.25500000920E-02 0.  1.
    10030    2    1    2    0    0  0.00000000000E+00  0.00000000000E+00  0.10626902157E+04  0.11751736280E+04  0.50171960440E+03 0.  0.
        3    1    3    3  502    0 -0.82061458945E+02 -0.16742953908E+03  0.13825932544E+03  0.23212579536E+03  0.10100000352E+00 0.  1.
       -3    1    3    3    0  502  0.82061458945E+02  0.16742953908E+03  0.92443089024E+03  0.94304783263E+03  0.10100000352E+00 0. -1.
</event>
<event>
 5   0  0.1211345E-01  0.5004978E+03  0.7818609E-02  0.1013649E+00
       -2   -1    0    0    0  501  0.00000000000E+00  0.00000000000E+00  0.55313842309E+02  0.55313842368E+02  0.25500000920E-02 0.  1.
        2   -1    0    0  501    0  0.00000000000E+00  0.00000000000E+00 -0.11321670349E+04  0.11321670349E+04  0.25500000920E-02 0. -1.
    10030    2    1    2    0    0  0.00000000000E+00  0.00000000000E+00 -0.10768531926E+04  0.11874808773E+04  0.50049778770E+03 0.  0.
        5    1    3    3  502    0  0.33476353387E+01  0.15624086138E+03 -0.74827633658E+02  0.17333112295E+03  0.46999998093E+01 0.  1.
       -5    1    3    3    0  502 -0.33476353387E+01 -0.15624086138E+03 -0.10020255589E+04  0.10141497543E+04  0.46999998093E+01 0. -1.
</event>
<event>
 5   0  0.1279188E-01  0.4972919E+03  0.7818609E-02  0.1014488E+00
       -2   -1    0    0    0  501  0.00000000000E+00  0.00000000000E+00  0.10322509619E+03  0.10322509622E+03  0.25500000920E-02 0. -1.
        2   -1    0    0  501    0  0.00000000000E+00  0.00000000000E+00 -0.59893206755E+03  0.59893206756E+03  0.25500000920E-02 0.  1.
    10030    2    1    2    0    0  0.00000000000E+00  0.00000000000E+00 -0.49570697136E+03  0.70215716378E+03  0.49729194764E+03 0.  0.
        2    1    3    3  502    0  0.16326554049E+03  0.18595686285E+03 -0.21357948001E+03  0.32688191422E+03  0.25500000920E-02 0.  1.
       -2    1    3    3    0  502 -0.16326554049E+03 -0.18595686285E+03 -0.28212749135E+03  0.37527524957E+03  0.25500000920E-02 0. -1.
</event>
<event>
 5   0  0.7416638E-02  0.4985529E+03  0.7818609E-02  0.1014157E+00
        1   -1    0    0  501    0  0.00000000000E+00  0.00000000000E+00  0.28331498698E+03  0.28331498702E+03  0.50400001928E-02 0.  1.
       -1   -1    0    0    0  501  0.00000000000E+00  0.00000000000E+00 -0.21932740970E+03  0.21932740976E+03  0.50400001928E-02 0. -1.
    10030    2    1    2    0    0  0.00000000000E+00  0.00000000000E+00  0.63987577277E+02  0.50264239678E+03  0.49855287482E+03 0.  0.
        1    1    3    3  502    0 -0.22963259555E+03  0.72747259518E+02  0.96671781213E+02  0.25955486128E+03  0.50400001928E-02 0.  1.
       -1    1    3    3    0  502  0.22963259555E+03 -0.72747259518E+02 -0.32684203936E+02  0.24308753550E+03  0.50400001928E-02 0. -1.
</event>
<event>
 5   0  0.7812547E-02  0.5142646E+03  0.7818609E-02  0.1010121E+00
        1   -1    0    0  501    0  0.00000000000E+00  0.00000000000E+00  0.90428553266E+03  0.90428553267E+03  0.50400001928E-02 0. -1.
       -1   -1    0    0    0  501  0.00000000000E+00  0.00000000000E+00 -0.73115214798E+02  0.73115214972E+02  0.50400001928E-02 0.  1.
    10030    2    1    2    0    0  0.00000000000E+00  0.00000000000E+00  0.83117031786E+03  0.97740074765E+03  0.51426464413E+03 0.  0.
        4    1    3    3  502    0 -0.23855101011E+02 -0.57264699966E+01 -0.70879840466E+02  0.75016151510E+02  0.12699999809E+01 0.  1.
       -4    1    3    3    0  502  0.23855101011E+02  0.57264699966E+01  0.90205015833E+03  0.90238459614E+03  0.12699999809E+01 0. -1.
</event>
<event>
 5   0  0.1243803E-01  0.4938923E+03  0.7818609E-02  0.1015386E+00
       -2   -1    0    0    0  501  0.00000000000E+00  0.00000000000E+00  0.20090965792E+03  0.20090965793E+03  0.25500000920E-02 0. -1.
        2   -1    0    0  501    0  0.00000000000E+00  0.00000000000E+00 -0.30353143692E+03  0.30353143693E+03  0.25500000920E-02 0.  1.
    10030    2    1    2    0    0  0.00000000000E+00  0.00000000000E+00 -0.10262177900E+03  0.50444109486E+03  0.49389228447E+03 0.  0.
        4    1    3    3  502    0  0.17723861113E+03  0.44504585515E+01  0.12425423097E+03  0.21650417702E+03  0.12699999809E+01 0. -1.
       -4    1    3    3    0  502 -0.17723861113E+03 -0.44504585515E+01 -0.22687600997E+03  0.28793691784E+03  0.12699999809E+01 0.  1.
</event>
<event>
 5   0  0.1243803E-01  0.5008565E+03  0.7818609E-02  0.1013556E+00
       -2   -1    0    0    0  501  0.00000000000E+00  0.00000000000E+00  0.72868120838E+03  0.72868120839E+03  0.25500000920E-02 0.  1.
        2   -1    0    0  501    0  0.00000000000E+00  0.00000000000E+00 -0.86065481116E+02  0.86065481154E+02  0.25500000920E-02 0. -1.
    10030    2    1    2    0    0  0.00000000000E+00  0.00000000000E+00  0.64261572727E+03  0.81474668954E+03  0.50085646166E+03 0.  0.
        4    1    3    3  502    0 -0.73374789655E+02  0.99259050653E+02  0.67575259079E+03  0.68693478275E+03  0.12699999809E+01 0.  1.
       -4    1    3    3    0  502  0.73374789655E+02 -0.99259050653E+02 -0.33136863522E+02  0.12781190679E+03  0.12699999809E+01 0. -1.
</event>
<event>
 5   0  0.7781754E-02  0.4989819E+03  0.7818609E-02  0.1014045E+00
        1   -1    0    0  501    0  0.00000000000E+00  0.00000000000E+00  0.30189520588E+03  0.30189520592E+03  0.50400001928E-02 0.  1.
       -1   -1    0    0    0  501  0.00000000000E+00  0.00000000000E+00 -0.20618328368E+03  0.20618328374E+03  0.50400001928E-02 0. -1.
    10030    2    1    2    0    0  0.00000000000E+00  0.00000000000E+00  0.95711922199E+02  0.50807848967E+03  0.49898194317E+03 0.  0.
        2    1    3    3  502    0  0.42442827334E+02 -0.12035294054E+03 -0.17043398101E+03  0.21291774416E+03  0.25500000920E-02 0. -1.
       -2    1    3    3    0  502 -0.42442827334E+02  0.12035294054E+03  0.26614590321E+03  0.29516074551E+03  0.25500000920E-02 0.  1.
</event>
<event>
 5   0  0.5006750E-02  0.4988406E+03  0.7818609E-02  0.1014082E+00
        4   -1    0    0  501    0  0.00000000000E+00  0.00000000000E+00  0.38926193117E+03  0.38926400291E+03  0.12699999809E+01 0.  1.
       -4   -1    0    0    0  501  0.00000000000E+00  0.00000000000E+00 -0.15981150757E+03  0.15981655374E+03  0.12699999809E+01 0. -1.
    10030    2    1    2    0    0  0.00000000000E+00  0.00000000000E+00  0.22945042360E+03  0.54908055665E+03  0.49884061663E+03 0.  0.
        1    1    3    3  502    0  0.13617126936E+03 -0.10156535836E+02  0.34446791312E+03  0.37054542638E+03  0.50400001928E-02 0.  1.
       -1    1    3    3    0  502 -0.13617126936E+03  0.10156535836E+02 -0.11501748951E+03  0.17853513027E+03  0.50400001928E-02 0. -1.
</event>
<event>
 5   0  0.1279188E-01  0.4996521E+03  0.7818609E-02  0.1013870E+00
        2   -1    0    0  501    0  0.00000000000E+00  0.00000000000E+00  0.18826161531E+04  0.18826161531E+04  0.25500000920E-02 0.  1.
       -2   -1    0    0    0  501  0.00000000000E+00  0.00000000000E+00 -0.33152301035E+02  0.33152301133E+02  0.25500000920E-02 0. -1.
    10030    2    1    2    0    0  0.00000000000E+00  0.00000000000E+00  0.18494638520E+04  0.19157684542E+04  0.49965210911E+03 0.  0.
        2    1    3    3  502    0 -0.14874288301E+03  0.69154652637E+02  0.20224885811E+03  0.26040624385E+03  0.25500000920E-02 0. -1.
       -2    1    3    3    0  502  0.14874288301E+03 -0.69154652637E+02  0.16472149939E+04  0.16553622103E+04  0.25500000920E-02 0.  1.
</event>
<event>
 5   0  0.1191894E-01  0.5033715E+03  0.7818609E-02  0.1012903E+00
       -2   -1    0    0    0  501  0.00000000000E+00  0.00000000000E+00  0.49381915139E+02  0.49381915205E+02  0.25500000920E-02 0. -1.
        2   -1    0    0  501    0  0.00000000000E+00  0.00000000000E+00 -0.12827715750E+04  0.12827715750E+04  0.25500000920E-02 0.  1.
    10030    2    1    2    0    0  0.00000000000E+00  0.00000000000E+00 -0.12333896598E+04  0.13321534902E+04  0.50337150139E+03 0.  0.
        3    1    3    3  502    0  0.38772731646E+02  0.84532730553E+01  0.41050378463E+02  0.57095764445E+02  0.10100000352E+00 0. -1.
       -3    1    3    3    0  502 -0.38772731646E+02 -0.84532730553E+01 -0.12744400383E+04  0.12750577257E+04  0.10100000352E+00 0.  1.
</event>
<event>
 5   0  0.5006750E-02  0.4925795E+03  0.7818609E-02  0.1015734E+00
        3   -1    0    0  501    0  0.00000000000E+00  0.00000000000E+00  0.11519613751E+03  0.11519618179E+03  0.10100000352E+00 0.  1.
       -3   -1    0    0    0  501  0.00000000000E+00  0.00000000000E+00 -0.52656811817E+03  0.52656812785E+03  0.10100000352E+00 0. -1.
    10030    2    1    2    0    0  0.00000000000E+00  0.00000000000E+00 -0.41137198065E+03  0.64176430964E+03  0.49257945823E+03 0.  0.
        3    1    3    3  502    0  0.52126744528E+02  0.91071632692E+02 -0.49598625697E+03  0.50696510440E+03  0.10100000352E+00 0. -1.
       -3    1    3    3    0  502 -0.52126744528E+02 -0.91071632692E+02  0.84614276318E+02  0.13479920524E+03  0.10100000352E+00 0.  1.
</event>
<event>
 5   0  0.5006750E-02  0.5000938E+03  0.7818609E-02  0.1013754E+00
       -3   -1    0    0    0  501  0.00000000000E+00  0.00000000000E+00  0.74689183181E+02  0.74689251470E+02  0.10100000352E+00 0. -1.
        3   -1    0    0  501    0  0.00000000000E+00  0.00000000000E+00 -0.83711490549E+03  0.83711491159E+03  0.10100000352E+00 0.  1.
    10030    2    1    2    0    0  0.00000000000E+00  0.00000000000E+00 -0.76242572231E+03  0.91180416306E+03  0.50009384092E+03 0.  0.
        4    1    3    3  502    0  0.16715565702E+02  0.20523486097E+03 -0.12258468925E+03  0.23964427227E+03  0.12699999809E+01 0. -1.
       -4    1    3    3    0  502 -0.16715565702E+02 -0.20523486097E+03 -0.63984103306E+03  0.67215989079E+03  0.12699999809E+01 0.  1.
</event>
<event>
 5   0  0.1279188E-01  0.5020323E+03  0.7818609E-02  0.1013250E+00
        2   -1    0    0  501    0  0.00000000000E+00  0.00000000000E+00  0.24796158646E+03  0.24796158647E+03  0.25500000920E-02 0. -1.
       -2   -1    0    0    0  501  0.00000000000E+00  0.00000000000E+00 -0.25410832785E+03  0.25410832786E+03  0.25500000920E-02 0.  1.
    10030    2    1    2    0    0  0.00000000000E+00  0.00000000000E+00 -0.61467413908E+01  0.50206991433E+03  0.50203228626E+03 0.  0.
        2    1    3    3  502    0 -0.20721045317E+03  0.13288114080E+03  0.46078401730E+02  0.25043320186E+03  0.25500000920E-02 0. -1.
       -2    1    3    3    0  502  0.20721045317E+03 -0.13288114080E+03 -0.52225143121E+02  0.25163671247E+03  0.25500000920E-02 0.  1.
</event>
<event>
 5   0  0.1231822E-01  0.5005116E+03  0.7818609E-02  0.1013645E+00
        2   -1    0    0  501    0  0.00000000000E+00  0.00000000000E+00  0.73666244095E+03  0.73666244095E+03  0.25500000920E-02 0. -1.
       -2   -1    0    0    0  501  0.00000000000E+00  0.00000000000E+00 -0.85015818013E+02  0.85015818051E+02  0.25500000920E-02 0.  1.
    10030    2    1    2    0    0  0.00000000000E+00  0.00000000000E+00  0.65164662294E+03  0.82167825900E+03  0.50051157842E+03 0.  0.
        1    1    3    3  502    0 -0.20051440877E+03 -0.13733186803E+03  0.42380116334E+03  0.48854221535E+03  0.50400001928E-02 0. -1.
       -1    1    3    3    0  502  0.20051440877E+03  0.13733186803E+03  0.22784545959E+03  0.33313604366E+03  0.50400001928E-02 0.  1.
</event>
<event>
 5   0  0.7531632E-02  0.4920544E+03  0.7818609E-02  0.1015874E+00
       -1   -1    0    0    0  501  0.00000000000E+00  0.00000000000E+00  0.44209906564E+03  0.44209906567E+03  0.50400001928E-02 0.  1.
        1   -1    0    0  501    0  0.00000000000E+00  0.00000000000E+00 -0.13691363707E+03  0.13691363716E+03  0.50400001928E-02 0. -1.
    10030    2    1    2    0    0  0.00000000000E+00  0.00000000000E+00  0.30518542858E+03  0.57901270283E+03  0.49205443217E+03 0.  0.
        3    1    3    3  502    0  0.23265960794E+02 -0.17424475221E+03 -0.49950466600E+02  0.18275009691E+03  0.10100000352E+00 0. -1.
       -3    1    3    3    0  502 -0.23265960794E+02  0.17424475221E+03  0.35513589518E+03  0.39626260592E+03  0.10100000352E+00 0.  1.
</event>
<event>
 5   0  0.1211345E-01  0.4994600E+03  0.7818609E-02  0.1013920E+00
        2   -1    0    0  501    0  0.00000000000E+00  0.00000000000E+00  0.97115449564E+03  0.97115449564E+03  0.25500000920E-02 0.  1.
       -2   -1    0    0    0  501  0.00000000000E+00  0.00000000000E+00 -0.64217459547E+02  0.64217459598E+02  0.25500000920E-02 0. -1.
    10030    2    1    2    0    0  0.00000000000E+00  0.00000000000E+00  0.90693703609E+03  0.10353719552E+04  0.49946000667E+03 0.  0.
        5    1    3    3  502    0  0.89065742064E+02  0.14505687473E+03  0.74794200794E+02  0.18598512249E+03  0.46999998093E+01 0. -1.
       -5    1    3    3    0  502 -0.89065742064E+02 -0.14505687473E+03  0.83214283530E+03  0.84938683275E+03  0.46999998093E+01 0.  1.
</event>
<event>
 5   0  0.1243803E-01  0.4910032E+03  0.7818609E-02  0.1016154E+00
       -2   -1    0    0    0  501  0.00000000000E+00  0.00000000000E+00  0.41678284569E+02  0.41678284647E+02  0.25500000920E-02 0.  1.
        2   -1    0    0  501    0  0.00000000000E+00  0.00000000000E+00 -0.14461018419E+04  0.14461018419E+04  0.25500000920E-02 0. -1.
    10030    2    1    2    0    0  0.00000000000E+00  0.00000000000E+00 -0.14044235573E+04  0.14877801265E+04  0.49100323478E+03 0.  0.
        4    1    3    3  502    0 -0.49243550739E+02 -0.13302047467E+03 -0.95059702481E+02  0.17075518705E+03  0.12699999809E+01 0.  1.
       -4    1    3    3    0  502  0.49243550739E+02  0.13302047467E+03 -0.13093638548E+04  0.13170249395E+04  0.12699999809E+01 0. -1.
</event>
<event>
 5   0  0.1279188E-01  0.5009820E+03  0.7818609E-02  0.1013523E+00
        2   -1    0    0  501    0  0.00000000000E+00  0.00000000000E+00  0.97876567614E+03  0.97876567615E+03  0.25500000920E-02 0.  1.
       -2   -1    0    0    0  501  0.00000000000E+00  0.00000000000E+00 -0.64107010983E+02  0.64107011034E+02  0.25500000920E-02 0. -1.
    10030    2    1    2    0    0  0.00000000000E+00  0.00000000000E+00  0.91465866516E+03  0.10428726872E+04  0.50098200358E+03 0.  0.
        2    1    3    3  502    0 -0.14360556257E+03  0.14836959022E+03  0.75252597537E+03  0.78034059008E+03  0.25500000920E-02 0.  1.
       -2    1    3    3    0  502  0.14360556257E+03 -0.14836959022E+03  0.16213268979E+03  0.26253209710E+03  0.25500000920E-02 0. -1.
</event>
<event>
 5   0  0.7531632E-02  0.5039429E+03  0.7818609E-02  0.1012755E+00
       -1   -1    0    0    0  501  0.00000000000E+00  0.00000000000E+00  0.18570686714E+03  0.18570686721E+03  0.50400001928E-02 0.  1.
        1   -1    0    0  501    0  0.00000000000E+00  0.00000000000E+00 -0.34188075598E+03  0.34188075602E+03  0.50400001928E-02 0. -1.
    10030    2    1    2    0    0  0.00000000000E+00  0.00000000000E+00 -0.15617388884E+03  0.52758762323E+03  0.50394287040E+03 0.  0.
        3    1    3    3  502    0  0.61192944152E+02 -0.22283298443E+03 -0.18325144800E+03  0.29492408982E+03  0.10100000352E+00 0. -1.
       -3    1    3    3    0  502 -0.61192944152E+02  0.22283298443E+03  0.27077559158E+02  0.23266353340E+03  0.10100000352E+00 0.  1.
</event>
<event>
 5   0  0.7602288E-02  0.5005769E+03  0.7818609E-02  0.1013628E+00
        1   -1    0    0  501    0  0.00000000000E+00  0.00000000000E+00  0.54253472958E+03  0.54253472960E+03  0.50400001928E-02 0. -1.
       -1   -1    0    0    0  501  0.00000000000E+00  0.00000000000E+00 -0.11546601014E+03  0.11546601025E+03  0.50400001928E-02 0.  1.
    10030    2    1    2    0    0  0.00000000000E+00  0.00000000000E+00  0.42706871944E+03  0.65800073985E+03  0.50057694966E+03 0.  0.
        5    1    3    3  502    0 -0.13059195896E+03  0.45918205228E+02 -0.60495471843E+02  0.15114408168E+03  0.46999998093E+01 0.  1.
       -5    1    3    3    0  502  0.13059195896E+03 -0.45918205228E+02  0.48756419128E+03  0.50685665817E+03  0.46999998093E+01 0. -1.
</event>
<event>
 5   0  0.1231822E-01  0.4991139E+03  0.7818609E-02  0.1014010E+00
       -2   -1    0    0    0  501  0.00000000000E+00  0.00000000000E+00  0.50879419835E+02  0.50879419899E+02  0.25500000920E-02 0. -1.
        2   -1    0    0  501    0  0.00000000000E+00  0.00000000000E+00 -0.12240444548E+04  0.12240444548E+04  0.25500000920E-02 0.  1.
    10030    2    1    2    0    0  0.00000000000E+00  0.00000000000E+00 -0.11731650349E+04  0.12749238747E+04  0.49911390185E+03 0.  0.
        1    1    3    3  502    0 -0.24403362573E+03  0.49167682309E+02 -0.63146981031E+03  0.67876652306E+03  0.50400001928E-02 0. -1.
       -1    1    3    3    0  502  0.24403362573E+03 -0.49167682309E+02 -0.54169522463E+03  0.59615735162E+03  0.50400001928E-02 0.  1.
</event>
<event>
 5   0  0.1211345E-01  0.4985179E+03  0.7818609E-02  0.1014166E+00
       -2   -1    0    0    0  501  0.00000000000E+00  0.00000000000E+00  0.41953108226E+02  0.41953108304E+02  0.25500000920E-02 0. -1.
        2   -1    0    0  501    0  0.00000000000E+00  0.00000000000E+00 -0.14809398944E+04  0.14809398944E+04  0.25500000920E-02 0.  1.
    10030    2    1    2    0    0  0.00000000000E+00  0.00000000000E+00 -0.14389867862E+04  0.15228930027E+04  0.49851793038E+03 0.  0.
        5    1    3    3  502    0 -0.72593660961E+02 -0.35873036767E+02 -0.14394982685E+04  0.14417815609E+04  0.46999998093E+01 0.  1.
       -5    1    3    3    0  502  0.72593660961E+02  0.35873036767E+02  0.51148231697E+00  0.81111441801E+02  0.46999998093E+01 0. -1.
</event>
<event>
 5   0  0.1211345E-01  0.5049304E+03  0.7818609E-02  0.1012500E+00
       -2   -1    0    0    0  501  0.00000000000E+00  0.00000000000E+00  0.13112079533E+03  0.13112079536E+03  0.25500000920E-02 0. -1.
        2   -1    0    0  501    0  0.00000000000E+00  0.00000000000E+00 -0.48610660864E+03  0.48610660865E+03  0.25500000920E-02 0.  1.
    10030    2    1    2    0    0  0.00000000000E+00  0.00000000000E+00 -0.35498581331E+03  0.61722740400E+03  0.50493043145E+03 0.  0.
        5    1    3    3  502    0 -0.69201021272E+01 -0.23361491575E+03 -0.29405624027E+03  0.37565273740E+03  0.46999998093E+01 0.  1.
       -5    1    3    3    0  502  0.69201021272E+01  0.23361491575E+03 -0.60929573039E+02  0.24157466660E+03  0.46999998093E+01 0. -1.
</event>
<event>
 5   0  0.7812547E-02  0.5132903E+03  0.7818609E-02  0.1010367E+00
        1   -1    0    0  501    0  0.00000000000E+00  0.00000000000E+00  0.12576578485E+03  0.12576578495E+03  0.50400001928E-02 0. -1.
       -1   -1    0    0    0  501  0.00000000000E+00  0.00000000000E+00 -0.52372544287E+03  0.52372544289E+03  0.50400001928E-02 0.  1.
    10030    2    1    2    0    0  0.00000000000E+00  0.00000000000E+00 -0.39795965802E+03  0.64949122784E+03  0.51329033268E+03 0.  0.
        4    1    3    3  502    0  0.13246667417E+03  0.20761826599E+03 -0.10762582467E+03  0.26877071115E+03  0.12699999809E+01 0. -1.
       -4    1    3    3    0  502 -0.13246667417E+03 -0.20761826599E+03 -0.29033383335E+03  0.38072051669E+03  0.12699999809E+01 0.  1.
</event>
<event>
 5   0  0.7812547E-02  0.4977486E+03  0.7818609E-02  0.1014368E+00
        1   -1    0    0  501    0  0.00000000000E+00  0.00000000000E+00  0.25254064887E+03  0.25254064892E+03  0.50400001928E-02 0.  1.
       -1   -1    0    0    0  501  0.00000000000E+00  0.00000000000E+00 -0.24526114627E+03  0.24526114632E+03  0.50400001928E-02 0. -1.
    10030    2    1    2    0    0  0.00000000000E+00  0.00000000000E+00  0.72795026003E+01  0.49780179524E+03  0.49774856723E+03 0.  0.
        4    1    3    3  502    0 -0.18339619451E+03  0.70557857946E+02 -0.14909927253E+03  0.24666734978E+03  0.12699999809E+01 0. -1.
       -4    1    3    3    0  502  0.18339619451E+03 -0.70557857946E+02  0.15637877513E+03  0.25113444545E+03  0.12699999809E+01 0.  1.
</event>
<event>
 5   0  0.7781754E-02  0.4936096E+03  0.7818609E-02  0.1015460E+00
       -1   -1    0    0    0  501  0.00000000000E+00  0.00000000000E+00  0.57804425979E+02  0.57804426199E+02  0.50400001928E-02 0. -1.
        1   -1    0    0  501    0  0.00000000000E+00  0.00000000000E+00 -0.10537707954E+04  0.10537707955E+04  0.50400001928E-02 0.  1.
    10030    2    1    2    0    0  0.00000000000E+00  0.00000000000E+00 -0.99596636946E+03  0.11115752216E+04  0.49360962743E+03 0.  0.
        2    1    3    3  502    0  0.43457283750E+02 -0.12677461807E+03 -0.31271869493E+02  0.13761638393E+03  0.25500000920E-02 0. -1.
       -2    1    3    3    0  502 -0.43457283750E+02  0.12677461807E+03 -0.96469449997E+03  0.97395883772E+03  0.25500000920E-02 0.  1.
</event>
<event>
 5   0  0.1231822E-01  0.4996077E+03  0.7818609E-02  0.1013881E+00
       -2   -1    0    0    0  501  0.00000000000E+00  0.00000000000E+00  0.67619243657E+02  0.67619243706E+02  0.25500000920E-02 0. -1.
        2   -1    0    0  501    0  0.00000000000E+00  0.00000000000E+00 -0.92284330140E+03  0.92284330140E+03  0.25500000920E-02 0.  1.
    10030    2    1    2    0    0  0.00000000000E+00  0.00000000000E+00 -0.85522405774E+03  0.99046254511E+03  0.49960771043E+03 0.  0.
        1    1    3    3  502    0 -0.54651082997E+02  0.13342224643E+03 -0.23197039585E+02  0.14603540457E+03  0.50400001928E-02 0. -1.
       -1    1    3    3    0  502  0.54651082997E+02 -0.13342224643E+03 -0.83202701816E+03  0.84442714054E+03  0.50400001928E-02 0.  1.
</event>
<event>
 5   0  0.1211345E-01  0.5012873E+03  0.7818609E-02  0.1013443E+00
       -2   -1    0    0    0  501  0.00000000000E+00  0.00000000000E+00  0.28963515530E+03  0.28963515531E+03  0.25500000920E-02 0.  1.
        2   -1    0    0  501    0  0.00000000000E+00  0.00000000000E+00 -0.21690130098E+03  0.21690130100E+03  0.25500000920E-02 0. -1.
    10030    2    1    2    0    0  0.00000000000E+00  0.00000000000E+00  0.72733854312E+02  0.50653645631E+03  0.50128731083E+03 0.  0.
        5    1    3    3  502    0  0.12649661682E+03  0.21532188158E+03  0.15285936439E+02  0.25024119685E+03  0.46999998093E+01 0. -1.
       -5    1    3    3    0  502 -0.12649661682E+03 -0.21532188158E+03  0.57447917873E+02  0.25629525945E+03  0.46999998093E+01 0.  1.
</event>
<event>
 5   0  0.1191894E-01  0.4991951E+03  0.7818609E-02  0.1013989E+00
       -2   -1    0    0    0  501  0.00000000000E+00  0.00000000000E+00  0.34365677002E+02  0.34365677096E+02  0.25500000920E-02 0.  1.
        2   -1    0    0  501    0  0.00000000000E+00  0.00000000000E+00 -0.18128240385E+04  0.18128240385E+04  0.25500000920E-02 0. -1.
    10030    2    1    2    0    0  0.00000000000E+00  0.00000000000E+00 -0.17784583615E+04  0.18471897156E+04  0.49919505388E+03 0.  0.
        3    1    3    3  502    0 -0.64303871419E+02 -0.17706577510E+02 -0.17792382420E+04  0.17804879226E+04  0.10100000352E+00 0. -1.
       -3    1    3    3    0  502  0.64303871419E+02  0.17706577510E+02  0.77988049376E+00  0.66701792939E+02  0.10100000352E+00 0.  1.
</event>
<event>
 5   0  0.7812547E-02  0.5004268E+03  0.7818609E-02  0.1013668E+00
       -1   -1    0    0    0  501  0.00000000000E+00  0.00000000000E+00  0.90546054835E+02  0.90546054975E+02  0.50400001928E-02 0. -1.
        1   -1    0    0  501    0  0.00000000000E+00  0.00000000000E+00 -0.69143539086E+03  0.69143539088E+03  0.50400001928E-02 0.  1.
    10030    2    1    2    0    0  0.00000000000E+00  0.00000000000E+00 -0.60088933603E+03  0.78198144586E+03  0.50042680535E+03 0.  0.
        4    1    3    3  502    0 -0.18689992054E+02 -0.18064002713E+03 -0.56940303209E+03  0.59766341787E+03  0.12699999809E+01 0.  1.
       -4    1    3    3    0  502  0.18689992054E+02  0.18064002713E+03 -0.31486303935E+02  0.18431802799E+03  0.12699999809E+01 0. -1.
</event>
<event>
 5   0  0.1231822E-01  0.4998450E+03  0.7818609E-02  0.1013819E+00
        2   -1    0    0  501    0  0.00000000000E+00  0.00000000000E+00  0.62240372003E+02  0.62240372055E+02  0.25500000920E-02 0. -1.
       -2   -1    0    0    0  501  0.00000000000E+00  0.00000000000E+00 -0.10035490354E+04  0.10035490354E+04  0.25500000920E-02 0.  1.
    10030    2    1    2    0    0  0.00000000000E+00  0.00000000000E+00 -0.94130866341E+03  0.10657894075E+04  0.49984503725E+03 0.  0.
        1    1    3    3  502    0  0.84701012286E+02 -0.15805440023E+03 -0.84184663784E+03  0.86073295312E+03  0.50400001928E-02 0.  1.
       -1    1    3    3    0  502 -0.84701012286E+02  0.15805440023E+03 -0.99462025568E+02  0.20505645435E+03  0.50400001928E-02 0. -1.
</event>
<event>
 5   0  0.7812547E-02  0.4544342E+03  0.7818609E-02  0.1026408E+00
       -1   -1    0    0    0  501  0.00000000000E+00  0.00000000000E+00  0.27316037683E+03  0.27316037688E+03  0.50400001928E-02 0. -1.
        1   -1    0    0  501    0  0.00000000000E+00  0.00000000000E+00 -0.18900111360E+03  0.18900111367E+03  0.50400001928E-02 0.  1.
    10030    2    1    2    0    0  0.00000000000E+00  0.00000000000E+00  0.84159263227E+02  0.46216149055E+03  0.45443422160E+03 0.  0.
        4    1    3    3  502    0 -0.25122106232E+02 -0.19808900531E+03 -0.68187391254E+02  0.21100120253E+03  0.12699999809E+01 0.  1.
       -4    1    3    3    0  502  0.25122106232E+02  0.19808900531E+03  0.15234665448E+03  0.25116028802E+03  0.12699999809E+01 0. -1.
</event>
<event>
 5   0  0.1191894E-01  0.5034190E+03  0.7818609E-02  0.1012890E+00
        2   -1    0    0  501    0  0.00000000000E+00  0.00000000000E+00  0.25142486935E+03  0.25142486936E+03  0.25500000920E-02 0.  1.
       -2   -1    0    0    0  501  0.00000000000E+00  0.00000000000E+00 -0.25199444908E+03  0.25199444909E+03  0.25500000920E-02 0. -1.
    10030    2    1    2    0    0  0.00000000000E+00  0.00000000000E+00 -0.56957973085E+00  0.50341931846E+03  0.50341899624E+03 0.  0.
        3    1    3    3  502    0  0.20102388689E+02  0.22779019181E+02 -0.25015425863E+03  0.25199236706E+03  0.10100000352E+00 0. -1.
       -3    1    3    3    0  502 -0.20102388689E+02 -0.22779019181E+02  0.24958467890E+03  0.25142695140E+03  0.10100000352E+00 0.  1.
</event>
<event>
 5   0  0.1243803E-01  0.4961464E+03  0.7818609E-02  0.1014790E+00
        2   -1    0    0  501    0  0.00000000000E+00  0.00000000000E+00  0.19777347917E+04  0.19777347917E+04  0.25500000920E-02 0.  1.
       -2   -1    0    0    0  501  0.00000000000E+00  0.00000000000E+00 -0.31116560966E+02  0.31116561070E+02  0.25500000920E-02 0. -1.
    10030    2    1    2    0    0  0.00000000000E+00  0.00000000000E+00  0.19466182308E+04  0.20088513528E+04  0.49614637085E+03 0.  0.
        4    1    3    3  502    0 -0.60779575773E+02 -0.22088579877E+03  0.13585729260E+04  0.13777542237E+04  0.12699999809E+01 0.  1.
       -4    1    3    3    0  502  0.60779575773E+02  0.22088579877E+03  0.58804530480E+03  0.63109712907E+03  0.12699999809E+01 0. -1.
</event>
<event>
 5   0  0.7416638E-02  0.4392989E+03  0.7818609E-02  0.1030962E+00
       -1   -1    0    0    0  501  0.00000000000E+00  0.00000000000E+00  0.89929222645E+02  0.89929222786E+02  0.50400001928E-02 0. -1.
        1   -1    0    0  501    0  0.00000000000E+00  0.00000000000E+00 -0.53648731673E+03  0.53648731675E+03  0.50400001928E-02 0.  1.
    10030    2    1    2    0    0  0.00000000000E+00  0.00000000000E+00 -0.44655809409E+03  0.62641653954E+03  0.43929892968E+03 0.  0.
        1    1    3    3  502    0  0.38110029309E+02  0.66452666029E+02 -0.51682157181E+03  0.52246805478E+03  0.50400001928E-02 0.  1.
       -1    1    3    3    0  502 -0.38110029309E+02 -0.66452666029E+02  0.70263477723E+02  0.10394848476E+03  0.50400001928E-02 0. -1.
</event>
<event>
 5   0  0.1231822E-01  0.5013511E+03  0.7818609E-02  0.1013427E+00
       -2   -1    0    0    0  501  0.00000000000E+00  0.00000000000E+00  0.10611454051E+03  0.10611454054E+03  0.25500000920E-02 0.  1.
        2   -1    0    0  501    0  0.00000000000E+00  0.00000000000E+00 -0.59217367038E+03  0.59217367039E+03  0.25500000920E-02 0. -1.
    10030    2    1    2    0    0  0.00000000000E+00  0.00000000000E+00 -0.48605912987E+03  0.69828821093E+03  0.50135112226E+03 0.  0.
        1    1    3    3  502    0  0.10497242080E+02 -0.67202883838E+02 -0.57907522975E+03  0.58305620778E+03  0.50400001928E-02 0. -1.
       -1    1    3    3    0  502 -0.10497242080E+02  0.67202883838E+02  0.93016099881E+02  0.11523200315E+03  0.50400001928E-02 0.  1.
</event>
<event>
 5   0  0.7531632E-02  0.4859837E+03  0.7818609E-02  0.1017504E+00
        1   -1    0    0  501    0  0.00000000000E+00  0.00000000000E+00  0.31531553415E+03  0.31531553420E+03  0.50400001928E-02 0.  1.
       -1   -1    0    0    0  501  0.00000000000E+00  0.00000000000E+00 -0.18725698136E+03  0.18725698143E+03  0.50400001928E-02 0. -1.
    10030    2    1    2    0    0  0.00000000000E+00  0.00000000000E+00  0.12805855280E+03  0.50257251562E+03  0.48598368338E+03 0.  0.
        3    1    3    3  502    0  0.41886041352E+01 -0.24064818255E+03  0.98575140446E+02  0.26008875540E+03  0.10100000352E+00 0. -1.
       -3    1    3    3    0  502 -0.41886041352E+01  0.24064818255E+03  0.29483412349E+02  0.24248376023E+03  0.10100000352E+00 0.  1.
</event>
<event>
 5   0  0.7602288E-02  0.4996724E+03  0.7818609E-02  0.1013864E+00
       -1   -1    0    0    0  501  0.00000000000E+00  0.00000000000E+00  0.48910247232E+02  0.48910247491E+02  0.50400001928E-02 0.  1.
        1   -1    0    0  501    0  0.00000000000E+00  0.00000000000E+00 -0.12761769590E+04  0.12761769590E+04  0.50400001928E-02 0. -1.
    10030    2    1    2    0    0  0.00000000000E+00  0.00000000000E+00 -0.12272667118E+04  0.13250872065E+04  0.49967241571E+03 0.  0.
        5    1    3    3  502    0 -0.18971534777E+03 -0.11396894978E+03 -0.30647823522E+03  0.37806326634E+03  0.46999998093E+01 0.  1.
       -5    1    3    3    0  502  0.18971534777E+03  0.11396894978E+03 -0.92078847656E+03  0.94702394017E+03  0.46999998093E+01 0. -1.
</event>
<event>
 5   0  0.7812547E-02  0.5010538E+03  0.7818609E-02  0.1013504E+00
        1   -1    0    0  501    0  0.00000000000E+00  0.00000000000E+00  0.21807414612E+03  0.21807414618E+03  0.50400001928E-02 0. -1.
       -1   -1    0    0    0  501  0.00000000000E+00  0.00000000000E+00 -0.28780916563E+03  0.28780916568E+03  0.50400001928E-02 0.  1.
    10030    2    1    2    0    0  0.00000000000E+00  0.00000000000E+00 -0.69735019513E+02  0.50588331185E+03  0.50105384168E+03 0.  0.
        4    1    3    3  502    0  0.10561960169E+03  0.10369917421E+03  0.16920217713E+03  0.22481105098E+03  0.12699999809E+01 0. -1.
       -4    1    3    3    0  502 -0.10561960169E+03 -0.10369917421E+03 -0.23893719664E+03  0.28107226088E+03  0.12699999809E+01 0.  1.
</event>
<event>
 5   0  0.7531632E-02  0.5035821E+03  0.7818609E-02  0.1012848E+00
        1   -1    0    0  501    0  0.00000000000E+00  0.00000000000E+00  0.70149734488E+03  0.70149734490E+03  0.50400001928E-02 0. -1.
       -1   -1    0    0    0  501  0.00000000000E+00  0.00000000000E+00 -0.90376287718E+02  0.90376287859E+02  0.50400001928E-02 0.  1.
    10030    2    1    2    0    0  0.00000000000E+00  0.00000000000E+00  0.61112105716E+03  0.79187363275E+03  0.50358207251E+03 0.  0.
        3    1    3    3  502    0  0.12911897879E+03 -0.39904582015E+02  0.63963290149E+03  0.65375404031E+03  0.10100000352E+00 0. -1.
       -3    1    3    3    0  502 -0.12911897879E+03  0.39904582015E+02 -0.28511844333E+02  0.13811959245E+03  0.10100000352E+00 0.  1.
</event>
<event>
 5   0  0.7531632E-02  0.5364139E+03  0.7818609E-02  0.1004688E+00
        1   -1    0    0  501    0  0.00000000000E+00  0.00000000000E+00  0.12905423740E+04  0.12905423740E+04  0.50400001928E-02 0.  1.
       -1   -1    0    0    0  501  0.00000000000E+00  0.00000000000E+00 -0.55740103817E+02  0.55740104045E+02  0.50400001928E-02 0. -1.
    10030    2    1    2    0    0  0.00000000000E+00  0.00000000000E+00  0.12348022702E+04  0.13462824781E+04  0.53641389269E+03 0.  0.
        3    1    3    3  502    0 -0.12080223275E+03  0.27691235735E+02  0.12143654209E+04  0.12206733264E+04  0.10100000352E+00 0.  1.
       -3    1    3    3    0  502  0.12080223275E+03 -0.27691235735E+02  0.20436849240E+02  0.12560915167E+03  0.10100000352E+00 0. -1.
</event>
<event>
 5   0  0.7812547E-02  0.5002331E+03  0.7818609E-02  0.1013718E+00
        1   -1    0    0  501    0  0.00000000000E+00  0.00000000000E+00  0.89007631795E+03  0.89007631797E+03  0.50400001928E-02 0.  1.
       -1   -1    0    0    0  501  0.00000000000E+00  0.00000000000E+00 -0.70284178237E+02  0.70284178418E+02  0.50400001928E-02 0. -1.
    10030    2    1    2    0    0  0.00000000000E+00  0.00000000000E+00  0.81979213971E+03  0.96036049638E+03  0.50023307635E+03 0.  0.
        4    1    3    3  502    0 -0.14537365388E+03 -0.18500501479E+03  0.24703511896E+03  0.34115732095E+03  0.12699999809E+01 0.  1.
       -4    1    3    3    0  502  0.14537365388E+03  0.18500501479E+03  0.57275702076E+03  0.61920317543E+03  0.12699999809E+01 0. -1.
</event>
<event>
 5   0  0.7531632E-02  0.4933393E+03  0.7818609E-02  0.1015532E+00
       -1   -1    0    0    0  501  0.00000000000E+00  0.00000000000E+00  0.19879635967E+03  0.19879635974E+03  0.50400001928E-02 0.  1.
        1   -1    0    0  501    0  0.00000000000E+00  0.00000000000E+00 -0.30607162484E+03  0.30607162488E+03  0.50400001928E-02 0. -1.
    10030    2    1    2    0    0  0.00000000000E+00  0.00000000000E+00 -0.10727526517E+03  0.50486798462E+03  0.49333933492E+03 0.  0.
        3    1    3    3  502    0  0.18770791625E+03  0.11246059788E+03 -0.17015913255E+03  0.27719269198E+03  0.10100000352E+00 0. -1.
       -3    1    3    3    0  502 -0.18770791625E+03 -0.11246059788E+03  0.62883867386E+02  0.22767529263E+03  0.10100000352E+00 0.  1.
</event>
<event>
 5   0  0.7416638E-02  0.5008525E+03  0.7818609E-02  0.1013557E+00
       -1   -1    0    0    0  501  0.00000000000E+00  0.00000000000E+00  0.42783480730E+03  0.42783480733E+03  0.50400001928E-02 0.  1.
        1   -1    0    0  501    0  0.00000000000E+00  0.00000000000E+00 -0.14658298134E+03  0.14658298143E+03  0.50400001928E-02 0. -1.
    10030    2    1    2    0    0  0.00000000000E+00  0.00000000000E+00  0.28125182596E+03  0.57441778875E+03  0.50085247971E+03 0.  0.
        1    1    3    3  502    0  0.92552046818E+02 -0.18144397619E+03 -0.26462777486E+02  0.20539736240E+03  0.50400001928E-02 0. -1.
       -1    1    3    3    0  502 -0.92552046818E+02  0.18144397619E+03  0.30771460344E+03  0.36902042635E+03  0.50400001928E-02 0.  1.
</event>
<event>
 5   0  0.7531632E-02  0.5062827E+03  0.7818609E-02  0.1012152E+00
       -1   -1    0    0    0  501  0.00000000000E+00  0.00000000000E+00  0.21936737582E+03  0.21936737588E+03  0.50400001928E-02 0. -1.
        1   -1    0    0  501    0  0.00000000000E+00  0.00000000000E+00 -0.29211517307E+03  0.29211517312E+03  0.50400001928E-02 0.  1.
    10030    2    1    2    0    0  0.00000000000E+00  0.00000000000E+00 -0.72747797254E+02  0.51148254899E+03  0.50628268380E+03 0.  0.
        3    1    3    3  502    0  0.25001781515E+03 -0.38857478061E+02 -0.44310620225E+02  0.25687010874E+03  0.10100000352E+00 0.  1.
       -3    1    3    3    0  502 -0.25001781515E+03  0.38857478061E+02 -0.28437177029E+02  0.25461244026E+03  0.10100000352E+00 0. -1.
</event>
<event>
 5   0  0.1191894E-01  0.5005311E+03  0.7818609E-02  0.1013640E+00
       -2   -1    0    0    0  501  0.00000000000E+00  0.00000000000E+00  0.16558612215E+03  0.16558612217E+03  0.25500000920E-02 0.  1.
        2   -1    0    0  501    0  0.00000000000E+00  0.00000000000E+00 -0.37824932478E+03  0.37824932479E+03  0.25500000920E-02 0. -1.
    10030    2    1    2    0    0  0.00000000000E+00  0.00000000000E+00 -0.21266320263E+03  0.54383544696E+03  0.50053107358E+03 0.  0.
        3    1    3    3  502    0  0.18883647786E+03  0.26196557580E+01 -0.28475457676E+03  0.34168883088E+03  0.10100000352E+00 0. -1.
       -3    1    3    3    0  502 -0.18883647786E+03 -0.26196557580E+01  0.72091374129E+02  0.20214661607E+03  0.10100000352E+00 0.  1.
</event>
<event>
 5   0  0.1279188E-01  0.5008284E+03  0.7818609E-02  0.1013563E+00
        2   -1    0    0  501    0  0.00000000000E+00  0.00000000000E+00  0.10668010155E+04  0.10668010155E+04  0.25500000920E-02 0.  1.
       -2   -1    0    0    0  501  0.00000000000E+00  0.00000000000E+00 -0.58780655776E+02  0.58780655831E+02  0.25500000920E-02 0. -1.
    10030    2    1    2    0    0  0.00000000000E+00  0.00000000000E+00  0.10080203597E+04  0.11255816714E+04  0.50082836704E+03 0.  0.
        2    1    3    3  502    0 -0.63515917734E+02 -0.13985176210E+03  0.59525443223E+02  0.16473028126E+03  0.25500000920E-02 0. -1.
       -2    1    3    3    0  502  0.63515917734E+02  0.13985176210E+03  0.94849491652E+03  0.96085139009E+03  0.25500000920E-02 0.  1.
</event>
<event>
 5   0  0.7602288E-02  0.5021917E+03  0.7818609E-02  0.1013208E+00
       -1   -1    0    0    0  501  0.00000000000E+00  0.00000000000E+00  0.49018759289E+02  0.49018759548E+02  0.50400001928E-02 0.  1.
        1   -1    0    0  501    0  0.00000000000E+00  0.00000000000E+00 -0.12862242635E+04  0.12862242635E+04  0.50400001928E-02 0. -1.
    10030    2    1    2    0    0  0.00000000000E+00  0.00000000000E+00 -0.12372055042E+04  0.13352430230E+04  0.50219166756E+03 0.  0.
        5    1    3    3  502    0  0.44289094649E+02 -0.23098107349E+03 -0.38509062001E+03  0.45125453553E+03  0.46999998093E+01 0. -1.
       -5    1    3    3    0  502 -0.44289094649E+02  0.23098107349E+03 -0.85211488417E+03  0.88398848750E+03  0.46999998093E+01 0.  1.
</event>
<event>
 5   0  0.1191894E-01  0.4984973E+03  0.7818609E-02  0.1014172E+00
       -2   -1    0    0    0  501  0.00000000000E+00  0.00000000000E+00  0.62300505373E+02  0.62300505425E+02  0.25500000920E-02 0.  1.
        2   -1    0    0  501    0  0.00000000000E+00  0.00000000000E+00 -0.99718132665E+03  0.99718132666E+03  0.25500000920E-02 0. -1.
    10030    2    1    2    0    0  0.00000000000E+00  0.00000000000E+00 -0.93488082128E+03  0.10594818321E+04  0.49849734454E+03 0.  0.
        3    1    3    3  502    0  0.12742184005E+03  0.19709316783E+03 -0.64580343660E+03  0.68712744892E+03  0.10100000352E+00 0. -1.
       -3    1    3    3    0  502 -0.12742184005E+03 -0.19709316783E+03 -0.28907738468E+03  0.37235438316E+03  0.10100000352E+00 0.  1.
</event>
<event>
 5   0  0.1231822E-01  0.4894894E+03  0.7818609E-02  0.1016559E+00
        2   -1    0    0  501    0  0.00000000000E+00  0.00000000000E+00  0.28556215757E+03  0.28556215758E+03  0.25500000920E-02 0.  1.
       -2   -1    0    0    0  501  0.00000000000E+00  0.00000000000E+00 -0.20976159730E+03  0.20976159731E+03  0.25500000920E-02 0. -1.
    10030    2    1    2    0    0  0.00000000000E+00  0.00000000000E+00  0.75800560273E+02  0.49532375489E+03  0.48948942504E+03 0.  0.
        1    1    3    3  502    0  0.11659520080E+03 -0.16794195169E+01 -0.17984515635E+03  0.21433978070E+03  0.50400001928E-02 0. -1.
       -1    1    3    3    0  502 -0.11659520080E+03  0.16794195169E+01  0.25564571663E+03  0.28098397420E+03  0.50400001928E-02 0.  1.
</event>
<event>
 5   0  0.1243803E-01  0.5004062E+03  0.7818609E-02  0.1013673E+00
       -2   -1    0    0    0  501  0.00000000000E+00  0.00000000000E+00  0.49344427318E+02  0.49344427384E+02  0.25500000920E-02 0.  1.
        2   -1    0    0  501    0  0.00000000000E+00  0.00000000000E+00 -0.12686659412E+04  0.12686659412E+04  0.25500000920E-02 0. -1.
    10030    2    1    2    0    0  0.00000000000E+00  0.00000000000E+00 -0.12193215139E+04  0.13180103686E+04  0.50040621248E+03 0.  0.
        4    1    3    3  502    0 -0.23322661374E+03 -0.35782769948E+02 -0.39047942536E+03  0.45623552526E+03  0.12699999809E+01 0.  1.
       -4    1    3    3    0  502  0.23322661374E+03  0.35782769948E+02 -0.82884208853E+03  0.86177484334E+03  0.12699999809E+01 0. -1.
</event>
<event>
 5   0  0.1279188E-01  0.5182244E+03  0.7818609E-02  0.1009129E+00
        2   -1    0    0  501    0  0.00000000000E+00  0.00000000000E+00  0.61865505509E+03  0.61865505510E+03  0.25500000920E-02 0. -1.
       -2   -1    0    0    0  501  0.00000000000E+00  0.00000000000E+00 -0.10852434174E+03  0.10852434177E+03  0.25500000920E-02 0.  1.
    10030    2    1    2    0    0  0.00000000000E+00  0.00000000000E+00  0.51013071335E+03  0.72717939687E+03  0.51822440171E+03 0.  0.
        2    1    3    3  502    0 -0.18471839423E+03 -0.96932658730E+02  0.39397777923E+02  0.21229463113E+03  0.25500000920E-02 0.  1.
       -2    1    3    3    0  502  0.18471839423E+03  0.96932658730E+02  0.47073293542E+03  0.51488476574E+03  0.25500000920E-02 0. -1.
</event>
<event>
 5   0  0.7602288E-02  0.5011545E+03  0.7818609E-02  0.1013478E+00
       -1   -1    0    0    0  501  0.00000000000E+00  0.00000000000E+00  0.85805086012E+02  0.85805086160E+02  0.50400001928E-02 0.  1.
        1   -1    0    0  501    0  0.00000000000E+00  0.00000000000E+00 -0.73176267823E+03  0.73176267824E+03  0.50400001928E-02 0. -1.
    10030    2    1    2    0    0  0.00000000000E+00  0.00000000000E+00 -0.64595759221E+03  0.81756776440E+03  0.50115450557E+03 0.  0.
        5    1    3    3  502    0  0.56425446218E+02 -0.18871759567E+03 -0.70413061370E+02  0.20923252880E+03  0.46999998093E+01 0.  1.
       -5    1    3    3    0  502 -0.56425446218E+02  0.18871759567E+03 -0.57554453084E+03  0.60833523561E+03  0.46999998093E+01 0. -1.
</event>
<event>
 5   0  0.1279188E-01  0.5033272E+03  0.7818609E-02  0.1012914E+00
        2   -1    0    0  501    0  0.00000000000E+00  0.00000000000E+00  0.14076827185E+03  0.14076827187E+03  0.25500000920E-02 0. -1.
       -2   -1    0    0    0  501  0.00000000000E+00  0.00000000000E+00 -0.44992082566E+03  0.44992082566E+03  0.25500000920E-02 0.  1.
    10030    2    1    2    0    0  0.00000000000E+00  0.00000000000E+00 -0.30915255380E+03  0.59068909754E+03  0.50332723791E+03 0.  0.
        2    1    3    3  502    0  0.11021116387E+03  0.35261292989E+02 -0.41684910733E+03  0.43261187884E+03  0.25500000920E-02 0.  1.
       -2    1    3    3    0  502 -0.11021116387E+03 -0.35261292989E+02  0.10769655352E+03  0.15807721870E+03  0.25500000920E-02 0. -1.
</event>
<event>
 5   0  0.7602288E-02  0.5051742E+03  0.7818609E-02  0.1012437E+00
       -1   -1    0    0    0  501  0.00000000000E+00  0.00000000000E+00  0.17318757148E+03  0.17318757156E+03  0.50400001928E-02 0. -1.
        1   -1    0    0  501    0  0.00000000000E+00  0.00000000000E+00 -0.36838806759E+03  0.36838806763E+03  0.50400001928E-02 0.  1.
    10030    2    1    2    0    0  0.00000000000E+00  0.00000000000E+00 -0.19520049611E+03  0.54157563918E+03  0.50517416727E+03 0.  0.
        5    1    3    3  502    0  0.12486444545E+03  0.75826922589E+02 -0.31844741009E+03  0.35038792062E+03  0.46999998093E+01 0.  1.
       -5    1    3    3    0  502 -0.12486444545E+03 -0.75826922589E+02  0.12324691398E+03  0.19118771856E+03  0.46999998093E+01 0. -1.
</event>
<event>
 5   0  0.7781754E-02  0.5008654E+03  0.7818609E-02  0.1013553E+00
        1   -1    0    0  501    0  0.00000000000E+00  0.00000000000E+00  0.82949010855E+03  0.82949010856E+03  0.50400001928E-02 0. -1.
       -1   -1    0    0    0  501  0.00000000000E+00  0.00000000000E+00 -0.75608541072E+02  0.75608541240E+02  0.50400001928E-02 0.  1.
    10030    2    1    2    0    0  0.00000000000E+00  0.00000000000E+00  0.75388156748E+03  0.90509864980E+03  0.50086539918E+03 0.  0.
        2    1    3    3  502    0  0.11245484315E+03  0.39929140333E+02  0.77480855673E+03  0.78394433959E+03  0.25500000920E-02 0. -1.
       -2    1    3    3    0  502 -0.11245484315E+03 -0.39929140333E+02 -0.20926989252E+02  0.12115431021E+03  0.25500000920E-02 0.  1.
</event>
<event>
 5   0  0.7781754E-02  0.4986862E+03  0.7818609E-02  0.1014122E+00
        1   -1    0    0  501    0  0.00000000000E+00  0.00000000000E+00  0.16343429317E+04  0.16343429317E+04  0.50400001928E-02 0. -1.
       -1   -1    0    0    0  501  0.00000000000E+00  0.00000000000E+00 -0.38040971081E+02  0.38040971415E+02  0.50400001928E-02 0.  1.
    10030    2    1    2    0    0  0.00000000000E+00  0.00000000000E+00  0.15963019606E+04  0.16723839031E+04  0.49868624399E+03 0.  0.
        2    1    3    3  502    0 -0.12204476222E+03  0.21586225928E+03  0.71066474472E+03  0.75268573678E+03  0.25500000920E-02 0.  1.
       -2    1    3    3    0  502  0.12204476222E+03 -0.21586225928E+03  0.88563721587E+03  0.91969816631E+03  0.25500000920E-02 0. -1.
</event>
<event>
 5   0  0.7781754E-02  0.4999437E+03  0.7818609E-02  0.1013794E+00
        1   -1    0    0  501    0  0.00000000000E+00  0.00000000000E+00  0.65520244438E+03  0.65520244440E+03  0.50400001928E-02 0.  1.
       -1   -1    0    0    0  501  0.00000000000E+00  0.00000000000E+00 -0.95368899742E+02  0.95368899876E+02  0.50400001928E-02 0. -1.
    10030    2    1    2    0    0  0.00000000000E+00  0.00000000000E+00  0.55983354464E+03  0.75057134428E+03  0.49994374198E+03 0.  0.
        2    1    3    3  502    0 -0.22467104588E+03 -0.40843401698E+02  0.43258380543E+03  0.48915642799E+03  0.25500000920E-02 0.  1.
       -2    1    3    3    0  502  0.22467104588E+03  0.40843401698E+02  0.12724973921E+03  0.26141491629E+03  0.25500000920E-02 0. -1.
</event>
<event>
 5   0  0.1231822E-01  0.5015207E+03  0.7818609E-02  0.1013383E+00
        2   -1    0    0  501    0  0.00000000000E+00  0.00000000000E+00  0.10837084588E+04  0.10837084588E+04  0.25500000920E-02 0.  1.
       -2   -1    0    0    0  501  0.00000000000E+00  0.00000000000E+00 -0.58023690558E+02  0.58023690614E+02  0.25500000920E-02 0. -1.
    10030    2    1    2    0    0  0.00000000000E+00  0.00000000000E+00  0.10256847683E+04  0.11417321494E+04  0.50152074455E+03 0.  0.
        1    1    3    3  502    0  0.17108014501E+03 -0.11999241651E+03  0.19727934990E+03  0.28737734420E+03  0.50400001928E-02 0. -1.
       -1    1    3    3    0  502 -0.17108014501E+03  0.11999241651E+03  0.82840541836E+03  0.85435480523E+03  0.50400001928E-02 0.  1.
</event>
<event>
 5   0  0.1243803E-01  0.5003382E+03  0.7818609E-02  0.1013691E+00
       -2   -1    0    0    0  501  0.00000000000E+00  0.00000000000E+00  0.39702701786E+03  0.39702701787E+03  0.25500000920E-02 0.  1.
        2   -1    0    0  501    0  0.00000000000E+00  0.00000000000E+00 -0.15763307277E+03  0.15763307279E+03  0.25500000920E-02 0. -1.
    10030    2    1    2    0    0  0.00000000000E+00  0.00000000000E+00  0.23939394509E+03  0.55466009066E+03  0.50033824082E+03 0.  0.
        4    1    3    3  502    0  0.19317785513E+03 -0.98575980404E+02  0.25792669648E+03  0.33699065459E+03  0.12699999809E+01 0.  1.
       -4    1    3    3    0  502 -0.19317785513E+03  0.98575980404E+02 -0.18532751395E+02  0.21766943607E+03  0.12699999809E+01 0. -1.
</event>
<event>
 5   0  0.5006750E-02  0.4981428E+03  0.7818609E-02  0.1014265E+00
       -3   -1    0    0    0  501  0.00000000000E+00  0.00000000000E+00  0.92145615832E+03  0.92145616386E+03  0.10100000352E+00 0. -1.
        3   -1    0    0  501    0  0.00000000000E+00  0.00000000000E+00 -0.67324437260E+02  0.67324513020E+02  0.10100000352E+00 0.  1.
    10030    2    1    2    0    0  0.00000000000E+00  0.00000000000E+00  0.85413172106E+03  0.98878067688E+03  0.49814278078E+03 0.  0.
        3    1    3    3  502    0  0.24688240026E+03 -0.15885811826E+02  0.48436375627E+03  0.54388559198E+03  0.10100000352E+00 0.  1.
       -3    1    3    3    0  502 -0.24688240026E+03  0.15885811826E+02  0.36976796479E+03  0.44489508490E+03  0.10100000352E+00 0. -1.
</event>
<event>
 5   0  0.7531632E-02  0.5006205E+03  0.7818609E-02  0.1013617E+00
       -1   -1    0    0    0  501  0.00000000000E+00  0.00000000000E+00  0.11585994054E+04  0.11585994054E+04  0.50400001928E-02 0.  1.
        1   -1    0    0  501    0  0.00000000000E+00  0.00000000000E+00 -0.54078407564E+02  0.54078407799E+02  0.50400001928E-02 0. -1.
    10030    2    1    2    0    0  0.00000000000E+00  0.00000000000E+00  0.11045209979E+04  0.12126778132E+04  0.50062045902E+03 0.  0.
        3    1    3    3  502    0 -0.20660481005E+01  0.21016213763E+03  0.88158255304E+03  0.90628924779E+03  0.10100000352E+00 0.  1.
       -3    1    3    3    0  502  0.20660481005E+01 -0.21016213763E+03  0.22293844482E+03  0.30638856543E+03  0.10100000352E+00 0. -1.
</event>
<event>
 5   0  0.1191894E-01  0.5022593E+03  0.7818609E-02  0.1013191E+00
       -2   -1    0    0    0  501  0.00000000000E+00  0.00000000000E+00  0.29969271624E+03  0.29969271625E+03  0.25500000920E-02 0.  1.
        2   -1    0    0  501    0  0.00000000000E+00  0.00000000000E+00 -0.21043589319E+03  0.21043589321E+03  0.25500000920E-02 0. -1.
    10030    2    1    2    0    0  0.00000000000E+00  0.00000000000E+00  0.89256823049E+02  0.51012860946E+03  0.50225931323E+03 0.  0.
        3    1    3    3  502    0  0.12895797074E+03 -0.92331115614E+02  0.24238626335E+03  0.28966584885E+03  0.10100000352E+00 0.  1.
       -3    1    3    3    0  502 -0.12895797074E+03  0.92331115614E+02 -0.15312944030E+03  0.22046276061E+03  0.10100000352E+00 0. -1.
</event>
<event>
 5   0  0.7531632E-02  0.5064276E+03  0.7818609E-02  0.1012115E+00
       -1   -1    0    0    0  501  0.00000000000E+00  0.00000000000E+00  0.77417801671E+02  0.77417801835E+02  0.50400001928E-02 0. -1.
        1   -1    0    0  501    0  0.00000000000E+00  0.00000000000E+00 -0.82819734319E+03  0.82819734321E+03  0.50400001928E-02 0.  1.
    10030    2    1    2    0    0  0.00000000000E+00  0.00000000000E+00 -0.75077954152E+03  0.90561514504E+03  0.50642755747E+03 0.  0.
        3    1    3    3  502    0 -0.11972425559E+03  0.10187995946E+03 -0.73036276332E+03  0.74708982041E+03  0.10100000352E+00 0.  1.
       -3    1    3    3    0  502  0.11972425559E+03 -0.10187995946E+03 -0.20416778201E+02  0.15852532463E+03  0.10100000352E+00 0. -1.
</event>
<event>
 5   0  0.7781754E-02  0.4954472E+03  0.7818609E-02  0.1014974E+00
        1   -1    0    0  501    0  0.00000000000E+00  0.00000000000E+00  0.18153604990E+03  0.18153604997E+03  0.50400001928E-02 0. -1.
       -1   -1    0    0    0  501  0.00000000000E+00  0.00000000000E+00 -0.33804290505E+03  0.33804290509E+03  0.50400001928E-02 0.  1.
    10030    2    1    2    0    0  0.00000000000E+00  0.00000000000E+00 -0.15650685515E+03  0.51957895506E+03  0.49544716654E+03 0.  0.
        2    1    3    3  502    0 -0.21096298674E+03 -0.76495809745E+02 -0.18829265376E+03  0.29293534125E+03  0.25500000920E-02 0.  1.
       -2    1    3    3    0  502  0.21096298674E+03  0.76495809745E+02  0.31785798612E+02  0.22664361382E+03  0.25500000920E-02 0. -1.
</event>
<event>
 5   0  0.1279188E-01  0.4946928E+03  0.7818609E-02  0.1015174E+00
        2   -1    0    0  501    0  0.00000000000E+00  0.00000000000E+00  0.29837366859E+03  0.29837366861E+03  0.25500000920E-02 0.  1.
       -2   -1    0    0    0  501  0.00000000000E+00  0.00000000000E+00 -0.20504568603E+03  0.20504568605E+03  0.25500000920E-02 0. -1.
    10030    2    1    2    0    0  0.00000000000E+00  0.00000000000E+00  0.93327982561E+02  0.50341935466E+03  0.49469276760E+03 0.  0.
        2    1    3    3  502    0  0.57496131380E+01 -0.23506018600E+03 -0.31461930999E+02  0.23722605717E+03  0.25500000920E-02 0. -1.
       -2    1    3    3    0  502 -0.57496131380E+01  0.23506018600E+03  0.12478991356E+03  0.26619329748E+03  0.25500000920E-02 0.  1.
</event>
<event>
 5   0  0.7602288E-02  0.5012832E+03  0.7818609E-02  0.1013445E+00
       -1   -1    0    0    0  501  0.00000000000E+00  0.00000000000E+00  0.59732503255E+02  0.59732503467E+02  0.50400001928E-02 0. -1.
        1   -1    0    0  501    0  0.00000000000E+00  0.00000000000E+00 -0.10517090318E+04  0.10517090319E+04  0.50400001928E-02 0.  1.
    10030    2    1    2    0    0  0.00000000000E+00  0.00000000000E+00 -0.99197652859E+03  0.11114415353E+04  0.50128320655E+03 0.  0.
        5    1    3    3  502    0 -0.62907850677E+02  0.10667842170E+03 -0.12958467256E+02  0.12461017296E+03  0.46999998093E+01 0. -1.
       -5    1    3    3    0  502  0.62907850677E+02 -0.10667842170E+03 -0.97901806133E+03  0.98683136236E+03  0.46999998093E+01 0.  1.
</event>
<event>
 5   0  0.7812547E-02  0.4970107E+03  0.7818609E-02  0.1014562E+00
       -1   -1    0    0    0  501  0.00000000000E+00  0.00000000000E+00  0.23550222562E+03  0.23550222568E+03  0.50400001928E-02 0. -1.
        1   -1    0    0  501    0  0.00000000000E+00  0.00000000000E+00 -0.26222642562E+03  0.26222642567E+03  0.50400001928E-02 0.  1.
    10030    2    1    2    0    0  0.00000000000E+00  0.00000000000E+00 -0.26724199996E+02  0.49772865135E+03  0.49701069154E+03 0.  0.
        4    1    3    3  502    0  0.14878214830E+03 -0.19874106523E+03 -0.24305029313E+01  0.24827738300E+03  0.12699999809E+01 0.  1.
       -4    1    3    3    0  502 -0.14878214830E+03  0.19874106523E+03 -0.24293697065E+02  0.24945126835E+03  0.12699999809E+01 0. -1.
</event>
<event>
 5   0  0.1243803E-01  0.4989867E+03  0.7818609E-02  0.1014044E+00
        2   -1    0    0  501    0  0.00000000000E+00  0.00000000000E+00  0.52536298754E+03  0.52536298755E+03  0.25500000920E-02 0. -1.
       -2   -1    0    0    0  501  0.00000000000E+00  0.00000000000E+00 -0.11848368412E+03  0.11848368414E+03  0.25500000920E-02 0.  1.
    10030    2    1    2    0    0  0.00000000000E+00  0.00000000000E+00  0.40687930343E+03  0.64384667169E+03  0.49898674240E+03 0.  0.
        4    1    3    3  502    0 -0.12625142260E+03  0.20793435792E+03  0.13195599130E+03  0.27674919232E+03  0.12699999809E+01 0.  1.
       -4    1    3    3    0  502  0.12625142260E+03 -0.20793435792E+03  0.27492331212E+03  0.36709747937E+03  0.12699999809E+01 0. -1.
</event>
<event>
 5   0  0.7416638E-02  0.4481386E+03  0.7818609E-02  0.1028279E+00
       -1   -1    0    0    0  501  0.00000000000E+00  0.00000000000E+00  0.78513672668E+02  0.78513672830E+02  0.50400001928E-02 0. -1.
        1   -1    0    0  501    0  0.00000000000E+00  0.00000000000E+00 -0.63946898091E+03  0.63946898093E+03  0.50400001928E-02 0.  1.
    10030    2    1    2    0    0  0.00000000000E+00  0.00000000000E+00 -0.56095530825E+03  0.71798265376E+03  0.44813863174E+03 0.  0.
        1    1    3    3  502    0 -0.14036844025E+03 -0.12209443683E+02 -0.13425479119E+01  0.14090483311E+03  0.50400001928E-02 0. -1.
       -1    1    3    3    0  502  0.14036844025E+03  0.12209443683E+02 -0.55961276033E+03  0.57707782065E+03  0.50400001928E-02 0.  1.
</event>
<event>
 5   0  0.1243803E-01  0.4994560E+03  0.7818609E-02  0.1013921E+00
       -2   -1    0    0    0  501  0.00000000000E+00  0.00000000000E+00  0.47840814984E+02  0.47840815052E+02  0.25500000920E-02 0.  1.
        2   -1    0    0  501    0  0.00000000000E+00  0.00000000000E+00 -0.13035747231E+04  0.13035747231E+04  0.25500000920E-02 0. -1.
    10030    2    1    2    0    0  0.00000000000E+00  0.00000000000E+00 -0.12557339081E+04  0.13514155382E+04  0.49945601285E+03 0.  0.
        4    1    3    3  502    0  0.11288635030E+03  0.22099265359E+03 -0.55223179647E+03  0.60542765956E+03  0.12699999809E+01 0.  1.
       -4    1    3    3    0  502 -0.11288635030E+03 -0.22099265359E+03 -0.70350211164E+03  0.74598787859E+03  0.12699999809E+01 0. -1.
</event>
<event>
 5   0  0.1211345E-01  0.5019222E+03  0.7818609E-02  0.1013278E+00
        2   -1    0    0  501    0  0.00000000000E+00  0.00000000000E+00  0.32473256369E+03  0.32473256370E+03  0.25500000920E-02 0.  1.
       -2   -1    0    0    0  501  0.00000000000E+00  0.00000000000E+00 -0.19394875690E+03  0.19394875692E+03  0.25500000920E-02 0. -1.
    10030    2    1    2    0    0  0.00000000000E+00  0.00000000000E+00  0.13078380679E+03  0.51868132061E+03  0.50192221333E+03 0.  0.
        5    1    3    3  502    0 -0.18616622198E+02 -0.57805099557E+02 -0.18619423369E+03  0.19590403471E+03  0.46999998093E+01 0. -1.
       -5    1    3    3    0  502  0.18616622198E+02  0.57805099557E+02  0.31697804047E+03  0.32277728591E+03  0.46999998093E+01 0.  1.
</event>
<event>
 5   0  0.7812547E-02  0.4987729E+03  0.7818609E-02  0.1014100E+00
        1   -1    0    0  501    0  0.00000000000E+00  0.00000000000E+00  0.72679392018E+03  0.72679392020E+03  0.50400001928E-02 0.  1.
       -1   -1    0    0    0  501  0.00000000000E+00  0.00000000000E+00 -0.85572554643E+02  0.85572554791E+02  0.50400001928E-02 0. -1.
    10030    2    1    2    0    0  0.00000000000E+00  0.00000000000E+00  0.64122136554E+03  0.81236647499E+03  0.49877294440E+03 0.  0.
        4    1    3    3  502    0  0.17084888725E+03 -0.18137860659E+03  0.30396426377E+03  0.39304379877E+03  0.12699999809E+01 0. -1.
       -4    1    3    3    0  502 -0.17084888725E+03  0.18137860659E+03  0.33725710177E+03  0.41932267623E+03  0.12699999809E+01 0.  1.
</event>
<event>
 5   0  0.1211345E-01  0.5015369E+03  0.7818609E-02  0.1013379E+00
       -2   -1    0    0    0  501  0.00000000000E+00  0.00000000000E+00  0.45721702759E+02  0.45721702830E+02  0.25500000920E-02 0.  1.
        2   -1    0    0  501    0  0.00000000000E+00  0.00000000000E+00 -0.13753821711E+04  0.13753821711E+04  0.25500000920E-02 0. -1.
    10030    2    1    2    0    0  0.00000000000E+00  0.00000000000E+00 -0.13296604683E+04  0.14211038739E+04  0.50153689738E+03 0.  0.
        5    1    3    3  502    0 -0.58008970512E+02 -0.59728155082E+02 -0.13349404573E+04  0.13375427499E+04  0.46999998093E+01 0. -1.
       -5    1    3    3    0  502  0.58008970512E+02  0.59728155082E+02  0.52799889879E+01  0.83561124043E+02  0.46999998093E+01 0.  1.
</event>
<event>
 5   0  0.5006750E-02  0.5280934E+03  0.7818609E-02  0.1006696E+00
        4   -1    0    0  501    0  0.00000000000E+00  0.00000000000E+00  0.28919464717E+03  0.28919743576E+03  0.12699999809E+01 0.  1.
       -4   -1    0    0    0  501  0.00000000000E+00  0.00000000000E+00 -0.24107997077E+03  0.24108331590E+03  0.12699999809E+01 0. -1.
    10030    2    1    2    0    0  0.00000000000E+00  0.00000000000E+00  0.48114676400E+02  0.53028075166E+03  0.52809341361E+03 0.  0.
        4    1    3    3  502    0  0.15487544349E+03 -0.17949985566E+03 -0.92667196366E+02  0.25454945170E+03  0.12699999809E+01 0. -1.
       -4    1    3    3    0  502 -0.15487544349E+03  0.17949985566E+03  0.14078187277E+03  0.27573129996E+03  0.12699999809E+01 0.  1.
</event>
<event>
 5   0  0.5006750E-02  0.4825574E+03  0.7818609E-02  0.1018435E+00
        3   -1    0    0  501    0  0.00000000000E+00  0.00000000000E+00  0.21291339918E+03  0.21291342314E+03  0.10100000352E+00 0.  1.
       -3   -1    0    0    0  501  0.00000000000E+00  0.00000000000E+00 -0.27342291669E+03  0.27342293534E+03  0.10100000352E+00 0. -1.
    10030    2    1    2    0    0  0.00000000000E+00  0.00000000000E+00 -0.60509517501E+02  0.48633635848E+03  0.48255740785E+03 0.  0.
        3    1    3    3  502    0 -0.45935860241E+02 -0.17816362339E+03  0.12705415695E+03  0.22359595022E+03  0.10100000352E+00 0.  1.
       -3    1    3    3    0  502  0.45935860241E+02  0.17816362339E+03 -0.18756367445E+03  0.26274040826E+03  0.10100000352E+00 0. -1.
</event>
<event>
 5   0  0.1279188E-01  0.5029517E+03  0.7818609E-02  0.1013011E+00
       -2   -1    0    0    0  501  0.00000000000E+00  0.00000000000E+00  0.77645010810E+02  0.77645010852E+02  0.25500000920E-02 0.  1.
        2   -1    0    0  501    0  0.00000000000E+00  0.00000000000E+00 -0.81447721104E+03  0.81447721104E+03  0.25500000920E-02 0. -1.
    10030    2    1    2    0    0  0.00000000000E+00  0.00000000000E+00 -0.73683220023E+03  0.89212222190E+03  0.50295165524E+03 0.  0.
        2    1    3    3  502    0  0.41759016535E+02  0.21293754144E+03 -0.59385898838E+03  0.63226158361E+03  0.25500000920E-02 0. -1.
       -2    1    3    3    0  502 -0.41759016535E+02 -0.21293754144E+03 -0.14297321185E+03  0.25986063829E+03  0.25500000920E-02 0.  1.
</event>
<event>
 5   0  0.7531632E-02  0.4986280E+03  0.7818609E-02  0.1014138E+00
       -1   -1    0    0    0  501  0.00000000000E+00  0.00000000000E+00  0.18566371101E+03  0.18566371108E+03  0.50400001928E-02 0. -1.
        1   -1    0    0  501    0  0.00000000000E+00  0.00000000000E+00 -0.33478528682E+03  0.33478528686E+03  0.50400001928E-02 0.  1.
    10030    2    1    2    0    0  0.00000000000E+00  0.00000000000E+00 -0.14912157580E+03  0.52044899794E+03  0.49862803279E+03 0.  0.
        3    1    3    3  502    0  0.10007590683E+03 -0.10980200870E+02  0.16350326636E+03  0.19201322936E+03  0.10100000352E+00 0. -1.
       -3    1    3    3    0  502 -0.10007590683E+03  0.10980200870E+02 -0.31262484217E+03  0.32843576858E+03  0.10100000352E+00 0.  1.
</event>
</LesHouchesEvents>
