<LesHouchesEvents version="3.0">
<header>
<!--
#*********************************************************************
#                                                                    *
#                        MadGraph5_aMC@NLO                           *
#                                                                    *
#                           Going Beyond                             *
#                                                                    *
#                   http://madgraph.hep.uiuc.edu                     *
#                   http://madgraph.phys.ucl.ac.be                   *
#                   http://amcatnlo.cern.ch                          *
#                                                                    *
#                     The MadGraph5_aMC@NLO team                     *
#                                                                    *
#....................................................................*
#                                                                    *
# This file contains all the information necessary to reproduce      *
# the events generated:                                              *
#                                                                    *
# 1. software version                                                *
# 2. proc_card          : code generation info including model       *
# 3. param_card         : model primary parameters in the LH format  *
# 4. run_card           : running parameters (collider and cuts)     *
# 5. pythia_card        : present only if pythia has been run        *
# 6. pgs_card           : present only if pgs has been run           *
# 7. delphes_cards      : present only if delphes has been run       *
#                                                                    *
#                                                                    *
#*********************************************************************
-->
<MGVersion>
#5.2.2.3
</MGVersion>
<MG5ProcCard>
#************************************************************
#*                     MadGraph5_aMC@NLO                    *
#*                                                          *
#*                *                       *                 *
#*                  *        * *        *                   *
#*                    * * * * 5 * * * *                     *
#*                  *        * *        *                   *
#*                *                       *                 *
#*                                                          *
#*                                                          *
#*         VERSION 2.2.3                 2015-02-10         *
#*                                                          *
#*    The MadGraph5_aMC@NLO Development Team - Find us at   *
#*    https://server06.fynu.ucl.ac.be/projects/madgraph     *
#*                                                          *
#************************************************************
#*                                                          *
#*               Command File for MadGraph5_aMC@NLO         *
#*                                                          *
#*     run as ./bin/mg5_aMC  filename                       *
#*                                                          *
#************************************************************
set group_subprocesses Auto
set ignore_six_quark_processes False
set loop_optimized_output True
set gauge unitary
set complex_mass_scheme False
import model sm
define p = g u c d s u~ c~ d~ s~
define j = g u c d s u~ c~ d~ s~
define l+ = e+ mu+
define l- = e- mu-
define vl = ve vm vt
define vl~ = ve~ vm~ vt~
import model Zprime_UFO
generate p p > zph, zph > j j
add process p p > zph, zph > b b~
output Dijet_signal
</MG5ProcCard>
<MGProcCard>
#*********************************************************************
#                        MadGraph/MadEvent                           *
#                   http://madgraph.hep.uiuc.edu                     *
#                                                                    *
#                          proc_card.dat                             *
#*********************************************************************
#                                                                    *
#            This Files is generated by MADGRAPH 5                   *
#                                                                    *
# WARNING: This Files is generated for MADEVENT (compatibility issue)*
#          This files is NOT a valid MG4 proc_card.dat               *
#          Running this in MG4 will NEVER reproduce the result of MG5*
#                                                                    *
#*********************************************************************
#*********************************************************************
# Process(es) requested : mg2 input                                  *
#*********************************************************************
# Begin PROCESS # This is TAG. Do not modify this line
p p > zph , zph > j j           #Process
# Be carefull the coupling are here in MG5 convention
          
end_coup           # End the couplings input

done               # this tells MG there are no more procs
# End PROCESS  # This is TAG. Do not modify this line
#*********************************************************************
# Model information                                                  *
#*********************************************************************
# Begin MODEL  # This is TAG. Do not modify this line
Zprime_UFO
# End   MODEL  # This is TAG. Do not modify this line
#*********************************************************************
# Start multiparticle definitions                                    *
#*********************************************************************
# Begin MULTIPARTICLES # This is TAG. Do not modify this line

# End  MULTIPARTICLES # This is TAG. Do not modify this line
</MGProcCard>
<MGRunCard>
#*********************************************************************
#                       MadGraph5_aMC@NLO                            *
#                                                                    *
#                     run_card.dat MadEvent                          *
#                                                                    *
#  This file is used to set the parameters of the run.               *
#                                                                    *
#  Some notation/conventions:                                        *
#                                                                    *
#   Lines starting with a '# ' are info or comments                  *
#                                                                    *
#   mind the format:   value    = variable     ! comment             *
#*********************************************************************
#
#*******************                                                 
# Running parameters
#*******************                                                 
#                                                                    
#*********************************************************************
# Tag name for the run (one word)                                    *
#*********************************************************************
  tag_1     = run_tag ! name of the run 
#*********************************************************************
# Run to generate the grid pack                                      *
#*********************************************************************
  .false.     = gridpack  !True = setting up the grid pack
#*********************************************************************
# Number of events and rnd seed                                      *
# Warning: Do not generate more than 1M events in a single run       *
# If you want to run Pythia, avoid more than 50k events in a run.    *
#*********************************************************************
  2000 = nevents ! Number of unweighted events requested 
 2055 = iseed   ! rnd seed (0=assigned automatically=default))
#*********************************************************************
# Collider type and energy                                           *
# lpp: 0=No PDF, 1=proton, -1=antiproton, 2=photon from proton,      *
#                                         3=photon from electron     *
#*********************************************************************
        1     = lpp1    ! beam 1 type 
        1     = lpp2    ! beam 2 type
     4000     = ebeam1  ! beam 1 total energy in GeV
     4000     = ebeam2  ! beam 2 total energy in GeV
#*********************************************************************
# Beam polarization from -100 (left-handed) to 100 (right-handed)    *
#*********************************************************************
        0     = polbeam1 ! beam polarization for beam 1
        0     = polbeam2 ! beam polarization for beam 2
#*********************************************************************
# PDF CHOICE: this automatically fixes also alpha_s and its evol.    *
#*********************************************************************
 'nn23lo1'    = pdlabel     ! PDF set                                     
 230000    = lhaid     ! if pdlabel=lhapdf, this is the lhapdf number
#*********************************************************************
# Renormalization and factorization scales                           *
#*********************************************************************
 F        = fixed_ren_scale  ! if .true. use fixed ren scale
 F        = fixed_fac_scale  ! if .true. use fixed fac scale
 91.1880  = scale            ! fixed ren scale
 91.1880  = dsqrt_q2fact1    ! fixed fact scale for pdf1
 91.1880  = dsqrt_q2fact2    ! fixed fact scale for pdf2
 1        = scalefact        ! scale factor for event-by-event scales
#*********************************************************************
# Matching - Warning! ickkw > 1 is still beta
#*********************************************************************
 0        = ickkw            ! 0 no matching, 1 MLM, 2 CKKW matching
 1        = highestmult      ! for ickkw=2, highest mult group
 1        = ktscheme         ! for ickkw=1, 1 Durham kT, 2 Pythia pTE
 1        = alpsfact         ! scale factor for QCD emission vx
 F        = chcluster        ! cluster only according to channel diag
 T        = pdfwgt           ! for ickkw=1, perform pdf reweighting
 5        = asrwgtflavor     ! highest quark flavor for a_s reweight
 T        = clusinfo         ! include clustering tag in output
 3.0      = lhe_version       ! Change the way clustering information pass to shower.        
#*********************************************************************
#**********************************************************
#
#**********************************************************
# Automatic ptj and mjj cuts if xqcut > 0
# (turn off for VBF and single top processes)
#**********************************************************
   T  = auto_ptj_mjj  ! Automatic setting of ptj and mjj
#**********************************************************
#                                                                    
#**********************************
# BW cutoff (M+/-bwcutoff*Gamma)
#**********************************
  15  = bwcutoff      ! (M+/-bwcutoff*Gamma)
#**********************************************************
# Apply pt/E/eta/dr/mij cuts on decay products or not
# (note that etmiss/ptll/ptheavy/ht/sorted cuts always apply)
#**********************************************************
   T  = cut_decays    ! Cut decay products 
#*************************************************************
# Number of helicities to sum per event (0 = all helicities)
# 0 gives more stable result, but longer run time (needed for
# long decay chains e.g.).
# Use >=2 if most helicities contribute, e.g. pure QCD.
#*************************************************************
   0  = nhel          ! Number of helicities used per event
#*******************                                                 
# Standard Cuts
#*******************                                                 
#                                                                    
#*********************************************************************
# Minimum and maximum pt's (for max, -1 means no cut)                *
#*********************************************************************
 20  = ptj       ! minimum pt for the jets 
  0  = ptb       ! minimum pt for the b 
 10  = pta       ! minimum pt for the photons 
 10  = ptl       ! minimum pt for the charged leptons 
  0  = misset    ! minimum missing Et (sum of neutrino's momenta)
  0  = ptheavy   ! minimum pt for one heavy final state
 1.0 = ptonium   ! minimum pt for the quarkonium states
 -1  = ptjmax    ! maximum pt for the jets
 -1  = ptbmax    ! maximum pt for the b
 -1  = ptamax    ! maximum pt for the photons
 -1  = ptlmax    ! maximum pt for the charged leptons
 -1  = missetmax ! maximum missing Et (sum of neutrino's momenta)
#*********************************************************************
# Minimum and maximum E's (in the center of mass frame)              *
#*********************************************************************
  0  = ej     ! minimum E for the jets 
  0  = eb     ! minimum E for the b 
  0  = ea     ! minimum E for the photons 
  0  = el     ! minimum E for the charged leptons 
 -1   = ejmax ! maximum E for the jets
 -1   = ebmax ! maximum E for the b
 -1   = eamax ! maximum E for the photons
 -1   = elmax ! maximum E for the charged leptons
#*********************************************************************
# Maximum and minimum absolute rapidity (for max, -1 means no cut)   *
#*********************************************************************
   5  = etaj    ! max rap for the jets 
  -1  = etab    ! max rap for the b
 2.5  = etaa    ! max rap for the photons 
 2.5  = etal    ! max rap for the charged leptons 
 0.6  = etaonium ! max rap for the quarkonium states
   0  = etajmin ! min rap for the jets
   0  = etabmin ! min rap for the b
   0  = etaamin ! min rap for the photons
   0  = etalmin ! main rap for the charged leptons
#*********************************************************************
# Minimum and maximum DeltaR distance                                *
#*********************************************************************
 0.4 = drjj    ! min distance between jets 
 0   = drbb    ! min distance between b's 
 0.4 = drll    ! min distance between leptons 
 0.4 = draa    ! min distance between gammas 
 0   = drbj    ! min distance between b and jet 
 0.4 = draj    ! min distance between gamma and jet 
 0.4 = drjl    ! min distance between jet and lepton 
 0   = drab    ! min distance between gamma and b 
 0   = drbl    ! min distance between b and lepton 
 0.4 = dral    ! min distance between gamma and lepton 
 -1  = drjjmax ! max distance between jets
 -1  = drbbmax ! max distance between b's
 -1  = drllmax ! max distance between leptons
 -1  = draamax ! max distance between gammas
 -1  = drbjmax ! max distance between b and jet
 -1  = drajmax ! max distance between gamma and jet
 -1  = drjlmax ! max distance between jet and lepton
 -1  = drabmax ! max distance between gamma and b
 -1  = drblmax ! max distance between b and lepton
 -1  = dralmax ! maxdistance between gamma and lepton
#*********************************************************************
# Minimum and maximum invariant mass for pairs                       *
# WARNING: for four lepton final state mmll cut require to have      *
#          different lepton masses for each flavor!                  *           
#*********************************************************************
 0   = mmjj    ! min invariant mass of a jet pair 
 0   = mmbb    ! min invariant mass of a b pair 
 0   = mmaa    ! min invariant mass of gamma gamma pair
 0   = mmll    ! min invariant mass of l+l- (same flavour) lepton pair
 -1  = mmjjmax ! max invariant mass of a jet pair
 -1  = mmbbmax ! max invariant mass of a b pair
 -1  = mmaamax ! max invariant mass of gamma gamma pair
 -1  = mmllmax ! max invariant mass of l+l- (same flavour) lepton pair
#*********************************************************************
# Minimum and maximum invariant mass for all letpons                 *
#*********************************************************************
 0   = mmnl    ! min invariant mass for all letpons (l+- and vl) 
 -1  = mmnlmax ! max invariant mass for all letpons (l+- and vl) 
#*********************************************************************
# Minimum and maximum pt for 4-momenta sum of leptons                *
#*********************************************************************
 0   = ptllmin  ! Minimum pt for 4-momenta sum of leptons(l and vl)
 -1  = ptllmax  ! Maximum pt for 4-momenta sum of leptons(l and vl)
#*********************************************************************
# Inclusive cuts                                                     *
#*********************************************************************
 0  = xptj ! minimum pt for at least one jet  
 0  = xptb ! minimum pt for at least one b 
 0  = xpta ! minimum pt for at least one photon 
 0  = xptl ! minimum pt for at least one charged lepton 
#*********************************************************************
# Control the pt's of the jets sorted by pt                          *
#*********************************************************************
 0   = ptj1min ! minimum pt for the leading jet in pt
 0   = ptj2min ! minimum pt for the second jet in pt
 0   = ptj3min ! minimum pt for the third jet in pt
 0   = ptj4min ! minimum pt for the fourth jet in pt
 -1  = ptj1max ! maximum pt for the leading jet in pt 
 -1  = ptj2max ! maximum pt for the second jet in pt
 -1  = ptj3max ! maximum pt for the third jet in pt
 -1  = ptj4max ! maximum pt for the fourth jet in pt
 0   = cutuse  ! reject event if fails any (0) / all (1) jet pt cuts
#*********************************************************************
# Control the pt's of leptons sorted by pt                           *
#*********************************************************************
 0   = ptl1min ! minimum pt for the leading lepton in pt
 0   = ptl2min ! minimum pt for the second lepton in pt
 0   = ptl3min ! minimum pt for the third lepton in pt
 0   = ptl4min ! minimum pt for the fourth lepton in pt
 -1  = ptl1max ! maximum pt for the leading lepton in pt 
 -1  = ptl2max ! maximum pt for the second lepton in pt
 -1  = ptl3max ! maximum pt for the third lepton in pt
 -1  = ptl4max ! maximum pt for the fourth lepton in pt
#*********************************************************************
# Control the Ht(k)=Sum of k leading jets                            *
#*********************************************************************
 0   = htjmin ! minimum jet HT=Sum(jet pt)
 -1  = htjmax ! maximum jet HT=Sum(jet pt)
 0   = ihtmin  !inclusive Ht for all partons (including b)
 -1  = ihtmax  !inclusive Ht for all partons (including b)
 0   = ht2min ! minimum Ht for the two leading jets
 0   = ht3min ! minimum Ht for the three leading jets
 0   = ht4min ! minimum Ht for the four leading jets
 -1  = ht2max ! maximum Ht for the two leading jets
 -1  = ht3max ! maximum Ht for the three leading jets
 -1  = ht4max ! maximum Ht for the four leading jets
#***********************************************************************
# Photon-isolation cuts, according to hep-ph/9801442                   *
# When ptgmin=0, all the other parameters are ignored                  *
# When ptgmin>0, pta and draj are not going to be used                 *
#***********************************************************************
   0 = ptgmin ! Min photon transverse momentum
 0.4 = R0gamma ! Radius of isolation code
 1.0 = xn ! n parameter of eq.(3.4) in hep-ph/9801442
 1.0 = epsgamma ! epsilon_gamma parameter of eq.(3.4) in hep-ph/9801442
 .true. = isoEM ! isolate photons from EM energy (photons and leptons)
#*********************************************************************
# WBF cuts                                                           *
#*********************************************************************
 0   = xetamin ! minimum rapidity for two jets in the WBF case  
 0   = deltaeta ! minimum rapidity for two jets in the WBF case 
#*********************************************************************
# KT DURHAM CUT                                                      *
#*********************************************************************
 -1    =  ktdurham        
 0.4  =  dparameter 
#*********************************************************************
# maximal pdg code for quark to be considered as a light jet         *
# (otherwise b cuts are applied)                                     *
#*********************************************************************
 4 = maxjetflavor    ! Maximum jet pdg code
#*********************************************************************
# Jet measure cuts                                                   *
#*********************************************************************
 0   = xqcut   ! minimum kt jet measure between partons
#*********************************************************************
#
#*********************************************************************
# Store info for systematics studies                                 *
# WARNING: If use_syst is T, matched Pythia output is                *
#          meaningful ONLY if plotted taking matchscale              *
#          reweighting into account!                                 *
#*********************************************************************
   F  = use_syst      ! Enable systematics studies
#
#**************************************
# Parameter of the systematics study
#  will be used by SysCalc (if installed)
#**************************************                                  
#
0.5 1 2 = sys_scalefact  # factorization/renormalization scale factor
0.5 1 2 = sys_alpsfact  # \alpha_s emission scale factors
30 50 = sys_matchscale # variation of merging scale
# PDF sets and number of members (0 or none for all members).
CT10nlo.LHgrid = sys_pdf # matching scales
# MSTW2008nlo68cl.LHgrid 1  = sys_pdf
</MGRunCard>
<slha>
######################################################################
## PARAM_CARD AUTOMATICALY GENERATED BY MG5 FOLLOWING UFO MODEL   ####
######################################################################
##                                                                  ##
##  Width set on Auto will be computed following the information    ##
##        present in the decay.py files of the model.               ##
##        See  arXiv:1402.1178 for more details.                    ##
##                                                                  ##
######################################################################

###################################
## INFORMATION FOR CKMBLOCK
###################################
Block ckmblock 
    1 2.277360e-01 # cabi 

###################################
## INFORMATION FOR FRBLOCK
###################################
Block frblock 
    1 1.000000e+00 # gz 

###################################
## INFORMATION FOR MASS
###################################
Block mass 
    1 5.040000e-03 # MD 
    2 2.550000e-03 # MU 
    3 1.010000e-01 # MS 
    4 1.270000e+00 # MC 
    5 4.700000e+00 # MB 
    6 1.720000e+02 # MT 
   11 5.110000e-04 # Me 
   13 1.056600e-01 # MM 
   15 1.777000e+00 # MTA 
   23 9.118760e+01 # MZ 
   25 1.200000e+02 # MH 
  10030 3.400000e+03 # MZph 
  10031 3.000000e+02 # MZpl 
## Dependent parameters, given by model restrictions.
## Those values should be edited following the 
## analytical expression. MG5 ignores those values 
## but they are important for interfacing the output of MG5
## to external program such as Pythia.
  12 0.000000 # ve : 0.0 
  14 0.000000 # vm : 0.0 
  16 0.000000 # vt : 0.0 
  21 0.000000 # g : 0.0 
  22 0.000000 # a : 0.0 
  24 79.824360 # w+ : cmath.sqrt(MZ__exp__2/2. + cmath.sqrt(MZ__exp__4/4. - (aEW*cmath.pi*MZ__exp__2)/(Gf*sqrt__2))) 

###################################
## INFORMATION FOR SMINPUTS
###################################
Block sminputs 
    1 1.279000e+02 # aEWM1 
    2 1.166370e-05 # Gf 
    3 1.184000e-01 # aS 

###################################
## INFORMATION FOR YUKAWA
###################################
Block yukawa 
    1 5.040000e-03 # ymdo 
    2 2.550000e-03 # ymup 
    3 1.010000e-01 # yms 
    4 1.270000e+00 # ymc 
    5 4.700000e+00 # ymb 
    6 1.720000e+02 # ymt 
   11 5.110000e-04 # yme 
   13 1.056600e-01 # ymm 
   15 1.777000e+00 # ymtau 

###################################
## INFORMATION FOR DECAY
###################################
DECAY   6 1.508336e+00 # WT 
DECAY  23 2.495200e+00 # WZ 
DECAY  24 2.085000e+00 # WW 
DECAY  25 5.753088e-03 # WH 
## Dependent parameters, given by model restrictions.
## Those values should be edited following the 
## analytical expression. MG5 ignores those values 
## but they are important for interfacing the output of MG5
## to external program such as Pythia.
DECAY  1 0.000000 # d : 0.0 
DECAY  2 0.000000 # u : 0.0 
DECAY  3 0.000000 # s : 0.0 
DECAY  4 0.000000 # c : 0.0 
DECAY  5 0.000000 # b : 0.0 
DECAY  11 0.000000 # e- : 0.0 
DECAY  12 0.000000 # ve : 0.0 
DECAY  13 0.000000 # mu- : 0.0 
DECAY  14 0.000000 # vm : 0.0 
DECAY  15 0.000000 # ta- : 0.0 
DECAY  16 0.000000 # vt : 0.0 
DECAY  21 0.000000 # g : 0.0 
DECAY  22 0.000000 # a : 0.0 
DECAY  10030 0.308725 # zph : (gz__exp__2*MZph*(5 + cmath.sqrt(1 - (4*MT__exp__2)/MZph__exp__2)))/(144.*cmath.pi) 
DECAY  10031 0.132629 # zpl : (5*gz__exp__2*MZpl)/(144.*cmath.pi) 
#===========================================================
# QUANTUM NUMBERS OF NEW STATE(S) (NON SM PDG CODE)
#===========================================================

Block QNUMBERS 10030  # zph 
        1 0  # 3 times electric charge
        2 3  # number of spin states (2S+1)
        3 1  # colour rep (1: singlet, 3: triplet, 8: octet)
        4 0  # Particle/Antiparticle distinction (0=own anti)
Block QNUMBERS 10031  # zpl 
        1 0  # 3 times electric charge
        2 3  # number of spin states (2S+1)
        3 1  # colour rep (1: singlet, 3: triplet, 8: octet)
        4 0  # Particle/Antiparticle distinction (0=own anti)
</slha>
## END BANNER##
<MGGenerationInfo>
#  Number of Events        :         3869
#  Integrated weight (pb)  :  0.32486E-03
#  Max wgt                 :  0.13002E-06
#  Average wgt             :  0.83965E-07
</MGGenerationInfo>
</header>
<init>
     2212     2212  0.40000000000E+04  0.40000000000E+04 0 0  247000  247000 2   1
  0.32513245848E-03  0.67661699980E-06  0.13001760000E-06   0
</init>
<event>
 5   0  0.1300176E-06  0.3364336E+04  0.7818609E-02  0.8146715E-01
        2   -1    0    0  501    0  0.00000000000E+00  0.00000000000E+00  0.91546002243E+03  0.91546002244E+03  0.25500000920E-02 0. -1.
       -2   -1    0    0    0  501  0.00000000000E+00  0.00000000000E+00 -0.30910025493E+04  0.30910025493E+04  0.25500000920E-02 0.  1.
    10030    2    1    2    0    0  0.00000000000E+00  0.00000000000E+00 -0.21755425268E+04  0.40064625717E+04  0.33643360493E+04 0.  0.
        1    1    3    3  502    0  0.16522489116E+04  0.10773085933E+03 -0.73418956663E+03  0.18112334812E+04  0.50400001928E-02 0. -1.
       -1    1    3    3    0  502 -0.16522489116E+04 -0.10773085933E+03 -0.14413529602E+04  0.21952290905E+04  0.50400001928E-02 0.  1.
</event>
<event>
 5   0  0.1300176E-06  0.3353910E+04  0.7818609E-02  0.8149312E-01
       -2   -1    0    0    0  501  0.00000000000E+00  0.00000000000E+00  0.22480369542E+04  0.22480369542E+04  0.25500000920E-02 0. -1.
        2   -1    0    0  501    0  0.00000000000E+00  0.00000000000E+00 -0.12509481555E+04  0.12509481555E+04  0.25500000920E-02 0.  1.
    10030    2    1    2    0    0  0.00000000000E+00  0.00000000000E+00  0.99708879870E+03  0.34989851097E+04  0.33539097670E+04 0.  0.
        1    1    3    3  502    0  0.10432534418E+04 -0.13109313070E+04  0.57420054242E+03  0.17710519186E+04  0.50400001928E-02 0.  1.
       -1    1    3    3    0  502 -0.10432534418E+04  0.13109313070E+04  0.42288825627E+03  0.17279331911E+04  0.50400001928E-02 0. -1.
</event>
<event>
 5   0  0.1256208E-06  0.3415997E+04  0.7818609E-02  0.8133991E-01
        2   -1    0    0  501    0  0.00000000000E+00  0.00000000000E+00  0.28894693391E+04  0.28894693391E+04  0.25500000920E-02 0. -1.
       -2   -1    0    0    0  501  0.00000000000E+00  0.00000000000E+00 -0.10096174453E+04  0.10096174453E+04  0.25500000920E-02 0.  1.
    10030    2    1    2    0    0  0.00000000000E+00  0.00000000000E+00  0.18798518939E+04  0.38990867844E+04  0.34159968691E+04 0.  0.
        3    1    3    3  502    0 -0.71201278496E+03  0.89625777841E+03  0.23868837512E+04  0.26471596596E+04  0.10100000352E+00 0. -1.
       -3    1    3    3    0  502  0.71201278496E+03 -0.89625777841E+03 -0.50703185734E+03  0.12519271248E+04  0.10100000352E+00 0.  1.
</event>
<event>
 5   0  0.1300176E-06  0.3375778E+04  0.7818609E-02  0.8143877E-01
        2   -1    0    0  501    0  0.00000000000E+00  0.00000000000E+00  0.23731766781E+04  0.23731766781E+04  0.25500000920E-02 0. -1.
       -2   -1    0    0    0  501  0.00000000000E+00  0.00000000000E+00 -0.12004874045E+04  0.12004874045E+04  0.25500000920E-02 0.  1.
    10030    2    1    2    0    0  0.00000000000E+00  0.00000000000E+00  0.11726892737E+04  0.35736640826E+04  0.33757776649E+04 0.  0.
        1    1    3    3  502    0  0.94180976406E+02 -0.16826636833E+04  0.48736748726E+03  0.17543529277E+04  0.50400001928E-02 0. -1.
       -1    1    3    3    0  502 -0.94180976406E+02  0.16826636833E+04  0.68532178641E+03  0.18193111549E+04  0.50400001928E-02 0.  1.
</event>
<event>
 5   0  0.1256208E-06  0.3433706E+04  0.7818609E-02  0.8129683E-01
       -2   -1    0    0    0  501  0.00000000000E+00  0.00000000000E+00  0.12751727458E+04  0.12751727458E+04  0.25500000920E-02 0. -1.
        2   -1    0    0  501    0  0.00000000000E+00  0.00000000000E+00 -0.23115179475E+04  0.23115179475E+04  0.25500000920E-02 0.  1.
    10030    2    1    2    0    0  0.00000000000E+00  0.00000000000E+00 -0.10363452017E+04  0.35866906933E+04  0.34337062705E+04 0.  0.
        3    1    3    3  502    0  0.46477477158E+03  0.12791606049E+04 -0.16113754258E+04  0.21092174413E+04  0.10100000352E+00 0.  1.
       -3    1    3    3    0  502 -0.46477477158E+03 -0.12791606049E+04  0.57503022413E+03  0.14774732520E+04  0.10100000352E+00 0. -1.
</event>
<event>
 5   0  0.4272633E-07  0.3406938E+04  0.7818609E-02  0.8136206E-01
        1   -1    0    0  501    0  0.00000000000E+00  0.00000000000E+00  0.25277123775E+04  0.25277123775E+04  0.50400001928E-02 0. -1.
       -1   -1    0    0    0  501  0.00000000000E+00  0.00000000000E+00 -0.11479974080E+04  0.11479974080E+04  0.50400001928E-02 0.  1.
    10030    2    1    2    0    0  0.00000000000E+00  0.00000000000E+00  0.13797149695E+04  0.36757097856E+04  0.34069383661E+04 0.  0.
        1    1    3    3  502    0 -0.15771373996E+04  0.64365269542E+03  0.70333660905E+03  0.18429144189E+04  0.50400001928E-02 0. -1.
       -1    1    3    3    0  502  0.15771373996E+04 -0.64365269542E+03  0.67637836043E+03  0.18327953667E+04  0.50400001928E-02 0.  1.
</event>
<event>
 5   0  0.4464951E-07  0.3372008E+04  0.7818609E-02  0.8144811E-01
        1   -1    0    0  501    0  0.00000000000E+00  0.00000000000E+00  0.19449291438E+04  0.19449291438E+04  0.50400001928E-02 0. -1.
       -1   -1    0    0    0  501  0.00000000000E+00  0.00000000000E+00 -0.14615494147E+04  0.14615494147E+04  0.50400001928E-02 0.  1.
    10030    2    1    2    0    0  0.00000000000E+00  0.00000000000E+00  0.48337972917E+03  0.34064785585E+04  0.33720083344E+04 0.  0.
        3    1    3    3  502    0  0.23195637954E+03 -0.76426138562E+01 -0.14453356314E+04  0.14638501525E+04  0.10100000352E+00 0.  1.
       -3    1    3    3    0  502 -0.23195637954E+03  0.76426138562E+01  0.19287153605E+04  0.19426284060E+04  0.10100000352E+00 0. -1.
</event>
<event>
 5   0  0.1300176E-06  0.3372255E+04  0.7818609E-02  0.8144750E-01
        2   -1    0    0  501    0  0.00000000000E+00  0.00000000000E+00  0.23123605105E+04  0.23123605105E+04  0.25500000920E-02 0.  1.
       -2   -1    0    0    0  501  0.00000000000E+00  0.00000000000E+00 -0.12294905570E+04  0.12294905570E+04  0.25500000920E-02 0. -1.
    10030    2    1    2    0    0  0.00000000000E+00  0.00000000000E+00  0.10828699535E+04  0.35418510675E+04  0.33722546831E+04 0.  0.
        1    1    3    3  502    0  0.93538021565E+02  0.42982802528E+03 -0.11681624334E+04  0.12482407475E+04  0.50400001928E-02 0. -1.
       -1    1    3    3    0  502 -0.93538021565E+02 -0.42982802528E+03  0.22510323869E+04  0.22936103200E+04  0.50400001928E-02 0.  1.
</event>
<event>
 5   0  0.4125758E-07  0.3391518E+04  0.7818609E-02  0.8139991E-01
        1   -1    0    0  501    0  0.00000000000E+00  0.00000000000E+00  0.18335841804E+04  0.18335841804E+04  0.50400001928E-02 0.  1.
       -1   -1    0    0    0  501  0.00000000000E+00  0.00000000000E+00 -0.15682937761E+04  0.15682937761E+04  0.50400001928E-02 0. -1.
    10030    2    1    2    0    0  0.00000000000E+00  0.00000000000E+00  0.26529040433E+03  0.34018779565E+04  0.33915180425E+04 0.  0.
        2    1    3    3  502    0 -0.14115970921E+04  0.42963275670E+02  0.10742066083E+04  0.17743652473E+04  0.25500000920E-02 0.  1.
       -2    1    3    3    0  502  0.14115970921E+04 -0.42963275670E+02 -0.80891620398E+03  0.16275127092E+04  0.25500000920E-02 0. -1.
</event>
<event>
 5   0  0.1300176E-06  0.3395552E+04  0.7818609E-02  0.8138999E-01
        2   -1    0    0  501    0  0.00000000000E+00  0.00000000000E+00  0.26394513829E+04  0.26394513829E+04  0.25500000920E-02 0. -1.
       -2   -1    0    0    0  501  0.00000000000E+00  0.00000000000E+00 -0.10920613040E+04  0.10920613040E+04  0.25500000920E-02 0.  1.
    10030    2    1    2    0    0  0.00000000000E+00  0.00000000000E+00  0.15473900789E+04  0.37315126868E+04  0.33955516305E+04 0.  0.
        1    1    3    3  502    0  0.13656777898E+04 -0.29666919562E+02 -0.33426844829E+03  0.14063041446E+04  0.50400001928E-02 0.  1.
       -1    1    3    3    0  502 -0.13656777898E+04  0.29666919562E+02  0.18816585272E+04  0.23252085422E+04  0.50400001928E-02 0. -1.
</event>
<event>
 5   0  0.4125758E-07  0.3408194E+04  0.7818609E-02  0.8135898E-01
       -1   -1    0    0    0  501  0.00000000000E+00  0.00000000000E+00  0.13663107740E+04  0.13663107740E+04  0.50400001928E-02 0. -1.
        1   -1    0    0  501    0  0.00000000000E+00  0.00000000000E+00 -0.21253920896E+04  0.21253920896E+04  0.50400001928E-02 0.  1.
    10030    2    1    2    0    0  0.00000000000E+00  0.00000000000E+00 -0.75908131560E+03  0.34917028636E+04  0.34081937216E+04 0.  0.
        2    1    3    3  502    0 -0.10931975742E+04  0.10886734970E+04  0.36183054710E+03  0.15846804927E+04  0.25500000920E-02 0. -1.
       -2    1    3    3    0  502  0.10931975742E+04 -0.10886734970E+04 -0.11209118627E+04  0.19070223709E+04  0.25500000920E-02 0.  1.
</event>
<event>
 5   0  0.1269497E-06  0.3403407E+04  0.7818609E-02  0.8137071E-01
       -2   -1    0    0    0  501  0.00000000000E+00  0.00000000000E+00  0.16951530271E+04  0.16951530271E+04  0.25500000920E-02 0. -1.
        2   -1    0    0  501    0  0.00000000000E+00  0.00000000000E+00 -0.17082789654E+04  0.17082789654E+04  0.25500000920E-02 0.  1.
    10030    2    1    2    0    0  0.00000000000E+00  0.00000000000E+00 -0.13125938291E+02  0.34034319925E+04  0.34034066811E+04 0.  0.
        5    1    3    3  502    0  0.12453614097E+04 -0.31200479754E+03 -0.11234867312E+04  0.17060236106E+04  0.46999998093E+01 0.  1.
       -5    1    3    3    0  502 -0.12453614097E+04  0.31200479754E+03  0.11103607929E+04  0.16974083819E+04  0.46999998093E+01 0. -1.
</event>
<event>
 5   0  0.4109937E-07  0.3339842E+04  0.7818609E-02  0.8152831E-01
       -1   -1    0    0    0  501  0.00000000000E+00  0.00000000000E+00  0.18791256790E+04  0.18791256790E+04  0.50400001928E-02 0. -1.
        1   -1    0    0  501    0  0.00000000000E+00  0.00000000000E+00 -0.14840075480E+04  0.14840075480E+04  0.50400001928E-02 0.  1.
    10030    2    1    2    0    0  0.00000000000E+00  0.00000000000E+00  0.39511813094E+03  0.33631332270E+04  0.33398423264E+04 0.  0.
        5    1    3    3  502    0  0.92267910283E+03  0.88806634452E+03 -0.88164990429E+03  0.15547756117E+04  0.46999998093E+01 0.  1.
       -5    1    3    3    0  502 -0.92267910283E+03 -0.88806634452E+03  0.12767680352E+04  0.18083576153E+04  0.46999998093E+01 0. -1.
</event>
<event>
 5   0  0.4272633E-07  0.3453073E+04  0.7818609E-02  0.8125002E-01
       -1   -1    0    0    0  501  0.00000000000E+00  0.00000000000E+00  0.10170067594E+04  0.10170067594E+04  0.50400001928E-02 0.  1.
        1   -1    0    0  501    0  0.00000000000E+00  0.00000000000E+00 -0.29310800141E+04  0.29310800141E+04  0.50400001928E-02 0. -1.
    10030    2    1    2    0    0  0.00000000000E+00  0.00000000000E+00 -0.19140732546E+04  0.39480867735E+04  0.34530729426E+04 0.  0.
        1    1    3    3  502    0 -0.46513426309E+03 -0.43415893346E+03  0.87806860840E+03  0.10843654104E+04  0.50400001928E-02 0.  1.
       -1    1    3    3    0  502  0.46513426309E+03  0.43415893346E+03 -0.27921418630E+04  0.28637213631E+04  0.50400001928E-02 0. -1.
</event>
<event>
 5   0  0.4464951E-07  0.3403538E+04  0.7818609E-02  0.8137038E-01
       -1   -1    0    0    0  501  0.00000000000E+00  0.00000000000E+00  0.13548879274E+04  0.13548879274E+04  0.50400001928E-02 0.  1.
        1   -1    0    0  501    0  0.00000000000E+00  0.00000000000E+00 -0.21374596789E+04  0.21374596789E+04  0.50400001928E-02 0. -1.
    10030    2    1    2    0    0  0.00000000000E+00  0.00000000000E+00 -0.78257175156E+03  0.34923476063E+04  0.34035383437E+04 0.  0.
        3    1    3    3  502    0  0.13918265085E+03  0.16483067167E+04 -0.80137858571E+03  0.18380681408E+04  0.10100000352E+00 0. -1.
       -3    1    3    3    0  502 -0.13918265085E+03 -0.16483067167E+04  0.18806834154E+02  0.16542794654E+04  0.10100000352E+00 0.  1.
</event>
<event>
 5   0  0.4464951E-07  0.3372412E+04  0.7818609E-02  0.8144711E-01
       -1   -1    0    0    0  501  0.00000000000E+00  0.00000000000E+00  0.11793606539E+04  0.11793606539E+04  0.50400001928E-02 0.  1.
        1   -1    0    0  501    0  0.00000000000E+00  0.00000000000E+00 -0.24108750950E+04  0.24108750950E+04  0.50400001928E-02 0. -1.
    10030    2    1    2    0    0  0.00000000000E+00  0.00000000000E+00 -0.12315144411E+04  0.35902357488E+04  0.33724123285E+04 0.  0.
        3    1    3    3  502    0  0.10306475908E+04 -0.10646954318E+04  0.24087737892E+03  0.15012770367E+04  0.10100000352E+00 0.  1.
       -3    1    3    3    0  502 -0.10306475908E+04  0.10646954318E+04 -0.14723918200E+04  0.20889587121E+04  0.10100000352E+00 0. -1.
</event>
<event>
 5   0  0.1300176E-06  0.3453171E+04  0.7818609E-02  0.8124978E-01
        2   -1    0    0  501    0  0.00000000000E+00  0.00000000000E+00  0.17479924698E+04  0.17479924698E+04  0.25500000920E-02 0.  1.
       -2   -1    0    0    0  501  0.00000000000E+00  0.00000000000E+00 -0.17054406271E+04  0.17054406271E+04  0.25500000920E-02 0. -1.
    10030    2    1    2    0    0  0.00000000000E+00  0.00000000000E+00  0.42551842640E+02  0.34534330969E+04  0.34531709334E+04 0.  0.
        1    1    3    3  502    0 -0.13174417302E+04 -0.10731360068E+04  0.32760583962E+03  0.17304910251E+04  0.50400001928E-02 0. -1.
       -1    1    3    3    0  502  0.13174417302E+04  0.10731360068E+04 -0.28505399698E+03  0.17229420718E+04  0.50400001928E-02 0.  1.
</event>
<event>
 5   0  0.4289684E-07  0.3396130E+04  0.7818609E-02  0.8138857E-01
        1   -1    0    0  501    0  0.00000000000E+00  0.00000000000E+00  0.21418447009E+04  0.21418447009E+04  0.50400001928E-02 0. -1.
       -1   -1    0    0    0  501  0.00000000000E+00  0.00000000000E+00 -0.13462346250E+04  0.13462346250E+04  0.50400001928E-02 0.  1.
    10030    2    1    2    0    0  0.00000000000E+00  0.00000000000E+00  0.79561007592E+03  0.34880793260E+04  0.33961304438E+04 0.  0.
        4    1    3    3  502    0 -0.16819292023E+04  0.22997877838E+03  0.43949724571E+03  0.17535494067E+04  0.12699999809E+01 0. -1.
       -4    1    3    3    0  502  0.16819292023E+04 -0.22997877838E+03  0.35611283021E+03  0.17345299192E+04  0.12699999809E+01 0.  1.
</event>
<event>
 5   0  0.4272633E-07  0.3395048E+04  0.7818609E-02  0.8139123E-01
       -1   -1    0    0    0  501  0.00000000000E+00  0.00000000000E+00  0.14707582336E+04  0.14707582336E+04  0.50400001928E-02 0.  1.
        1   -1    0    0  501    0  0.00000000000E+00  0.00000000000E+00 -0.19592533345E+04  0.19592533345E+04  0.50400001928E-02 0. -1.
    10030    2    1    2    0    0  0.00000000000E+00  0.00000000000E+00 -0.48849510084E+03  0.34300115681E+04  0.33950481431E+04 0.  0.
        1    1    3    3  502    0  0.11037657634E+04 -0.17251938148E+03  0.10470094728E+04  0.15311076493E+04  0.50400001928E-02 0.  1.
       -1    1    3    3    0  502 -0.11037657634E+04  0.17251938148E+03 -0.15355045736E+04  0.18989039189E+04  0.50400001928E-02 0. -1.
</event>
<event>
 5   0  0.1268230E-06  0.3181549E+04  0.7818609E-02  0.8193707E-01
        2   -1    0    0  501    0  0.00000000000E+00  0.00000000000E+00  0.14012580556E+04  0.14012580556E+04  0.25500000920E-02 0. -1.
       -2   -1    0    0    0  501  0.00000000000E+00  0.00000000000E+00 -0.18059230412E+04  0.18059230412E+04  0.25500000920E-02 0.  1.
    10030    2    1    2    0    0  0.00000000000E+00  0.00000000000E+00 -0.40466498559E+03  0.32071810968E+04  0.31815494396E+04 0.  0.
        2    1    3    3  502    0 -0.21611089200E+03  0.36767869780E+03  0.13425521427E+04  0.14086652542E+04  0.25500000920E-02 0. -1.
       -2    1    3    3    0  502  0.21611089200E+03 -0.36767869780E+03 -0.17472171283E+04  0.17985158426E+04  0.25500000920E-02 0.  1.
</event>
<event>
 5   0  0.4464951E-07  0.3345574E+04  0.7818609E-02  0.8151395E-01
       -1   -1    0    0    0  501  0.00000000000E+00  0.00000000000E+00  0.31751867537E+04  0.31751867537E+04  0.50400001928E-02 0. -1.
        1   -1    0    0  501    0  0.00000000000E+00  0.00000000000E+00 -0.88127625768E+03  0.88127625769E+03  0.50400001928E-02 0.  1.
    10030    2    1    2    0    0  0.00000000000E+00  0.00000000000E+00  0.22939104960E+04  0.40564630114E+04  0.33455742107E+04 0.  0.
        3    1    3    3  502    0  0.13339551755E+02 -0.16401420741E+04  0.15453685950E+04  0.22535323542E+04  0.10100000352E+00 0. -1.
       -3    1    3    3    0  502 -0.13339551755E+02  0.16401420741E+04  0.74854190106E+03  0.18029306572E+04  0.10100000352E+00 0.  1.
</event>
<event>
 5   0  0.1256208E-06  0.3409513E+04  0.7818609E-02  0.8135575E-01
        2   -1    0    0  501    0  0.00000000000E+00  0.00000000000E+00  0.16226025428E+04  0.16226025428E+04  0.25500000920E-02 0.  1.
       -2   -1    0    0    0  501  0.00000000000E+00  0.00000000000E+00 -0.17910700786E+04  0.17910700786E+04  0.25500000920E-02 0. -1.
    10030    2    1    2    0    0  0.00000000000E+00  0.00000000000E+00 -0.16846753581E+03  0.34136726214E+04  0.34095130818E+04 0.  0.
        3    1    3    3  502    0 -0.86126283536E+03  0.88378996924E+02  0.13860980279E+04  0.16342742340E+04  0.10100000352E+00 0.  1.
       -3    1    3    3    0  502  0.86126283536E+03 -0.88378996924E+02 -0.15545655638E+04  0.17793983874E+04  0.10100000352E+00 0. -1.
</event>
<event>
 5   0  0.4272633E-07  0.3421094E+04  0.7818609E-02  0.8132749E-01
        1   -1    0    0  501    0  0.00000000000E+00  0.00000000000E+00  0.19289504148E+04  0.19289504148E+04  0.50400001928E-02 0. -1.
       -1   -1    0    0    0  501  0.00000000000E+00  0.00000000000E+00 -0.15168717765E+04  0.15168717765E+04  0.50400001928E-02 0.  1.
    10030    2    1    2    0    0  0.00000000000E+00  0.00000000000E+00  0.41207863833E+03  0.34458221913E+04  0.34210936512E+04 0.  0.
        1    1    3    3  502    0  0.33659278706E+02  0.82862282722E+03  0.17129220372E+04  0.19031160349E+04  0.50400001928E-02 0. -1.
       -1    1    3    3    0  502 -0.33659278706E+02 -0.82862282722E+03 -0.13008433988E+04  0.15427061564E+04  0.50400001928E-02 0.  1.
</event>
<event>
 5   0  0.1268230E-06  0.3340836E+04  0.7818609E-02  0.8152582E-01
       -2   -1    0    0    0  501  0.00000000000E+00  0.00000000000E+00  0.15444829812E+04  0.15444829812E+04  0.25500000920E-02 0.  1.
        2   -1    0    0  501    0  0.00000000000E+00  0.00000000000E+00 -0.18066216158E+04  0.18066216158E+04  0.25500000920E-02 0. -1.
    10030    2    1    2    0    0  0.00000000000E+00  0.00000000000E+00 -0.26213863468E+03  0.33511045970E+04  0.33408360265E+04 0.  0.
        2    1    3    3  502    0  0.10411257699E+03  0.56341266033E+03  0.14428370182E+04  0.15524341904E+04  0.25500000920E-02 0.  1.
       -2    1    3    3    0  502 -0.10411257699E+03 -0.56341266033E+03 -0.17049756529E+04  0.17986704066E+04  0.25500000920E-02 0. -1.
</event>
<event>
 5   0  0.4125758E-07  0.2779446E+04  0.7818609E-02  0.8309678E-01
       -1   -1    0    0    0  501  0.00000000000E+00  0.00000000000E+00  0.71968888695E+03  0.71968888696E+03  0.50400001928E-02 0. -1.
        1   -1    0    0  501    0  0.00000000000E+00  0.00000000000E+00 -0.26835614373E+04  0.26835614373E+04  0.50400001928E-02 0.  1.
    10030    2    1    2    0    0  0.00000000000E+00  0.00000000000E+00 -0.19638725503E+04  0.34032503242E+04  0.27794455158E+04 0.  0.
        2    1    3    3  502    0  0.11203220337E+04  0.80998757675E+03 -0.11556508074E+04  0.18018685086E+04  0.25500000920E-02 0.  1.
       -2    1    3    3    0  502 -0.11203220337E+04 -0.80998757675E+03 -0.80822174289E+03  0.16013818156E+04  0.25500000920E-02 0. -1.
</event>
<event>
 5   0  0.1256208E-06  0.3092349E+04  0.7818609E-02  0.8217841E-01
        2   -1    0    0  501    0  0.00000000000E+00  0.00000000000E+00  0.98189903958E+03  0.98189903958E+03  0.25500000920E-02 0. -1.
       -2   -1    0    0    0  501  0.00000000000E+00  0.00000000000E+00 -0.24347265280E+04  0.24347265280E+04  0.25500000920E-02 0.  1.
    10030    2    1    2    0    0  0.00000000000E+00  0.00000000000E+00 -0.14528274884E+04  0.34166255676E+04  0.30923490356E+04 0.  0.
        3    1    3    3  502    0 -0.50895640159E+03  0.14579084167E+04 -0.63996520934E+03  0.16715528857E+04  0.10100000352E+00 0. -1.
       -3    1    3    3    0  502  0.50895640159E+03 -0.14579084167E+04 -0.81286227905E+03  0.17450726819E+04  0.10100000352E+00 0.  1.
</event>
<event>
 5   0  0.1269497E-06  0.3155303E+04  0.7818609E-02  0.8200722E-01
       -2   -1    0    0    0  501  0.00000000000E+00  0.00000000000E+00  0.10920131361E+04  0.10920131361E+04  0.25500000920E-02 0.  1.
        2   -1    0    0  501    0  0.00000000000E+00  0.00000000000E+00 -0.22792626167E+04  0.22792626167E+04  0.25500000920E-02 0. -1.
    10030    2    1    2    0    0  0.00000000000E+00  0.00000000000E+00 -0.11872494806E+04  0.33712757528E+04  0.31553032933E+04 0.  0.
        5    1    3    3  502    0 -0.89483553117E+03 -0.10551160105E+04  0.21653902388E+03  0.14003255559E+04  0.46999998093E+01 0. -1.
       -5    1    3    3    0  502  0.89483553117E+03  0.10551160105E+04 -0.14037885045E+04  0.19709501970E+04  0.46999998093E+01 0.  1.
</event>
<event>
 5   0  0.4125758E-07  0.3353473E+04  0.7818609E-02  0.8149421E-01
       -1   -1    0    0    0  501  0.00000000000E+00  0.00000000000E+00  0.16732169681E+04  0.16732169681E+04  0.50400001928E-02 0.  1.
        1   -1    0    0  501    0  0.00000000000E+00  0.00000000000E+00 -0.16802633023E+04  0.16802633023E+04  0.50400001928E-02 0. -1.
    10030    2    1    2    0    0  0.00000000000E+00  0.00000000000E+00 -0.70463342471E+01  0.33534802704E+04  0.33534728675E+04 0.  0.
        2    1    3    3  502    0  0.95298375411E+01 -0.10640269365E+04  0.12923195481E+04  0.16740173099E+04  0.25500000920E-02 0.  1.
       -2    1    3    3    0  502 -0.95298375411E+01  0.10640269365E+04 -0.12993658824E+04  0.16794629605E+04  0.25500000920E-02 0. -1.
</event>
<event>
 5   0  0.1256208E-06  0.3409435E+04  0.7818609E-02  0.8135595E-01
       -2   -1    0    0    0  501  0.00000000000E+00  0.00000000000E+00  0.16410544637E+04  0.16410544637E+04  0.25500000920E-02 0. -1.
        2   -1    0    0  501    0  0.00000000000E+00  0.00000000000E+00 -0.17708499740E+04  0.17708499740E+04  0.25500000920E-02 0.  1.
    10030    2    1    2    0    0  0.00000000000E+00  0.00000000000E+00 -0.12979551029E+03  0.34119044376E+04  0.34094347064E+04 0.  0.
        3    1    3    3  502    0  0.24156829448E+03  0.49198695534E+02 -0.17529170467E+04  0.17701677704E+04  0.10100000352E+00 0.  1.
       -3    1    3    3    0  502 -0.24156829448E+03 -0.49198695534E+02  0.16231215364E+04  0.16417366673E+04  0.10100000352E+00 0. -1.
</event>
<event>
 5   0  0.1300176E-06  0.3370001E+04  0.7818609E-02  0.8145309E-01
       -2   -1    0    0    0  501  0.00000000000E+00  0.00000000000E+00  0.29613677196E+04  0.29613677196E+04  0.25500000920E-02 0. -1.
        2   -1    0    0  501    0  0.00000000000E+00  0.00000000000E+00 -0.95875491749E+03  0.95875491750E+03  0.25500000920E-02 0.  1.
    10030    2    1    2    0    0  0.00000000000E+00  0.00000000000E+00  0.20026128021E+04  0.39201226371E+04  0.33700005126E+04 0.  0.
        1    1    3    3  502    0 -0.15285257088E+04  0.42563903368E+03  0.34156679132E+03  0.16230302839E+04  0.50400001928E-02 0.  1.
       -1    1    3    3    0  502  0.15285257088E+04 -0.42563903368E+03  0.16610460108E+04  0.22970923532E+04  0.50400001928E-02 0. -1.
</event>
<event>
 5   0  0.4109937E-07  0.3502474E+04  0.7818609E-02  0.8113204E-01
        1   -1    0    0  501    0  0.00000000000E+00  0.00000000000E+00  0.27817676436E+04  0.27817676436E+04  0.50400001928E-02 0. -1.
       -1   -1    0    0    0  501  0.00000000000E+00  0.00000000000E+00 -0.11024754528E+04  0.11024754528E+04  0.50400001928E-02 0.  1.
    10030    2    1    2    0    0  0.00000000000E+00  0.00000000000E+00  0.16792921907E+04  0.38842430964E+04  0.35024737216E+04 0.  0.
        5    1    3    3  502    0 -0.13884079900E+04  0.10351503156E+04  0.55131564785E+03  0.18174663562E+04  0.46999998093E+01 0.  1.
       -5    1    3    3    0  502  0.13884079900E+04 -0.10351503156E+04  0.11279765429E+04  0.20667767402E+04  0.46999998093E+01 0. -1.
</event>
<event>
 5   0  0.1256208E-06  0.3405680E+04  0.7818609E-02  0.8136514E-01
       -2   -1    0    0    0  501  0.00000000000E+00  0.00000000000E+00  0.30461617465E+04  0.30461617465E+04  0.25500000920E-02 0. -1.
        2   -1    0    0  501    0  0.00000000000E+00  0.00000000000E+00 -0.95190722672E+03  0.95190722673E+03  0.25500000920E-02 0.  1.
    10030    2    1    2    0    0  0.00000000000E+00  0.00000000000E+00  0.20942545198E+04  0.39980689732E+04  0.34056795975E+04 0.  0.
        3    1    3    3  502    0  0.10787671771E+04 -0.34911037131E+03 -0.44430846653E+03  0.12177958357E+04  0.10100000352E+00 0.  1.
       -3    1    3    3    0  502 -0.10787671771E+04  0.34911037131E+03  0.25385629863E+04  0.27802731376E+04  0.10100000352E+00 0. -1.
</event>
<event>
 5   0  0.4289684E-07  0.3412261E+04  0.7818609E-02  0.8134904E-01
        1   -1    0    0  501    0  0.00000000000E+00  0.00000000000E+00  0.26576486035E+04  0.26576486035E+04  0.50400001928E-02 0. -1.
       -1   -1    0    0    0  501  0.00000000000E+00  0.00000000000E+00 -0.10952843726E+04  0.10952843726E+04  0.50400001928E-02 0.  1.
    10030    2    1    2    0    0  0.00000000000E+00  0.00000000000E+00  0.15623642309E+04  0.37529329761E+04  0.34122608243E+04 0.  0.
        4    1    3    3  502    0  0.70286631300E+03  0.19265014391E+03  0.24778378538E+04  0.25827925148E+04  0.12699999809E+01 0. -1.
       -4    1    3    3    0  502 -0.70286631300E+03 -0.19265014391E+03 -0.91547362294E+03  0.11701404613E+04  0.12699999809E+01 0.  1.
</event>
<event>
 5   0  0.4272633E-07  0.3378229E+04  0.7818609E-02  0.8143270E-01
        1   -1    0    0  501    0  0.00000000000E+00  0.00000000000E+00  0.18330844498E+04  0.18330844498E+04  0.50400001928E-02 0.  1.
       -1   -1    0    0    0  501  0.00000000000E+00  0.00000000000E+00 -0.15564520553E+04  0.15564520553E+04  0.50400001928E-02 0. -1.
    10030    2    1    2    0    0  0.00000000000E+00  0.00000000000E+00  0.27663239443E+03  0.33895365051E+04  0.33782291571E+04 0.  0.
        1    1    3    3  502    0 -0.39431343403E+03  0.97306807059E+03  0.14659091922E+04  0.18031179424E+04  0.50400001928E-02 0.  1.
       -1    1    3    3    0  502  0.39431343403E+03 -0.97306807059E+03 -0.11892767978E+04  0.15864185627E+04  0.50400001928E-02 0. -1.
</event>
<event>
 5   0  0.4109937E-07  0.3382275E+04  0.7818609E-02  0.8142270E-01
       -1   -1    0    0    0  501  0.00000000000E+00  0.00000000000E+00  0.15298655103E+04  0.15298655104E+04  0.50400001928E-02 0.  1.
        1   -1    0    0  501    0  0.00000000000E+00  0.00000000000E+00 -0.18694096209E+04  0.18694096209E+04  0.50400001928E-02 0. -1.
    10030    2    1    2    0    0  0.00000000000E+00  0.00000000000E+00 -0.33954411056E+03  0.33992751313E+04  0.33822745623E+04 0.  0.
        5    1    3    3  502    0 -0.81055651869E+03 -0.58459464212E+03 -0.15408764781E+04  0.18365933617E+04  0.46999998093E+01 0. -1.
       -5    1    3    3    0  502  0.81055651869E+03  0.58459464212E+03  0.12013323675E+04  0.15626817695E+04  0.46999998093E+01 0.  1.
</event>
<event>
 5   0  0.1277635E-06  0.3659331E+04  0.7818609E-02  0.8077035E-01
        2   -1    0    0  501    0  0.00000000000E+00  0.00000000000E+00  0.22719562636E+04  0.22719562636E+04  0.25500000920E-02 0.  1.
       -2   -1    0    0    0  501  0.00000000000E+00  0.00000000000E+00 -0.14734775237E+04  0.14734775237E+04  0.25500000920E-02 0. -1.
    10030    2    1    2    0    0  0.00000000000E+00  0.00000000000E+00  0.79847873992E+03  0.37454337873E+04  0.36593313538E+04 0.  0.
        4    1    3    3  502    0  0.11879423672E+04  0.24936559236E+03 -0.10020187965E+04  0.15739865145E+04  0.12699999809E+01 0. -1.
       -4    1    3    3    0  502 -0.11879423672E+04 -0.24936559236E+03  0.18004975364E+04  0.21714472727E+04  0.12699999809E+01 0.  1.
</event>
<event>
 5   0  0.1277635E-06  0.3523506E+04  0.7818609E-02  0.8108242E-01
        2   -1    0    0  501    0  0.00000000000E+00  0.00000000000E+00  0.16385940031E+04  0.16385940031E+04  0.25500000920E-02 0.  1.
       -2   -1    0    0    0  501  0.00000000000E+00  0.00000000000E+00 -0.18941685921E+04  0.18941685921E+04  0.25500000920E-02 0. -1.
    10030    2    1    2    0    0  0.00000000000E+00  0.00000000000E+00 -0.25557458891E+03  0.35327625952E+04  0.35235058087E+04 0.  0.
        4    1    3    3  502    0 -0.95298572264E+03  0.10123625509E+04 -0.12126242954E+04  0.18448628720E+04  0.12699999809E+01 0. -1.
       -4    1    3    3    0  502  0.95298572264E+03 -0.10123625509E+04  0.95704970648E+03  0.16878997232E+04  0.12699999809E+01 0.  1.
</event>
<event>
 5   0  0.4125758E-07  0.3372459E+04  0.7818609E-02  0.8144699E-01
       -1   -1    0    0    0  501  0.00000000000E+00  0.00000000000E+00  0.23101826275E+04  0.23101826275E+04  0.50400001928E-02 0.  1.
        1   -1    0    0  501    0  0.00000000000E+00  0.00000000000E+00 -0.12307984845E+04  0.12307984846E+04  0.50400001928E-02 0. -1.
    10030    2    1    2    0    0  0.00000000000E+00  0.00000000000E+00  0.10793841429E+04  0.35409811121E+04  0.33724586147E+04 0.  0.
        2    1    3    3  502    0  0.56491450682E+03  0.32314122517E+03 -0.10936177303E+04  0.12726147852E+04  0.25500000920E-02 0. -1.
       -2    1    3    3    0  502 -0.56491450682E+03 -0.32314122517E+03  0.21730018733E+04  0.22683663268E+04  0.25500000920E-02 0.  1.
</event>
<event>
 5   0  0.4109937E-07  0.3397291E+04  0.7818609E-02  0.8138572E-01
       -1   -1    0    0    0  501  0.00000000000E+00  0.00000000000E+00  0.17708285194E+04  0.17708285194E+04  0.50400001928E-02 0.  1.
        1   -1    0    0  501    0  0.00000000000E+00  0.00000000000E+00 -0.16294048009E+04  0.16294048009E+04  0.50400001928E-02 0. -1.
    10030    2    1    2    0    0  0.00000000000E+00  0.00000000000E+00  0.14142371848E+03  0.34002333203E+04  0.33972909743E+04 0.  0.
        5    1    3    3  502    0 -0.82314942621E+02 -0.12278188274E+04 -0.11012247934E+04  0.16513730524E+04  0.46999998093E+01 0. -1.
       -5    1    3    3    0  502  0.82314942621E+02  0.12278188274E+04  0.12426485119E+04  0.17488602679E+04  0.46999998093E+01 0.  1.
</event>
<event>
 5   0  0.4109937E-07  0.3401174E+04  0.7818609E-02  0.8137618E-01
       -1   -1    0    0    0  501  0.00000000000E+00  0.00000000000E+00  0.16346532606E+04  0.16346532606E+04  0.50400001928E-02 0.  1.
        1   -1    0    0  501    0  0.00000000000E+00  0.00000000000E+00 -0.17691805178E+04  0.17691805178E+04  0.50400001928E-02 0. -1.
    10030    2    1    2    0    0  0.00000000000E+00  0.00000000000E+00 -0.13452725720E+03  0.34038337784E+04  0.34011743278E+04 0.  0.
        5    1    3    3  502    0  0.14144288411E+04  0.93982516594E+03 -0.15730243131E+03  0.17054754276E+04  0.46999998093E+01 0.  1.
       -5    1    3    3    0  502 -0.14144288411E+04 -0.93982516594E+03  0.22775174106E+02  0.16983583508E+04  0.46999998093E+01 0. -1.
</event>
<event>
 5   0  0.1268230E-06  0.3413884E+04  0.7818609E-02  0.8134507E-01
        2   -1    0    0  501    0  0.00000000000E+00  0.00000000000E+00  0.15704415621E+04  0.15704415621E+04  0.25500000920E-02 0. -1.
       -2   -1    0    0    0  501  0.00000000000E+00  0.00000000000E+00 -0.18553071126E+04  0.18553071126E+04  0.25500000920E-02 0.  1.
    10030    2    1    2    0    0  0.00000000000E+00  0.00000000000E+00 -0.28486555042E+03  0.34257486747E+04  0.34138842395E+04 0.  0.
        2    1    3    3  502    0 -0.92650534985E+03  0.14175057518E+04  0.72593706917E+02  0.16949939722E+04  0.25500000920E-02 0.  1.
       -2    1    3    3    0  502  0.92650534985E+03 -0.14175057518E+04 -0.35745925734E+03  0.17307547025E+04  0.25500000920E-02 0. -1.
</event>
<event>
 5   0  0.1256208E-06  0.3367918E+04  0.7818609E-02  0.8145825E-01
       -2   -1    0    0    0  501  0.00000000000E+00  0.00000000000E+00  0.13352724862E+04  0.13352724862E+04  0.25500000920E-02 0. -1.
        2   -1    0    0  501    0  0.00000000000E+00  0.00000000000E+00 -0.21237004007E+04  0.21237004007E+04  0.25500000920E-02 0.  1.
    10030    2    1    2    0    0  0.00000000000E+00  0.00000000000E+00 -0.78842791444E+03  0.34589728869E+04  0.33679184753E+04 0.  0.
        3    1    3    3  502    0 -0.21822251059E+03 -0.15343318381E+04  0.28232396936E+03  0.15752784158E+04  0.10100000352E+00 0. -1.
       -3    1    3    3    0  502  0.21822251059E+03  0.15343318381E+04 -0.10707518838E+04  0.18836944711E+04  0.10100000352E+00 0.  1.
</event>
<event>
 5   0  0.1300176E-06  0.3139221E+04  0.7818609E-02  0.8205056E-01
        2   -1    0    0  501    0  0.00000000000E+00  0.00000000000E+00  0.17640571429E+04  0.17640571429E+04  0.25500000920E-02 0.  1.
       -2   -1    0    0    0  501  0.00000000000E+00  0.00000000000E+00 -0.13965970368E+04  0.13965970368E+04  0.25500000920E-02 0. -1.
    10030    2    1    2    0    0  0.00000000000E+00  0.00000000000E+00  0.36746010604E+03  0.31606541797E+04  0.31392209088E+04 0.  0.
        1    1    3    3  502    0 -0.13001874474E+04 -0.34725004415E+03 -0.62962648443E+03  0.14857656281E+04  0.50400001928E-02 0. -1.
       -1    1    3    3    0  502  0.13001874474E+04  0.34725004415E+03  0.99708659046E+03  0.16748885517E+04  0.50400001928E-02 0.  1.
</event>
<event>
 5   0  0.1268230E-06  0.3379456E+04  0.7818609E-02  0.8142967E-01
        2   -1    0    0  501    0  0.00000000000E+00  0.00000000000E+00  0.19862910146E+04  0.19862910146E+04  0.25500000920E-02 0. -1.
       -2   -1    0    0    0  501  0.00000000000E+00  0.00000000000E+00 -0.14374436279E+04  0.14374436279E+04  0.25500000920E-02 0.  1.
    10030    2    1    2    0    0  0.00000000000E+00  0.00000000000E+00  0.54884738667E+03  0.34237346425E+04  0.33794563836E+04 0.  0.
        2    1    3    3  502    0 -0.99182499229E+03  0.48015703000E+03 -0.10233415290E+04  0.15038269428E+04  0.25500000920E-02 0.  1.
       -2    1    3    3    0  502  0.99182499229E+03 -0.48015703000E+03  0.15721889157E+04  0.19199076997E+04  0.25500000920E-02 0. -1.
</event>
<event>
 5   0  0.1256208E-06  0.3320308E+04  0.7818609E-02  0.8157747E-01
       -2   -1    0    0    0  501  0.00000000000E+00  0.00000000000E+00  0.14150752619E+04  0.14150752619E+04  0.25500000920E-02 0. -1.
        2   -1    0    0  501    0  0.00000000000E+00  0.00000000000E+00 -0.19476776817E+04  0.19476776817E+04  0.25500000920E-02 0.  1.
    10030    2    1    2    0    0  0.00000000000E+00  0.00000000000E+00 -0.53260241978E+03  0.33627529435E+04  0.33203075192E+04 0.  0.
        3    1    3    3  502    0  0.64630458114E+03  0.14890540024E+04 -0.61877181247E+03  0.17372017729E+04  0.10100000352E+00 0.  1.
       -3    1    3    3    0  502 -0.64630458114E+03 -0.14890540024E+04  0.86169392691E+02  0.16255511706E+04  0.10100000352E+00 0. -1.
</event>
<event>
 5   0  0.4109937E-07  0.3403541E+04  0.7818609E-02  0.8137038E-01
       -1   -1    0    0    0  501  0.00000000000E+00  0.00000000000E+00  0.12218653264E+04  0.12218653264E+04  0.50400001928E-02 0.  1.
        1   -1    0    0  501    0  0.00000000000E+00  0.00000000000E+00 -0.23701651635E+04  0.23701651635E+04  0.50400001928E-02 0. -1.
    10030    2    1    2    0    0  0.00000000000E+00  0.00000000000E+00 -0.11482998371E+04  0.35920304900E+04  0.34035408805E+04 0.  0.
        5    1    3    3  502    0 -0.26963493784E+03 -0.11880529243E+03 -0.23430326687E+04  0.23614914511E+04  0.46999998093E+01 0. -1.
       -5    1    3    3    0  502  0.26963493784E+03  0.11880529243E+03  0.11947328316E+04  0.12305390388E+04  0.46999998093E+01 0.  1.
</event>
<event>
 5   0  0.1269497E-06  0.3423455E+04  0.7818609E-02  0.8132174E-01
        2   -1    0    0  501    0  0.00000000000E+00  0.00000000000E+00  0.15726374892E+04  0.15726374893E+04  0.25500000920E-02 0. -1.
       -2   -1    0    0    0  501  0.00000000000E+00  0.00000000000E+00 -0.18631189050E+04  0.18631189050E+04  0.25500000920E-02 0.  1.
    10030    2    1    2    0    0  0.00000000000E+00  0.00000000000E+00 -0.29048141572E+03  0.34357563942E+04  0.34234547679E+04 0.  0.
        5    1    3    3  502    0 -0.11950529168E+04 -0.99501459473E+03  0.57272005372E+03  0.16571770779E+04  0.46999998093E+01 0. -1.
       -5    1    3    3    0  502  0.11950529168E+04  0.99501459473E+03 -0.86320146945E+03  0.17785793163E+04  0.46999998093E+01 0.  1.
</event>
<event>
 5   0  0.4109937E-07  0.3391325E+04  0.7818609E-02  0.8140039E-01
        1   -1    0    0  501    0  0.00000000000E+00  0.00000000000E+00  0.99770253156E+03  0.99770253158E+03  0.50400001928E-02 0. -1.
       -1   -1    0    0    0  501  0.00000000000E+00  0.00000000000E+00 -0.28818932181E+04  0.28818932181E+04  0.50400001928E-02 0.  1.
    10030    2    1    2    0    0  0.00000000000E+00  0.00000000000E+00 -0.18841906865E+04  0.38795957496E+04  0.33913254986E+04 0.  0.
        5    1    3    3  502    0  0.24831449067E+03 -0.16094862138E+04 -0.40170234377E+03  0.16773469592E+04  0.46999998093E+01 0. -1.
       -5    1    3    3    0  502 -0.24831449067E+03  0.16094862138E+04 -0.14824883427E+04  0.22022487904E+04  0.46999998093E+01 0.  1.
</event>
<event>
 5   0  0.4464951E-07  0.3382153E+04  0.7818609E-02  0.8142300E-01
        1   -1    0    0  501    0  0.00000000000E+00  0.00000000000E+00  0.15429728911E+04  0.15429728911E+04  0.50400001928E-02 0.  1.
       -1   -1    0    0    0  501  0.00000000000E+00  0.00000000000E+00 -0.18533962696E+04  0.18533962696E+04  0.50400001928E-02 0. -1.
    10030    2    1    2    0    0  0.00000000000E+00  0.00000000000E+00 -0.31042337845E+03  0.33963691607E+04  0.33821532789E+04 0.  0.
        3    1    3    3  502    0 -0.52879841753E+03  0.75553657040E+03  0.12682359621E+04  0.15680834612E+04  0.10100000352E+00 0.  1.
       -3    1    3    3    0  502  0.52879841753E+03 -0.75553657040E+03 -0.15786593405E+04  0.18282856995E+04  0.10100000352E+00 0. -1.
</event>
<event>
 5   0  0.1256208E-06  0.3394374E+04  0.7818609E-02  0.8139288E-01
       -2   -1    0    0    0  501  0.00000000000E+00  0.00000000000E+00  0.17178092743E+04  0.17178092743E+04  0.25500000920E-02 0.  1.
        2   -1    0    0  501    0  0.00000000000E+00  0.00000000000E+00 -0.16768124239E+04  0.16768124239E+04  0.25500000920E-02 0. -1.
    10030    2    1    2    0    0  0.00000000000E+00  0.00000000000E+00  0.40996850425E+02  0.33946216983E+04  0.33943741297E+04 0.  0.
        3    1    3    3  502    0 -0.14918401049E+04 -0.51281043858E+03 -0.60555240687E+03  0.16897500325E+04  0.10100000352E+00 0. -1.
       -3    1    3    3    0  502  0.14918401049E+04  0.51281043858E+03  0.64654925730E+03  0.17048716658E+04  0.10100000352E+00 0.  1.
</event>
<event>
 5   0  0.4272633E-07  0.3394216E+04  0.7818609E-02  0.8139327E-01
       -1   -1    0    0    0  501  0.00000000000E+00  0.00000000000E+00  0.13607962588E+04  0.13607962588E+04  0.50400001928E-02 0.  1.
        1   -1    0    0  501    0  0.00000000000E+00  0.00000000000E+00 -0.21165373558E+04  0.21165373558E+04  0.50400001928E-02 0. -1.
    10030    2    1    2    0    0  0.00000000000E+00  0.00000000000E+00 -0.75574109704E+03  0.34773336146E+04  0.33942163251E+04 0.  0.
        1    1    3    3  502    0 -0.54525092086E+03 -0.20120628352E+03  0.12556636555E+04  0.13836450958E+04  0.50400001928E-02 0.  1.
       -1    1    3    3    0  502  0.54525092086E+03  0.20120628352E+03 -0.20114047526E+04  0.20936885188E+04  0.50400001928E-02 0. -1.
</event>
<event>
 5   0  0.4109937E-07  0.3408652E+04  0.7818609E-02  0.8135786E-01
        1   -1    0    0  501    0  0.00000000000E+00  0.00000000000E+00  0.24092921738E+04  0.24092921739E+04  0.50400001928E-02 0.  1.
       -1   -1    0    0    0  501  0.00000000000E+00  0.00000000000E+00 -0.12056353396E+04  0.12056353396E+04  0.50400001928E-02 0. -1.
    10030    2    1    2    0    0  0.00000000000E+00  0.00000000000E+00  0.12036568343E+04  0.36149275135E+04  0.34086523954E+04 0.  0.
        5    1    3    3  502    0  0.12529534487E+04 -0.10544254107E+04  0.11026346271E+04  0.19742164274E+04  0.46999998093E+01 0.  1.
       -5    1    3    3    0  502 -0.12529534487E+04  0.10544254107E+04  0.10102220720E+03  0.16407110860E+04  0.46999998093E+01 0. -1.
</event>
<event>
 5   0  0.4289684E-07  0.3406731E+04  0.7818609E-02  0.8136256E-01
        1   -1    0    0  501    0  0.00000000000E+00  0.00000000000E+00  0.22591982755E+04  0.22591982755E+04  0.50400001928E-02 0.  1.
       -1   -1    0    0    0  501  0.00000000000E+00  0.00000000000E+00 -0.12842848651E+04  0.12842848651E+04  0.50400001928E-02 0. -1.
    10030    2    1    2    0    0  0.00000000000E+00  0.00000000000E+00  0.97491341041E+03  0.35434831406E+04  0.34067310739E+04 0.  0.
        4    1    3    3  502    0  0.14392714895E+04 -0.36640829208E+03  0.13550216306E+04  0.20104334581E+04  0.12699999809E+01 0.  1.
       -4    1    3    3    0  502 -0.14392714895E+04  0.36640829208E+03 -0.38010822020E+03  0.15330496825E+04  0.12699999809E+01 0. -1.
</event>
<event>
 5   0  0.4109937E-07  0.2887959E+04  0.7818609E-02  0.8276469E-01
        1   -1    0    0  501    0  0.00000000000E+00  0.00000000000E+00  0.20170082882E+04  0.20170082882E+04  0.50400001928E-02 0.  1.
       -1   -1    0    0    0  501  0.00000000000E+00  0.00000000000E+00 -0.10337470899E+04  0.10337470899E+04  0.50400001928E-02 0. -1.
    10030    2    1    2    0    0  0.00000000000E+00  0.00000000000E+00  0.98326119832E+03  0.30507553780E+04  0.28879587588E+04 0.  0.
        5    1    3    3  502    0 -0.46343365943E+03 -0.67736022462E+03 -0.76339250508E+03  0.11208826154E+04  0.46999998093E+01 0. -1.
       -5    1    3    3    0  502  0.46343365943E+03  0.67736022462E+03  0.17466537034E+04  0.19298727627E+04  0.46999998093E+01 0.  1.
</event>
<event>
 5   0  0.1277635E-06  0.3396978E+04  0.7818609E-02  0.8138648E-01
        2   -1    0    0  501    0  0.00000000000E+00  0.00000000000E+00  0.14929533381E+04  0.14929533381E+04  0.25500000920E-02 0.  1.
       -2   -1    0    0    0  501  0.00000000000E+00  0.00000000000E+00 -0.19323213296E+04  0.19323213296E+04  0.25500000920E-02 0. -1.
    10030    2    1    2    0    0  0.00000000000E+00  0.00000000000E+00 -0.43936799156E+03  0.34252746677E+04  0.33969784099E+04 0.  0.
        4    1    3    3  502    0 -0.79630223701E+03  0.17491365458E+03 -0.17221197822E+04  0.19053582856E+04  0.12699999809E+01 0. -1.
       -4    1    3    3    0  502  0.79630223701E+03 -0.17491365458E+03  0.12827517907E+04  0.15199163821E+04  0.12699999809E+01 0.  1.
</event>
<event>
 5   0  0.1300176E-06  0.3048339E+04  0.7818609E-02  0.8230061E-01
       -2   -1    0    0    0  501  0.00000000000E+00  0.00000000000E+00  0.14101400212E+04  0.14101400212E+04  0.25500000920E-02 0. -1.
        2   -1    0    0  501    0  0.00000000000E+00  0.00000000000E+00 -0.16474199290E+04  0.16474199290E+04  0.25500000920E-02 0.  1.
    10030    2    1    2    0    0  0.00000000000E+00  0.00000000000E+00 -0.23727990785E+03  0.30575599502E+04  0.30483390714E+04 0.  0.
        1    1    3    3  502    0  0.58106731349E+03  0.54469452917E+03 -0.14220944007E+04  0.16299336912E+04  0.50400001928E-02 0.  1.
       -1    1    3    3    0  502 -0.58106731349E+03 -0.54469452917E+03  0.11848144929E+04  0.14276262590E+04  0.50400001928E-02 0. -1.
</event>
<event>
 5   0  0.4289684E-07  0.3429052E+04  0.7818609E-02  0.8130813E-01
        1   -1    0    0  501    0  0.00000000000E+00  0.00000000000E+00  0.21887073169E+04  0.21887073170E+04  0.50400001928E-02 0. -1.
       -1   -1    0    0    0  501  0.00000000000E+00  0.00000000000E+00 -0.13430757240E+04  0.13430757240E+04  0.50400001928E-02 0.  1.
    10030    2    1    2    0    0  0.00000000000E+00  0.00000000000E+00  0.84563159295E+03  0.35317830410E+04  0.34290521515E+04 0.  0.
        4    1    3    3  502    0 -0.13440920205E+04  0.75615605070E+03 -0.34878965366E+03  0.15811423617E+04  0.12699999809E+01 0.  1.
       -4    1    3    3    0  502  0.13440920205E+04 -0.75615605070E+03  0.11944212466E+04  0.19506406793E+04  0.12699999809E+01 0. -1.
</event>
<event>
 5   0  0.1268230E-06  0.3443087E+04  0.7818609E-02  0.8127412E-01
       -2   -1    0    0    0  501  0.00000000000E+00  0.00000000000E+00  0.15149367289E+04  0.15149367289E+04  0.25500000920E-02 0. -1.
        2   -1    0    0  501    0  0.00000000000E+00  0.00000000000E+00 -0.19563273206E+04  0.19563273206E+04  0.25500000920E-02 0.  1.
    10030    2    1    2    0    0  0.00000000000E+00  0.00000000000E+00 -0.44139059172E+03  0.34712640495E+04  0.34430870519E+04 0.  0.
        2    1    3    3  502    0  0.95754655517E+03  0.47736226176E+03  0.11390234037E+04  0.15627362056E+04  0.25500000920E-02 0. -1.
       -2    1    3    3    0  502 -0.95754655517E+03 -0.47736226176E+03 -0.15804139954E+04  0.19085278439E+04  0.25500000920E-02 0.  1.
</event>
<event>
 5   0  0.4109937E-07  0.3395030E+04  0.7818609E-02  0.8139127E-01
        1   -1    0    0  501    0  0.00000000000E+00  0.00000000000E+00  0.18232505388E+04  0.18232505388E+04  0.50400001928E-02 0.  1.
       -1   -1    0    0    0  501  0.00000000000E+00  0.00000000000E+00 -0.15804501357E+04  0.15804501358E+04  0.50400001928E-02 0. -1.
    10030    2    1    2    0    0  0.00000000000E+00  0.00000000000E+00  0.24280040304E+03  0.34037006745E+04  0.33950296385E+04 0.  0.
        5    1    3    3  502    0 -0.14699696621E+04 -0.30561896607E+03  0.91545889330E+03  0.17584939111E+04  0.46999998093E+01 0.  1.
       -5    1    3    3    0  502  0.14699696621E+04  0.30561896607E+03 -0.67265849025E+03  0.16452067635E+04  0.46999998093E+01 0. -1.
</event>
<event>
 5   0  0.1268230E-06  0.3411861E+04  0.7818609E-02  0.8135001E-01
       -2   -1    0    0    0  501  0.00000000000E+00  0.00000000000E+00  0.15235050504E+04  0.15235050504E+04  0.25500000920E-02 0.  1.
        2   -1    0    0  501    0  0.00000000000E+00  0.00000000000E+00 -0.19101999297E+04  0.19101999297E+04  0.25500000920E-02 0. -1.
    10030    2    1    2    0    0  0.00000000000E+00  0.00000000000E+00 -0.38669487924E+03  0.34337049801E+04  0.34118612165E+04 0.  0.
        2    1    3    3  502    0 -0.46523029849E+03  0.11791929226E+04 -0.13422622578E+04  0.18462402736E+04  0.25500000920E-02 0. -1.
       -2    1    3    3    0  502  0.46523029849E+03 -0.11791929226E+04  0.95556737852E+03  0.15874647065E+04  0.25500000920E-02 0.  1.
</event>
<event>
 5   0  0.4289684E-07  0.3530482E+04  0.7818609E-02  0.8106604E-01
       -1   -1    0    0    0  501  0.00000000000E+00  0.00000000000E+00  0.20370505433E+04  0.20370505433E+04  0.50400001928E-02 0. -1.
        1   -1    0    0  501    0  0.00000000000E+00  0.00000000000E+00 -0.15296997725E+04  0.15296997725E+04  0.50400001928E-02 0.  1.
    10030    2    1    2    0    0  0.00000000000E+00  0.00000000000E+00  0.50735077083E+03  0.35667503158E+04  0.35304819799E+04 0.  0.
        4    1    3    3  502    0  0.53398963359E+03 -0.10062995174E+04  0.16159678149E+04  0.19771538228E+04  0.12699999809E+01 0. -1.
       -4    1    3    3    0  502 -0.53398963359E+03  0.10062995174E+04 -0.11086170440E+04  0.15895964930E+04  0.12699999809E+01 0.  1.
</event>
<event>
 5   0  0.4289684E-07  0.3338781E+04  0.7818609E-02  0.8153097E-01
       -1   -1    0    0    0  501  0.00000000000E+00  0.00000000000E+00  0.11467492188E+04  0.11467492188E+04  0.50400001928E-02 0. -1.
        1   -1    0    0  501    0  0.00000000000E+00  0.00000000000E+00 -0.24302304225E+04  0.24302304225E+04  0.50400001928E-02 0.  1.
    10030    2    1    2    0    0  0.00000000000E+00  0.00000000000E+00 -0.12834812037E+04  0.35769796413E+04  0.33387811180E+04 0.  0.
        4    1    3    3  502    0 -0.40987407256E+03  0.49603460026E+03  0.10085505227E+04  0.11963372642E+04  0.12699999809E+01 0. -1.
       -4    1    3    3    0  502  0.40987407256E+03 -0.49603460026E+03 -0.22920317264E+04  0.23806423771E+04  0.12699999809E+01 0.  1.
</event>
<event>
 5   0  0.4289684E-07  0.3383216E+04  0.7818609E-02  0.8142038E-01
        1   -1    0    0  501    0  0.00000000000E+00  0.00000000000E+00  0.96961734364E+03  0.96961734365E+03  0.50400001928E-02 0. -1.
       -1   -1    0    0    0  501  0.00000000000E+00  0.00000000000E+00 -0.29512036783E+04  0.29512036783E+04  0.50400001928E-02 0.  1.
    10030    2    1    2    0    0  0.00000000000E+00  0.00000000000E+00 -0.19815863346E+04  0.39208210219E+04  0.33832163816E+04 0.  0.
        4    1    3    3  502    0 -0.14541197583E+04 -0.62480574529E+03 -0.16829313556E+04  0.23102177498E+04  0.12699999809E+01 0.  1.
       -4    1    3    3    0  502  0.14541197583E+04  0.62480574529E+03 -0.29865497901E+03  0.16106032721E+04  0.12699999809E+01 0. -1.
</event>
<event>
 5   0  0.1268230E-06  0.3394001E+04  0.7818609E-02  0.8139380E-01
        2   -1    0    0  501    0  0.00000000000E+00  0.00000000000E+00  0.21353546972E+04  0.21353546972E+04  0.25500000920E-02 0. -1.
       -2   -1    0    0    0  501  0.00000000000E+00  0.00000000000E+00 -0.13486337005E+04  0.13486337005E+04  0.25500000920E-02 0.  1.
    10030    2    1    2    0    0  0.00000000000E+00  0.00000000000E+00  0.78672099673E+03  0.34839883977E+04  0.33940013596E+04 0.  0.
        2    1    3    3  502    0 -0.51885989782E+03 -0.92025046670E+03  0.17566287762E+04  0.20498344256E+04  0.25500000920E-02 0. -1.
       -2    1    3    3    0  502  0.51885989782E+03  0.92025046670E+03 -0.96990777946E+03  0.14341539721E+04  0.25500000920E-02 0.  1.
</event>
<event>
 5   0  0.4060750E-07  0.3426002E+04  0.7818609E-02  0.8131554E-01
        3   -1    0    0  501    0  0.00000000000E+00  0.00000000000E+00  0.11196888944E+04  0.11196888990E+04  0.10100000352E+00 0.  1.
       -3   -1    0    0    0  501  0.00000000000E+00  0.00000000000E+00 -0.26207030818E+04  0.26207030837E+04  0.10100000352E+00 0. -1.
    10030    2    1    2    0    0  0.00000000000E+00  0.00000000000E+00 -0.15010141874E+04  0.37403919827E+04  0.34260018380E+04 0.  0.
        5    1    3    3  502    0  0.70783854738E+02 -0.62105246109E+03 -0.24917397262E+04  0.25689502655E+04  0.46999998093E+01 0. -1.
       -5    1    3    3    0  502 -0.70783854738E+02  0.62105246109E+03  0.99072553883E+03  0.11714417172E+04  0.46999998093E+01 0.  1.
</event>
<event>
 5   0  0.1269497E-06  0.3393213E+04  0.7818609E-02  0.8139574E-01
        2   -1    0    0  501    0  0.00000000000E+00  0.00000000000E+00  0.21262246220E+04  0.21262246220E+04  0.25500000920E-02 0.  1.
       -2   -1    0    0    0  501  0.00000000000E+00  0.00000000000E+00 -0.13537960082E+04  0.13537960082E+04  0.25500000920E-02 0. -1.
    10030    2    1    2    0    0  0.00000000000E+00  0.00000000000E+00  0.77242861382E+03  0.34800206302E+04  0.33932134656E+04 0.  0.
        5    1    3    3  502    0 -0.24066895780E+03  0.16788656429E+04  0.43139726190E+03  0.17500391658E+04  0.46999998093E+01 0. -1.
       -5    1    3    3    0  502  0.24066895780E+03 -0.16788656429E+04  0.34103135192E+03  0.17299814644E+04  0.46999998093E+01 0.  1.
</event>
<event>
 5   0  0.1269497E-06  0.3396807E+04  0.7818609E-02  0.8138690E-01
       -2   -1    0    0    0  501  0.00000000000E+00  0.00000000000E+00  0.13327531968E+04  0.13327531968E+04  0.25500000920E-02 0. -1.
        2   -1    0    0  501    0  0.00000000000E+00  0.00000000000E+00 -0.21643727245E+04  0.21643727245E+04  0.25500000920E-02 0.  1.
    10030    2    1    2    0    0  0.00000000000E+00  0.00000000000E+00 -0.83161952768E+03  0.34971259214E+04  0.33968071289E+04 0.  0.
        5    1    3    3  502    0  0.10145379633E+02 -0.13111562329E+04 -0.15271903147E+04  0.20128502039E+04  0.46999998093E+01 0.  1.
       -5    1    3    3    0  502 -0.10145379633E+02  0.13111562329E+04  0.69557078704E+03  0.14842757175E+04  0.46999998093E+01 0. -1.
</event>
<event>
 5   0  0.1277635E-06  0.3359449E+04  0.7818609E-02  0.8147931E-01
       -2   -1    0    0    0  501  0.00000000000E+00  0.00000000000E+00  0.13859205349E+04  0.13859205349E+04  0.25500000920E-02 0.  1.
        2   -1    0    0  501    0  0.00000000000E+00  0.00000000000E+00 -0.20358130167E+04  0.20358130167E+04  0.25500000920E-02 0. -1.
    10030    2    1    2    0    0  0.00000000000E+00  0.00000000000E+00 -0.64989248181E+03  0.34217335515E+04  0.33594493983E+04 0.  0.
        4    1    3    3  502    0  0.88135076278E+03  0.87380791608E+03 -0.14778120374E+04  0.19298314620E+04  0.12699999809E+01 0. -1.
       -4    1    3    3    0  502 -0.88135076278E+03 -0.87380791608E+03  0.82791955554E+03  0.14919020895E+04  0.12699999809E+01 0.  1.
</event>
<event>
 5   0  0.4289684E-07  0.3335262E+04  0.7818609E-02  0.8153980E-01
       -1   -1    0    0    0  501  0.00000000000E+00  0.00000000000E+00  0.10263607956E+04  0.10263607956E+04  0.50400001928E-02 0. -1.
        1   -1    0    0  501    0  0.00000000000E+00  0.00000000000E+00 -0.27095675028E+04  0.27095675028E+04  0.50400001928E-02 0.  1.
    10030    2    1    2    0    0  0.00000000000E+00  0.00000000000E+00 -0.16832067072E+04  0.37359282984E+04  0.33352624232E+04 0.  0.
        4    1    3    3  502    0 -0.14015511492E+04  0.63115978786E+03 -0.11716052297E+03  0.15415694933E+04  0.12699999809E+01 0. -1.
       -4    1    3    3    0  502  0.14015511492E+04 -0.63115978786E+03 -0.15660461842E+04  0.21943588051E+04  0.12699999809E+01 0.  1.
</event>
<event>
 5   0  0.4125758E-07  0.3325212E+04  0.7818609E-02  0.8156510E-01
        1   -1    0    0  501    0  0.00000000000E+00  0.00000000000E+00  0.26081142117E+04  0.26081142117E+04  0.50400001928E-02 0.  1.
       -1   -1    0    0    0  501  0.00000000000E+00  0.00000000000E+00 -0.10598690279E+04  0.10598690279E+04  0.50400001928E-02 0. -1.
    10030    2    1    2    0    0  0.00000000000E+00  0.00000000000E+00  0.15482451839E+04  0.36679832396E+04  0.33252124589E+04 0.  0.
        2    1    3    3  502    0 -0.89332856093E+03  0.75649416022E+03 -0.52823427993E+03  0.12842705271E+04  0.25500000920E-02 0. -1.
       -2    1    3    3    0  502  0.89332856093E+03 -0.75649416022E+03  0.20764794638E+04  0.23837127125E+04  0.25500000920E-02 0.  1.
</event>
<event>
 5   0  0.1268230E-06  0.3416024E+04  0.7818609E-02  0.8133985E-01
        2   -1    0    0  501    0  0.00000000000E+00  0.00000000000E+00  0.18593996800E+04  0.18593996800E+04  0.25500000920E-02 0.  1.
       -2   -1    0    0    0  501  0.00000000000E+00  0.00000000000E+00 -0.15689500190E+04  0.15689500190E+04  0.25500000920E-02 0. -1.
    10030    2    1    2    0    0  0.00000000000E+00  0.00000000000E+00  0.29044966096E+03  0.34283496990E+04  0.34160241002E+04 0.  0.
        2    1    3    3  502    0 -0.37962258082E+03 -0.10694633777E+03  0.18130737621E+04  0.18554749499E+04  0.25500000920E-02 0.  1.
       -2    1    3    3    0  502  0.37962258082E+03  0.10694633777E+03 -0.15226241011E+04  0.15728747491E+04  0.25500000920E-02 0. -1.
</event>
<event>
 5   0  0.4125758E-07  0.3314336E+04  0.7818609E-02  0.8159257E-01
       -1   -1    0    0    0  501  0.00000000000E+00  0.00000000000E+00  0.27621369762E+04  0.27621369762E+04  0.50400001928E-02 0.  1.
        1   -1    0    0  501    0  0.00000000000E+00  0.00000000000E+00 -0.99423257777E+03  0.99423257778E+03  0.50400001928E-02 0. -1.
    10030    2    1    2    0    0  0.00000000000E+00  0.00000000000E+00  0.17679043984E+04  0.37563695539E+04  0.33143364742E+04 0.  0.
        2    1    3    3  502    0 -0.28644005876E+03 -0.41520482322E+03  0.26730131451E+04  0.27201915790E+04  0.25500000920E-02 0.  1.
       -2    1    3    3    0  502  0.28644005876E+03  0.41520482322E+03 -0.90510874669E+03  0.10361779750E+04  0.25500000920E-02 0. -1.
</event>
<event>
 5   0  0.1256208E-06  0.3281970E+04  0.7818609E-02  0.8167498E-01
       -2   -1    0    0    0  501  0.00000000000E+00  0.00000000000E+00  0.13276643774E+04  0.13276643774E+04  0.25500000920E-02 0. -1.
        2   -1    0    0  501    0  0.00000000000E+00  0.00000000000E+00 -0.20282478414E+04  0.20282478414E+04  0.25500000920E-02 0.  1.
    10030    2    1    2    0    0  0.00000000000E+00  0.00000000000E+00 -0.70058346403E+03  0.33559122188E+04  0.32819703884E+04 0.  0.
        3    1    3    3  502    0 -0.14194675638E+04  0.47809189793E+02  0.49021183518E+03  0.15024917759E+04  0.10100000352E+00 0. -1.
       -3    1    3    3    0  502  0.14194675638E+04 -0.47809189793E+02 -0.11907952992E+04  0.18534204429E+04  0.10100000352E+00 0.  1.
</event>
<event>
 5   0  0.1269497E-06  0.3511848E+04  0.7818609E-02  0.8110988E-01
       -2   -1    0    0    0  501  0.00000000000E+00  0.00000000000E+00  0.29004261811E+04  0.29004261811E+04  0.25500000920E-02 0.  1.
        2   -1    0    0  501    0  0.00000000000E+00  0.00000000000E+00 -0.10630402048E+04  0.10630402048E+04  0.25500000920E-02 0. -1.
    10030    2    1    2    0    0  0.00000000000E+00  0.00000000000E+00  0.18373859763E+04  0.39634663859E+04  0.35118483120E+04 0.  0.
        5    1    3    3  502    0 -0.71068822339E+03  0.27792954726E+03  0.27034938269E+04  0.28091321696E+04  0.46999998093E+01 0.  1.
       -5    1    3    3    0  502  0.71068822339E+03 -0.27792954726E+03 -0.86610785062E+03  0.11543342163E+04  0.46999998093E+01 0. -1.
</event>
<event>
 5   0  0.4109937E-07  0.3366269E+04  0.7818609E-02  0.8146235E-01
        1   -1    0    0  501    0  0.00000000000E+00  0.00000000000E+00  0.14887120906E+04  0.14887120906E+04  0.50400001928E-02 0. -1.
       -1   -1    0    0    0  501  0.00000000000E+00  0.00000000000E+00 -0.19029480730E+04  0.19029480730E+04  0.50400001928E-02 0.  1.
    10030    2    1    2    0    0  0.00000000000E+00  0.00000000000E+00 -0.41423598244E+03  0.33916601636E+04  0.33662690350E+04 0.  0.
        5    1    3    3  502    0  0.15960409886E+04 -0.51244457253E+03 -0.35983116176E+03  0.17144815053E+04  0.46999998093E+01 0.  1.
       -5    1    3    3    0  502 -0.15960409886E+04  0.51244457253E+03 -0.54404820686E+02  0.16771786582E+04  0.46999998093E+01 0. -1.
</event>
<event>
 5   0  0.4464951E-07  0.3432388E+04  0.7818609E-02  0.8130003E-01
        1   -1    0    0  501    0  0.00000000000E+00  0.00000000000E+00  0.22369899891E+04  0.22369899891E+04  0.50400001928E-02 0.  1.
       -1   -1    0    0    0  501  0.00000000000E+00  0.00000000000E+00 -0.13166452107E+04  0.13166452107E+04  0.50400001928E-02 0. -1.
    10030    2    1    2    0    0  0.00000000000E+00  0.00000000000E+00  0.92034477836E+03  0.35536351998E+04  0.34323881806E+04 0.  0.
        3    1    3    3  502    0 -0.90646768533E+01 -0.16893868218E+04  0.77285431316E+03  0.18577981057E+04  0.10100000352E+00 0.  1.
       -3    1    3    3    0  502  0.90646768533E+01  0.16893868218E+04  0.14749046520E+03  0.16958370941E+04  0.10100000352E+00 0. -1.
</event>
<event>
 5   0  0.1256208E-06  0.3424229E+04  0.7818609E-02  0.8131985E-01
       -2   -1    0    0    0  501  0.00000000000E+00  0.00000000000E+00  0.12634268192E+04  0.12634268192E+04  0.25500000920E-02 0. -1.
        2   -1    0    0  501    0  0.00000000000E+00  0.00000000000E+00 -0.23201476997E+04  0.23201476997E+04  0.25500000920E-02 0.  1.
    10030    2    1    2    0    0  0.00000000000E+00  0.00000000000E+00 -0.10567208805E+04  0.35835745189E+04  0.34242294481E+04 0.  0.
        3    1    3    3  502    0 -0.55504096459E+03  0.73883608049E+03 -0.20367459393E+04  0.22365784712E+04  0.10100000352E+00 0.  1.
       -3    1    3    3    0  502  0.55504096459E+03 -0.73883608049E+03  0.98002505887E+03  0.13469960477E+04  0.10100000352E+00 0. -1.
</event>
<event>
 5   0  0.1300176E-06  0.3328547E+04  0.7818609E-02  0.8155669E-01
        2   -1    0    0  501    0  0.00000000000E+00  0.00000000000E+00  0.12087096193E+04  0.12087096193E+04  0.25500000920E-02 0. -1.
       -2   -1    0    0    0  501  0.00000000000E+00  0.00000000000E+00 -0.22915402857E+04  0.22915402857E+04  0.25500000920E-02 0.  1.
    10030    2    1    2    0    0  0.00000000000E+00  0.00000000000E+00 -0.10828306664E+04  0.35002499050E+04  0.33285473026E+04 0.  0.
        1    1    3    3  502    0  0.11885028944E+04 -0.47960711036E+03 -0.16579016778E+04  0.20955190487E+04  0.50400001928E-02 0.  1.
       -1    1    3    3    0  502 -0.11885028944E+04  0.47960711036E+03  0.57507101140E+03  0.14047308563E+04  0.50400001928E-02 0. -1.
</event>
<event>
 5   0  0.1300176E-06  0.3477522E+04  0.7818609E-02  0.8119138E-01
        2   -1    0    0  501    0  0.00000000000E+00  0.00000000000E+00  0.26196187952E+04  0.26196187952E+04  0.25500000920E-02 0. -1.
       -2   -1    0    0    0  501  0.00000000000E+00  0.00000000000E+00 -0.11540952460E+04  0.11540952460E+04  0.25500000920E-02 0.  1.
    10030    2    1    2    0    0  0.00000000000E+00  0.00000000000E+00  0.14655235492E+04  0.37737140411E+04  0.34775218750E+04 0.  0.
        1    1    3    3  502    0 -0.99447854764E+03 -0.14187636813E+04  0.57397146050E+03  0.18251907305E+04  0.50400001928E-02 0. -1.
       -1    1    3    3    0  502  0.99447854764E+03  0.14187636813E+04  0.89155208868E+03  0.19485233106E+04  0.50400001928E-02 0.  1.
</event>
<event>
 5   0  0.1268230E-06  0.3423217E+04  0.7818609E-02  0.8132232E-01
        2   -1    0    0  501    0  0.00000000000E+00  0.00000000000E+00  0.24224960369E+04  0.24224960369E+04  0.25500000920E-02 0.  1.
       -2   -1    0    0    0  501  0.00000000000E+00  0.00000000000E+00 -0.12093323408E+04  0.12093323408E+04  0.25500000920E-02 0. -1.
    10030    2    1    2    0    0  0.00000000000E+00  0.00000000000E+00  0.12131636961E+04  0.36318283776E+04  0.34232165008E+04 0.  0.
        2    1    3    3  502    0  0.13639360374E+03 -0.70972715958E+03  0.22526767932E+04  0.23657701897E+04  0.25500000920E-02 0.  1.
       -2    1    3    3    0  502 -0.13639360374E+03  0.70972715958E+03 -0.10395130971E+04  0.12660581879E+04  0.25500000920E-02 0. -1.
</event>
<event>
 5   0  0.4272633E-07  0.3373506E+04  0.7818609E-02  0.8144440E-01
       -1   -1    0    0    0  501  0.00000000000E+00  0.00000000000E+00  0.12526382040E+04  0.12526382040E+04  0.50400001928E-02 0. -1.
        1   -1    0    0  501    0  0.00000000000E+00  0.00000000000E+00 -0.22713152067E+04  0.22713152067E+04  0.50400001928E-02 0.  1.
    10030    2    1    2    0    0  0.00000000000E+00  0.00000000000E+00 -0.10186770027E+04  0.35239534107E+04  0.33735063072E+04 0.  0.
        1    1    3    3  502    0 -0.71483253992E+03 -0.14200418828E+04 -0.10980608814E+04  0.19321599852E+04  0.50400001928E-02 0.  1.
       -1    1    3    3    0  502  0.71483253992E+03  0.14200418828E+04  0.79383878673E+02  0.15917934255E+04  0.50400001928E-02 0. -1.
</event>
<event>
 5   0  0.1300176E-06  0.3379469E+04  0.7818609E-02  0.8142964E-01
        2   -1    0    0  501    0  0.00000000000E+00  0.00000000000E+00  0.19922787764E+04  0.19922787764E+04  0.25500000920E-02 0.  1.
       -2   -1    0    0    0  501  0.00000000000E+00  0.00000000000E+00 -0.14331340610E+04  0.14331340610E+04  0.25500000920E-02 0. -1.
    10030    2    1    2    0    0  0.00000000000E+00  0.00000000000E+00  0.55914471539E+03  0.34254128375E+04  0.33794689367E+04 0.  0.
        1    1    3    3  502    0 -0.14004569341E+04 -0.74544888347E+03 -0.30990866194E+03  0.16164829232E+04  0.50400001928E-02 0. -1.
       -1    1    3    3    0  502  0.14004569341E+04  0.74544888347E+03  0.86905337733E+03  0.18089299143E+04  0.50400001928E-02 0.  1.
</event>
<event>
 5   0  0.1277635E-06  0.3412306E+04  0.7818609E-02  0.8134893E-01
       -2   -1    0    0    0  501  0.00000000000E+00  0.00000000000E+00  0.33141652863E+04  0.33141652863E+04  0.25500000920E-02 0.  1.
        2   -1    0    0  501    0  0.00000000000E+00  0.00000000000E+00 -0.87833827502E+03  0.87833827502E+03  0.25500000920E-02 0. -1.
    10030    2    1    2    0    0  0.00000000000E+00  0.00000000000E+00  0.24358270112E+04  0.41925035613E+04  0.34123060945E+04 0.  0.
        4    1    3    3  502    0 -0.11734914724E+04  0.85649150470E+03  0.11877869027E+03  0.14576590560E+04  0.12699999809E+01 0. -1.
       -4    1    3    3    0  502  0.11734914724E+04 -0.85649150470E+03  0.23170483210E+04  0.27348445053E+04  0.12699999809E+01 0.  1.
</event>
<event>
 5   0  0.1256208E-06  0.3514214E+04  0.7818609E-02  0.8110430E-01
        2   -1    0    0  501    0  0.00000000000E+00  0.00000000000E+00  0.17992187411E+04  0.17992187411E+04  0.25500000920E-02 0. -1.
       -2   -1    0    0    0  501  0.00000000000E+00  0.00000000000E+00 -0.17159810465E+04  0.17159810465E+04  0.25500000920E-02 0.  1.
    10030    2    1    2    0    0  0.00000000000E+00  0.00000000000E+00  0.83237694579E+02  0.35151997877E+04  0.35142141417E+04 0.  0.
        3    1    3    3  502    0  0.44563139659E+03 -0.95885629875E+03  0.14453771632E+04  0.17908399977E+04  0.10100000352E+00 0. -1.
       -3    1    3    3    0  502 -0.44563139659E+03  0.95885629875E+03 -0.13621394686E+04  0.17243597900E+04  0.10100000352E+00 0.  1.
</event>
<event>
 5   0  0.4109937E-07  0.3389315E+04  0.7818609E-02  0.8140534E-01
       -1   -1    0    0    0  501  0.00000000000E+00  0.00000000000E+00  0.11559025455E+04  0.11559025455E+04  0.50400001928E-02 0. -1.
        1   -1    0    0  501    0  0.00000000000E+00  0.00000000000E+00 -0.24845209825E+04  0.24845209825E+04  0.50400001928E-02 0.  1.
    10030    2    1    2    0    0  0.00000000000E+00  0.00000000000E+00 -0.13286184370E+04  0.36404235281E+04  0.33893150507E+04 0.  0.
        5    1    3    3  502    0  0.36488392222E+03  0.45296958413E+03 -0.23739393682E+04  0.24441628290E+04  0.46999998093E+01 0.  1.
       -5    1    3    3    0  502 -0.36488392222E+03 -0.45296958413E+03  0.10453209312E+04  0.11962606990E+04  0.46999998093E+01 0. -1.
</event>
<event>
 5   0  0.4125758E-07  0.3220008E+04  0.7818609E-02  0.8183553E-01
       -1   -1    0    0    0  501  0.00000000000E+00  0.00000000000E+00  0.12110723871E+04  0.12110723872E+04  0.50400001928E-02 0.  1.
        1   -1    0    0  501    0  0.00000000000E+00  0.00000000000E+00 -0.21403446444E+04  0.21403446444E+04  0.50400001928E-02 0. -1.
    10030    2    1    2    0    0  0.00000000000E+00  0.00000000000E+00 -0.92927225725E+03  0.33514170316E+04  0.32200076384E+04 0.  0.
        2    1    3    3  502    0 -0.91073096356E+03 -0.91152333584E+03 -0.14693316488E+04  0.19542878943E+04  0.25500000920E-02 0. -1.
       -2    1    3    3    0  502  0.91073096356E+03  0.91152333584E+03  0.54005939153E+03  0.13971291372E+04  0.25500000920E-02 0.  1.
</event>
<event>
 5   0  0.1300176E-06  0.3417891E+04  0.7818609E-02  0.8133529E-01
       -2   -1    0    0    0  501  0.00000000000E+00  0.00000000000E+00  0.11869075190E+04  0.11869075190E+04  0.25500000920E-02 0. -1.
        2   -1    0    0  501    0  0.00000000000E+00  0.00000000000E+00 -0.24605923435E+04  0.24605923435E+04  0.25500000920E-02 0.  1.
    10030    2    1    2    0    0  0.00000000000E+00  0.00000000000E+00 -0.12736848245E+04  0.36474998625E+04  0.34178914867E+04 0.  0.
        1    1    3    3  502    0  0.10043382071E+04  0.82904473050E+03  0.54405936411E+03  0.14113861949E+04  0.50400001928E-02 0. -1.
       -1    1    3    3    0  502 -0.10043382071E+04 -0.82904473050E+03 -0.18177441886E+04  0.22361136676E+04  0.50400001928E-02 0.  1.
</event>
<event>
 5   0  0.1277635E-06  0.3485287E+04  0.7818609E-02  0.8117286E-01
       -2   -1    0    0    0  501  0.00000000000E+00  0.00000000000E+00  0.23959279588E+04  0.23959279588E+04  0.25500000920E-02 0.  1.
        2   -1    0    0  501    0  0.00000000000E+00  0.00000000000E+00 -0.12674867057E+04  0.12674867057E+04  0.25500000920E-02 0. -1.
    10030    2    1    2    0    0  0.00000000000E+00  0.00000000000E+00  0.11284412531E+04  0.36634146646E+04  0.34852872684E+04 0.  0.
        4    1    3    3  502    0  0.10000349972E+04 -0.12865466412E+04  0.12134729833E+04  0.20316964709E+04  0.12699999809E+01 0.  1.
       -4    1    3    3    0  502 -0.10000349972E+04  0.12865466412E+04 -0.85031730169E+02  0.16317181937E+04  0.12699999809E+01 0. -1.
</event>
<event>
 5   0  0.1256208E-06  0.3425552E+04  0.7818609E-02  0.8131663E-01
       -2   -1    0    0    0  501  0.00000000000E+00  0.00000000000E+00  0.22758338412E+04  0.22758338412E+04  0.25500000920E-02 0. -1.
        2   -1    0    0  501    0  0.00000000000E+00  0.00000000000E+00 -0.12890227951E+04  0.12890227951E+04  0.25500000920E-02 0.  1.
    10030    2    1    2    0    0  0.00000000000E+00  0.00000000000E+00  0.98681104604E+03  0.35648566363E+04  0.34255520426E+04 0.  0.
        3    1    3    3  502    0  0.69393624472E+03  0.78982324179E+03 -0.91370211787E+03  0.13929177418E+04  0.10100000352E+00 0.  1.
       -3    1    3    3    0  502 -0.69393624472E+03 -0.78982324179E+03  0.19005131639E+04  0.21719388945E+04  0.10100000352E+00 0. -1.
</event>
<event>
 5   0  0.4464951E-07  0.3425874E+04  0.7818609E-02  0.8131585E-01
        1   -1    0    0  501    0  0.00000000000E+00  0.00000000000E+00  0.10202736161E+04  0.10202736161E+04  0.50400001928E-02 0. -1.
       -1   -1    0    0    0  501  0.00000000000E+00  0.00000000000E+00 -0.28758497979E+04  0.28758497979E+04  0.50400001928E-02 0.  1.
    10030    2    1    2    0    0  0.00000000000E+00  0.00000000000E+00 -0.18555761818E+04  0.38961234140E+04  0.34258742958E+04 0.  0.
        3    1    3    3  502    0  0.16425039801E+04 -0.26561998464E+02 -0.14798343430E+04  0.22109804516E+04  0.10100000352E+00 0.  1.
       -3    1    3    3    0  502 -0.16425039801E+04  0.26561998464E+02 -0.37574183878E+03  0.16851429625E+04  0.10100000352E+00 0. -1.
</event>
<event>
 5   0  0.1268230E-06  0.3134106E+04  0.7818609E-02  0.8206440E-01
       -2   -1    0    0    0  501  0.00000000000E+00  0.00000000000E+00  0.10960897128E+04  0.10960897128E+04  0.25500000920E-02 0.  1.
        2   -1    0    0  501    0  0.00000000000E+00  0.00000000000E+00 -0.22403779802E+04  0.22403779802E+04  0.25500000920E-02 0. -1.
    10030    2    1    2    0    0  0.00000000000E+00  0.00000000000E+00 -0.11442882674E+04  0.33364676929E+04  0.31341060970E+04 0.  0.
        2    1    3    3  502    0 -0.13514648122E+04  0.33636138223E+03  0.19261199530E+03  0.14059500342E+04  0.25500000920E-02 0.  1.
       -2    1    3    3    0  502  0.13514648122E+04 -0.33636138223E+03 -0.13369002627E+04  0.19305176587E+04  0.25500000920E-02 0. -1.
</event>
<event>
 5   0  0.4272633E-07  0.3419333E+04  0.7818609E-02  0.8133178E-01
       -1   -1    0    0    0  501  0.00000000000E+00  0.00000000000E+00  0.19102127726E+04  0.19102127726E+04  0.50400001928E-02 0. -1.
        1   -1    0    0  501    0  0.00000000000E+00  0.00000000000E+00 -0.15301751772E+04  0.15301751772E+04  0.50400001928E-02 0.  1.
    10030    2    1    2    0    0  0.00000000000E+00  0.00000000000E+00  0.38003759539E+03  0.34403879498E+04  0.34193333665E+04 0.  0.
        1    1    3    3  502    0  0.12139020010E+04 -0.12032268051E+04  0.23085634317E+03  0.17247050367E+04  0.50400001928E-02 0.  1.
       -1    1    3    3    0  502 -0.12139020010E+04  0.12032268051E+04  0.14918125222E+03  0.17156829131E+04  0.50400001928E-02 0. -1.
</event>
<event>
 5   0  0.4125758E-07  0.3280849E+04  0.7818609E-02  0.8167786E-01
        1   -1    0    0  501    0  0.00000000000E+00  0.00000000000E+00  0.94429717528E+03  0.94429717529E+03  0.50400001928E-02 0.  1.
       -1   -1    0    0    0  501  0.00000000000E+00  0.00000000000E+00 -0.28497300819E+04  0.28497300819E+04  0.50400001928E-02 0. -1.
    10030    2    1    2    0    0  0.00000000000E+00  0.00000000000E+00 -0.19054329066E+04  0.37940272572E+04  0.32808487113E+04 0.  0.
        2    1    3    3  502    0  0.44814979970E+03  0.17630483593E+03 -0.27661419846E+04  0.28077505439E+04  0.25500000920E-02 0. -1.
       -2    1    3    3    0  502 -0.44814979970E+03 -0.17630483593E+03  0.86070907798E+03  0.98627671324E+03  0.25500000920E-02 0.  1.
</event>
<event>
 5   0  0.1269497E-06  0.3403446E+04  0.7818609E-02  0.8137061E-01
        2   -1    0    0  501    0  0.00000000000E+00  0.00000000000E+00  0.23630652510E+04  0.23630652510E+04  0.25500000920E-02 0. -1.
       -2   -1    0    0    0  501  0.00000000000E+00  0.00000000000E+00 -0.12254684521E+04  0.12254684521E+04  0.25500000920E-02 0.  1.
    10030    2    1    2    0    0  0.00000000000E+00  0.00000000000E+00  0.11375967989E+04  0.35885337031E+04  0.34034464388E+04 0.  0.
        5    1    3    3  502    0 -0.13840790478E+04  0.98181351173E+03  0.70302935529E+03  0.18368192471E+04  0.46999998093E+01 0.  1.
       -5    1    3    3    0  502  0.13840790478E+04 -0.98181351173E+03  0.43456744363E+03  0.17517144560E+04  0.46999998093E+01 0. -1.
</event>
<event>
 5   0  0.4272633E-07  0.3339145E+04  0.7818609E-02  0.8153006E-01
        1   -1    0    0  501    0  0.00000000000E+00  0.00000000000E+00  0.10942955400E+04  0.10942955400E+04  0.50400001928E-02 0. -1.
       -1   -1    0    0    0  501  0.00000000000E+00  0.00000000000E+00 -0.25472757381E+04  0.25472757381E+04  0.50400001928E-02 0.  1.
    10030    2    1    2    0    0  0.00000000000E+00  0.00000000000E+00 -0.14529801981E+04  0.36415712781E+04  0.33391450878E+04 0.  0.
        1    1    3    3  502    0 -0.25518481753E+03  0.13424119798E+04  0.31970886925E+03  0.14033541876E+04  0.50400001928E-02 0. -1.
       -1    1    3    3    0  502  0.25518481753E+03 -0.13424119798E+04 -0.17726890674E+04  0.22382170905E+04  0.50400001928E-02 0.  1.
</event>
<event>
 5   0  0.1277635E-06  0.3429782E+04  0.7818609E-02  0.8130635E-01
        2   -1    0    0  501    0  0.00000000000E+00  0.00000000000E+00  0.11651386258E+04  0.11651386258E+04  0.25500000920E-02 0. -1.
       -2   -1    0    0    0  501  0.00000000000E+00  0.00000000000E+00 -0.25240360068E+04  0.25240360068E+04  0.25500000920E-02 0.  1.
    10030    2    1    2    0    0  0.00000000000E+00  0.00000000000E+00 -0.13588973811E+04  0.36891746326E+04  0.34297824097E+04 0.  0.
        4    1    3    3  502    0  0.54764605754E+01 -0.41715963715E+03  0.11097203624E+04  0.11855517914E+04  0.12699999809E+01 0. -1.
       -4    1    3    3    0  502 -0.54764605754E+01  0.41715963715E+03 -0.24686177435E+04  0.25036228412E+04  0.12699999809E+01 0.  1.
</event>
<event>
 5   0  0.1256208E-06  0.3320536E+04  0.7818609E-02  0.8157690E-01
       -2   -1    0    0    0  501  0.00000000000E+00  0.00000000000E+00  0.16668035428E+04  0.16668035428E+04  0.25500000920E-02 0.  1.
        2   -1    0    0  501    0  0.00000000000E+00  0.00000000000E+00 -0.16537583180E+04  0.16537583180E+04  0.25500000920E-02 0. -1.
    10030    2    1    2    0    0  0.00000000000E+00  0.00000000000E+00  0.13045224773E+02  0.33205618608E+04  0.33205362358E+04 0.  0.
        3    1    3    3  502    0 -0.24919663560E+03  0.13271574304E+04  0.97247230357E+03  0.16640757794E+04  0.10100000352E+00 0.  1.
       -3    1    3    3    0  502  0.24919663560E+03 -0.13271574304E+04 -0.95942707879E+03  0.16564860814E+04  0.10100000352E+00 0. -1.
</event>
<event>
 5   0  0.1256208E-06  0.2770447E+04  0.7818609E-02  0.8312503E-01
       -2   -1    0    0    0  501  0.00000000000E+00  0.00000000000E+00  0.12473376945E+04  0.12473376945E+04  0.25500000920E-02 0. -1.
        2   -1    0    0  501    0  0.00000000000E+00  0.00000000000E+00 -0.15383518742E+04  0.15383518742E+04  0.25500000920E-02 0.  1.
    10030    2    1    2    0    0  0.00000000000E+00  0.00000000000E+00 -0.29101417970E+03  0.27856895688E+04  0.27704470976E+04 0.  0.
        3    1    3    3  502    0  0.72425131532E+03 -0.11648586408E+04 -0.33998436873E+03  0.14131613503E+04  0.10100000352E+00 0.  1.
       -3    1    3    3    0  502 -0.72425131532E+03  0.11648586408E+04  0.48970189032E+02  0.13725282184E+04  0.10100000352E+00 0. -1.
</event>
<event>
 5   0  0.4464951E-07  0.3375925E+04  0.7818609E-02  0.8143841E-01
       -1   -1    0    0    0  501  0.00000000000E+00  0.00000000000E+00  0.11524519245E+04  0.11524519245E+04  0.50400001928E-02 0.  1.
        1   -1    0    0  501    0  0.00000000000E+00  0.00000000000E+00 -0.24723087530E+04  0.24723087530E+04  0.50400001928E-02 0. -1.
    10030    2    1    2    0    0  0.00000000000E+00  0.00000000000E+00 -0.13198568285E+04  0.36247606775E+04  0.33759247506E+04 0.  0.
        3    1    3    3  502    0 -0.66043709675E+03  0.12237337021E+04  0.36742404207E+03  0.14382982199E+04  0.10100000352E+00 0.  1.
       -3    1    3    3    0  502  0.66043709675E+03 -0.12237337021E+04 -0.16872808706E+04  0.21864624577E+04  0.10100000352E+00 0. -1.
</event>
<event>
 5   0  0.1268230E-06  0.3304615E+04  0.7818609E-02  0.8161722E-01
        2   -1    0    0  501    0  0.00000000000E+00  0.00000000000E+00  0.13196685268E+04  0.13196685268E+04  0.25500000920E-02 0.  1.
       -2   -1    0    0    0  501  0.00000000000E+00  0.00000000000E+00 -0.20687921989E+04  0.20687921989E+04  0.25500000920E-02 0. -1.
    10030    2    1    2    0    0  0.00000000000E+00  0.00000000000E+00 -0.74912367212E+03  0.33884607257E+04  0.33046149266E+04 0.  0.
        2    1    3    3  502    0  0.90243776665E+03 -0.10526388099E+04  0.54694933914E+03  0.14905019176E+04  0.25500000920E-02 0.  1.
       -2    1    3    3    0  502 -0.90243776665E+03  0.10526388099E+04 -0.12960730113E+04  0.18979588081E+04  0.25500000920E-02 0. -1.
</event>
<event>
 5   0  0.1277635E-06  0.3609532E+04  0.7818609E-02  0.8088312E-01
       -2   -1    0    0    0  501  0.00000000000E+00  0.00000000000E+00  0.16595408073E+04  0.16595408073E+04  0.25500000920E-02 0. -1.
        2   -1    0    0  501    0  0.00000000000E+00  0.00000000000E+00 -0.19626999318E+04  0.19626999318E+04  0.25500000920E-02 0.  1.
    10030    2    1    2    0    0  0.00000000000E+00  0.00000000000E+00 -0.30315912450E+03  0.36222407391E+04  0.36095321743E+04 0.  0.
        4    1    3    3  502    0  0.16835119413E+04  0.64845344882E+03 -0.20150091196E+03  0.18152984775E+04  0.12699999809E+01 0.  1.
       -4    1    3    3    0  502 -0.16835119413E+04 -0.64845344882E+03 -0.10165821254E+03  0.18069422616E+04  0.12699999809E+01 0. -1.
</event>
<event>
 5   0  0.1277635E-06  0.3351349E+04  0.7818609E-02  0.8149951E-01
        2   -1    0    0  501    0  0.00000000000E+00  0.00000000000E+00  0.11604066982E+04  0.11604066982E+04  0.25500000920E-02 0. -1.
       -2   -1    0    0    0  501  0.00000000000E+00  0.00000000000E+00 -0.24197427907E+04  0.24197427907E+04  0.25500000920E-02 0.  1.
    10030    2    1    2    0    0  0.00000000000E+00  0.00000000000E+00 -0.12593360925E+04  0.35801494889E+04  0.33513494250E+04 0.  0.
        4    1    3    3  502    0 -0.15939829843E+04  0.40437726089E+02 -0.79257361932E+02  0.15964649405E+04  0.12699999809E+01 0. -1.
       -4    1    3    3    0  502  0.15939829843E+04 -0.40437726089E+02 -0.11800787305E+04  0.19836845483E+04  0.12699999809E+01 0.  1.
</event>
<event>
 5   0  0.4289684E-07  0.3403205E+04  0.7818609E-02  0.8137120E-01
        1   -1    0    0  501    0  0.00000000000E+00  0.00000000000E+00  0.20490794301E+04  0.20490794301E+04  0.50400001928E-02 0.  1.
       -1   -1    0    0    0  501  0.00000000000E+00  0.00000000000E+00 -0.14130497762E+04  0.14130497762E+04  0.50400001928E-02 0. -1.
    10030    2    1    2    0    0  0.00000000000E+00  0.00000000000E+00  0.63602965394E+03  0.34621292063E+04  0.34032050952E+04 0.  0.
        4    1    3    3  502    0 -0.12203525532E+04  0.67327362966E+03  0.13110781963E+04  0.19135008190E+04  0.12699999809E+01 0.  1.
       -4    1    3    3    0  502  0.12203525532E+04 -0.67327362966E+03 -0.67504854240E+03  0.15486283873E+04  0.12699999809E+01 0. -1.
</event>
<event>
 5   0  0.4109937E-07  0.3369144E+04  0.7818609E-02  0.8145521E-01
        1   -1    0    0  501    0  0.00000000000E+00  0.00000000000E+00  0.24616390854E+04  0.24616390854E+04  0.50400001928E-02 0. -1.
       -1   -1    0    0    0  501  0.00000000000E+00  0.00000000000E+00 -0.11528019657E+04  0.11528019657E+04  0.50400001928E-02 0.  1.
    10030    2    1    2    0    0  0.00000000000E+00  0.00000000000E+00  0.13088371198E+04  0.36144410511E+04  0.33691437348E+04 0.  0.
        5    1    3    3  502    0  0.50796385569E+03  0.21937564718E+03 -0.10525274287E+04  0.11891127076E+04  0.46999998093E+01 0.  1.
       -5    1    3    3    0  502 -0.50796385569E+03 -0.21937564718E+03  0.23613645484E+04  0.24253283435E+04  0.46999998093E+01 0. -1.
</event>
<event>
 5   0  0.4272633E-07  0.3437169E+04  0.7818609E-02  0.8128844E-01
       -1   -1    0    0    0  501  0.00000000000E+00  0.00000000000E+00  0.15800953763E+04  0.15800953763E+04  0.50400001928E-02 0. -1.
        1   -1    0    0  501    0  0.00000000000E+00  0.00000000000E+00 -0.18692120555E+04  0.18692120555E+04  0.50400001928E-02 0.  1.
    10030    2    1    2    0    0  0.00000000000E+00  0.00000000000E+00 -0.28911667912E+03  0.34493074318E+04  0.34371693739E+04 0.  0.
        1    1    3    3  502    0 -0.11568568865E+04  0.11187406947E+04  0.46059250983E+03  0.16739307208E+04  0.50400001928E-02 0.  1.
       -1    1    3    3    0  502  0.11568568865E+04 -0.11187406947E+04 -0.74970918894E+03  0.17753767110E+04  0.50400001928E-02 0. -1.
</event>
<event>
 5   0  0.4289684E-07  0.3403497E+04  0.7818609E-02  0.8137049E-01
       -1   -1    0    0    0  501  0.00000000000E+00  0.00000000000E+00  0.18753206464E+04  0.18753206464E+04  0.50400001928E-02 0.  1.
        1   -1    0    0  501    0  0.00000000000E+00  0.00000000000E+00 -0.15442416463E+04  0.15442416463E+04  0.50400001928E-02 0. -1.
    10030    2    1    2    0    0  0.00000000000E+00  0.00000000000E+00  0.33107900009E+03  0.34195622927E+04  0.34034971675E+04 0.  0.
        4    1    3    3  502    0  0.60069187114E+02  0.61919453631E+02  0.18731217646E+04  0.18751077526E+04  0.12699999809E+01 0.  1.
       -4    1    3    3    0  502 -0.60069187114E+02 -0.61919453631E+02 -0.15420427645E+04  0.15444545401E+04  0.12699999809E+01 0. -1.
</event>
<event>
 5   0  0.4272633E-07  0.3368130E+04  0.7818609E-02  0.8145773E-01
       -1   -1    0    0    0  501  0.00000000000E+00  0.00000000000E+00  0.18748385757E+04  0.18748385757E+04  0.50400001928E-02 0.  1.
        1   -1    0    0  501    0  0.00000000000E+00  0.00000000000E+00 -0.15127035238E+04  0.15127035238E+04  0.50400001928E-02 0. -1.
    10030    2    1    2    0    0  0.00000000000E+00  0.00000000000E+00  0.36213505191E+03  0.33875420995E+04  0.33681299975E+04 0.  0.
        1    1    3    3  502    0 -0.13830231495E+04  0.95196707270E+03  0.31251346315E+03  0.17078228843E+04  0.50400001928E-02 0. -1.
       -1    1    3    3    0  502  0.13830231495E+04 -0.95196707270E+03  0.49621588769E+02  0.16797192151E+04  0.50400001928E-02 0.  1.
</event>
<event>
 5   0  0.1268230E-06  0.3381774E+04  0.7818609E-02  0.8142394E-01
       -2   -1    0    0    0  501  0.00000000000E+00  0.00000000000E+00  0.11369090483E+04  0.11369090483E+04  0.25500000920E-02 0.  1.
        2   -1    0    0  501    0  0.00000000000E+00  0.00000000000E+00 -0.25148003213E+04  0.25148003213E+04  0.25500000920E-02 0. -1.
    10030    2    1    2    0    0  0.00000000000E+00  0.00000000000E+00 -0.13778912730E+04  0.36517093695E+04  0.33817742325E+04 0.  0.
        2    1    3    3  502    0 -0.51996512621E+03  0.78724996001E+03  0.82625964824E+03  0.12541256868E+04  0.25500000920E-02 0.  1.
       -2    1    3    3    0  502  0.51996512621E+03 -0.78724996001E+03 -0.22041509212E+04  0.23975836827E+04  0.25500000920E-02 0. -1.
</event>
<event>
 5   0  0.4289684E-07  0.3395269E+04  0.7818609E-02  0.8139069E-01
       -1   -1    0    0    0  501  0.00000000000E+00  0.00000000000E+00  0.26597110858E+04  0.26597110858E+04  0.50400001928E-02 0. -1.
        1   -1    0    0  501    0  0.00000000000E+00  0.00000000000E+00 -0.10835621916E+04  0.10835621916E+04  0.50400001928E-02 0.  1.
    10030    2    1    2    0    0  0.00000000000E+00  0.00000000000E+00  0.15761488942E+04  0.37432732775E+04  0.33952686923E+04 0.  0.
        4    1    3    3  502    0 -0.11264955619E+04  0.19651964551E+03  0.21714109201E+04  0.24541066030E+04  0.12699999809E+01 0. -1.
       -4    1    3    3    0  502  0.11264955619E+04 -0.19651964551E+03 -0.59526202590E+03  0.12891666744E+04  0.12699999809E+01 0.  1.
</event>
<event>
 5   0  0.1268230E-06  0.3429435E+04  0.7818609E-02  0.8130720E-01
        2   -1    0    0  501    0  0.00000000000E+00  0.00000000000E+00  0.18232083134E+04  0.18232083134E+04  0.25500000920E-02 0.  1.
       -2   -1    0    0    0  501  0.00000000000E+00  0.00000000000E+00 -0.16126823650E+04  0.16126823650E+04  0.25500000920E-02 0. -1.
    10030    2    1    2    0    0  0.00000000000E+00  0.00000000000E+00  0.21052594843E+03  0.34358906784E+04  0.34294348775E+04 0.  0.
        2    1    3    3  502    0 -0.16318260173E+04 -0.51460358381E+03  0.21764764406E+03  0.17248314399E+04  0.25500000920E-02 0. -1.
       -2    1    3    3    0  502  0.16318260173E+04  0.51460358381E+03 -0.71216956358E+01  0.17110592385E+04  0.25500000920E-02 0.  1.
</event>
<event>
 5   0  0.4272633E-07  0.3401999E+04  0.7818609E-02  0.8137416E-01
       -1   -1    0    0    0  501  0.00000000000E+00  0.00000000000E+00  0.13664414008E+04  0.13664414008E+04  0.50400001928E-02 0.  1.
        1   -1    0    0  501    0  0.00000000000E+00  0.00000000000E+00 -0.21174706504E+04  0.21174706504E+04  0.50400001928E-02 0. -1.
    10030    2    1    2    0    0  0.00000000000E+00  0.00000000000E+00 -0.75102924965E+03  0.34839120512E+04  0.34019991544E+04 0.  0.
        1    1    3    3  502    0 -0.84908302846E+03 -0.69784339971E+03  0.95400200413E+03  0.14553512372E+04  0.50400001928E-02 0.  1.
       -1    1    3    3    0  502  0.84908302846E+03  0.69784339971E+03 -0.17050312538E+04  0.20285608140E+04  0.50400001928E-02 0. -1.
</event>
<event>
 5   0  0.4109937E-07  0.3386667E+04  0.7818609E-02  0.8141187E-01
        1   -1    0    0  501    0  0.00000000000E+00  0.00000000000E+00  0.19012163743E+04  0.19012163743E+04  0.50400001928E-02 0. -1.
       -1   -1    0    0    0  501  0.00000000000E+00  0.00000000000E+00 -0.15081806418E+04  0.15081806418E+04  0.50400001928E-02 0.  1.
    10030    2    1    2    0    0  0.00000000000E+00  0.00000000000E+00  0.39303573254E+03  0.34093970161E+04  0.33866666394E+04 0.  0.
        5    1    3    3  502    0 -0.18462439709E+03  0.65747757859E+03 -0.13633957445E+04  0.15248714636E+04  0.46999998093E+01 0.  1.
       -5    1    3    3    0  502  0.18462439709E+03 -0.65747757859E+03  0.17564314771E+04  0.18845255525E+04  0.46999998093E+01 0. -1.
</event>
<event>
 5   0  0.1268230E-06  0.3265735E+04  0.7818609E-02  0.8171669E-01
       -2   -1    0    0    0  501  0.00000000000E+00  0.00000000000E+00  0.18341830252E+04  0.18341830252E+04  0.25500000920E-02 0.  1.
        2   -1    0    0  501    0  0.00000000000E+00  0.00000000000E+00 -0.14536477817E+04  0.14536477817E+04  0.25500000920E-02 0. -1.
    10030    2    1    2    0    0  0.00000000000E+00  0.00000000000E+00  0.38053524355E+03  0.32878308069E+04  0.32657348857E+04 0.  0.
        2    1    3    3  502    0  0.82237792305E+03 -0.12867719948E+04 -0.39171668038E+03  0.15765562384E+04  0.25500000920E-02 0.  1.
       -2    1    3    3    0  502 -0.82237792305E+03  0.12867719948E+04  0.77225192393E+03  0.17112745686E+04  0.25500000920E-02 0. -1.
</event>
<event>
 5   0  0.1256208E-06  0.3387926E+04  0.7818609E-02  0.8140876E-01
       -2   -1    0    0    0  501  0.00000000000E+00  0.00000000000E+00  0.17633394517E+04  0.17633394517E+04  0.25500000920E-02 0.  1.
        2   -1    0    0  501    0  0.00000000000E+00  0.00000000000E+00 -0.16273159931E+04  0.16273159931E+04  0.25500000920E-02 0. -1.
    10030    2    1    2    0    0  0.00000000000E+00  0.00000000000E+00  0.13602345857E+03  0.33906554449E+04  0.33879259089E+04 0.  0.
        3    1    3    3  502    0  0.56035041989E+03 -0.89922967948E+03  0.13907814925E+04  0.17483934854E+04  0.10100000352E+00 0.  1.
       -3    1    3    3    0  502 -0.56035041989E+03  0.89922967948E+03 -0.12547580340E+04  0.16422619595E+04  0.10100000352E+00 0. -1.
</event>
<event>
 5   0  0.1269497E-06  0.3379250E+04  0.7818609E-02  0.8143018E-01
        2   -1    0    0  501    0  0.00000000000E+00  0.00000000000E+00  0.21162077262E+04  0.21162077262E+04  0.25500000920E-02 0. -1.
       -2   -1    0    0    0  501  0.00000000000E+00  0.00000000000E+00 -0.13490325505E+04  0.13490325505E+04  0.25500000920E-02 0.  1.
    10030    2    1    2    0    0  0.00000000000E+00  0.00000000000E+00  0.76717517572E+03  0.34652402768E+04  0.33792502756E+04 0.  0.
        5    1    3    3  502    0  0.22287838117E+03  0.15134368562E+03  0.20940345588E+04  0.21112987727E+04  0.46999998093E+01 0. -1.
       -5    1    3    3    0  502 -0.22287838117E+03 -0.15134368562E+03 -0.13268593831E+04  0.13539415041E+04  0.46999998093E+01 0.  1.
</event>
<event>
 5   0  0.4289684E-07  0.3339815E+04  0.7818609E-02  0.8152838E-01
        1   -1    0    0  501    0  0.00000000000E+00  0.00000000000E+00  0.22854377788E+04  0.22854377788E+04  0.50400001928E-02 0.  1.
       -1   -1    0    0    0  501  0.00000000000E+00  0.00000000000E+00 -0.12201565456E+04  0.12201565456E+04  0.50400001928E-02 0. -1.
    10030    2    1    2    0    0  0.00000000000E+00  0.00000000000E+00  0.10652812332E+04  0.35055943244E+04  0.33398154831E+04 0.  0.
        4    1    3    3  502    0  0.21900626964E+03 -0.25519615666E+03 -0.11842466391E+04  0.12310688606E+04  0.12699999809E+01 0. -1.
       -4    1    3    3    0  502 -0.21900626964E+03  0.25519615666E+03  0.22495278722E+04  0.22745254638E+04  0.12699999809E+01 0.  1.
</event>
<event>
 5   0  0.4272633E-07  0.3392604E+04  0.7818609E-02  0.8139724E-01
        1   -1    0    0  501    0  0.00000000000E+00  0.00000000000E+00  0.27268673360E+04  0.27268673360E+04  0.50400001928E-02 0.  1.
       -1   -1    0    0    0  501  0.00000000000E+00  0.00000000000E+00 -0.10552186457E+04  0.10552186457E+04  0.50400001928E-02 0. -1.
    10030    2    1    2    0    0  0.00000000000E+00  0.00000000000E+00  0.16716486904E+04  0.37820859817E+04  0.33926044610E+04 0.  0.
        1    1    3    3  502    0  0.47266071711E+03 -0.99465381955E+03 -0.60252954474E+03  0.12553032409E+04  0.50400001928E-02 0. -1.
       -1    1    3    3    0  502 -0.47266071711E+03  0.99465381955E+03  0.22741782351E+04  0.25267827408E+04  0.50400001928E-02 0.  1.
</event>
<event>
 5   0  0.4109937E-07  0.3571697E+04  0.7818609E-02  0.8097006E-01
        1   -1    0    0  501    0  0.00000000000E+00  0.00000000000E+00  0.16431126564E+04  0.16431126564E+04  0.50400001928E-02 0.  1.
       -1   -1    0    0    0  501  0.00000000000E+00  0.00000000000E+00 -0.19409833160E+04  0.19409833160E+04  0.50400001928E-02 0. -1.
    10030    2    1    2    0    0  0.00000000000E+00  0.00000000000E+00 -0.29787065964E+03  0.35840959724E+04  0.35716966570E+04 0.  0.
        5    1    3    3  502    0  0.40667837981E+03  0.43864404138E+03  0.15395934139E+04  0.16517160379E+04  0.46999998093E+01 0.  1.
       -5    1    3    3    0  502 -0.40667837981E+03 -0.43864404138E+03 -0.18374640736E+04  0.19323799345E+04  0.46999998093E+01 0. -1.
</event>
<event>
 5   0  0.1256208E-06  0.3294054E+04  0.7818609E-02  0.8164410E-01
        2   -1    0    0  501    0  0.00000000000E+00  0.00000000000E+00  0.17992147974E+04  0.17992147974E+04  0.25500000920E-02 0. -1.
       -2   -1    0    0    0  501  0.00000000000E+00  0.00000000000E+00 -0.15077118451E+04  0.15077118451E+04  0.25500000920E-02 0.  1.
    10030    2    1    2    0    0  0.00000000000E+00  0.00000000000E+00  0.29150295230E+03  0.33069266425E+04  0.32940537105E+04 0.  0.
        3    1    3    3  502    0 -0.85076822348E+03  0.71613645423E+03  0.13654229569E+04  0.17609763918E+04  0.10100000352E+00 0. -1.
       -3    1    3    3    0  502  0.85076822348E+03 -0.71613645423E+03 -0.10739200046E+04  0.15459502507E+04  0.10100000352E+00 0.  1.
</event>
<event>
 5   0  0.1268230E-06  0.3411548E+04  0.7818609E-02  0.8135078E-01
       -2   -1    0    0    0  501  0.00000000000E+00  0.00000000000E+00  0.12569020414E+04  0.12569020414E+04  0.25500000920E-02 0. -1.
        2   -1    0    0  501    0  0.00000000000E+00  0.00000000000E+00 -0.23149501909E+04  0.23149501909E+04  0.25500000920E-02 0.  1.
    10030    2    1    2    0    0  0.00000000000E+00  0.00000000000E+00 -0.10580481496E+04  0.35718522323E+04  0.34115483995E+04 0.  0.
        2    1    3    3  502    0  0.11623835309E+04  0.11019676956E+04  0.85226689013E+02  0.16039737727E+04  0.25500000920E-02 0. -1.
       -2    1    3    3    0  502 -0.11623835309E+04 -0.11019676956E+04 -0.11432748386E+04  0.19678784596E+04  0.25500000920E-02 0.  1.
</event>
<event>
 5   0  0.4125758E-07  0.3387643E+04  0.7818609E-02  0.8140946E-01
        1   -1    0    0  501    0  0.00000000000E+00  0.00000000000E+00  0.18600074635E+04  0.18600074635E+04  0.50400001928E-02 0.  1.
       -1   -1    0    0    0  501  0.00000000000E+00  0.00000000000E+00 -0.15424837078E+04  0.15424837078E+04  0.50400001928E-02 0. -1.
    10030    2    1    2    0    0  0.00000000000E+00  0.00000000000E+00  0.31752375571E+03  0.34024911714E+04  0.33876429617E+04 0.  0.
        2    1    3    3  502    0  0.11481978345E+04 -0.34702657535E+03 -0.10424086556E+04  0.15891511937E+04  0.25500000920E-02 0. -1.
       -2    1    3    3    0  502 -0.11481978345E+04  0.34702657535E+03  0.13599324113E+04  0.18133399777E+04  0.25500000920E-02 0.  1.
</event>
<event>
 5   0  0.4125758E-07  0.3365802E+04  0.7818609E-02  0.8146351E-01
        1   -1    0    0  501    0  0.00000000000E+00  0.00000000000E+00  0.17488503525E+04  0.17488503525E+04  0.50400001928E-02 0. -1.
       -1   -1    0    0    0  501  0.00000000000E+00  0.00000000000E+00 -0.16194386902E+04  0.16194386902E+04  0.50400001928E-02 0.  1.
    10030    2    1    2    0    0  0.00000000000E+00  0.00000000000E+00  0.12941166229E+03  0.33682890427E+04  0.33658020882E+04 0.  0.
        2    1    3    3  502    0 -0.55415283538E+03 -0.10415462149E+04  0.12656975883E+04  0.17302873368E+04  0.25500000920E-02 0. -1.
       -2    1    3    3    0  502  0.55415283538E+03  0.10415462149E+04 -0.11362859260E+04  0.16380017059E+04  0.25500000920E-02 0.  1.
</event>
<event>
 5   0  0.1300176E-06  0.3164692E+04  0.7818609E-02  0.8198205E-01
       -2   -1    0    0    0  501  0.00000000000E+00  0.00000000000E+00  0.11277989034E+04  0.11277989034E+04  0.25500000920E-02 0. -1.
        2   -1    0    0  501    0  0.00000000000E+00  0.00000000000E+00 -0.22200939919E+04  0.22200939919E+04  0.25500000920E-02 0.  1.
    10030    2    1    2    0    0  0.00000000000E+00  0.00000000000E+00 -0.10922950884E+04  0.33478928953E+04  0.31646924461E+04 0.  0.
        1    1    3    3  502    0 -0.26335510491E+03  0.21199011385E+03  0.10891460296E+04  0.11404099234E+04  0.50400001928E-02 0. -1.
       -1    1    3    3    0  502  0.26335510491E+03 -0.21199011385E+03 -0.21814411180E+04  0.22074829719E+04  0.50400001928E-02 0.  1.
</event>
<event>
 5   0  0.4464951E-07  0.3087986E+04  0.7818609E-02  0.8219043E-01
       -1   -1    0    0    0  501  0.00000000000E+00  0.00000000000E+00  0.12738952351E+04  0.12738952351E+04  0.50400001928E-02 0.  1.
        1   -1    0    0  501    0  0.00000000000E+00  0.00000000000E+00 -0.18713588185E+04  0.18713588186E+04  0.50400001928E-02 0. -1.
    10030    2    1    2    0    0  0.00000000000E+00  0.00000000000E+00 -0.59746358345E+03  0.31452540537E+04  0.30879864521E+04 0.  0.
        3    1    3    3  502    0  0.63031774866E+03  0.10494136935E+04  0.65964599351E+03  0.13905762875E+04  0.10100000352E+00 0.  1.
       -3    1    3    3    0  502 -0.63031774866E+03 -0.10494136935E+04 -0.12571095770E+04  0.17546777662E+04  0.10100000352E+00 0. -1.
</event>
<event>
 5   0  0.1300176E-06  0.3499271E+04  0.7818609E-02  0.8113963E-01
        2   -1    0    0  501    0  0.00000000000E+00  0.00000000000E+00  0.15826398213E+04  0.15826398213E+04  0.25500000920E-02 0.  1.
       -2   -1    0    0    0  501  0.00000000000E+00  0.00000000000E+00 -0.19342526168E+04  0.19342526168E+04  0.25500000920E-02 0. -1.
    10030    2    1    2    0    0  0.00000000000E+00  0.00000000000E+00 -0.35161279551E+03  0.35168924382E+04  0.34992714761E+04 0.  0.
        1    1    3    3  502    0 -0.16305355907E+04  0.13974772729E+03 -0.79783289530E+03  0.18206353476E+04  0.50400001928E-02 0. -1.
       -1    1    3    3    0  502  0.16305355907E+04 -0.13974772729E+03  0.44622009979E+03  0.16962570906E+04  0.50400001928E-02 0.  1.
</event>
<event>
 5   0  0.4125758E-07  0.3389589E+04  0.7818609E-02  0.8140466E-01
        1   -1    0    0  501    0  0.00000000000E+00  0.00000000000E+00  0.28451749745E+04  0.28451749745E+04  0.50400001928E-02 0.  1.
       -1   -1    0    0    0  501  0.00000000000E+00  0.00000000000E+00 -0.10095438526E+04  0.10095438526E+04  0.50400001928E-02 0. -1.
    10030    2    1    2    0    0  0.00000000000E+00  0.00000000000E+00  0.18356311219E+04  0.38547188271E+04  0.33895892996E+04 0.  0.
        2    1    3    3  502    0  0.10803809302E+04  0.37952579567E+03 -0.50306075195E+03  0.12507329468E+04  0.25500000920E-02 0. -1.
       -2    1    3    3    0  502 -0.10803809302E+04 -0.37952579567E+03  0.23386918739E+04  0.26039858803E+04  0.25500000920E-02 0.  1.
</event>
<event>
 5   0  0.4289684E-07  0.3340776E+04  0.7818609E-02  0.8152597E-01
        1   -1    0    0  501    0  0.00000000000E+00  0.00000000000E+00  0.92669034339E+03  0.92669034341E+03  0.50400001928E-02 0.  1.
       -1   -1    0    0    0  501  0.00000000000E+00  0.00000000000E+00 -0.30109268815E+04  0.30109268815E+04  0.50400001928E-02 0. -1.
    10030    2    1    2    0    0  0.00000000000E+00  0.00000000000E+00 -0.20842365381E+04  0.39376172249E+04  0.33407764761E+04 0.  0.
        4    1    3    3  502    0  0.59690140454E+03 -0.80863015105E+03  0.53041075560E+03  0.11364467390E+04  0.12699999809E+01 0.  1.
       -4    1    3    3    0  502 -0.59690140454E+03  0.80863015105E+03 -0.26146472937E+04  0.28011704859E+04  0.12699999809E+01 0. -1.
</event>
<event>
 5   0  0.1277635E-06  0.3417459E+04  0.7818609E-02  0.8133635E-01
        2   -1    0    0  501    0  0.00000000000E+00  0.00000000000E+00  0.13375347656E+04  0.13375347656E+04  0.25500000920E-02 0. -1.
       -2   -1    0    0    0  501  0.00000000000E+00  0.00000000000E+00 -0.21829384470E+04  0.21829384470E+04  0.25500000920E-02 0.  1.
    10030    2    1    2    0    0  0.00000000000E+00  0.00000000000E+00 -0.84540368145E+03  0.35204732126E+04  0.34174587424E+04 0.  0.
        4    1    3    3  502    0 -0.15778248561E+04 -0.46269769795E+03  0.56214134923E+02  0.16452300988E+04  0.12699999809E+01 0. -1.
       -4    1    3    3    0  502  0.15778248561E+04  0.46269769795E+03 -0.90161781637E+03  0.18752431138E+04  0.12699999809E+01 0.  1.
</event>
<event>
 5   0  0.1268230E-06  0.3393105E+04  0.7818609E-02  0.8139601E-01
        2   -1    0    0  501    0  0.00000000000E+00  0.00000000000E+00  0.18694994467E+04  0.18694994467E+04  0.25500000920E-02 0.  1.
       -2   -1    0    0    0  501  0.00000000000E+00  0.00000000000E+00 -0.15396048237E+04  0.15396048237E+04  0.25500000920E-02 0. -1.
    10030    2    1    2    0    0  0.00000000000E+00  0.00000000000E+00  0.32989462294E+03  0.34091042704E+04  0.33931049887E+04 0.  0.
        2    1    3    3  502    0 -0.24298224568E+03  0.64924485995E+03  0.17207095488E+04  0.18551012402E+04  0.25500000920E-02 0.  1.
       -2    1    3    3    0  502  0.24298224568E+03 -0.64924485995E+03 -0.13908149259E+04  0.15540030302E+04  0.25500000920E-02 0. -1.
</event>
<event>
 5   0  0.4109937E-07  0.3396756E+04  0.7818609E-02  0.8138703E-01
       -1   -1    0    0    0  501  0.00000000000E+00  0.00000000000E+00  0.14543149445E+04  0.14543149445E+04  0.50400001928E-02 0. -1.
        1   -1    0    0  501    0  0.00000000000E+00  0.00000000000E+00 -0.19834000047E+04  0.19834000047E+04  0.50400001928E-02 0.  1.
    10030    2    1    2    0    0  0.00000000000E+00  0.00000000000E+00 -0.52908506026E+03  0.34377149492E+04  0.33967562572E+04 0.  0.
        5    1    3    3  502    0  0.15997049029E+04 -0.32082934468E+03 -0.74190681709E+03  0.17923267169E+04  0.46999998093E+01 0.  1.
       -5    1    3    3    0  502 -0.15997049029E+04  0.32082934468E+03  0.21282175682E+03  0.16453882323E+04  0.46999998093E+01 0. -1.
</event>
<event>
 5   0  0.1269497E-06  0.3308794E+04  0.7818609E-02  0.8160661E-01
        2   -1    0    0  501    0  0.00000000000E+00  0.00000000000E+00  0.19033587736E+04  0.19033587736E+04  0.25500000920E-02 0.  1.
       -2   -1    0    0    0  501  0.00000000000E+00  0.00000000000E+00 -0.14379997345E+04  0.14379997345E+04  0.25500000920E-02 0. -1.
    10030    2    1    2    0    0  0.00000000000E+00  0.00000000000E+00  0.46535903904E+03  0.33413585081E+04  0.33087939864E+04 0.  0.
        5    1    3    3  502    0 -0.11965016619E+04  0.77376469406E+03  0.10815951506E+04  0.17889097766E+04  0.46999998093E+01 0.  1.
       -5    1    3    3    0  502  0.11965016619E+04 -0.77376469406E+03 -0.61623611161E+03  0.15524487315E+04  0.46999998093E+01 0. -1.
</event>
<event>
 5   0  0.1268230E-06  0.3387158E+04  0.7818609E-02  0.8141065E-01
       -2   -1    0    0    0  501  0.00000000000E+00  0.00000000000E+00  0.32421825065E+04  0.32421825065E+04  0.25500000920E-02 0.  1.
        2   -1    0    0  501    0  0.00000000000E+00  0.00000000000E+00 -0.88465422147E+03  0.88465422147E+03  0.25500000920E-02 0. -1.
    10030    2    1    2    0    0  0.00000000000E+00  0.00000000000E+00  0.23575282851E+04  0.41268367280E+04  0.33871583613E+04 0.  0.
        2    1    3    3  502    0 -0.32069004154E+03  0.71255214392E+03 -0.65190102095E+03  0.10176185934E+04  0.25500000920E-02 0. -1.
       -2    1    3    3    0  502  0.32069004154E+03 -0.71255214392E+03  0.30094293060E+04  0.31092181346E+04  0.25500000920E-02 0.  1.
</event>
<event>
 5   0  0.4125758E-07  0.3230255E+04  0.7818609E-02  0.8180872E-01
        1   -1    0    0  501    0  0.00000000000E+00  0.00000000000E+00  0.16947287423E+04  0.16947287423E+04  0.50400001928E-02 0. -1.
       -1   -1    0    0    0  501  0.00000000000E+00  0.00000000000E+00 -0.15392653012E+04  0.15392653012E+04  0.50400001928E-02 0.  1.
    10030    2    1    2    0    0  0.00000000000E+00  0.00000000000E+00  0.15546344106E+03  0.32339940435E+04  0.32302551899E+04 0.  0.
        2    1    3    3  502    0  0.27928105592E+03  0.11271679530E+04  0.12015868750E+04  0.16710225973E+04  0.25500000920E-02 0. -1.
       -2    1    3    3    0  502 -0.27928105592E+03 -0.11271679530E+04 -0.10461234339E+04  0.15629714462E+04  0.25500000920E-02 0.  1.
</event>
<event>
 5   0  0.4464951E-07  0.3416884E+04  0.7818609E-02  0.8133775E-01
       -1   -1    0    0    0  501  0.00000000000E+00  0.00000000000E+00  0.12959225048E+04  0.12959225048E+04  0.50400001928E-02 0.  1.
        1   -1    0    0  501    0  0.00000000000E+00  0.00000000000E+00 -0.22522753615E+04  0.22522753615E+04  0.50400001928E-02 0. -1.
    10030    2    1    2    0    0  0.00000000000E+00  0.00000000000E+00 -0.95635285671E+03  0.35481978663E+04  0.34168841525E+04 0.  0.
        3    1    3    3  502    0  0.13322110588E+03 -0.13308908950E+04 -0.15819243050E+04  0.20715943025E+04  0.10100000352E+00 0. -1.
       -3    1    3    3    0  502 -0.13322110588E+03  0.13308908950E+04  0.62557144827E+03  0.14766035637E+04  0.10100000352E+00 0.  1.
</event>
<event>
 5   0  0.1300176E-06  0.3399380E+04  0.7818609E-02  0.8138059E-01
        2   -1    0    0  501    0  0.00000000000E+00  0.00000000000E+00  0.15515743535E+04  0.15515743535E+04  0.25500000920E-02 0. -1.
       -2   -1    0    0    0  501  0.00000000000E+00  0.00000000000E+00 -0.18619448620E+04  0.18619448620E+04  0.25500000920E-02 0.  1.
    10030    2    1    2    0    0  0.00000000000E+00  0.00000000000E+00 -0.31037050846E+03  0.34135192155E+04  0.33993798820E+04 0.  0.
        1    1    3    3  502    0  0.87598290183E+03 -0.14104581709E+04  0.20993074329E+03  0.16735618342E+04  0.50400001928E-02 0.  1.
       -1    1    3    3    0  502 -0.87598290183E+03  0.14104581709E+04 -0.52030125175E+03  0.17399573813E+04  0.50400001928E-02 0. -1.
</event>
<event>
 5   0  0.4464951E-07  0.3413142E+04  0.7818609E-02  0.8134688E-01
       -1   -1    0    0    0  501  0.00000000000E+00  0.00000000000E+00  0.18180726525E+04  0.18180726525E+04  0.50400001928E-02 0. -1.
        1   -1    0    0  501    0  0.00000000000E+00  0.00000000000E+00 -0.16019079577E+04  0.16019079577E+04  0.50400001928E-02 0.  1.
    10030    2    1    2    0    0  0.00000000000E+00  0.00000000000E+00  0.21616469482E+03  0.34199806102E+04  0.34131422764E+04 0.  0.
        3    1    3    3  502    0 -0.14483402047E+04  0.55042053563E+02 -0.79464779865E+03  0.16529319739E+04  0.10100000352E+00 0.  1.
       -3    1    3    3    0  502  0.14483402047E+04 -0.55042053563E+02  0.10108124935E+04  0.17670486364E+04  0.10100000352E+00 0. -1.
</event>
<event>
 5   0  0.1268230E-06  0.3386369E+04  0.7818609E-02  0.8141260E-01
       -2   -1    0    0    0  501  0.00000000000E+00  0.00000000000E+00  0.15415133343E+04  0.15415133343E+04  0.25500000920E-02 0. -1.
        2   -1    0    0  501    0  0.00000000000E+00  0.00000000000E+00 -0.18597791455E+04  0.18597791455E+04  0.25500000920E-02 0.  1.
    10030    2    1    2    0    0  0.00000000000E+00  0.00000000000E+00 -0.31826581119E+03  0.34012924797E+04  0.33863693547E+04 0.  0.
        2    1    3    3  502    0 -0.95214737706E+03  0.82984506986E+03 -0.12917755769E+04  0.18066299036E+04  0.25500000920E-02 0.  1.
       -2    1    3    3    0  502  0.95214737706E+03 -0.82984506986E+03  0.97350976573E+03  0.15946625761E+04  0.25500000920E-02 0. -1.
</event>
<event>
 5   0  0.1256208E-06  0.3355225E+04  0.7818609E-02  0.8148984E-01
       -2   -1    0    0    0  501  0.00000000000E+00  0.00000000000E+00  0.22266288303E+04  0.22266288303E+04  0.25500000920E-02 0. -1.
        2   -1    0    0  501    0  0.00000000000E+00  0.00000000000E+00 -0.12639659909E+04  0.12639659909E+04  0.25500000920E-02 0.  1.
    10030    2    1    2    0    0  0.00000000000E+00  0.00000000000E+00  0.96266283934E+03  0.34905948212E+04  0.33552246517E+04 0.  0.
        3    1    3    3  502    0 -0.85375233804E+03 -0.14423602688E+04  0.40713128680E+03  0.17248339325E+04  0.10100000352E+00 0.  1.
       -3    1    3    3    0  502  0.85375233804E+03  0.14423602688E+04  0.55553155254E+03  0.17657608887E+04  0.10100000352E+00 0. -1.
</event>
<event>
 5   0  0.1300176E-06  0.3193712E+04  0.7818609E-02  0.8190480E-01
       -2   -1    0    0    0  501  0.00000000000E+00  0.00000000000E+00  0.17587024028E+04  0.17587024028E+04  0.25500000920E-02 0. -1.
        2   -1    0    0  501    0  0.00000000000E+00  0.00000000000E+00 -0.14499041314E+04  0.14499041314E+04  0.25500000920E-02 0.  1.
    10030    2    1    2    0    0  0.00000000000E+00  0.00000000000E+00  0.30879827136E+03  0.32086065342E+04  0.31937124978E+04 0.  0.
        1    1    3    3  502    0  0.98543360516E+03  0.79154712261E+03  0.11348208668E+04  0.16986596591E+04  0.50400001928E-02 0. -1.
       -1    1    3    3    0  502 -0.98543360516E+03 -0.79154712261E+03 -0.82602259547E+03  0.15099468751E+04  0.50400001928E-02 0.  1.
</event>
<event>
 5   0  0.1269497E-06  0.3381757E+04  0.7818609E-02  0.8142398E-01
       -2   -1    0    0    0  501  0.00000000000E+00  0.00000000000E+00  0.23519180587E+04  0.23519180587E+04  0.25500000920E-02 0.  1.
        2   -1    0    0  501    0  0.00000000000E+00  0.00000000000E+00 -0.12156330506E+04  0.12156330506E+04  0.25500000920E-02 0. -1.
    10030    2    1    2    0    0  0.00000000000E+00  0.00000000000E+00  0.11362850081E+04  0.35675511094E+04  0.33817565404E+04 0.  0.
        5    1    3    3  502    0 -0.15642612800E+04  0.57199242769E+03  0.26065221960E+03  0.16858381770E+04  0.46999998093E+01 0. -1.
       -5    1    3    3    0  502  0.15642612800E+04 -0.57199242769E+03  0.87563278848E+03  0.18817129323E+04  0.46999998093E+01 0.  1.
</event>
<event>
 5   0  0.4289684E-07  0.3379086E+04  0.7818609E-02  0.8143058E-01
        1   -1    0    0  501    0  0.00000000000E+00  0.00000000000E+00  0.26432714355E+04  0.26432714355E+04  0.50400001928E-02 0.  1.
       -1   -1    0    0    0  501  0.00000000000E+00  0.00000000000E+00 -0.10799329041E+04  0.10799329041E+04  0.50400001928E-02 0. -1.
    10030    2    1    2    0    0  0.00000000000E+00  0.00000000000E+00  0.15633385314E+04  0.37232043397E+04  0.33790861474E+04 0.  0.
        4    1    3    3  502    0 -0.98969650723E+03 -0.10572314451E+04 -0.17719331191E+03  0.14589847798E+04  0.12699999809E+01 0.  1.
       -4    1    3    3    0  502  0.98969650723E+03  0.10572314451E+04  0.17405318433E+04  0.22642195599E+04  0.12699999809E+01 0. -1.
</event>
<event>
 5   0  0.4109937E-07  0.3533742E+04  0.7818609E-02  0.8105840E-01
       -1   -1    0    0    0  501  0.00000000000E+00  0.00000000000E+00  0.24365936366E+04  0.24365936366E+04  0.50400001928E-02 0.  1.
        1   -1    0    0  501    0  0.00000000000E+00  0.00000000000E+00 -0.12812287986E+04  0.12812287986E+04  0.50400001928E-02 0. -1.
    10030    2    1    2    0    0  0.00000000000E+00  0.00000000000E+00  0.11553648379E+04  0.37178224352E+04  0.35337424568E+04 0.  0.
        5    1    3    3  502    0 -0.91922617739E+03  0.12494255737E+04 -0.31242156232E+03  0.15822990716E+04  0.46999998093E+01 0. -1.
       -5    1    3    3    0  502  0.91922617739E+03 -0.12494255737E+04  0.14677864003E+04  0.21355233636E+04  0.46999998093E+01 0.  1.
</event>
<event>
 5   0  0.1277635E-06  0.3409343E+04  0.7818609E-02  0.8135617E-01
        2   -1    0    0  501    0  0.00000000000E+00  0.00000000000E+00  0.20635283639E+04  0.20635283639E+04  0.25500000920E-02 0.  1.
       -2   -1    0    0    0  501  0.00000000000E+00  0.00000000000E+00 -0.14082216291E+04  0.14082216291E+04  0.25500000920E-02 0. -1.
    10030    2    1    2    0    0  0.00000000000E+00  0.00000000000E+00  0.65530673482E+03  0.34717499931E+04  0.34093432062E+04 0.  0.
        4    1    3    3  502    0 -0.10646105467E+04 -0.96347440815E+03 -0.60798248210E+03  0.15592699775E+04  0.12699999809E+01 0. -1.
       -4    1    3    3    0  502  0.10646105467E+04  0.96347440815E+03  0.12632892169E+04  0.19124800155E+04  0.12699999809E+01 0.  1.
</event>
<event>
 5   0  0.4289684E-07  0.3048386E+04  0.7818609E-02  0.8230048E-01
        1   -1    0    0  501    0  0.00000000000E+00  0.00000000000E+00  0.24334024730E+04  0.24334024730E+04  0.50400001928E-02 0.  1.
       -1   -1    0    0    0  501  0.00000000000E+00  0.00000000000E+00 -0.95469765222E+03  0.95469765223E+03  0.50400001928E-02 0. -1.
    10030    2    1    2    0    0  0.00000000000E+00  0.00000000000E+00  0.14787048208E+04  0.33881001252E+04  0.30483855582E+04 0.  0.
        4    1    3    3  502    0 -0.49563394616E+03 -0.54708531658E+03 -0.74274741885E+03  0.10472013624E+04  0.12699999809E+01 0. -1.
       -4    1    3    3    0  502  0.49563394616E+03  0.54708531658E+03  0.22214522396E+04  0.23408987629E+04  0.12699999809E+01 0.  1.
</event>
<event>
 5   0  0.4464951E-07  0.3560614E+04  0.7818609E-02  0.8099573E-01
        1   -1    0    0  501    0  0.00000000000E+00  0.00000000000E+00  0.29830669822E+04  0.29830669822E+04  0.50400001928E-02 0. -1.
       -1   -1    0    0    0  501  0.00000000000E+00  0.00000000000E+00 -0.10624949439E+04  0.10624949439E+04  0.50400001928E-02 0.  1.
    10030    2    1    2    0    0  0.00000000000E+00  0.00000000000E+00  0.19205720383E+04  0.40455619261E+04  0.35606143211E+04 0.  0.
        3    1    3    3  502    0  0.42928564551E+03  0.95896012547E+03 -0.67268070571E+03  0.12475536180E+04  0.10100000352E+00 0.  1.
       -3    1    3    3    0  502 -0.42928564551E+03 -0.95896012547E+03  0.25932527441E+04  0.27980083081E+04  0.10100000352E+00 0. -1.
</event>
<event>
 5   0  0.1300176E-06  0.3280926E+04  0.7818609E-02  0.8167766E-01
        2   -1    0    0  501    0  0.00000000000E+00  0.00000000000E+00  0.18107398267E+04  0.18107398267E+04  0.25500000920E-02 0.  1.
       -2   -1    0    0    0  501  0.00000000000E+00  0.00000000000E+00 -0.14861989026E+04  0.14861989026E+04  0.25500000920E-02 0. -1.
    10030    2    1    2    0    0  0.00000000000E+00  0.00000000000E+00  0.32454092412E+03  0.32969387293E+04  0.32809264200E+04 0.  0.
        1    1    3    3  502    0  0.31193271745E+03 -0.10257727587E+04 -0.10854041293E+04  0.15256519579E+04  0.50400001928E-02 0. -1.
       -1    1    3    3    0  502 -0.31193271745E+03  0.10257727587E+04  0.14099450534E+04  0.17712867714E+04  0.50400001928E-02 0.  1.
</event>
<event>
 5   0  0.4109937E-07  0.2781428E+04  0.7818609E-02  0.8309057E-01
        1   -1    0    0  501    0  0.00000000000E+00  0.00000000000E+00  0.18663038964E+04  0.18663038964E+04  0.50400001928E-02 0. -1.
       -1   -1    0    0    0  501  0.00000000000E+00  0.00000000000E+00 -0.10363189400E+04  0.10363189400E+04  0.50400001928E-02 0.  1.
    10030    2    1    2    0    0  0.00000000000E+00  0.00000000000E+00  0.82998495646E+03  0.29026228364E+04  0.27814284644E+04 0.  0.
        5    1    3    3  502    0 -0.12150577535E+04  0.63403611740E+03  0.16870745506E+03  0.13808879165E+04  0.46999998093E+01 0.  1.
       -5    1    3    3    0  502  0.12150577535E+04 -0.63403611740E+03  0.66127750140E+03  0.15217349199E+04  0.46999998093E+01 0. -1.
</event>
<event>
 5   0  0.1277635E-06  0.3559129E+04  0.7818609E-02  0.8099918E-01
       -2   -1    0    0    0  501  0.00000000000E+00  0.00000000000E+00  0.18482821413E+04  0.18482821413E+04  0.25500000920E-02 0.  1.
        2   -1    0    0  501    0  0.00000000000E+00  0.00000000000E+00 -0.17134018752E+04  0.17134018752E+04  0.25500000920E-02 0. -1.
    10030    2    1    2    0    0  0.00000000000E+00  0.00000000000E+00  0.13488026609E+03  0.35616840166E+04  0.35591291558E+04 0.  0.
        4    1    3    3  502    0 -0.29785294336E+03  0.14651664685E+04 -0.89835332574E+03  0.17442676019E+04  0.12699999809E+01 0. -1.
       -4    1    3    3    0  502  0.29785294336E+03 -0.14651664685E+04  0.10332335918E+04  0.18174164147E+04  0.12699999809E+01 0.  1.
</event>
<event>
 5   0  0.1300176E-06  0.3400378E+04  0.7818609E-02  0.8137813E-01
       -2   -1    0    0    0  501  0.00000000000E+00  0.00000000000E+00  0.15159071339E+04  0.15159071339E+04  0.25500000920E-02 0. -1.
        2   -1    0    0  501    0  0.00000000000E+00  0.00000000000E+00 -0.19068735119E+04  0.19068735119E+04  0.25500000920E-02 0.  1.
    10030    2    1    2    0    0  0.00000000000E+00  0.00000000000E+00 -0.39096637803E+03  0.34227806458E+04  0.34003783085E+04 0.  0.
        1    1    3    3  502    0 -0.15327236676E+04  0.73439276981E+03 -0.14970191767E+03  0.17061609671E+04  0.50400001928E-02 0.  1.
       -1    1    3    3    0  502  0.15327236676E+04 -0.73439276981E+03 -0.24126446036E+03  0.17166196787E+04  0.50400001928E-02 0. -1.
</event>
<event>
 5   0  0.1256208E-06  0.3422081E+04  0.7818609E-02  0.8132508E-01
        2   -1    0    0  501    0  0.00000000000E+00  0.00000000000E+00  0.26014379643E+04  0.26014379643E+04  0.25500000920E-02 0.  1.
       -2   -1    0    0    0  501  0.00000000000E+00  0.00000000000E+00 -0.11254007992E+04  0.11254007992E+04  0.25500000920E-02 0. -1.
    10030    2    1    2    0    0  0.00000000000E+00  0.00000000000E+00  0.14760371651E+04  0.37268387635E+04  0.34220814509E+04 0.  0.
        3    1    3    3  502    0 -0.21672575932E+03  0.12733371278E+03 -0.11051832262E+04  0.11334080920E+04  0.10100000352E+00 0. -1.
       -3    1    3    3    0  502  0.21672575932E+03 -0.12733371278E+03  0.25812203913E+04  0.25934306715E+04  0.10100000352E+00 0.  1.
</event>
<event>
 5   0  0.1268230E-06  0.3355012E+04  0.7818609E-02  0.8149037E-01
        2   -1    0    0  501    0  0.00000000000E+00  0.00000000000E+00  0.23425456197E+04  0.23425456197E+04  0.25500000920E-02 0.  1.
       -2   -1    0    0    0  501  0.00000000000E+00  0.00000000000E+00 -0.12012683229E+04  0.12012683229E+04  0.25500000920E-02 0. -1.
    10030    2    1    2    0    0  0.00000000000E+00  0.00000000000E+00  0.11412772968E+04  0.35438139426E+04  0.33550116828E+04 0.  0.
        2    1    3    3  502    0 -0.13666938426E+04  0.37861833802E+03 -0.37578698126E+03  0.14671127293E+04  0.25500000920E-02 0. -1.
       -2    1    3    3    0  502  0.13666938426E+04 -0.37861833802E+03  0.15170642780E+04  0.20767012132E+04  0.25500000920E-02 0.  1.
</event>
<event>
 5   0  0.1300176E-06  0.3391470E+04  0.7818609E-02  0.8140003E-01
        2   -1    0    0  501    0  0.00000000000E+00  0.00000000000E+00  0.17418527095E+04  0.17418527095E+04  0.25500000920E-02 0.  1.
       -2   -1    0    0    0  501  0.00000000000E+00  0.00000000000E+00 -0.16508382543E+04  0.16508382543E+04  0.25500000920E-02 0. -1.
    10030    2    1    2    0    0  0.00000000000E+00  0.00000000000E+00  0.91014455202E+02  0.33926909638E+04  0.33914699387E+04 0.  0.
        1    1    3    3  502    0 -0.11049351100E+04 -0.12806657637E+04 -0.75079484852E+02  0.16931105471E+04  0.50400001928E-02 0.  1.
       -1    1    3    3    0  502  0.11049351100E+04  0.12806657637E+04  0.16609394005E+03  0.16995804167E+04  0.50400001928E-02 0. -1.
</event>
<event>
 5   0  0.1269497E-06  0.3400500E+04  0.7818609E-02  0.8137784E-01
       -2   -1    0    0    0  501  0.00000000000E+00  0.00000000000E+00  0.13472278003E+04  0.13472278003E+04  0.25500000920E-02 0. -1.
        2   -1    0    0  501    0  0.00000000000E+00  0.00000000000E+00 -0.21457770067E+04  0.21457770067E+04  0.25500000920E-02 0.  1.
    10030    2    1    2    0    0  0.00000000000E+00  0.00000000000E+00 -0.79854920643E+03  0.34930048070E+04  0.34005002201E+04 0.  0.
        5    1    3    3  502    0  0.13011811276E+04 -0.48993802026E+03 -0.14045265411E+04  0.19763168989E+04  0.46999998093E+01 0.  1.
       -5    1    3    3    0  502 -0.13011811276E+04  0.48993802026E+03  0.60597733464E+03  0.15166879081E+04  0.46999998093E+01 0. -1.
</event>
<event>
 5   0  0.1268230E-06  0.3442611E+04  0.7818609E-02  0.8127527E-01
        2   -1    0    0  501    0  0.00000000000E+00  0.00000000000E+00  0.22524159059E+04  0.22524159059E+04  0.25500000920E-02 0. -1.
       -2   -1    0    0    0  501  0.00000000000E+00  0.00000000000E+00 -0.13154288468E+04  0.13154288468E+04  0.25500000920E-02 0.  1.
    10030    2    1    2    0    0  0.00000000000E+00  0.00000000000E+00  0.93698705909E+03  0.35678447527E+04  0.34426111356E+04 0.  0.
        2    1    3    3  502    0  0.10376352142E+04  0.61138035589E+03 -0.80604860417E+03  0.14492022390E+04  0.25500000920E-02 0.  1.
       -2    1    3    3    0  502 -0.10376352142E+04 -0.61138035589E+03  0.17430356633E+04  0.21186425137E+04  0.25500000920E-02 0. -1.
</event>
<event>
 5   0  0.4464951E-07  0.3424105E+04  0.7818609E-02  0.8132015E-01
       -1   -1    0    0    0  501  0.00000000000E+00  0.00000000000E+00  0.11768163175E+04  0.11768163175E+04  0.50400001928E-02 0.  1.
        1   -1    0    0  501    0  0.00000000000E+00  0.00000000000E+00 -0.24907238170E+04  0.24907238170E+04  0.50400001928E-02 0. -1.
    10030    2    1    2    0    0  0.00000000000E+00  0.00000000000E+00 -0.13139074995E+04  0.36675401345E+04  0.34241053898E+04 0.  0.
        3    1    3    3  502    0  0.11475269472E+04  0.83346462113E+03 -0.16841120940E+04  0.22017526938E+04  0.10100000352E+00 0. -1.
       -3    1    3    3    0  502 -0.11475269472E+04 -0.83346462113E+03  0.37020459458E+03  0.14657874407E+04  0.10100000352E+00 0.  1.
</event>
<event>
 5   0  0.4272633E-07  0.3413188E+04  0.7818609E-02  0.8134677E-01
        1   -1    0    0  501    0  0.00000000000E+00  0.00000000000E+00  0.31971121607E+04  0.31971121607E+04  0.50400001928E-02 0.  1.
       -1   -1    0    0    0  501  0.00000000000E+00  0.00000000000E+00 -0.91096694728E+03  0.91096694729E+03  0.50400001928E-02 0. -1.
    10030    2    1    2    0    0  0.00000000000E+00  0.00000000000E+00  0.22861452134E+04  0.41080791080E+04  0.34131882487E+04 0.  0.
        1    1    3    3  502    0 -0.12949229974E+04 -0.67230623392E+03  0.77611792813E+02  0.14611108212E+04  0.50400001928E-02 0. -1.
       -1    1    3    3    0  502  0.12949229974E+04  0.67230623392E+03  0.22085334206E+04  0.26469682868E+04  0.50400001928E-02 0.  1.
</event>
<event>
 5   0  0.1268230E-06  0.3336969E+04  0.7818609E-02  0.8153552E-01
       -2   -1    0    0    0  501  0.00000000000E+00  0.00000000000E+00  0.14872846919E+04  0.14872846919E+04  0.25500000920E-02 0. -1.
        2   -1    0    0  501    0  0.00000000000E+00  0.00000000000E+00 -0.18717605828E+04  0.18717605828E+04  0.25500000920E-02 0.  1.
    10030    2    1    2    0    0  0.00000000000E+00  0.00000000000E+00 -0.38447589091E+03  0.33590452748E+04  0.33369692008E+04 0.  0.
        2    1    3    3  502    0 -0.27451914887E+02  0.16046234235E+04  0.26714829179E+03  0.16269413477E+04  0.25500000920E-02 0.  1.
       -2    1    3    3    0  502  0.27451914887E+02 -0.16046234235E+04 -0.65162418270E+03  0.17321039271E+04  0.25500000920E-02 0. -1.
</event>
<event>
 5   0  0.1269497E-06  0.3543938E+04  0.7818609E-02  0.8103455E-01
        2   -1    0    0  501    0  0.00000000000E+00  0.00000000000E+00  0.22878432893E+04  0.22878432893E+04  0.25500000920E-02 0.  1.
       -2   -1    0    0    0  501  0.00000000000E+00  0.00000000000E+00 -0.13724168560E+04  0.13724168560E+04  0.25500000920E-02 0. -1.
    10030    2    1    2    0    0  0.00000000000E+00  0.00000000000E+00  0.91542643325E+03  0.36602601453E+04  0.35439383144E+04 0.  0.
        5    1    3    3  502    0  0.29741356827E+03 -0.10510652686E+04  0.18987358569E+04  0.21905280125E+04  0.46999998093E+01 0.  1.
       -5    1    3    3    0  502 -0.29741356827E+03  0.10510652686E+04 -0.98330942367E+03  0.14697321328E+04  0.46999998093E+01 0. -1.
</event>
<event>
 5   0  0.1269497E-06  0.3398740E+04  0.7818609E-02  0.8138216E-01
        2   -1    0    0  501    0  0.00000000000E+00  0.00000000000E+00  0.26828461368E+04  0.26828461368E+04  0.25500000920E-02 0. -1.
       -2   -1    0    0    0  501  0.00000000000E+00  0.00000000000E+00 -0.10764158454E+04  0.10764158454E+04  0.25500000920E-02 0.  1.
    10030    2    1    2    0    0  0.00000000000E+00  0.00000000000E+00  0.16064302914E+04  0.37592619822E+04  0.33987398209E+04 0.  0.
        5    1    3    3  502    0  0.24974999381E+03  0.49909168954E+03  0.25785842468E+04  0.26382923230E+04  0.46999998093E+01 0. -1.
       -5    1    3    3    0  502 -0.24974999381E+03 -0.49909168954E+03 -0.97215395537E+03  0.11209696592E+04  0.46999998093E+01 0.  1.
</event>
<event>
 5   0  0.4289684E-07  0.3146833E+04  0.7818609E-02  0.8203001E-01
       -1   -1    0    0    0  501  0.00000000000E+00  0.00000000000E+00  0.13807792933E+04  0.13807792933E+04  0.50400001928E-02 0.  1.
        1   -1    0    0  501    0  0.00000000000E+00  0.00000000000E+00 -0.17929290084E+04  0.17929290085E+04  0.50400001928E-02 0. -1.
    10030    2    1    2    0    0  0.00000000000E+00  0.00000000000E+00 -0.41214971512E+03  0.31737083018E+04  0.31468328518E+04 0.  0.
        4    1    3    3  502    0 -0.23642410867E+03  0.66140632334E+03 -0.16260350046E+04  0.17712555244E+04  0.12699999809E+01 0. -1.
       -4    1    3    3    0  502  0.23642410867E+03 -0.66140632334E+03  0.12138852895E+04  0.14024527773E+04  0.12699999809E+01 0.  1.
</event>
<event>
 5   0  0.4060750E-07  0.3417375E+04  0.7818609E-02  0.8133655E-01
        3   -1    0    0  501    0  0.00000000000E+00  0.00000000000E+00  0.24650118591E+04  0.24650118612E+04  0.10100000352E+00 0. -1.
       -3   -1    0    0    0  501  0.00000000000E+00  0.00000000000E+00 -0.11844215747E+04  0.11844215790E+04  0.10100000352E+00 0.  1.
    10030    2    1    2    0    0  0.00000000000E+00  0.00000000000E+00  0.12805902844E+04  0.36494334401E+04  0.34173751561E+04 0.  0.
        2    1    3    3  502    0 -0.62426481147E+03 -0.14594392360E+04 -0.35060098361E+02  0.15877338092E+04  0.25500000920E-02 0.  1.
       -2    1    3    3    0  502  0.62426481147E+03  0.14594392360E+04  0.13156503828E+04  0.20616996309E+04  0.25500000920E-02 0. -1.
</event>
<event>
 5   0  0.1300176E-06  0.3396001E+04  0.7818609E-02  0.8138888E-01
       -2   -1    0    0    0  501  0.00000000000E+00  0.00000000000E+00  0.15207630734E+04  0.15207630734E+04  0.25500000920E-02 0. -1.
        2   -1    0    0  501    0  0.00000000000E+00  0.00000000000E+00 -0.18958943364E+04  0.18958943364E+04  0.25500000920E-02 0.  1.
    10030    2    1    2    0    0  0.00000000000E+00  0.00000000000E+00 -0.37513126295E+03  0.34166574098E+04  0.33960012355E+04 0.  0.
        1    1    3    3  502    0 -0.56214293310E+02 -0.98673489873E+03 -0.15766884401E+04  0.18608471845E+04  0.50400001928E-02 0.  1.
       -1    1    3    3    0  502  0.56214293310E+02  0.98673489873E+03  0.12015571771E+04  0.15558102253E+04  0.50400001928E-02 0. -1.
</event>
<event>
 5   0  0.1277635E-06  0.3397610E+04  0.7818609E-02  0.8138493E-01
        2   -1    0    0  501    0  0.00000000000E+00  0.00000000000E+00  0.23395358403E+04  0.23395358403E+04  0.25500000920E-02 0.  1.
       -2   -1    0    0    0  501  0.00000000000E+00  0.00000000000E+00 -0.12335518826E+04  0.12335518826E+04  0.25500000920E-02 0. -1.
    10030    2    1    2    0    0  0.00000000000E+00  0.00000000000E+00  0.11059839577E+04  0.35730877230E+04  0.33976102427E+04 0.  0.
        4    1    3    3  502    0  0.57523863477E+03 -0.11219213621E+03  0.22298503708E+04  0.23055847092E+04  0.12699999809E+01 0.  1.
       -4    1    3    3    0  502 -0.57523863477E+03  0.11219213621E+03 -0.11238664131E+04  0.12675030137E+04  0.12699999809E+01 0. -1.
</event>
<event>
 5   0  0.1268230E-06  0.3406021E+04  0.7818609E-02  0.8136430E-01
       -2   -1    0    0    0  501  0.00000000000E+00  0.00000000000E+00  0.13108355773E+04  0.13108355773E+04  0.25500000920E-02 0.  1.
        2   -1    0    0  501    0  0.00000000000E+00  0.00000000000E+00 -0.22125159958E+04  0.22125159958E+04  0.25500000920E-02 0. -1.
    10030    2    1    2    0    0  0.00000000000E+00  0.00000000000E+00 -0.90168041854E+03  0.35233515731E+04  0.34060209527E+04 0.  0.
        2    1    3    3  502    0  0.15464917787E+04 -0.58837744425E+03 -0.86773667202E+03  0.18683660697E+04  0.25500000920E-02 0.  1.
       -2    1    3    3    0  502 -0.15464917787E+04  0.58837744425E+03 -0.33943746519E+02  0.16549855034E+04  0.25500000920E-02 0. -1.
</event>
<event>
 5   0  0.1268230E-06  0.3410029E+04  0.7818609E-02  0.8135449E-01
       -2   -1    0    0    0  501  0.00000000000E+00  0.00000000000E+00  0.87123667473E+03  0.87123667473E+03  0.25500000920E-02 0.  1.
        2   -1    0    0  501    0  0.00000000000E+00  0.00000000000E+00 -0.33367213024E+04  0.33367213024E+04  0.25500000920E-02 0. -1.
    10030    2    1    2    0    0  0.00000000000E+00  0.00000000000E+00 -0.24654846277E+04  0.42079579772E+04  0.34100287225E+04 0.  0.
        2    1    3    3  502    0  0.13032921440E+04 -0.94250845016E+03 -0.19309930362E+04  0.25130910642E+04  0.25500000920E-02 0. -1.
       -2    1    3    3    0  502 -0.13032921440E+04  0.94250845016E+03 -0.53449159147E+03  0.16948669129E+04  0.25500000920E-02 0.  1.
</event>
<event>
 5   0  0.4125758E-07  0.3365026E+04  0.7818609E-02  0.8146544E-01
       -1   -1    0    0    0  501  0.00000000000E+00  0.00000000000E+00  0.14565100952E+04  0.14565100952E+04  0.50400001928E-02 0.  1.
        1   -1    0    0  501    0  0.00000000000E+00  0.00000000000E+00 -0.19435842295E+04  0.19435842295E+04  0.50400001928E-02 0. -1.
    10030    2    1    2    0    0  0.00000000000E+00  0.00000000000E+00 -0.48707413438E+03  0.34000943247E+04  0.33650260333E+04 0.  0.
        2    1    3    3  502    0 -0.12942833796E+03 -0.16058701178E+04 -0.73364823730E+03  0.17702571186E+04  0.25500000920E-02 0. -1.
       -2    1    3    3    0  502  0.12942833796E+03  0.16058701178E+04  0.24657410292E+03  0.16298372061E+04  0.25500000920E-02 0.  1.
</event>
<event>
 5   0  0.4464951E-07  0.3382038E+04  0.7818609E-02  0.8142329E-01
       -1   -1    0    0    0  501  0.00000000000E+00  0.00000000000E+00  0.24296239798E+04  0.24296239798E+04  0.50400001928E-02 0. -1.
        1   -1    0    0  501    0  0.00000000000E+00  0.00000000000E+00 -0.11769496809E+04  0.11769496809E+04  0.50400001928E-02 0.  1.
    10030    2    1    2    0    0  0.00000000000E+00  0.00000000000E+00  0.12526742989E+04  0.36065736607E+04  0.33820379464E+04 0.  0.
        3    1    3    3  502    0 -0.98070937912E+03 -0.13764379765E+04  0.68640408692E+03  0.18241499309E+04  0.10100000352E+00 0.  1.
       -3    1    3    3    0  502  0.98070937912E+03  0.13764379765E+04  0.56627021198E+03  0.17824237298E+04  0.10100000352E+00 0. -1.
</event>
<event>
 5   0  0.1269497E-06  0.3341132E+04  0.7818609E-02  0.8152507E-01
       -2   -1    0    0    0  501  0.00000000000E+00  0.00000000000E+00  0.16279292091E+04  0.16279292091E+04  0.25500000920E-02 0.  1.
        2   -1    0    0  501    0  0.00000000000E+00  0.00000000000E+00 -0.17143197769E+04  0.17143197769E+04  0.25500000920E-02 0. -1.
    10030    2    1    2    0    0  0.00000000000E+00  0.00000000000E+00 -0.86390567775E+02  0.33422489860E+04  0.33411322863E+04 0.  0.
        5    1    3    3  502    0  0.10831740843E+04 -0.11469377122E+04  0.50656727220E+03  0.16569142114E+04  0.46999998093E+01 0.  1.
       -5    1    3    3    0  502 -0.10831740843E+04  0.11469377122E+04 -0.59295783997E+03  0.16853347746E+04  0.46999998093E+01 0. -1.
</event>
<event>
 5   0  0.1300176E-06  0.3396067E+04  0.7818609E-02  0.8138872E-01
        2   -1    0    0  501    0  0.00000000000E+00  0.00000000000E+00  0.19793545442E+04  0.19793545442E+04  0.25500000920E-02 0.  1.
       -2   -1    0    0    0  501  0.00000000000E+00  0.00000000000E+00 -0.14566955662E+04  0.14566955662E+04  0.25500000920E-02 0. -1.
    10030    2    1    2    0    0  0.00000000000E+00  0.00000000000E+00  0.52265897801E+03  0.34360501104E+04  0.33960665415E+04 0.  0.
        1    1    3    3  502    0  0.14588709028E+04 -0.85538265019E+03  0.41587999938E+03  0.17415337961E+04  0.50400001928E-02 0. -1.
       -1    1    3    3    0  502 -0.14588709028E+04  0.85538265019E+03  0.10677897864E+03  0.16945163143E+04  0.50400001928E-02 0.  1.
</event>
<event>
 5   0  0.4289684E-07  0.3397991E+04  0.7818609E-02  0.8138400E-01
       -1   -1    0    0    0  501  0.00000000000E+00  0.00000000000E+00  0.15687871231E+04  0.15687871231E+04  0.50400001928E-02 0.  1.
        1   -1    0    0  501    0  0.00000000000E+00  0.00000000000E+00 -0.18400106343E+04  0.18400106343E+04  0.50400001928E-02 0. -1.
    10030    2    1    2    0    0  0.00000000000E+00  0.00000000000E+00 -0.27122351118E+03  0.34087977574E+04  0.33979905765E+04 0.  0.
        4    1    3    3  502    0 -0.78906886002E+03  0.15861982943E+03 -0.16366303774E+04  0.18238285340E+04  0.12699999809E+01 0. -1.
       -4    1    3    3    0  502  0.78906886002E+03 -0.15861982943E+03  0.13654068662E+04  0.15849692235E+04  0.12699999809E+01 0.  1.
</event>
<event>
 5   0  0.4464951E-07  0.3367928E+04  0.7818609E-02  0.8145823E-01
        1   -1    0    0  501    0  0.00000000000E+00  0.00000000000E+00  0.12029929485E+04  0.12029929485E+04  0.50400001928E-02 0.  1.
       -1   -1    0    0    0  501  0.00000000000E+00  0.00000000000E+00 -0.23572332226E+04  0.23572332226E+04  0.50400001928E-02 0. -1.
    10030    2    1    2    0    0  0.00000000000E+00  0.00000000000E+00 -0.11542402740E+04  0.35602261711E+04  0.33679281137E+04 0.  0.
        3    1    3    3  502    0  0.77779526628E+03 -0.14934191899E+04 -0.60000284474E+03  0.17875317555E+04  0.10100000352E+00 0.  1.
       -3    1    3    3    0  502 -0.77779526628E+03  0.14934191899E+04 -0.55423742930E+03  0.17726944156E+04  0.10100000352E+00 0. -1.
</event>
<event>
 5   0  0.1269497E-06  0.3403463E+04  0.7818609E-02  0.8137057E-01
        2   -1    0    0  501    0  0.00000000000E+00  0.00000000000E+00  0.18246576413E+04  0.18246576413E+04  0.25500000920E-02 0.  1.
       -2   -1    0    0    0  501  0.00000000000E+00  0.00000000000E+00 -0.15870868340E+04  0.15870868340E+04  0.25500000920E-02 0. -1.
    10030    2    1    2    0    0  0.00000000000E+00  0.00000000000E+00  0.23757080729E+03  0.34117444752E+04  0.34034630123E+04 0.  0.
        5    1    3    3  502    0 -0.22614903653E+03  0.16684546220E+04  0.36633530763E+03  0.17231099384E+04  0.46999998093E+01 0.  1.
       -5    1    3    3    0  502  0.22614903653E+03 -0.16684546220E+04 -0.12876450034E+03  0.16886345368E+04  0.46999998093E+01 0. -1.
</event>
<event>
 5   0  0.1269497E-06  0.2742554E+04  0.7818609E-02  0.8321328E-01
       -2   -1    0    0    0  501  0.00000000000E+00  0.00000000000E+00  0.14844967117E+04  0.14844967117E+04  0.25500000920E-02 0.  1.
        2   -1    0    0  501    0  0.00000000000E+00  0.00000000000E+00 -0.12666926437E+04  0.12666926437E+04  0.25500000920E-02 0. -1.
    10030    2    1    2    0    0  0.00000000000E+00  0.00000000000E+00  0.21780406803E+03  0.27511893553E+04  0.27425543307E+04 0.  0.
        5    1    3    3  502    0 -0.26790219582E+03 -0.13358697653E+04 -0.46697129743E+02  0.13632763213E+04  0.46999998093E+01 0. -1.
       -5    1    3    3    0  502  0.26790219582E+03  0.13358697653E+04  0.26450119777E+03  0.13879130340E+04  0.46999998093E+01 0.  1.
</event>
<event>
 5   0  0.1268230E-06  0.3320290E+04  0.7818609E-02  0.8157752E-01
        2   -1    0    0  501    0  0.00000000000E+00  0.00000000000E+00  0.24998908166E+04  0.24998908166E+04  0.25500000920E-02 0. -1.
       -2   -1    0    0    0  501  0.00000000000E+00  0.00000000000E+00 -0.11024810464E+04  0.11024810464E+04  0.25500000920E-02 0.  1.
    10030    2    1    2    0    0  0.00000000000E+00  0.00000000000E+00  0.13974097703E+04  0.36023718630E+04  0.33202904953E+04 0.  0.
        2    1    3    3  502    0 -0.53060253790E+03 -0.11869124151E+04  0.18187787723E+04  0.22356780531E+04  0.25500000920E-02 0. -1.
       -2    1    3    3    0  502  0.53060253790E+03  0.11869124151E+04 -0.42136900207E+03  0.13666938100E+04  0.25500000920E-02 0.  1.
</event>
<event>
 5   0  0.1277635E-06  0.3394084E+04  0.7818609E-02  0.8139360E-01
       -2   -1    0    0    0  501  0.00000000000E+00  0.00000000000E+00  0.97445316427E+03  0.97445316427E+03  0.25500000920E-02 0.  1.
        2   -1    0    0  501    0  0.00000000000E+00  0.00000000000E+00 -0.29554545480E+04  0.29554545480E+04  0.25500000920E-02 0. -1.
    10030    2    1    2    0    0  0.00000000000E+00  0.00000000000E+00 -0.19810013837E+04  0.39299077123E+04  0.33940842866E+04 0.  0.
        4    1    3    3  502    0 -0.63079432486E+03  0.15674728658E+04 -0.11738604733E+04  0.20573824848E+04  0.12699999809E+01 0. -1.
       -4    1    3    3    0  502  0.63079432486E+03 -0.15674728658E+04 -0.80714091042E+03  0.18725252274E+04  0.12699999809E+01 0.  1.
</event>
<event>
 5   0  0.4272633E-07  0.2849876E+04  0.7818609E-02  0.8287949E-01
       -1   -1    0    0    0  501  0.00000000000E+00  0.00000000000E+00  0.15458177661E+04  0.15458177661E+04  0.50400001928E-02 0.  1.
        1   -1    0    0  501    0  0.00000000000E+00  0.00000000000E+00 -0.13135105350E+04  0.13135105351E+04  0.50400001928E-02 0. -1.
    10030    2    1    2    0    0  0.00000000000E+00  0.00000000000E+00  0.23230723105E+03  0.28593283012E+04  0.28498757314E+04 0.  0.
        1    1    3    3  502    0 -0.35723541547E+03  0.95220042812E+03 -0.88522752182E+03  0.13483065537E+04  0.50400001928E-02 0. -1.
       -1    1    3    3    0  502  0.35723541547E+03 -0.95220042812E+03  0.11175347529E+04  0.15110217474E+04  0.50400001928E-02 0.  1.
</event>
<event>
 5   0  0.4272633E-07  0.3412668E+04  0.7818609E-02  0.8134804E-01
       -1   -1    0    0    0  501  0.00000000000E+00  0.00000000000E+00  0.16229873614E+04  0.16229873614E+04  0.50400001928E-02 0.  1.
        1   -1    0    0  501    0  0.00000000000E+00  0.00000000000E+00 -0.17939611987E+04  0.17939611987E+04  0.50400001928E-02 0. -1.
    10030    2    1    2    0    0  0.00000000000E+00  0.00000000000E+00 -0.17097383731E+03  0.34169485602E+04  0.34126683709E+04 0.  0.
        1    1    3    3  502    0  0.66550354769E+03 -0.86027723195E+02  0.14853276436E+04  0.16298754400E+04  0.50400001928E-02 0.  1.
       -1    1    3    3    0  502 -0.66550354769E+03  0.86027723195E+02 -0.16563014809E+04  0.17870731202E+04  0.50400001928E-02 0. -1.
</event>
<event>
 5   0  0.4109937E-07  0.3402796E+04  0.7818609E-02  0.8137220E-01
       -1   -1    0    0    0  501  0.00000000000E+00  0.00000000000E+00  0.10355835415E+04  0.10355835415E+04  0.50400001928E-02 0.  1.
        1   -1    0    0  501    0  0.00000000000E+00  0.00000000000E+00 -0.27952887822E+04  0.27952887822E+04  0.50400001928E-02 0. -1.
    10030    2    1    2    0    0  0.00000000000E+00  0.00000000000E+00 -0.17597052407E+04  0.38308723237E+04  0.34027959425E+04 0.  0.
        5    1    3    3  502    0 -0.86013358110E+02 -0.13001539117E+04 -0.21115299835E+04  0.24812052420E+04  0.46999998093E+01 0. -1.
       -5    1    3    3    0  502  0.86013358110E+02  0.13001539117E+04  0.35182474276E+03  0.13496670817E+04  0.46999998093E+01 0.  1.
</event>
<event>
 5   0  0.1300176E-06  0.3402127E+04  0.7818609E-02  0.8137385E-01
        2   -1    0    0  501    0  0.00000000000E+00  0.00000000000E+00  0.18254514065E+04  0.18254514065E+04  0.25500000920E-02 0. -1.
       -2   -1    0    0    0  501  0.00000000000E+00  0.00000000000E+00 -0.15851510983E+04  0.15851510983E+04  0.25500000920E-02 0.  1.
    10030    2    1    2    0    0  0.00000000000E+00  0.00000000000E+00  0.24030030826E+03  0.34106025048E+04  0.34021265714E+04 0.  0.
        1    1    3    3  502    0 -0.13871318271E+04  0.96429598499E+03 -0.79380508260E+02  0.16912429505E+04  0.50400001928E-02 0.  1.
       -1    1    3    3    0  502  0.13871318271E+04 -0.96429598499E+03  0.31968081652E+03  0.17193595543E+04  0.50400001928E-02 0. -1.
</event>
<event>
 5   0  0.1277635E-06  0.3383800E+04  0.7818609E-02  0.8141894E-01
        2   -1    0    0  501    0  0.00000000000E+00  0.00000000000E+00  0.24752730359E+04  0.24752730359E+04  0.25500000920E-02 0. -1.
       -2   -1    0    0    0  501  0.00000000000E+00  0.00000000000E+00 -0.11564482299E+04  0.11564482299E+04  0.25500000920E-02 0.  1.
    10030    2    1    2    0    0  0.00000000000E+00  0.00000000000E+00  0.13188248059E+04  0.36317212658E+04  0.33837997110E+04 0.  0.
        4    1    3    3  502    0 -0.11399831274E+04  0.32802963930E+03  0.19541830893E+04  0.22860442109E+04  0.12699999809E+01 0. -1.
       -4    1    3    3    0  502  0.11399831274E+04 -0.32802963930E+03 -0.63535828337E+03  0.13456770549E+04  0.12699999809E+01 0.  1.
</event>
<event>
 5   0  0.4289684E-07  0.3320247E+04  0.7818609E-02  0.8157763E-01
       -1   -1    0    0    0  501  0.00000000000E+00  0.00000000000E+00  0.13767749569E+04  0.13767749569E+04  0.50400001928E-02 0. -1.
        1   -1    0    0  501    0  0.00000000000E+00  0.00000000000E+00 -0.20017863636E+04  0.20017863636E+04  0.50400001928E-02 0.  1.
    10030    2    1    2    0    0  0.00000000000E+00  0.00000000000E+00 -0.62501140670E+03  0.33785613205E+04  0.33202465778E+04 0.  0.
        4    1    3    3  502    0  0.14439752191E+03  0.10269887843E+04  0.10065842404E+04  0.14452577809E+04  0.12699999809E+01 0. -1.
       -4    1    3    3    0  502 -0.14439752191E+03 -0.10269887843E+04 -0.16315956471E+04  0.19333035395E+04  0.12699999809E+01 0.  1.
</event>
<event>
 5   0  0.4109937E-07  0.3429067E+04  0.7818609E-02  0.8130809E-01
       -1   -1    0    0    0  501  0.00000000000E+00  0.00000000000E+00  0.13022951806E+04  0.13022951806E+04  0.50400001928E-02 0.  1.
        1   -1    0    0  501    0  0.00000000000E+00  0.00000000000E+00 -0.22572647630E+04  0.22572647630E+04  0.50400001928E-02 0. -1.
    10030    2    1    2    0    0  0.00000000000E+00  0.00000000000E+00 -0.95496958237E+03  0.35595599436E+04  0.34290669414E+04 0.  0.
        5    1    3    3  502    0  0.43943582725E+03  0.15134973211E+04  0.22335603283E+03  0.15917562611E+04  0.46999998093E+01 0.  1.
       -5    1    3    3    0  502 -0.43943582725E+03 -0.15134973211E+04 -0.11783256152E+04  0.19678036825E+04  0.46999998093E+01 0. -1.
</event>
<event>
 5   0  0.1300176E-06  0.3391546E+04  0.7818609E-02  0.8139984E-01
        2   -1    0    0  501    0  0.00000000000E+00  0.00000000000E+00  0.16556357903E+04  0.16556357903E+04  0.25500000920E-02 0.  1.
       -2   -1    0    0    0  501  0.00000000000E+00  0.00000000000E+00 -0.17368828758E+04  0.17368828758E+04  0.25500000920E-02 0. -1.
    10030    2    1    2    0    0  0.00000000000E+00  0.00000000000E+00 -0.81247085509E+02  0.33925186661E+04  0.33915456375E+04 0.  0.
        1    1    3    3  502    0 -0.53548362864E+03 -0.24907465191E+03  0.15494439615E+04  0.16581789676E+04  0.50400001928E-02 0.  1.
       -1    1    3    3    0  502  0.53548362864E+03  0.24907465191E+03 -0.16306910470E+04  0.17343396985E+04  0.50400001928E-02 0. -1.
</event>
<event>
 5   0  0.4464951E-07  0.3384781E+04  0.7818609E-02  0.8141652E-01
       -1   -1    0    0    0  501  0.00000000000E+00  0.00000000000E+00  0.14685094299E+04  0.14685094299E+04  0.50400001928E-02 0. -1.
        1   -1    0    0  501    0  0.00000000000E+00  0.00000000000E+00 -0.19504027833E+04  0.19504027834E+04  0.50400001928E-02 0.  1.
    10030    2    1    2    0    0  0.00000000000E+00  0.00000000000E+00 -0.48189335344E+03  0.34189122133E+04  0.33847805716E+04 0.  0.
        3    1    3    3  502    0  0.87799039832E+03  0.67980663164E+03  0.10491090284E+04  0.15276236315E+04  0.10100000352E+00 0. -1.
       -3    1    3    3    0  502 -0.87799039832E+03 -0.67980663164E+03 -0.15310023818E+04  0.18912885817E+04  0.10100000352E+00 0.  1.
</event>
<event>
 5   0  0.1268230E-06  0.3395068E+04  0.7818609E-02  0.8139118E-01
       -2   -1    0    0    0  501  0.00000000000E+00  0.00000000000E+00  0.10300974739E+04  0.10300974739E+04  0.25500000920E-02 0. -1.
        2   -1    0    0  501    0  0.00000000000E+00  0.00000000000E+00 -0.27974268327E+04  0.27974268327E+04  0.25500000920E-02 0.  1.
    10030    2    1    2    0    0  0.00000000000E+00  0.00000000000E+00 -0.17673293588E+04  0.38275243065E+04  0.33950683726E+04 0.  0.
        2    1    3    3  502    0 -0.30773456048E+03  0.63946650740E+02  0.99700694542E+03  0.10453767661E+04  0.25500000920E-02 0. -1.
       -2    1    3    3    0  502  0.30773456048E+03 -0.63946650740E+02 -0.27643363042E+04  0.27821475405E+04  0.25500000920E-02 0.  1.
</event>
<event>
 5   0  0.1268230E-06  0.3381378E+04  0.7818609E-02  0.8142492E-01
        2   -1    0    0  501    0  0.00000000000E+00  0.00000000000E+00  0.28421992007E+04  0.28421992007E+04  0.25500000920E-02 0. -1.
       -2   -1    0    0    0  501  0.00000000000E+00  0.00000000000E+00 -0.10057105848E+04  0.10057105848E+04  0.25500000920E-02 0.  1.
    10030    2    1    2    0    0  0.00000000000E+00  0.00000000000E+00  0.18364886159E+04  0.38479097854E+04  0.33813783107E+04 0.  0.
        2    1    3    3  502    0  0.82133015499E+03 -0.52203631217E+03  0.24914965279E+04  0.26748196357E+04  0.25500000920E-02 0. -1.
       -2    1    3    3    0  502 -0.82133015499E+03  0.52203631217E+03 -0.65500791199E+03  0.11730901498E+04  0.25500000920E-02 0.  1.
</event>
<event>
 5   0  0.1277635E-06  0.3410133E+04  0.7818609E-02  0.8135424E-01
       -2   -1    0    0    0  501  0.00000000000E+00  0.00000000000E+00  0.29669574732E+04  0.29669574732E+04  0.25500000920E-02 0. -1.
        2   -1    0    0  501    0  0.00000000000E+00  0.00000000000E+00 -0.97987670783E+03  0.97987670783E+03  0.25500000920E-02 0.  1.
    10030    2    1    2    0    0  0.00000000000E+00  0.00000000000E+00  0.19870807654E+04  0.39468341810E+04  0.34101334408E+04 0.  0.
        4    1    3    3  502    0 -0.45017366978E+03 -0.55822231546E+03  0.27839288072E+04  0.28748095073E+04  0.12699999809E+01 0. -1.
       -4    1    3    3    0  502  0.45017366978E+03  0.55822231546E+03 -0.79684804186E+03  0.10720246738E+04  0.12699999809E+01 0.  1.
</event>
<event>
 5   0  0.1269497E-06  0.3372799E+04  0.7818609E-02  0.8144615E-01
       -2   -1    0    0    0  501  0.00000000000E+00  0.00000000000E+00  0.12348750750E+04  0.12348750751E+04  0.25500000920E-02 0. -1.
        2   -1    0    0  501    0  0.00000000000E+00  0.00000000000E+00 -0.23030210117E+04  0.23030210117E+04  0.25500000920E-02 0.  1.
    10030    2    1    2    0    0  0.00000000000E+00  0.00000000000E+00 -0.10681459366E+04  0.35378960867E+04  0.33727989828E+04 0.  0.
        5    1    3    3  502    0  0.14574690955E+04 -0.53724799968E+03 -0.12227701432E+04  0.19768764480E+04  0.46999998093E+01 0.  1.
       -5    1    3    3    0  502 -0.14574690955E+04  0.53724799968E+03  0.15462420656E+03  0.15610196388E+04  0.46999998093E+01 0. -1.
</event>
<event>
 5   0  0.1300176E-06  0.3413076E+04  0.7818609E-02  0.8134704E-01
        2   -1    0    0  501    0  0.00000000000E+00  0.00000000000E+00  0.22757642320E+04  0.22757642320E+04  0.25500000920E-02 0.  1.
       -2   -1    0    0    0  501  0.00000000000E+00  0.00000000000E+00 -0.12796897902E+04  0.12796897902E+04  0.25500000920E-02 0. -1.
    10030    2    1    2    0    0  0.00000000000E+00  0.00000000000E+00  0.99607444171E+03  0.35554540222E+04  0.34130761800E+04 0.  0.
        1    1    3    3  502    0 -0.15737096947E+04  0.24429772452E+03 -0.14075492109E+03  0.15987668777E+04  0.50400001928E-02 0. -1.
       -1    1    3    3    0  502  0.15737096947E+04 -0.24429772452E+03  0.11368293628E+04  0.19566871445E+04  0.50400001928E-02 0.  1.
</event>
<event>
 5   0  0.1269497E-06  0.3030432E+04  0.7818609E-02  0.8235094E-01
        2   -1    0    0  501    0  0.00000000000E+00  0.00000000000E+00  0.15482048158E+04  0.15482048158E+04  0.25500000920E-02 0.  1.
       -2   -1    0    0    0  501  0.00000000000E+00  0.00000000000E+00 -0.14829303437E+04  0.14829303437E+04  0.25500000920E-02 0. -1.
    10030    2    1    2    0    0  0.00000000000E+00  0.00000000000E+00  0.65274472142E+02  0.30311351595E+04  0.30304322461E+04 0.  0.
        5    1    3    3  502    0 -0.10704823939E+04 -0.10627702715E+04 -0.11038055780E+03  0.15124877399E+04  0.46999998093E+01 0. -1.
       -5    1    3    3    0  502  0.10704823939E+04  0.10627702715E+04  0.17565502994E+03  0.15186474196E+04  0.46999998093E+01 0.  1.
</event>
<event>
 5   0  0.4289684E-07  0.3441541E+04  0.7818609E-02  0.8127785E-01
        1   -1    0    0  501    0  0.00000000000E+00  0.00000000000E+00  0.11228779821E+04  0.11228779821E+04  0.50400001928E-02 0.  1.
       -1   -1    0    0    0  501  0.00000000000E+00  0.00000000000E+00 -0.26370193091E+04  0.26370193091E+04  0.50400001928E-02 0. -1.
    10030    2    1    2    0    0  0.00000000000E+00  0.00000000000E+00 -0.15141413270E+04  0.37598972912E+04  0.34415408877E+04 0.  0.
        4    1    3    3  502    0  0.11031913411E+04 -0.13104768751E+04 -0.57865926165E+03  0.18081009179E+04  0.12699999809E+01 0. -1.
       -4    1    3    3    0  502 -0.11031913411E+04  0.13104768751E+04 -0.93548206539E+03  0.19517963733E+04  0.12699999809E+01 0.  1.
</event>
<event>
 5   0  0.4109937E-07  0.3499955E+04  0.7818609E-02  0.8113801E-01
       -1   -1    0    0    0  501  0.00000000000E+00  0.00000000000E+00  0.20965865876E+04  0.20965865876E+04  0.50400001928E-02 0. -1.
        1   -1    0    0  501    0  0.00000000000E+00  0.00000000000E+00 -0.14606697406E+04  0.14606697406E+04  0.50400001928E-02 0.  1.
    10030    2    1    2    0    0  0.00000000000E+00  0.00000000000E+00  0.63591684700E+03  0.35572563283E+04  0.34999546210E+04 0.  0.
        5    1    3    3  502    0 -0.17035495424E+03 -0.81541324105E+03 -0.12462243917E+04  0.14990052997E+04  0.46999998093E+01 0.  1.
       -5    1    3    3    0  502  0.17035495424E+03  0.81541324105E+03  0.18821412387E+04  0.20582510286E+04  0.46999998093E+01 0. -1.
</event>
<event>
 5   0  0.1277635E-06  0.3383497E+04  0.7818609E-02  0.8141969E-01
       -2   -1    0    0    0  501  0.00000000000E+00  0.00000000000E+00  0.12926146186E+04  0.12926146186E+04  0.25500000920E-02 0. -1.
        2   -1    0    0  501    0  0.00000000000E+00  0.00000000000E+00 -0.22141266088E+04  0.22141266088E+04  0.25500000920E-02 0.  1.
    10030    2    1    2    0    0  0.00000000000E+00  0.00000000000E+00 -0.92151199018E+03  0.35067412274E+04  0.33834966659E+04 0.  0.
        4    1    3    3  502    0  0.48839054424E+03 -0.16777596809E+02 -0.21393822021E+04  0.21944850492E+04  0.12699999809E+01 0.  1.
       -4    1    3    3    0  502 -0.48839054424E+03  0.16777596809E+02  0.12178702119E+04  0.13122561783E+04  0.12699999809E+01 0. -1.
</event>
<event>
 5   0  0.1268230E-06  0.3397857E+04  0.7818609E-02  0.8138433E-01
        2   -1    0    0  501    0  0.00000000000E+00  0.00000000000E+00  0.21934339020E+04  0.21934339020E+04  0.25500000920E-02 0.  1.
       -2   -1    0    0    0  501  0.00000000000E+00  0.00000000000E+00 -0.13159081562E+04  0.13159081562E+04  0.25500000920E-02 0. -1.
    10030    2    1    2    0    0  0.00000000000E+00  0.00000000000E+00  0.87752574584E+03  0.35093420582E+04  0.33978567137E+04 0.  0.
        2    1    3    3  502    0  0.23463469260E+03  0.10157745234E+04 -0.94670774149E+03  0.14082282731E+04  0.25500000920E-02 0. -1.
       -2    1    3    3    0  502 -0.23463469260E+03 -0.10157745234E+04  0.18242334873E+04  0.21011137851E+04  0.25500000920E-02 0.  1.
</event>
<event>
 5   0  0.4109937E-07  0.3406977E+04  0.7818609E-02  0.8136196E-01
       -1   -1    0    0    0  501  0.00000000000E+00  0.00000000000E+00  0.18887664358E+04  0.18887664358E+04  0.50400001928E-02 0. -1.
        1   -1    0    0  501    0  0.00000000000E+00  0.00000000000E+00 -0.15363850688E+04  0.15363850688E+04  0.50400001928E-02 0.  1.
    10030    2    1    2    0    0  0.00000000000E+00  0.00000000000E+00  0.35238136700E+03  0.34251515046E+04  0.34069766952E+04 0.  0.
        5    1    3    3  502    0 -0.16163831878E+04  0.53287913916E+03  0.10372514045E+03  0.17051204595E+04  0.46999998093E+01 0.  1.
       -5    1    3    3    0  502  0.16163831878E+04 -0.53287913916E+03  0.24865622656E+03  0.17200310450E+04  0.46999998093E+01 0. -1.
</event>
<event>
 5   0  0.4289684E-07  0.3339682E+04  0.7818609E-02  0.8152871E-01
       -1   -1    0    0    0  501  0.00000000000E+00  0.00000000000E+00  0.10219014591E+04  0.10219014591E+04  0.50400001928E-02 0.  1.
        1   -1    0    0  501    0  0.00000000000E+00  0.00000000000E+00 -0.27286083223E+04  0.27286083223E+04  0.50400001928E-02 0. -1.
    10030    2    1    2    0    0  0.00000000000E+00  0.00000000000E+00 -0.17067068633E+04  0.37505097814E+04  0.33396819165E+04 0.  0.
        4    1    3    3  502    0 -0.12648084389E+01 -0.16255324187E+04 -0.12824711548E+04  0.20705291883E+04  0.12699999809E+01 0. -1.
       -4    1    3    3    0  502  0.12648084389E+01  0.16255324187E+04 -0.42423570852E+03  0.16799805931E+04  0.12699999809E+01 0.  1.
</event>
<event>
 5   0  0.1269497E-06  0.3307475E+04  0.7818609E-02  0.8160996E-01
       -2   -1    0    0    0  501  0.00000000000E+00  0.00000000000E+00  0.23010969170E+04  0.23010969170E+04  0.25500000920E-02 0. -1.
        2   -1    0    0  501    0  0.00000000000E+00  0.00000000000E+00 -0.11884973187E+04  0.11884973187E+04  0.25500000920E-02 0.  1.
    10030    2    1    2    0    0  0.00000000000E+00  0.00000000000E+00  0.11125995983E+04  0.34895942357E+04  0.33074748773E+04 0.  0.
        5    1    3    3  502    0 -0.14121581882E+04  0.17204795109E+03 -0.33335928126E+03  0.14611439855E+04  0.46999998093E+01 0.  1.
       -5    1    3    3    0  502  0.14121581882E+04 -0.17204795109E+03  0.14459588795E+04  0.20284502502E+04  0.46999998093E+01 0. -1.
</event>
<event>
 5   0  0.4125758E-07  0.3431645E+04  0.7818609E-02  0.8130183E-01
        1   -1    0    0  501    0  0.00000000000E+00  0.00000000000E+00  0.20337617639E+04  0.20337617639E+04  0.50400001928E-02 0. -1.
       -1   -1    0    0    0  501  0.00000000000E+00  0.00000000000E+00 -0.14475868034E+04  0.14475868034E+04  0.50400001928E-02 0.  1.
    10030    2    1    2    0    0  0.00000000000E+00  0.00000000000E+00  0.58617496047E+03  0.34813485674E+04  0.34316449063E+04 0.  0.
        2    1    3    3  502    0 -0.10036430059E+04 -0.29178847250E+03 -0.10873589600E+04  0.15082404662E+04  0.25500000920E-02 0.  1.
       -2    1    3    3    0  502  0.10036430059E+04  0.29178847250E+03  0.16735339205E+04  0.19731081012E+04  0.25500000920E-02 0. -1.
</event>
<event>
 5   0  0.4464951E-07  0.3538322E+04  0.7818609E-02  0.8104768E-01
        1   -1    0    0  501    0  0.00000000000E+00  0.00000000000E+00  0.12532893368E+04  0.12532893368E+04  0.50400001928E-02 0. -1.
       -1   -1    0    0    0  501  0.00000000000E+00  0.00000000000E+00 -0.24973723159E+04  0.24973723159E+04  0.50400001928E-02 0.  1.
    10030    2    1    2    0    0  0.00000000000E+00  0.00000000000E+00 -0.12440829790E+04  0.37506616527E+04  0.35383216889E+04 0.  0.
        3    1    3    3  502    0 -0.20711603446E+02  0.29062217877E+03  0.12276830781E+04  0.12617828544E+04  0.10100000352E+00 0. -1.
       -3    1    3    3    0  502  0.20711603446E+02 -0.29062217877E+03 -0.24717660571E+04  0.24888787983E+04  0.10100000352E+00 0.  1.
</event>
<event>
 5   0  0.4272633E-07  0.3400652E+04  0.7818609E-02  0.8137746E-01
        1   -1    0    0  501    0  0.00000000000E+00  0.00000000000E+00  0.16837889842E+04  0.16837889842E+04  0.50400001928E-02 0. -1.
       -1   -1    0    0    0  501  0.00000000000E+00  0.00000000000E+00 -0.17170252183E+04  0.17170252183E+04  0.50400001928E-02 0.  1.
    10030    2    1    2    0    0  0.00000000000E+00  0.00000000000E+00 -0.33236234160E+02  0.34008142025E+04  0.34006517894E+04 0.  0.
        1    1    3    3  502    0  0.11719055255E+04 -0.43555009462E+03  0.11358438383E+04  0.16891440645E+04  0.50400001928E-02 0. -1.
       -1    1    3    3    0  502 -0.11719055255E+04  0.43555009462E+03 -0.11690800725E+04  0.17116701380E+04  0.50400001928E-02 0.  1.
</event>
<event>
 5   0  0.1300176E-06  0.3398032E+04  0.7818609E-02  0.8138389E-01
       -2   -1    0    0    0  501  0.00000000000E+00  0.00000000000E+00  0.11073186785E+04  0.11073186785E+04  0.25500000920E-02 0.  1.
        2   -1    0    0  501    0  0.00000000000E+00  0.00000000000E+00 -0.26068883351E+04  0.26068883351E+04  0.25500000920E-02 0. -1.
    10030    2    1    2    0    0  0.00000000000E+00  0.00000000000E+00 -0.14995696566E+04  0.37142070136E+04  0.33980324579E+04 0.  0.
        1    1    3    3  502    0  0.12790784599E+04  0.50993301190E+03  0.33810262030E+03  0.14178810828E+04  0.50400001928E-02 0.  1.
       -1    1    3    3    0  502 -0.12790784599E+04 -0.50993301190E+03 -0.18376722769E+04  0.22963259308E+04  0.50400001928E-02 0. -1.
</event>
<event>
 5   0  0.1256208E-06  0.3216646E+04  0.7818609E-02  0.8184435E-01
        2   -1    0    0  501    0  0.00000000000E+00  0.00000000000E+00  0.18647713243E+04  0.18647713243E+04  0.25500000920E-02 0. -1.
       -2   -1    0    0    0  501  0.00000000000E+00  0.00000000000E+00 -0.13871423810E+04  0.13871423810E+04  0.25500000920E-02 0.  1.
    10030    2    1    2    0    0  0.00000000000E+00  0.00000000000E+00  0.47762894324E+03  0.32519137053E+04  0.32166462876E+04 0.  0.
        3    1    3    3  502    0 -0.68773941608E+03  0.10715712761E+04 -0.75453309690E+03  0.14800576707E+04  0.10100000352E+00 0.  1.
       -3    1    3    3    0  502  0.68773941608E+03 -0.10715712761E+04  0.12321620401E+04  0.17718560346E+04  0.10100000352E+00 0. -1.
</event>
<event>
 5   0  0.1269497E-06  0.3346329E+04  0.7818609E-02  0.8151206E-01
        2   -1    0    0  501    0  0.00000000000E+00  0.00000000000E+00  0.15415335125E+04  0.15415335125E+04  0.25500000920E-02 0. -1.
       -2   -1    0    0    0  501  0.00000000000E+00  0.00000000000E+00 -0.18160353921E+04  0.18160353921E+04  0.25500000920E-02 0.  1.
    10030    2    1    2    0    0  0.00000000000E+00  0.00000000000E+00 -0.27450187958E+03  0.33575689046E+04  0.33463289837E+04 0.  0.
        5    1    3    3  502    0  0.75724657278E+03 -0.13006588229E+04  0.59617734886E+03  0.16188221851E+04  0.46999998093E+01 0. -1.
       -5    1    3    3    0  502 -0.75724657278E+03  0.13006588229E+04 -0.87067922844E+03  0.17387467195E+04  0.46999998093E+01 0.  1.
</event>
<event>
 5   0  0.1277635E-06  0.3298083E+04  0.7818609E-02  0.8163383E-01
        2   -1    0    0  501    0  0.00000000000E+00  0.00000000000E+00  0.21625907846E+04  0.21625907846E+04  0.25500000920E-02 0.  1.
       -2   -1    0    0    0  501  0.00000000000E+00  0.00000000000E+00 -0.12574444381E+04  0.12574444382E+04  0.25500000920E-02 0. -1.
    10030    2    1    2    0    0  0.00000000000E+00  0.00000000000E+00  0.90514634648E+03  0.34200352228E+04  0.32980829305E+04 0.  0.
        4    1    3    3  502    0 -0.12133815496E+04  0.11166871703E+04  0.44515896981E+03  0.17080553687E+04  0.12699999809E+01 0.  1.
       -4    1    3    3    0  502  0.12133815496E+04 -0.11166871703E+04  0.45998737667E+03  0.17119798541E+04  0.12699999809E+01 0. -1.
</event>
<event>
 5   0  0.1300176E-06  0.3384518E+04  0.7818609E-02  0.8141717E-01
        2   -1    0    0  501    0  0.00000000000E+00  0.00000000000E+00  0.19430923436E+04  0.19430923436E+04  0.25500000920E-02 0. -1.
       -2   -1    0    0    0  501  0.00000000000E+00  0.00000000000E+00 -0.14738054833E+04  0.14738054833E+04  0.25500000920E-02 0.  1.
    10030    2    1    2    0    0  0.00000000000E+00  0.00000000000E+00  0.46928686030E+03  0.34168978268E+04  0.33845177798E+04 0.  0.
        1    1    3    3  502    0  0.19550926416E+02  0.66227348676E+03  0.18067023986E+04  0.19243601449E+04  0.50400001928E-02 0. -1.
       -1    1    3    3    0  502 -0.19550926416E+02 -0.66227348676E+03 -0.13374155383E+04  0.14925376820E+04  0.50400001928E-02 0.  1.
</event>
<event>
 5   0  0.4125758E-07  0.3408928E+04  0.7818609E-02  0.8135719E-01
        1   -1    0    0  501    0  0.00000000000E+00  0.00000000000E+00  0.20344426523E+04  0.20344426523E+04  0.50400001928E-02 0. -1.
       -1   -1    0    0    0  501  0.00000000000E+00  0.00000000000E+00 -0.14280062708E+04  0.14280062708E+04  0.50400001928E-02 0.  1.
    10030    2    1    2    0    0  0.00000000000E+00  0.00000000000E+00  0.60643638150E+03  0.34624489230E+04  0.34089276114E+04 0.  0.
        2    1    3    3  502    0  0.15085080019E+03 -0.15264610171E+04 -0.45165810612E+03  0.15990103957E+04  0.25500000920E-02 0.  1.
       -2    1    3    3    0  502 -0.15085080019E+03  0.15264610171E+04  0.10580944876E+04  0.18634385274E+04  0.25500000920E-02 0. -1.
</event>
<event>
 5   0  0.4464951E-07  0.3368883E+04  0.7818609E-02  0.8145586E-01
        1   -1    0    0  501    0  0.00000000000E+00  0.00000000000E+00  0.21727053231E+04  0.21727053231E+04  0.50400001928E-02 0.  1.
       -1   -1    0    0    0  501  0.00000000000E+00  0.00000000000E+00 -0.13059031766E+04  0.13059031766E+04  0.50400001928E-02 0. -1.
    10030    2    1    2    0    0  0.00000000000E+00  0.00000000000E+00  0.86680214657E+03  0.34786084997E+04  0.33688827722E+04 0.  0.
        3    1    3    3  502    0  0.13175870332E+04 -0.65757916171E+03  0.12779002361E+04  0.19497371535E+04  0.10100000352E+00 0.  1.
       -3    1    3    3    0  502 -0.13175870332E+04  0.65757916171E+03 -0.41109808952E+03  0.15288713463E+04  0.10100000352E+00 0. -1.
</event>
<event>
 5   0  0.1256208E-06  0.3413262E+04  0.7818609E-02  0.8134659E-01
        2   -1    0    0  501    0  0.00000000000E+00  0.00000000000E+00  0.23115972675E+04  0.23115972675E+04  0.25500000920E-02 0.  1.
       -2   -1    0    0    0  501  0.00000000000E+00  0.00000000000E+00 -0.12599898104E+04  0.12599898105E+04  0.25500000920E-02 0. -1.
    10030    2    1    2    0    0  0.00000000000E+00  0.00000000000E+00  0.10516074571E+04  0.35715870780E+04  0.34132617848E+04 0.  0.
        3    1    3    3  502    0  0.33072660909E+03 -0.48260501452E+03 -0.11517779053E+04  0.12918514014E+04  0.10100000352E+00 0. -1.
       -3    1    3    3    0  502 -0.33072660909E+03  0.48260501452E+03  0.22033853624E+04  0.22797356766E+04  0.10100000352E+00 0.  1.
</event>
<event>
 5   0  0.1256208E-06  0.3351614E+04  0.7818609E-02  0.8149885E-01
        2   -1    0    0  501    0  0.00000000000E+00  0.00000000000E+00  0.14839287952E+04  0.14839287952E+04  0.25500000920E-02 0. -1.
       -2   -1    0    0    0  501  0.00000000000E+00  0.00000000000E+00 -0.18924959590E+04  0.18924959590E+04  0.25500000920E-02 0.  1.
    10030    2    1    2    0    0  0.00000000000E+00  0.00000000000E+00 -0.40856716376E+03  0.33764247542E+04  0.33516140877E+04 0.  0.
        3    1    3    3  502    0 -0.43785991508E+03  0.10390103258E+04 -0.14532456604E+04  0.18393441011E+04  0.10100000352E+00 0.  1.
       -3    1    3    3    0  502  0.43785991508E+03 -0.10390103258E+04  0.10446784967E+04  0.15370806531E+04  0.10100000352E+00 0. -1.
</event>
<event>
 5   0  0.4289684E-07  0.3387599E+04  0.7818609E-02  0.8140957E-01
        1   -1    0    0  501    0  0.00000000000E+00  0.00000000000E+00  0.24841703918E+04  0.24841703918E+04  0.50400001928E-02 0. -1.
       -1   -1    0    0    0  501  0.00000000000E+00  0.00000000000E+00 -0.11548950435E+04  0.11548950435E+04  0.50400001928E-02 0.  1.
    10030    2    1    2    0    0  0.00000000000E+00  0.00000000000E+00  0.13292753483E+04  0.36390654353E+04  0.33875986024E+04 0.  0.
        4    1    3    3  502    0 -0.74225379181E+03 -0.87546476829E+03 -0.67344927721E+03  0.13307572257E+04  0.12699999809E+01 0.  1.
       -4    1    3    3    0  502  0.74225379181E+03  0.87546476829E+03  0.20027246255E+04  0.23083082096E+04  0.12699999809E+01 0. -1.
</event>
<event>
 5   0  0.4272633E-07  0.3518962E+04  0.7818609E-02  0.8109311E-01
       -1   -1    0    0    0  501  0.00000000000E+00  0.00000000000E+00  0.13328380759E+04  0.13328380759E+04  0.50400001928E-02 0.  1.
        1   -1    0    0  501    0  0.00000000000E+00  0.00000000000E+00 -0.23226933757E+04  0.23226933757E+04  0.50400001928E-02 0. -1.
    10030    2    1    2    0    0  0.00000000000E+00  0.00000000000E+00 -0.98985529981E+03  0.36555314516E+04  0.35189624435E+04 0.  0.
        1    1    3    3  502    0  0.70794275227E+03 -0.45598217885E+03  0.11099141035E+04  0.13932020690E+04  0.50400001928E-02 0.  1.
       -1    1    3    3    0  502 -0.70794275227E+03  0.45598217885E+03 -0.20997694033E+04  0.22623293826E+04  0.50400001928E-02 0. -1.
</event>
<event>
 5   0  0.1269497E-06  0.3235931E+04  0.7818609E-02  0.8179392E-01
       -2   -1    0    0    0  501  0.00000000000E+00  0.00000000000E+00  0.10035355874E+04  0.10035355874E+04  0.25500000920E-02 0. -1.
        2   -1    0    0  501    0  0.00000000000E+00  0.00000000000E+00 -0.26085896787E+04  0.26085896787E+04  0.25500000920E-02 0.  1.
    10030    2    1    2    0    0  0.00000000000E+00  0.00000000000E+00 -0.16050540914E+04  0.36121252661E+04  0.32359311337E+04 0.  0.
        5    1    3    3  502    0  0.19589606836E+03  0.57184873109E+02  0.98910447033E+03  0.10099480791E+04  0.46999998093E+01 0. -1.
       -5    1    3    3    0  502 -0.19589606836E+03 -0.57184873109E+02 -0.25941585617E+04  0.26021771870E+04  0.46999998093E+01 0.  1.
</event>
<event>
 5   0  0.4289684E-07  0.3384024E+04  0.7818609E-02  0.8141839E-01
       -1   -1    0    0    0  501  0.00000000000E+00  0.00000000000E+00  0.10217503095E+04  0.10217503095E+04  0.50400001928E-02 0.  1.
        1   -1    0    0  501    0  0.00000000000E+00  0.00000000000E+00 -0.28019607022E+04  0.28019607022E+04  0.50400001928E-02 0. -1.
    10030    2    1    2    0    0  0.00000000000E+00  0.00000000000E+00 -0.17802103927E+04  0.38237110118E+04  0.33840237675E+04 0.  0.
        4    1    3    3  502    0  0.46679212328E+03 -0.50435641455E+03 -0.26371661228E+04  0.27252370633E+04  0.12699999809E+01 0. -1.
       -4    1    3    3    0  502 -0.46679212328E+03  0.50435641455E+03  0.85695573003E+03  0.10984739484E+04  0.12699999809E+01 0.  1.
</event>
<event>
 5   0  0.4272633E-07  0.3418085E+04  0.7818609E-02  0.8133482E-01
        1   -1    0    0  501    0  0.00000000000E+00  0.00000000000E+00  0.17854534485E+04  0.17854534485E+04  0.50400001928E-02 0.  1.
       -1   -1    0    0    0  501  0.00000000000E+00  0.00000000000E+00 -0.16359016956E+04  0.16359016956E+04  0.50400001928E-02 0. -1.
    10030    2    1    2    0    0  0.00000000000E+00  0.00000000000E+00  0.14955175289E+03  0.34213551441E+04  0.34180850334E+04 0.  0.
        1    1    3    3  502    0 -0.78807072976E+03  0.15468458601E+03 -0.14352573179E+04  0.16446721147E+04  0.50400001928E-02 0. -1.
       -1    1    3    3    0  502  0.78807072976E+03 -0.15468458601E+03  0.15848090708E+04  0.17766830294E+04  0.50400001928E-02 0.  1.
</event>
<event>
 5   0  0.1277635E-06  0.3392554E+04  0.7818609E-02  0.8139736E-01
        2   -1    0    0  501    0  0.00000000000E+00  0.00000000000E+00  0.24703678181E+04  0.24703678181E+04  0.25500000920E-02 0. -1.
       -2   -1    0    0    0  501  0.00000000000E+00  0.00000000000E+00 -0.11647477165E+04  0.11647477165E+04  0.25500000920E-02 0.  1.
    10030    2    1    2    0    0  0.00000000000E+00  0.00000000000E+00  0.13056201017E+04  0.36351155346E+04  0.33925537726E+04 0.  0.
        4    1    3    3  502    0  0.25068462209E+03  0.11135599720E+04 -0.69169405013E+03  0.13346538364E+04  0.12699999809E+01 0.  1.
       -4    1    3    3    0  502 -0.25068462209E+03 -0.11135599720E+04  0.19973141518E+04  0.23004616982E+04  0.12699999809E+01 0. -1.
</event>
<event>
 5   0  0.4464951E-07  0.3392854E+04  0.7818609E-02  0.8139662E-01
       -1   -1    0    0    0  501  0.00000000000E+00  0.00000000000E+00  0.17299616323E+04  0.17299616324E+04  0.50400001928E-02 0. -1.
        1   -1    0    0  501    0  0.00000000000E+00  0.00000000000E+00 -0.16635425368E+04  0.16635425368E+04  0.50400001928E-02 0.  1.
    10030    2    1    2    0    0  0.00000000000E+00  0.00000000000E+00  0.66419095526E+02  0.33935041692E+04  0.33928541156E+04 0.  0.
        3    1    3    3  502    0 -0.65784775238E+03  0.14692512427E+04  0.56847735884E+03  0.17072285721E+04  0.10100000352E+00 0. -1.
       -3    1    3    3    0  502  0.65784775238E+03 -0.14692512427E+04 -0.50205826331E+03  0.16862755971E+04  0.10100000352E+00 0.  1.
</event>
<event>
 5   0  0.4464951E-07  0.3305413E+04  0.7818609E-02  0.8161519E-01
        1   -1    0    0  501    0  0.00000000000E+00  0.00000000000E+00  0.13845295576E+04  0.13845295576E+04  0.50400001928E-02 0. -1.
       -1   -1    0    0    0  501  0.00000000000E+00  0.00000000000E+00 -0.19728280697E+04  0.19728280697E+04  0.50400001928E-02 0.  1.
    10030    2    1    2    0    0  0.00000000000E+00  0.00000000000E+00 -0.58829851208E+03  0.33573576273E+04  0.33054129997E+04 0.  0.
        3    1    3    3  502    0 -0.16061377351E+04 -0.22231409752E+03 -0.61907771697E+03  0.17356149376E+04  0.10100000352E+00 0.  1.
       -3    1    3    3    0  502  0.16061377351E+04  0.22231409752E+03  0.30779204888E+02  0.16217426897E+04  0.10100000352E+00 0. -1.
</event>
<event>
 5   0  0.4272633E-07  0.3431299E+04  0.7818609E-02  0.8130267E-01
       -1   -1    0    0    0  501  0.00000000000E+00  0.00000000000E+00  0.22288345407E+04  0.22288345407E+04  0.50400001928E-02 0.  1.
        1   -1    0    0  501    0  0.00000000000E+00  0.00000000000E+00 -0.13206245028E+04  0.13206245028E+04  0.50400001928E-02 0. -1.
    10030    2    1    2    0    0  0.00000000000E+00  0.00000000000E+00  0.90821003790E+03  0.35494590435E+04  0.34312991751E+04 0.  0.
        1    1    3    3  502    0  0.64615379726E+03  0.88629293808E+02 -0.11873865556E+04  0.13547164700E+04  0.50400001928E-02 0. -1.
       -1    1    3    3    0  502 -0.64615379726E+03 -0.88629293808E+02  0.20955965935E+04  0.21947425736E+04  0.50400001928E-02 0.  1.
</event>
<event>
 5   0  0.4109937E-07  0.3396529E+04  0.7818609E-02  0.8138759E-01
       -1   -1    0    0    0  501  0.00000000000E+00  0.00000000000E+00  0.30911250675E+04  0.30911250675E+04  0.50400001928E-02 0. -1.
        1   -1    0    0  501    0  0.00000000000E+00  0.00000000000E+00 -0.93302668818E+03  0.93302668819E+03  0.50400001928E-02 0.  1.
    10030    2    1    2    0    0  0.00000000000E+00  0.00000000000E+00  0.21580983794E+04  0.40241517557E+04  0.33965289250E+04 0.  0.
        5    1    3    3  502    0  0.25886659758E+03 -0.56514843997E+01 -0.90949501541E+03  0.94564640731E+03  0.46999998093E+01 0.  1.
       -5    1    3    3    0  502 -0.25886659758E+03  0.56514843997E+01  0.30675933948E+04  0.30785053484E+04  0.46999998093E+01 0. -1.
</event>
<event>
 5   0  0.4109937E-07  0.3085637E+04  0.7818609E-02  0.8219691E-01
        1   -1    0    0  501    0  0.00000000000E+00  0.00000000000E+00  0.15435955392E+04  0.15435955392E+04  0.50400001928E-02 0. -1.
       -1   -1    0    0    0  501  0.00000000000E+00  0.00000000000E+00 -0.15420419403E+04  0.15420419403E+04  0.50400001928E-02 0.  1.
    10030    2    1    2    0    0  0.00000000000E+00  0.00000000000E+00  0.15535989014E+01  0.30856374795E+04  0.30856370884E+04 0.  0.
        5    1    3    3  502    0 -0.11134184299E+04  0.10571090491E+04  0.15272032351E+03  0.15428952424E+04  0.46999998093E+01 0. -1.
       -5    1    3    3    0  502  0.11134184299E+04 -0.10571090491E+04 -0.15116672461E+03  0.15427422372E+04  0.46999998093E+01 0.  1.
</event>
<event>
 5   0  0.4125758E-07  0.3152426E+04  0.7818609E-02  0.8201496E-01
        1   -1    0    0  501    0  0.00000000000E+00  0.00000000000E+00  0.25783775873E+04  0.25783775873E+04  0.50400001928E-02 0.  1.
       -1   -1    0    0    0  501  0.00000000000E+00  0.00000000000E+00 -0.96357001143E+03  0.96357001145E+03  0.50400001928E-02 0. -1.
    10030    2    1    2    0    0  0.00000000000E+00  0.00000000000E+00  0.16148075759E+04  0.35419475987E+04  0.31524259365E+04 0.  0.
        2    1    3    3  502    0 -0.12650248757E+04  0.21079440084E+03 -0.22218975112E+03  0.13015723188E+04  0.25500000920E-02 0. -1.
       -2    1    3    3    0  502  0.12650248757E+04 -0.21079440084E+03  0.18369973270E+04  0.22403752799E+04  0.25500000920E-02 0.  1.
</event>
<event>
 5   0  0.4125758E-07  0.3406290E+04  0.7818609E-02  0.8136364E-01
        1   -1    0    0  501    0  0.00000000000E+00  0.00000000000E+00  0.26110029322E+04  0.26110029322E+04  0.50400001928E-02 0.  1.
       -1   -1    0    0    0  501  0.00000000000E+00  0.00000000000E+00 -0.11109535389E+04  0.11109535389E+04  0.50400001928E-02 0. -1.
    10030    2    1    2    0    0  0.00000000000E+00  0.00000000000E+00  0.15000493934E+04  0.37219564711E+04  0.34062900332E+04 0.  0.
        2    1    3    3  502    0  0.13439160422E+04 -0.18173502771E+03  0.18758291475E+04  0.23147079599E+04  0.25500000920E-02 0.  1.
       -2    1    3    3    0  502 -0.13439160422E+04  0.18173502771E+03 -0.37577975417E+03  0.14072485112E+04  0.25500000920E-02 0. -1.
</event>
<event>
 5   0  0.4125758E-07  0.3384729E+04  0.7818609E-02  0.8141665E-01
       -1   -1    0    0    0  501  0.00000000000E+00  0.00000000000E+00  0.14963041876E+04  0.14963041876E+04  0.50400001928E-02 0.  1.
        1   -1    0    0  501    0  0.00000000000E+00  0.00000000000E+00 -0.19141143080E+04  0.19141143081E+04  0.50400001928E-02 0. -1.
    10030    2    1    2    0    0  0.00000000000E+00  0.00000000000E+00 -0.41781012049E+03  0.34104184956E+04  0.33847287954E+04 0.  0.
        2    1    3    3  502    0  0.53552764538E+03  0.94567220466E+03  0.10982506895E+04  0.15450696925E+04  0.25500000920E-02 0.  1.
       -2    1    3    3    0  502 -0.53552764538E+03 -0.94567220466E+03 -0.15160608100E+04  0.18653488031E+04  0.25500000920E-02 0. -1.
</event>
<event>
 5   0  0.1269497E-06  0.3442121E+04  0.7818609E-02  0.8127645E-01
        2   -1    0    0  501    0  0.00000000000E+00  0.00000000000E+00  0.19851420863E+04  0.19851420863E+04  0.25500000920E-02 0.  1.
       -2   -1    0    0    0  501  0.00000000000E+00  0.00000000000E+00 -0.14921095227E+04  0.14921095227E+04  0.25500000920E-02 0. -1.
    10030    2    1    2    0    0  0.00000000000E+00  0.00000000000E+00  0.49303256358E+03  0.34772516090E+04  0.34421210966E+04 0.  0.
        5    1    3    3  502    0  0.10824669494E+04  0.12604795109E+03  0.15921792203E+04  0.19294246660E+04  0.46999998093E+01 0.  1.
       -5    1    3    3    0  502 -0.10824669494E+04 -0.12604795109E+03 -0.10991466567E+04  0.15478269430E+04  0.46999998093E+01 0. -1.
</event>
<event>
 5   0  0.4272633E-07  0.3170469E+04  0.7818609E-02  0.8196660E-01
       -1   -1    0    0    0  501  0.00000000000E+00  0.00000000000E+00  0.13195519796E+04  0.13195519796E+04  0.50400001928E-02 0. -1.
        1   -1    0    0  501    0  0.00000000000E+00  0.00000000000E+00 -0.19044107659E+04  0.19044107659E+04  0.50400001928E-02 0.  1.
    10030    2    1    2    0    0  0.00000000000E+00  0.00000000000E+00 -0.58485878632E+03  0.32239627455E+04  0.31704693634E+04 0.  0.
        1    1    3    3  502    0 -0.17649270454E+02  0.15580090984E+04  0.44993434919E+01  0.15581155578E+04  0.50400001928E-02 0. -1.
       -1    1    3    3    0  502  0.17649270454E+02 -0.15580090984E+04 -0.58935812982E+03  0.16658471877E+04  0.50400001928E-02 0.  1.
</event>
<event>
 5   0  0.1256208E-06  0.3428054E+04  0.7818609E-02  0.8131055E-01
        2   -1    0    0  501    0  0.00000000000E+00  0.00000000000E+00  0.19119307189E+04  0.19119307189E+04  0.25500000920E-02 0. -1.
       -2   -1    0    0    0  501  0.00000000000E+00  0.00000000000E+00 -0.15366078255E+04  0.15366078255E+04  0.25500000920E-02 0.  1.
    10030    2    1    2    0    0  0.00000000000E+00  0.00000000000E+00  0.37532289336E+03  0.34485385444E+04  0.34280535028E+04 0.  0.
        3    1    3    3  502    0  0.41265133853E+03  0.16248143893E+04  0.54698600966E+03  0.17633764861E+04  0.10100000352E+00 0. -1.
       -3    1    3    3    0  502 -0.41265133853E+03 -0.16248143893E+04 -0.17166311630E+03  0.16851620583E+04  0.10100000352E+00 0.  1.
</event>
<event>
 5   0  0.4289684E-07  0.3421033E+04  0.7818609E-02  0.8132763E-01
        1   -1    0    0  501    0  0.00000000000E+00  0.00000000000E+00  0.15675785912E+04  0.15675785912E+04  0.50400001928E-02 0.  1.
       -1   -1    0    0    0  501  0.00000000000E+00  0.00000000000E+00 -0.18664883042E+04  0.18664883042E+04  0.50400001928E-02 0. -1.
    10030    2    1    2    0    0  0.00000000000E+00  0.00000000000E+00 -0.29890971293E+03  0.34340668954E+04  0.34210332395E+04 0.  0.
        4    1    3    3  502    0  0.97278628043E+03 -0.97616997925E+03 -0.11665498187E+04  0.18055639197E+04  0.12699999809E+01 0. -1.
       -4    1    3    3    0  502 -0.97278628043E+03  0.97616997925E+03  0.86764010579E+03  0.16285029757E+04  0.12699999809E+01 0.  1.
</event>
<event>
 5   0  0.1277635E-06  0.3342413E+04  0.7818609E-02  0.8152187E-01
        2   -1    0    0  501    0  0.00000000000E+00  0.00000000000E+00  0.19178499644E+04  0.19178499644E+04  0.25500000920E-02 0.  1.
       -2   -1    0    0    0  501  0.00000000000E+00  0.00000000000E+00 -0.14562821575E+04  0.14562821575E+04  0.25500000920E-02 0. -1.
    10030    2    1    2    0    0  0.00000000000E+00  0.00000000000E+00  0.46156780697E+03  0.33741321219E+04  0.33424127118E+04 0.  0.
        4    1    3    3  502    0  0.43897692571E+03  0.15782248013E+04  0.56473259558E+03  0.17327489091E+04  0.12699999809E+01 0.  1.
       -4    1    3    3    0  502 -0.43897692571E+03 -0.15782248013E+04 -0.10316478861E+03  0.16413832128E+04  0.12699999809E+01 0. -1.
</event>
<event>
 5   0  0.1300176E-06  0.3385224E+04  0.7818609E-02  0.8141542E-01
        2   -1    0    0  501    0  0.00000000000E+00  0.00000000000E+00  0.22705593513E+04  0.22705593513E+04  0.25500000920E-02 0.  1.
       -2   -1    0    0    0  501  0.00000000000E+00  0.00000000000E+00 -0.12617754866E+04  0.12617754866E+04  0.25500000920E-02 0. -1.
    10030    2    1    2    0    0  0.00000000000E+00  0.00000000000E+00  0.10087838647E+04  0.35323348378E+04  0.33852244417E+04 0.  0.
        1    1    3    3  502    0 -0.16635350850E+04 -0.25663085078E+03  0.69025542121E+03  0.18192473497E+04  0.50400001928E-02 0.  1.
       -1    1    3    3    0  502  0.16635350850E+04  0.25663085078E+03  0.31852844348E+03  0.17130874882E+04  0.50400001928E-02 0. -1.
</event>
<event>
 5   0  0.4464951E-07  0.3409355E+04  0.7818609E-02  0.8135614E-01
        1   -1    0    0  501    0  0.00000000000E+00  0.00000000000E+00  0.13892533237E+04  0.13892533237E+04  0.50400001928E-02 0.  1.
       -1   -1    0    0    0  501  0.00000000000E+00  0.00000000000E+00 -0.20917170172E+04  0.20917170172E+04  0.50400001928E-02 0. -1.
    10030    2    1    2    0    0  0.00000000000E+00  0.00000000000E+00 -0.70246369345E+03  0.34809703409E+04  0.34093546712E+04 0.  0.
        3    1    3    3  502    0 -0.14562582047E+04 -0.53306271633E+03 -0.10739718671E+04  0.18863349119E+04  0.10100000352E+00 0. -1.
       -3    1    3    3    0  502  0.14562582047E+04  0.53306271633E+03  0.37150817361E+03  0.15946354291E+04  0.10100000352E+00 0.  1.
</event>
<event>
 5   0  0.1256208E-06  0.3071432E+04  0.7818609E-02  0.8223622E-01
        2   -1    0    0  501    0  0.00000000000E+00  0.00000000000E+00  0.99785307708E+03  0.99785307708E+03  0.25500000920E-02 0. -1.
       -2   -1    0    0    0  501  0.00000000000E+00  0.00000000000E+00 -0.23634985195E+04  0.23634985195E+04  0.25500000920E-02 0.  1.
    10030    2    1    2    0    0  0.00000000000E+00  0.00000000000E+00 -0.13656454424E+04  0.33613515966E+04  0.30714324153E+04 0.  0.
        3    1    3    3  502    0  0.28227549293E+03 -0.89836842072E+03 -0.20104602584E+04  0.22200666058E+04  0.10100000352E+00 0.  1.
       -3    1    3    3    0  502 -0.28227549293E+03  0.89836842072E+03  0.64481481595E+03  0.11412849908E+04  0.10100000352E+00 0. -1.
</event>
<event>
 5   0  0.4289684E-07  0.3391545E+04  0.7818609E-02  0.8139985E-01
        1   -1    0    0  501    0  0.00000000000E+00  0.00000000000E+00  0.20606435605E+04  0.20606435605E+04  0.50400001928E-02 0. -1.
       -1   -1    0    0    0  501  0.00000000000E+00  0.00000000000E+00 -0.13955078631E+04  0.13955078631E+04  0.50400001928E-02 0.  1.
    10030    2    1    2    0    0  0.00000000000E+00  0.00000000000E+00  0.66513569746E+03  0.34561514236E+04  0.33915449528E+04 0.  0.
        4    1    3    3  502    0 -0.16561944548E+04 -0.92265175877E+02  0.69162873472E+03  0.17971769124E+04  0.12699999809E+01 0. -1.
       -4    1    3    3    0  502  0.16561944548E+04  0.92265175877E+02 -0.26493037259E+02  0.16589745112E+04  0.12699999809E+01 0.  1.
</event>
<event>
 5   0  0.1268230E-06  0.3407251E+04  0.7818609E-02  0.8136129E-01
        2   -1    0    0  501    0  0.00000000000E+00  0.00000000000E+00  0.21023399682E+04  0.21023399682E+04  0.25500000920E-02 0. -1.
       -2   -1    0    0    0  501  0.00000000000E+00  0.00000000000E+00 -0.13805280609E+04  0.13805280610E+04  0.25500000920E-02 0.  1.
    10030    2    1    2    0    0  0.00000000000E+00  0.00000000000E+00  0.72181190724E+03  0.34828680291E+04  0.34072506921E+04 0.  0.
        2    1    3    3  502    0 -0.84137480771E+03  0.58144090843E+03  0.17536244886E+04  0.20300699358E+04  0.25500000920E-02 0. -1.
       -2    1    3    3    0  502  0.84137480771E+03 -0.58144090843E+03 -0.10318125814E+04  0.14527980934E+04  0.25500000920E-02 0.  1.
</event>
<event>
 5   0  0.4289684E-07  0.3465901E+04  0.7818609E-02  0.8121919E-01
       -1   -1    0    0    0  501  0.00000000000E+00  0.00000000000E+00  0.24458657370E+04  0.24458657370E+04  0.50400001928E-02 0. -1.
        1   -1    0    0  501    0  0.00000000000E+00  0.00000000000E+00 -0.12278338441E+04  0.12278338441E+04  0.50400001928E-02 0.  1.
    10030    2    1    2    0    0  0.00000000000E+00  0.00000000000E+00  0.12180318929E+04  0.36736995811E+04  0.34659005929E+04 0.  0.
        4    1    3    3  502    0  0.59311625273E+03  0.24884597037E+03  0.23146561971E+04  0.24023626141E+04  0.12699999809E+01 0. -1.
       -4    1    3    3    0  502 -0.59311625273E+03 -0.24884597037E+03 -0.10966243042E+04  0.12713369670E+04  0.12699999809E+01 0.  1.
</event>
<event>
 5   0  0.4289684E-07  0.3392333E+04  0.7818609E-02  0.8139791E-01
       -1   -1    0    0    0  501  0.00000000000E+00  0.00000000000E+00  0.93691247148E+03  0.93691247149E+03  0.50400001928E-02 0.  1.
        1   -1    0    0  501    0  0.00000000000E+00  0.00000000000E+00 -0.30707031544E+04  0.30707031544E+04  0.50400001928E-02 0. -1.
    10030    2    1    2    0    0  0.00000000000E+00  0.00000000000E+00 -0.21337906829E+04  0.40076156259E+04  0.33923325790E+04 0.  0.
        4    1    3    3  502    0 -0.73224413945E+03  0.12764170743E+04 -0.20634297880E+04  0.25343966008E+04  0.12699999809E+01 0. -1.
       -4    1    3    3    0  502  0.73224413945E+03 -0.12764170743E+04 -0.70360894924E+02  0.14732190251E+04  0.12699999809E+01 0.  1.
</event>
<event>
 5   0  0.4125758E-07  0.3367261E+04  0.7818609E-02  0.8145989E-01
       -1   -1    0    0    0  501  0.00000000000E+00  0.00000000000E+00  0.12470521038E+04  0.12470521038E+04  0.50400001928E-02 0.  1.
        1   -1    0    0  501    0  0.00000000000E+00  0.00000000000E+00 -0.22730499686E+04  0.22730499686E+04  0.50400001928E-02 0. -1.
    10030    2    1    2    0    0  0.00000000000E+00  0.00000000000E+00 -0.10259978648E+04  0.35201020724E+04  0.33672610504E+04 0.  0.
        2    1    3    3  502    0 -0.35319527119E+03 -0.16459872548E+04 -0.53840864740E+03  0.17674571604E+04  0.25500000920E-02 0.  1.
       -2    1    3    3    0  502  0.35319527119E+03  0.16459872548E+04 -0.48758921744E+03  0.17526449119E+04  0.25500000920E-02 0. -1.
</event>
<event>
 5   0  0.1268230E-06  0.3467704E+04  0.7818609E-02  0.8121487E-01
       -2   -1    0    0    0  501  0.00000000000E+00  0.00000000000E+00  0.21182523449E+04  0.21182523449E+04  0.25500000920E-02 0.  1.
        2   -1    0    0  501    0  0.00000000000E+00  0.00000000000E+00 -0.14192092716E+04  0.14192092716E+04  0.25500000920E-02 0. -1.
    10030    2    1    2    0    0  0.00000000000E+00  0.00000000000E+00  0.69904307331E+03  0.35374616165E+04  0.34677043516E+04 0.  0.
        2    1    3    3  502    0  0.55589332050E+03 -0.12637412365E+04 -0.72047494367E+03  0.15572872057E+04  0.25500000920E-02 0. -1.
       -2    1    3    3    0  502 -0.55589332050E+03  0.12637412365E+04  0.14195180170E+04  0.19801744108E+04  0.25500000920E-02 0.  1.
</event>
<event>
 5   0  0.1300176E-06  0.3391328E+04  0.7818609E-02  0.8140038E-01
        2   -1    0    0  501    0  0.00000000000E+00  0.00000000000E+00  0.22910362283E+04  0.22910362283E+04  0.25500000920E-02 0.  1.
       -2   -1    0    0    0  501  0.00000000000E+00  0.00000000000E+00 -0.12550115175E+04  0.12550115175E+04  0.25500000920E-02 0. -1.
    10030    2    1    2    0    0  0.00000000000E+00  0.00000000000E+00  0.10360247107E+04  0.35460477458E+04  0.33913282669E+04 0.  0.
        1    1    3    3  502    0  0.12746860978E+04  0.72705880829E+03  0.14063836721E+04  0.20325732931E+04  0.50400001928E-02 0.  1.
       -1    1    3    3    0  502 -0.12746860978E+04 -0.72705880829E+03 -0.37035896136E+03  0.15134744527E+04  0.50400001928E-02 0. -1.
</event>
<event>
 5   0  0.4060750E-07  0.3406462E+04  0.7818609E-02  0.8136322E-01
        4   -1    0    0  501    0  0.00000000000E+00  0.00000000000E+00  0.16578244970E+04  0.16578249834E+04  0.12699999809E+01 0.  1.
       -4   -1    0    0    0  501  0.00000000000E+00  0.00000000000E+00 -0.17498798837E+04  0.17498803446E+04  0.12699999809E+01 0. -1.
    10030    2    1    2    0    0  0.00000000000E+00  0.00000000000E+00 -0.92055386729E+02  0.34077053280E+04  0.34064617139E+04 0.  0.
        3    1    3    3  502    0 -0.76791430343E+03  0.76000175272E+03  0.12711535366E+04  0.16682704713E+04  0.10100000352E+00 0.  1.
       -3    1    3    3    0  502  0.76791430343E+03 -0.76000175272E+03 -0.13632089234E+04  0.17394348566E+04  0.10100000352E+00 0. -1.
</event>
<event>
 5   0  0.1300176E-06  0.2951271E+04  0.7818609E-02  0.8257784E-01
        2   -1    0    0  501    0  0.00000000000E+00  0.00000000000E+00  0.18911607793E+04  0.18911607793E+04  0.25500000920E-02 0. -1.
       -2   -1    0    0    0  501  0.00000000000E+00  0.00000000000E+00 -0.11514095827E+04  0.11514095827E+04  0.25500000920E-02 0.  1.
    10030    2    1    2    0    0  0.00000000000E+00  0.00000000000E+00  0.73975119667E+03  0.30425703620E+04  0.29512713489E+04 0.  0.
        1    1    3    3  502    0  0.41138304091E+02 -0.61619159109E+03 -0.10117765115E+04  0.11853590790E+04  0.50400001928E-02 0.  1.
       -1    1    3    3    0  502 -0.41138304091E+02  0.61619159109E+03  0.17515277082E+04  0.18572112830E+04  0.50400001928E-02 0. -1.
</event>
<event>
 5   0  0.4272633E-07  0.3444582E+04  0.7818609E-02  0.8127050E-01
        1   -1    0    0  501    0  0.00000000000E+00  0.00000000000E+00  0.15971230366E+04  0.15971230366E+04  0.50400001928E-02 0.  1.
       -1   -1    0    0    0  501  0.00000000000E+00  0.00000000000E+00 -0.18572688676E+04  0.18572688676E+04  0.50400001928E-02 0. -1.
    10030    2    1    2    0    0  0.00000000000E+00  0.00000000000E+00 -0.26014583105E+03  0.34543919042E+04  0.34445823513E+04 0.  0.
        1    1    3    3  502    0  0.79653607923E+03  0.64632002535E+03  0.12573726052E+04  0.16227092065E+04  0.50400001928E-02 0.  1.
       -1    1    3    3    0  502 -0.79653607923E+03 -0.64632002535E+03 -0.15175184362E+04  0.18316826977E+04  0.50400001928E-02 0. -1.
</event>
<event>
 5   0  0.1269497E-06  0.3145976E+04  0.7818609E-02  0.8203232E-01
       -2   -1    0    0    0  501  0.00000000000E+00  0.00000000000E+00  0.87565845670E+03  0.87565845670E+03  0.25500000920E-02 0.  1.
        2   -1    0    0  501    0  0.00000000000E+00  0.00000000000E+00 -0.28256349260E+04  0.28256349260E+04  0.25500000920E-02 0. -1.
    10030    2    1    2    0    0  0.00000000000E+00  0.00000000000E+00 -0.19499764693E+04  0.37012933827E+04  0.31459759176E+04 0.  0.
        5    1    3    3  502    0  0.84026269560E+03 -0.46609682276E+03  0.49022694521E+03  0.10787178471E+04  0.46999998093E+01 0.  1.
       -5    1    3    3    0  502 -0.84026269560E+03  0.46609682276E+03 -0.24402034145E+04  0.26225755356E+04  0.46999998093E+01 0. -1.
</event>
<event>
 5   0  0.1277635E-06  0.3912818E+04  0.7818609E-02  0.8022368E-01
       -2   -1    0    0    0  501  0.00000000000E+00  0.00000000000E+00  0.20854684265E+04  0.20854684265E+04  0.25500000920E-02 0.  1.
        2   -1    0    0  501    0  0.00000000000E+00  0.00000000000E+00 -0.18353368036E+04  0.18353368036E+04  0.25500000920E-02 0. -1.
    10030    2    1    2    0    0  0.00000000000E+00  0.00000000000E+00  0.25013162283E+03  0.39208052301E+04  0.39128183990E+04 0.  0.
        4    1    3    3  502    0 -0.81408373865E+03  0.79415056865E+03  0.17202096131E+04  0.20621663815E+04  0.12699999809E+01 0.  1.
       -4    1    3    3    0  502  0.81408373865E+03 -0.79415056865E+03 -0.14700779902E+04  0.18586388486E+04  0.12699999809E+01 0. -1.
</event>
<event>
 5   0  0.1277635E-06  0.3390817E+04  0.7818609E-02  0.8140164E-01
       -2   -1    0    0    0  501  0.00000000000E+00  0.00000000000E+00  0.14136043824E+04  0.14136043824E+04  0.25500000920E-02 0. -1.
        2   -1    0    0  501    0  0.00000000000E+00  0.00000000000E+00 -0.20333901612E+04  0.20333901612E+04  0.25500000920E-02 0.  1.
    10030    2    1    2    0    0  0.00000000000E+00  0.00000000000E+00 -0.61978577878E+03  0.34469945437E+04  0.33908165643E+04 0.  0.
        4    1    3    3  502    0  0.16694143040E+04 -0.21885301527E+03 -0.51210266371E+03  0.17598555372E+04  0.12699999809E+01 0. -1.
       -4    1    3    3    0  502 -0.16694143040E+04  0.21885301527E+03 -0.10768311507E+03  0.16871390064E+04  0.12699999809E+01 0.  1.
</event>
<event>
 5   0  0.4125758E-07  0.3395337E+04  0.7818609E-02  0.8139052E-01
        1   -1    0    0  501    0  0.00000000000E+00  0.00000000000E+00  0.20053706551E+04  0.20053706551E+04  0.50400001928E-02 0.  1.
       -1   -1    0    0    0  501  0.00000000000E+00  0.00000000000E+00 -0.14371802835E+04  0.14371802835E+04  0.50400001928E-02 0. -1.
    10030    2    1    2    0    0  0.00000000000E+00  0.00000000000E+00  0.56819037157E+03  0.34425509386E+04  0.33953374893E+04 0.  0.
        2    1    3    3  502    0  0.14943006876E+04  0.26301225543E+03  0.10562419970E+04  0.18487177037E+04  0.25500000920E-02 0. -1.
       -2    1    3    3    0  502 -0.14943006876E+04 -0.26301225543E+03 -0.48805162543E+03  0.15938332349E+04  0.25500000920E-02 0.  1.
</event>
<event>
 5   0  0.4464951E-07  0.3219243E+04  0.7818609E-02  0.8183754E-01
        1   -1    0    0  501    0  0.00000000000E+00  0.00000000000E+00  0.18698215689E+04  0.18698215689E+04  0.50400001928E-02 0. -1.
       -1   -1    0    0    0  501  0.00000000000E+00  0.00000000000E+00 -0.13856301679E+04  0.13856301679E+04  0.50400001928E-02 0.  1.
    10030    2    1    2    0    0  0.00000000000E+00  0.00000000000E+00  0.48419140104E+03  0.32554517368E+04  0.32192428764E+04 0.  0.
        3    1    3    3  502    0 -0.82282257121E+03  0.12505166971E+04  0.84040245452E+03  0.17167135140E+04  0.10100000352E+00 0. -1.
       -3    1    3    3    0  502  0.82282257121E+03 -0.12505166971E+04 -0.35621105348E+03  0.15387382228E+04  0.10100000352E+00 0.  1.
</event>
<event>
 5   0  0.4109937E-07  0.3306910E+04  0.7818609E-02  0.8161139E-01
       -1   -1    0    0    0  501  0.00000000000E+00  0.00000000000E+00  0.11647250928E+04  0.11647250928E+04  0.50400001928E-02 0. -1.
        1   -1    0    0  501    0  0.00000000000E+00  0.00000000000E+00 -0.23472600663E+04  0.23472600663E+04  0.50400001928E-02 0.  1.
    10030    2    1    2    0    0  0.00000000000E+00  0.00000000000E+00 -0.11825349736E+04  0.35119851591E+04  0.33069095534E+04 0.  0.
        5    1    3    3  502    0  0.10762318589E+04  0.21071197450E+03 -0.19054285417E+04  0.21984891557E+04  0.46999998093E+01 0.  1.
       -5    1    3    3    0  502 -0.10762318589E+04 -0.21071197450E+03  0.72289356811E+03  0.13134960034E+04  0.46999998093E+01 0. -1.
</event>
<event>
 5   0  0.1277635E-06  0.3441448E+04  0.7818609E-02  0.8127808E-01
       -2   -1    0    0    0  501  0.00000000000E+00  0.00000000000E+00  0.10870710008E+04  0.10870710008E+04  0.25500000920E-02 0.  1.
        2   -1    0    0  501    0  0.00000000000E+00  0.00000000000E+00 -0.27237333394E+04  0.27237333394E+04  0.25500000920E-02 0. -1.
    10030    2    1    2    0    0  0.00000000000E+00  0.00000000000E+00 -0.16366623386E+04  0.38108043402E+04  0.34414482575E+04 0.  0.
        4    1    3    3  502    0  0.11048593241E+03  0.99919096370E+03  0.72808413310E+03  0.12412485009E+04  0.12699999809E+01 0.  1.
       -4    1    3    3    0  502 -0.11048593241E+03 -0.99919096370E+03 -0.23647464717E+04  0.25695558393E+04  0.12699999809E+01 0. -1.
</event>
<event>
 5   0  0.1269497E-06  0.3378915E+04  0.7818609E-02  0.8143101E-01
        2   -1    0    0  501    0  0.00000000000E+00  0.00000000000E+00  0.27465079375E+04  0.27465079375E+04  0.25500000920E-02 0.  1.
       -2   -1    0    0    0  501  0.00000000000E+00  0.00000000000E+00 -0.10392345376E+04  0.10392345376E+04  0.25500000920E-02 0. -1.
    10030    2    1    2    0    0  0.00000000000E+00  0.00000000000E+00  0.17072734000E+04  0.37857424751E+04  0.33789145632E+04 0.  0.
        5    1    3    3  502    0  0.26115042575E+03  0.14861010639E+03  0.27163228250E+04  0.27328952209E+04  0.46999998093E+01 0.  1.
       -5    1    3    3    0  502 -0.26115042575E+03 -0.14861010639E+03 -0.10090494250E+04  0.10528472542E+04  0.46999998093E+01 0. -1.
</event>
<event>
 5   0  0.1300176E-06  0.3386385E+04  0.7818609E-02  0.8141256E-01
       -2   -1    0    0    0  501  0.00000000000E+00  0.00000000000E+00  0.10563960267E+04  0.10563960267E+04  0.25500000920E-02 0.  1.
        2   -1    0    0  501    0  0.00000000000E+00  0.00000000000E+00 -0.27138503198E+04  0.27138503198E+04  0.25500000920E-02 0. -1.
    10030    2    1    2    0    0  0.00000000000E+00  0.00000000000E+00 -0.16574542931E+04  0.37702463465E+04  0.33863849130E+04 0.  0.
        1    1    3    3  502    0 -0.10085384713E+04 -0.83529165325E+03  0.36627020153E+03  0.13597852237E+04  0.50400001928E-02 0.  1.
       -1    1    3    3    0  502  0.10085384713E+04  0.83529165325E+03 -0.20237244947E+04  0.24104611228E+04  0.50400001928E-02 0. -1.
</event>
<event>
 5   0  0.1300176E-06  0.3378153E+04  0.7818609E-02  0.8143289E-01
       -2   -1    0    0    0  501  0.00000000000E+00  0.00000000000E+00  0.12456342890E+04  0.12456342890E+04  0.25500000920E-02 0.  1.
        2   -1    0    0  501    0  0.00000000000E+00  0.00000000000E+00 -0.22903829366E+04  0.22903829366E+04  0.25500000920E-02 0. -1.
    10030    2    1    2    0    0  0.00000000000E+00  0.00000000000E+00 -0.10447486477E+04  0.35360172256E+04  0.33781530580E+04 0.  0.
        1    1    3    3  502    0  0.12249132392E+04  0.11528349219E+04 -0.36178137556E+03  0.17205599566E+04  0.50400001928E-02 0. -1.
       -1    1    3    3    0  502 -0.12249132392E+04 -0.11528349219E+04 -0.68296727210E+03  0.18154572690E+04  0.50400001928E-02 0.  1.
</event>
<event>
 5   0  0.4060750E-07  0.3451849E+04  0.7818609E-02  0.8125297E-01
        3   -1    0    0  501    0  0.00000000000E+00  0.00000000000E+00  0.19953444771E+04  0.19953444797E+04  0.10100000352E+00 0.  1.
       -3   -1    0    0    0  501  0.00000000000E+00  0.00000000000E+00 -0.14928827351E+04  0.14928827386E+04  0.10100000352E+00 0. -1.
    10030    2    1    2    0    0  0.00000000000E+00  0.00000000000E+00  0.50246174201E+03  0.34882272183E+04  0.34518489718E+04 0.  0.
        3    1    3    3  502    0  0.95521386665E+03  0.37556993558E+03 -0.11509545857E+04  0.15421357840E+04  0.10100000352E+00 0. -1.
       -3    1    3    3    0  502 -0.95521386665E+03 -0.37556993558E+03  0.16534163278E+04  0.19460914343E+04  0.10100000352E+00 0.  1.
</event>
<event>
 5   0  0.4060750E-07  0.3190139E+04  0.7818609E-02  0.8191426E-01
       -3   -1    0    0    0  501  0.00000000000E+00  0.00000000000E+00  0.31546216007E+04  0.31546216023E+04  0.10100000352E+00 0.  1.
        3   -1    0    0  501    0  0.00000000000E+00  0.00000000000E+00 -0.80651387429E+03  0.80651388061E+03  0.10100000352E+00 0. -1.
    10030    2    1    2    0    0  0.00000000000E+00  0.00000000000E+00  0.23481077264E+04  0.39611354829E+04  0.31901386207E+04 0.  0.
        5    1    3    3  502    0 -0.49010592733E+03  0.32562546670E+03 -0.66681488658E+03  0.88932555767E+03  0.46999998093E+01 0. -1.
       -5    1    3    3    0  502  0.49010592733E+03 -0.32562546670E+03  0.30149226130E+04  0.30718099253E+04  0.46999998093E+01 0.  1.
</event>
<event>
 5   0  0.1277635E-06  0.3414173E+04  0.7818609E-02  0.8134437E-01
       -2   -1    0    0    0  501  0.00000000000E+00  0.00000000000E+00  0.12657756933E+04  0.12657756933E+04  0.25500000920E-02 0.  1.
        2   -1    0    0  501    0  0.00000000000E+00  0.00000000000E+00 -0.23022598786E+04  0.23022598786E+04  0.25500000920E-02 0. -1.
    10030    2    1    2    0    0  0.00000000000E+00  0.00000000000E+00 -0.10364841853E+04  0.35680355719E+04  0.34141731614E+04 0.  0.
        4    1    3    3  502    0  0.16566460164E+04  0.40809432657E+03 -0.57667218859E+03  0.18009912351E+04  0.12699999809E+01 0. -1.
       -4    1    3    3    0  502 -0.16566460164E+04 -0.40809432657E+03 -0.45981199668E+03  0.17670443368E+04  0.12699999809E+01 0.  1.
</event>
<event>
 5   0  0.4289684E-07  0.3463199E+04  0.7818609E-02  0.8122567E-01
        1   -1    0    0  501    0  0.00000000000E+00  0.00000000000E+00  0.16576143464E+04  0.16576143464E+04  0.50400001928E-02 0.  1.
       -1   -1    0    0    0  501  0.00000000000E+00  0.00000000000E+00 -0.18088864778E+04  0.18088864778E+04  0.50400001928E-02 0. -1.
    10030    2    1    2    0    0  0.00000000000E+00  0.00000000000E+00 -0.15127213140E+03  0.34665008242E+04  0.34631986236E+04 0.  0.
        4    1    3    3  502    0 -0.36134275994E+03 -0.14103437786E+04  0.86269920715E+03  0.16923030753E+04  0.12699999809E+01 0. -1.
       -4    1    3    3    0  502  0.36134275994E+03  0.14103437786E+04 -0.10139713386E+04  0.17741977489E+04  0.12699999809E+01 0.  1.
</event>
<event>
 5   0  0.1277635E-06  0.3467022E+04  0.7818609E-02  0.8121650E-01
       -2   -1    0    0    0  501  0.00000000000E+00  0.00000000000E+00  0.13302686968E+04  0.13302686968E+04  0.25500000920E-02 0.  1.
        2   -1    0    0  501    0  0.00000000000E+00  0.00000000000E+00 -0.22589875536E+04  0.22589875536E+04  0.25500000920E-02 0. -1.
    10030    2    1    2    0    0  0.00000000000E+00  0.00000000000E+00 -0.92871885678E+03  0.35892562504E+04  0.34670220242E+04 0.  0.
        4    1    3    3  502    0  0.19371421897E+03  0.73283690983E+03 -0.20783248263E+04  0.22122411332E+04  0.12699999809E+01 0. -1.
       -4    1    3    3    0  502 -0.19371421897E+03 -0.73283690983E+03  0.11496059695E+04  0.13770151172E+04  0.12699999809E+01 0.  1.
</event>
<event>
 5   0  0.4464951E-07  0.3395561E+04  0.7818609E-02  0.8138997E-01
        1   -1    0    0  501    0  0.00000000000E+00  0.00000000000E+00  0.19713962520E+04  0.19713962520E+04  0.50400001928E-02 0.  1.
       -1   -1    0    0    0  501  0.00000000000E+00  0.00000000000E+00 -0.14621406637E+04  0.14621406637E+04  0.50400001928E-02 0. -1.
    10030    2    1    2    0    0  0.00000000000E+00  0.00000000000E+00  0.50925558830E+03  0.34335369158E+04  0.33955609990E+04 0.  0.
        3    1    3    3  502    0  0.16269979284E+04 -0.48430062321E+03  0.28303579407E+03  0.17209818778E+04  0.10100000352E+00 0.  1.
       -3    1    3    3    0  502 -0.16269979284E+04  0.48430062321E+03  0.22621979423E+03  0.17125550380E+04  0.10100000352E+00 0. -1.
</event>
<event>
 5   0  0.4289684E-07  0.3014204E+04  0.7818609E-02  0.8239686E-01
        1   -1    0    0  501    0  0.00000000000E+00  0.00000000000E+00  0.12136485331E+04  0.12136485331E+04  0.50400001928E-02 0. -1.
       -1   -1    0    0    0  501  0.00000000000E+00  0.00000000000E+00 -0.18715109987E+04  0.18715109987E+04  0.50400001928E-02 0.  1.
    10030    2    1    2    0    0  0.00000000000E+00  0.00000000000E+00 -0.65786246561E+03  0.30851595319E+04  0.30142040929E+04 0.  0.
        4    1    3    3  502    0 -0.45953243550E+03  0.16448585444E+02 -0.17979574698E+04  0.18558268484E+04  0.12699999809E+01 0.  1.
       -4    1    3    3    0  502  0.45953243550E+03 -0.16448585444E+02  0.11400950042E+04  0.12293326835E+04  0.12699999809E+01 0. -1.
</event>
<event>
 5   0  0.4125758E-07  0.3389414E+04  0.7818609E-02  0.8140509E-01
        1   -1    0    0  501    0  0.00000000000E+00  0.00000000000E+00  0.12055619976E+04  0.12055619977E+04  0.50400001928E-02 0.  1.
       -1   -1    0    0    0  501  0.00000000000E+00  0.00000000000E+00 -0.23823178735E+04  0.23823178735E+04  0.50400001928E-02 0. -1.
    10030    2    1    2    0    0  0.00000000000E+00  0.00000000000E+00 -0.11767558758E+04  0.35878798711E+04  0.33894140465E+04 0.  0.
        2    1    3    3  502    0  0.30042950218E+03 -0.11306853391E+04  0.70951736672E+03  0.13682551354E+04  0.25500000920E-02 0.  1.
       -2    1    3    3    0  502 -0.30042950218E+03  0.11306853391E+04 -0.18862732425E+04  0.22196247357E+04  0.25500000920E-02 0. -1.
</event>
<event>
 5   0  0.1300176E-06  0.3487949E+04  0.7818609E-02  0.8116652E-01
        2   -1    0    0  501    0  0.00000000000E+00  0.00000000000E+00  0.17504591706E+04  0.17504591706E+04  0.25500000920E-02 0. -1.
       -2   -1    0    0    0  501  0.00000000000E+00  0.00000000000E+00 -0.17375138095E+04  0.17375138095E+04  0.25500000920E-02 0.  1.
    10030    2    1    2    0    0  0.00000000000E+00  0.00000000000E+00  0.12945361048E+02  0.34879729801E+04  0.34879489571E+04 0.  0.
        1    1    3    3  502    0  0.23844312362E+02  0.65973256244E+03  0.16206806191E+04  0.17499775068E+04  0.50400001928E-02 0. -1.
       -1    1    3    3    0  502 -0.23844312362E+02 -0.65973256244E+03 -0.16077352581E+04  0.17379954733E+04  0.50400001928E-02 0.  1.
</event>
<event>
 5   0  0.4464951E-07  0.3404860E+04  0.7818609E-02  0.8136714E-01
       -1   -1    0    0    0  501  0.00000000000E+00  0.00000000000E+00  0.20893882028E+04  0.20893882028E+04  0.50400001928E-02 0. -1.
        1   -1    0    0  501    0  0.00000000000E+00  0.00000000000E+00 -0.13871372849E+04  0.13871372849E+04  0.50400001928E-02 0.  1.
    10030    2    1    2    0    0  0.00000000000E+00  0.00000000000E+00  0.70225091787E+03  0.34765254877E+04  0.34048602196E+04 0.  0.
        3    1    3    3  502    0  0.90854023262E+03 -0.12344363056E+04 -0.40540830649E+03  0.15854444967E+04  0.10100000352E+00 0.  1.
       -3    1    3    3    0  502 -0.90854023262E+03  0.12344363056E+04  0.11076592244E+04  0.18910809910E+04  0.10100000352E+00 0. -1.
</event>
<event>
 5   0  0.1300176E-06  0.3317589E+04  0.7818609E-02  0.8158434E-01
       -2   -1    0    0    0  501  0.00000000000E+00  0.00000000000E+00  0.13912631429E+04  0.13912631429E+04  0.25500000920E-02 0. -1.
        2   -1    0    0  501    0  0.00000000000E+00  0.00000000000E+00 -0.19777704288E+04  0.19777704288E+04  0.25500000920E-02 0.  1.
    10030    2    1    2    0    0  0.00000000000E+00  0.00000000000E+00 -0.58650728592E+03  0.33690335718E+04  0.33175889455E+04 0.  0.
        1    1    3    3  502    0  0.39311109024E+03 -0.13563646766E+04 -0.11769997907E+04  0.18383661149E+04  0.50400001928E-02 0.  1.
       -1    1    3    3    0  502 -0.39311109024E+03  0.13563646766E+04  0.59049250477E+03  0.15306674568E+04  0.50400001928E-02 0. -1.
</event>
<event>
 5   0  0.1268230E-06  0.3381848E+04  0.7818609E-02  0.8142376E-01
       -2   -1    0    0    0  501  0.00000000000E+00  0.00000000000E+00  0.17034193031E+04  0.17034193031E+04  0.25500000920E-02 0. -1.
        2   -1    0    0  501    0  0.00000000000E+00  0.00000000000E+00 -0.16785206658E+04  0.16785206658E+04  0.25500000920E-02 0.  1.
    10030    2    1    2    0    0  0.00000000000E+00  0.00000000000E+00  0.24898637386E+02  0.33819399689E+04  0.33818483128E+04 0.  0.
        2    1    3    3  502    0  0.49460740801E+03 -0.11037084156E+04  0.11941817086E+04  0.16996701762E+04  0.25500000920E-02 0. -1.
       -2    1    3    3    0  502 -0.49460740801E+03  0.11037084156E+04 -0.11692830712E+04  0.16822697927E+04  0.25500000920E-02 0.  1.
</event>
<event>
 5   0  0.1277635E-06  0.3355367E+04  0.7818609E-02  0.8148949E-01
        2   -1    0    0  501    0  0.00000000000E+00  0.00000000000E+00  0.23989889368E+04  0.23989889368E+04  0.25500000920E-02 0.  1.
       -2   -1    0    0    0  501  0.00000000000E+00  0.00000000000E+00 -0.11732530538E+04  0.11732530538E+04  0.25500000920E-02 0. -1.
    10030    2    1    2    0    0  0.00000000000E+00  0.00000000000E+00  0.12257358830E+04  0.35722419907E+04  0.33553665053E+04 0.  0.
        4    1    3    3  502    0 -0.15972881169E+04 -0.34526067386E+03  0.20874767910E+03  0.16474560594E+04  0.12699999809E+01 0. -1.
       -4    1    3    3    0  502  0.15972881169E+04  0.34526067386E+03  0.10169882039E+04  0.19247859312E+04  0.12699999809E+01 0.  1.
</event>
<event>
 5   0  0.4289684E-07  0.3493391E+04  0.7818609E-02  0.8115358E-01
        1   -1    0    0  501    0  0.00000000000E+00  0.00000000000E+00  0.21066770036E+04  0.21066770036E+04  0.50400001928E-02 0. -1.
       -1   -1    0    0    0  501  0.00000000000E+00  0.00000000000E+00 -0.14482261370E+04  0.14482261370E+04  0.50400001928E-02 0.  1.
    10030    2    1    2    0    0  0.00000000000E+00  0.00000000000E+00  0.65845086654E+03  0.35549031406E+04  0.34933907305E+04 0.  0.
        4    1    3    3  502    0 -0.12339338271E+04 -0.27959484115E+03  0.15546628402E+04  0.20044311224E+04  0.12699999809E+01 0. -1.
       -4    1    3    3    0  502  0.12339338271E+04  0.27959484115E+03 -0.89621197361E+03  0.15504720183E+04  0.12699999809E+01 0.  1.
</event>
<event>
 5   0  0.4272633E-07  0.3367045E+04  0.7818609E-02  0.8146042E-01
        1   -1    0    0  501    0  0.00000000000E+00  0.00000000000E+00  0.22435170179E+04  0.22435170179E+04  0.50400001928E-02 0.  1.
       -1   -1    0    0    0  501  0.00000000000E+00  0.00000000000E+00 -0.12633055271E+04  0.12633055271E+04  0.50400001928E-02 0. -1.
    10030    2    1    2    0    0  0.00000000000E+00  0.00000000000E+00  0.98021149081E+03  0.35068225450E+04  0.33670446679E+04 0.  0.
        1    1    3    3  502    0  0.48997562362E+03 -0.61677044742E+03  0.20397454122E+04  0.21865596821E+04  0.50400001928E-02 0.  1.
       -1    1    3    3    0  502 -0.48997562362E+03  0.61677044742E+03 -0.10595339214E+04  0.13202628629E+04  0.50400001928E-02 0. -1.
</event>
<event>
 5   0  0.1277635E-06  0.3366502E+04  0.7818609E-02  0.8146177E-01
        2   -1    0    0  501    0  0.00000000000E+00  0.00000000000E+00  0.89439389834E+03  0.89439389834E+03  0.25500000920E-02 0. -1.
       -2   -1    0    0    0  501  0.00000000000E+00  0.00000000000E+00 -0.31678816307E+04  0.31678816307E+04  0.25500000920E-02 0.  1.
    10030    2    1    2    0    0  0.00000000000E+00  0.00000000000E+00 -0.22734877324E+04  0.40622755290E+04  0.33665020429E+04 0.  0.
        4    1    3    3  502    0  0.51888846877E+03  0.75135278566E+03  0.56956361512E+03  0.10761879836E+04  0.12699999809E+01 0. -1.
       -4    1    3    3    0  502 -0.51888846877E+03 -0.75135278566E+03 -0.28430513475E+04  0.29860875454E+04  0.12699999809E+01 0.  1.
</event>
<event>
 5   0  0.1269497E-06  0.3379876E+04  0.7818609E-02  0.8142863E-01
        2   -1    0    0  501    0  0.00000000000E+00  0.00000000000E+00  0.25209258765E+04  0.25209258765E+04  0.25500000920E-02 0. -1.
       -2   -1    0    0    0  501  0.00000000000E+00  0.00000000000E+00 -0.11328735847E+04  0.11328735847E+04  0.25500000920E-02 0.  1.
    10030    2    1    2    0    0  0.00000000000E+00  0.00000000000E+00  0.13880522918E+04  0.36537994612E+04  0.33798759353E+04 0.  0.
        5    1    3    3  502    0 -0.72399670040E+03  0.47783215913E+03  0.22618675971E+04  0.24225114884E+04  0.46999998093E+01 0. -1.
       -5    1    3    3    0  502  0.72399670040E+03 -0.47783215913E+03 -0.87381530523E+03  0.12312879729E+04  0.46999998093E+01 0.  1.
</event>
<event>
 5   0  0.4125758E-07  0.3391187E+04  0.7818609E-02  0.8140073E-01
        1   -1    0    0  501    0  0.00000000000E+00  0.00000000000E+00  0.15385321287E+04  0.15385321287E+04  0.50400001928E-02 0.  1.
       -1   -1    0    0    0  501  0.00000000000E+00  0.00000000000E+00 -0.18686886894E+04  0.18686886894E+04  0.50400001928E-02 0. -1.
    10030    2    1    2    0    0  0.00000000000E+00  0.00000000000E+00 -0.33015656071E+03  0.34072208180E+04  0.33911871591E+04 0.  0.
        2    1    3    3  502    0 -0.15286288965E+04  0.42996192735E+03  0.43226107756E+03  0.16457287751E+04  0.25500000920E-02 0.  1.
       -2    1    3    3    0  502  0.15286288965E+04 -0.42996192735E+03 -0.76241763827E+03  0.17614920429E+04  0.25500000920E-02 0. -1.
</event>
<event>
 5   0  0.4464951E-07  0.3481102E+04  0.7818609E-02  0.8118283E-01
        1   -1    0    0  501    0  0.00000000000E+00  0.00000000000E+00  0.21933536031E+04  0.21933536031E+04  0.50400001928E-02 0.  1.
       -1   -1    0    0    0  501  0.00000000000E+00  0.00000000000E+00 -0.13812260080E+04  0.13812260080E+04  0.50400001928E-02 0. -1.
    10030    2    1    2    0    0  0.00000000000E+00  0.00000000000E+00  0.81212759514E+03  0.35745796112E+04  0.34811015736E+04 0.  0.
        3    1    3    3  502    0 -0.20607137797E+03  0.11336784783E+04  0.17456346617E+04  0.20916339755E+04  0.10100000352E+00 0.  1.
       -3    1    3    3    0  502  0.20607137797E+03 -0.11336784783E+04 -0.93350706658E+03  0.14829456357E+04  0.10100000352E+00 0. -1.
</event>
<event>
 5   0  0.1268230E-06  0.3384797E+04  0.7818609E-02  0.8141648E-01
       -2   -1    0    0    0  501  0.00000000000E+00  0.00000000000E+00  0.29668617420E+04  0.29668617420E+04  0.25500000920E-02 0.  1.
        2   -1    0    0  501    0  0.00000000000E+00  0.00000000000E+00 -0.96540149466E+03  0.96540149466E+03  0.25500000920E-02 0. -1.
    10030    2    1    2    0    0  0.00000000000E+00  0.00000000000E+00  0.20014602473E+04  0.39322632367E+04  0.33847970457E+04 0.  0.
        2    1    3    3  502    0 -0.99363453327E+03 -0.78197863713E+02 -0.58826391786E+03  0.11573585998E+04  0.25500000920E-02 0. -1.
       -2    1    3    3    0  502  0.99363453327E+03  0.78197863713E+02  0.25897241652E+04  0.27749046368E+04  0.25500000920E-02 0.  1.
</event>
<event>
 5   0  0.1277635E-06  0.3413259E+04  0.7818609E-02  0.8134660E-01
        2   -1    0    0  501    0  0.00000000000E+00  0.00000000000E+00  0.23334929443E+04  0.23334929443E+04  0.25500000920E-02 0. -1.
       -2   -1    0    0    0  501  0.00000000000E+00  0.00000000000E+00 -0.12481649544E+04  0.12481649544E+04  0.25500000920E-02 0.  1.
    10030    2    1    2    0    0  0.00000000000E+00  0.00000000000E+00  0.10853279899E+04  0.35816578988E+04  0.34132589205E+04 0.  0.
        4    1    3    3  502    0 -0.69457860191E+03 -0.10755058314E+04 -0.64147437315E+03  0.14320067081E+04  0.12699999809E+01 0. -1.
       -4    1    3    3    0  502  0.69457860191E+03  0.10755058314E+04  0.17268023631E+04  0.21496511907E+04  0.12699999809E+01 0.  1.
</event>
<event>
 5   0  0.4272633E-07  0.3509492E+04  0.7818609E-02  0.8111544E-01
       -1   -1    0    0    0  501  0.00000000000E+00  0.00000000000E+00  0.11439932579E+04  0.11439932579E+04  0.50400001928E-02 0. -1.
        1   -1    0    0  501    0  0.00000000000E+00  0.00000000000E+00 -0.26915656266E+04  0.26915656266E+04  0.50400001928E-02 0.  1.
    10030    2    1    2    0    0  0.00000000000E+00  0.00000000000E+00 -0.15475723687E+04  0.38355588845E+04  0.35094916612E+04 0.  0.
        1    1    3    3  502    0 -0.13157981106E+04  0.11194806551E+04 -0.43768953964E+03  0.17821710743E+04  0.50400001928E-02 0. -1.
       -1    1    3    3    0  502  0.13157981106E+04 -0.11194806551E+04 -0.11098828291E+04  0.20533878102E+04  0.50400001928E-02 0.  1.
</event>
<event>
 5   0  0.4272633E-07  0.3277449E+04  0.7818609E-02  0.8168657E-01
        1   -1    0    0  501    0  0.00000000000E+00  0.00000000000E+00  0.10472338643E+04  0.10472338643E+04  0.50400001928E-02 0. -1.
       -1   -1    0    0    0  501  0.00000000000E+00  0.00000000000E+00 -0.25642963584E+04  0.25642963584E+04  0.50400001928E-02 0.  1.
    10030    2    1    2    0    0  0.00000000000E+00  0.00000000000E+00 -0.15170624941E+04  0.36115302227E+04  0.32774489986E+04 0.  0.
        1    1    3    3  502    0 -0.73212246590E+03  0.13554583744E+04 -0.14287954405E+03  0.15471539271E+04  0.50400001928E-02 0. -1.
       -1    1    3    3    0  502  0.73212246590E+03 -0.13554583744E+04 -0.13741829500E+04  0.20643762957E+04  0.50400001928E-02 0.  1.
</event>
<event>
 5   0  0.1256208E-06  0.3370476E+04  0.7818609E-02  0.8145191E-01
        2   -1    0    0  501    0  0.00000000000E+00  0.00000000000E+00  0.17413447791E+04  0.17413447791E+04  0.25500000920E-02 0. -1.
       -2   -1    0    0    0  501  0.00000000000E+00  0.00000000000E+00 -0.16309385827E+04  0.16309385827E+04  0.25500000920E-02 0.  1.
    10030    2    1    2    0    0  0.00000000000E+00  0.00000000000E+00  0.11040619644E+03  0.33722833618E+04  0.33704755665E+04 0.  0.
        3    1    3    3  502    0 -0.16685854183E+04 -0.22859863874E+03  0.11516637054E+03  0.16881048365E+04  0.10100000352E+00 0.  1.
       -3    1    3    3    0  502  0.16685854183E+04  0.22859863874E+03 -0.47601740940E+01  0.16841785253E+04  0.10100000352E+00 0. -1.
</event>
<event>
 5   0  0.4289684E-07  0.3391533E+04  0.7818609E-02  0.8139988E-01
        1   -1    0    0  501    0  0.00000000000E+00  0.00000000000E+00  0.23266246976E+04  0.23266246976E+04  0.50400001928E-02 0. -1.
       -1   -1    0    0    0  501  0.00000000000E+00  0.00000000000E+00 -0.12359638194E+04  0.12359638194E+04  0.50400001928E-02 0.  1.
    10030    2    1    2    0    0  0.00000000000E+00  0.00000000000E+00  0.10906608782E+04  0.35625885170E+04  0.33915329559E+04 0.  0.
        4    1    3    3  502    0 -0.40986409210E+03  0.15040318564E+04 -0.15580863086E+03  0.15666455698E+04  0.12699999809E+01 0.  1.
       -4    1    3    3    0  502  0.40986409210E+03 -0.15040318564E+04  0.12464695090E+04  0.19959429473E+04  0.12699999809E+01 0. -1.
</event>
<event>
 5   0  0.4464951E-07  0.3316407E+04  0.7818609E-02  0.8158733E-01
        1   -1    0    0  501    0  0.00000000000E+00  0.00000000000E+00  0.34622038837E+04  0.34622038837E+04  0.50400001928E-02 0. -1.
       -1   -1    0    0    0  501  0.00000000000E+00  0.00000000000E+00 -0.79418749937E+03  0.79418749939E+03  0.50400001928E-02 0.  1.
    10030    2    1    2    0    0  0.00000000000E+00  0.00000000000E+00  0.26680163843E+04  0.42563913831E+04  0.33164071190E+04 0.  0.
        3    1    3    3  502    0 -0.80747440615E+03  0.13815398258E+04  0.77608778329E+03  0.17784767259E+04  0.10100000352E+00 0.  1.
       -3    1    3    3    0  502  0.80747440615E+03 -0.13815398258E+04  0.18919286010E+04  0.24779146572E+04  0.10100000352E+00 0. -1.
</event>
<event>
 5   0  0.4272633E-07  0.3393850E+04  0.7818609E-02  0.8139417E-01
        1   -1    0    0  501    0  0.00000000000E+00  0.00000000000E+00  0.26576722436E+04  0.26576722436E+04  0.50400001928E-02 0.  1.
       -1   -1    0    0    0  501  0.00000000000E+00  0.00000000000E+00 -0.10834875188E+04  0.10834875188E+04  0.50400001928E-02 0. -1.
    10030    2    1    2    0    0  0.00000000000E+00  0.00000000000E+00  0.15741847248E+04  0.37411597624E+04  0.33938501470E+04 0.  0.
        1    1    3    3  502    0 -0.15775611539E+04 -0.62252445010E+03  0.85059699752E+03  0.18973010139E+04  0.50400001928E-02 0. -1.
       -1    1    3    3    0  502  0.15775611539E+04  0.62252445010E+03  0.72358772727E+03  0.18438587485E+04  0.50400001928E-02 0.  1.
</event>
<event>
 5   0  0.4464951E-07  0.3496338E+04  0.7818609E-02  0.8114658E-01
       -1   -1    0    0    0  501  0.00000000000E+00  0.00000000000E+00  0.18591894751E+04  0.18591894751E+04  0.50400001928E-02 0.  1.
        1   -1    0    0  501    0  0.00000000000E+00  0.00000000000E+00 -0.16437783915E+04  0.16437783915E+04  0.50400001928E-02 0. -1.
    10030    2    1    2    0    0  0.00000000000E+00  0.00000000000E+00  0.21541108356E+03  0.35029678666E+04  0.34963383617E+04 0.  0.
        3    1    3    3  502    0  0.24232199891E+03  0.16910745639E+04  0.47941081847E+03  0.17743415328E+04  0.10100000352E+00 0.  1.
       -3    1    3    3    0  502 -0.24232199891E+03 -0.16910745639E+04 -0.26399973491E+03  0.17286263338E+04  0.10100000352E+00 0. -1.
</event>
<event>
 5   0  0.1269497E-06  0.3260974E+04  0.7818609E-02  0.8172897E-01
       -2   -1    0    0    0  501  0.00000000000E+00  0.00000000000E+00  0.11611613290E+04  0.11611613290E+04  0.25500000920E-02 0. -1.
        2   -1    0    0  501    0  0.00000000000E+00  0.00000000000E+00 -0.22895082967E+04  0.22895082967E+04  0.25500000920E-02 0.  1.
    10030    2    1    2    0    0  0.00000000000E+00  0.00000000000E+00 -0.11283469676E+04  0.34506696257E+04  0.32609743922E+04 0.  0.
        5    1    3    3  502    0  0.72457224890E+02 -0.52256223617E+02  0.11585624826E+04  0.11620111353E+04  0.46999998093E+01 0. -1.
       -5    1    3    3    0  502 -0.72457224890E+02  0.52256223617E+02 -0.22869094502E+04  0.22886584904E+04  0.46999998093E+01 0.  1.
</event>
<event>
 5   0  0.4289684E-07  0.3418558E+04  0.7818609E-02  0.8133367E-01
       -1   -1    0    0    0  501  0.00000000000E+00  0.00000000000E+00  0.15203599921E+04  0.15203599921E+04  0.50400001928E-02 0. -1.
        1   -1    0    0  501    0  0.00000000000E+00  0.00000000000E+00 -0.19216727524E+04  0.19216727524E+04  0.50400001928E-02 0.  1.
    10030    2    1    2    0    0  0.00000000000E+00  0.00000000000E+00 -0.40131276034E+03  0.34420327445E+04  0.34185578074E+04 0.  0.
        4    1    3    3  502    0 -0.67185199869E+03 -0.97250132340E+03 -0.14438368878E+04  0.18659610135E+04  0.12699999809E+01 0.  1.
       -4    1    3    3    0  502  0.67185199869E+03  0.97250132340E+03  0.10425241275E+04  0.15760717311E+04  0.12699999809E+01 0. -1.
</event>
<event>
 5   0  0.4272633E-07  0.3381922E+04  0.7818609E-02  0.8142357E-01
       -1   -1    0    0    0  501  0.00000000000E+00  0.00000000000E+00  0.12886040639E+04  0.12886040639E+04  0.50400001928E-02 0. -1.
        1   -1    0    0  501    0  0.00000000000E+00  0.00000000000E+00 -0.22189512199E+04  0.22189512199E+04  0.50400001928E-02 0.  1.
    10030    2    1    2    0    0  0.00000000000E+00  0.00000000000E+00 -0.93034715597E+03  0.35075552838E+04  0.33819222697E+04 0.  0.
        1    1    3    3  502    0 -0.12216544713E+04 -0.22899963142E+03  0.72392015679E+03  0.14383813374E+04  0.50400001928E-02 0. -1.
       -1    1    3    3    0  502  0.12216544713E+04  0.22899963142E+03 -0.16542673128E+04  0.20691739464E+04  0.50400001928E-02 0.  1.
</event>
<event>
 5   0  0.4464951E-07  0.3379232E+04  0.7818609E-02  0.8143022E-01
       -1   -1    0    0    0  501  0.00000000000E+00  0.00000000000E+00  0.30311217492E+04  0.30311217492E+04  0.50400001928E-02 0. -1.
        1   -1    0    0  501    0  0.00000000000E+00  0.00000000000E+00 -0.94183033002E+03  0.94183033003E+03  0.50400001928E-02 0.  1.
    10030    2    1    2    0    0  0.00000000000E+00  0.00000000000E+00  0.20892914192E+04  0.39729520793E+04  0.33792321006E+04 0.  0.
        3    1    3    3  502    0 -0.10924753782E+04  0.50017535748E+03  0.24412648125E+04  0.27209284693E+04  0.10100000352E+00 0. -1.
       -3    1    3    3    0  502  0.10924753782E+04 -0.50017535748E+03 -0.35197339325E+03  0.12520236100E+04  0.10100000352E+00 0.  1.
</event>
<event>
 5   0  0.1269497E-06  0.3423711E+04  0.7818609E-02  0.8132111E-01
       -2   -1    0    0    0  501  0.00000000000E+00  0.00000000000E+00  0.17001749767E+04  0.17001749767E+04  0.25500000920E-02 0. -1.
        2   -1    0    0  501    0  0.00000000000E+00  0.00000000000E+00 -0.17236162174E+04  0.17236162174E+04  0.25500000920E-02 0.  1.
    10030    2    1    2    0    0  0.00000000000E+00  0.00000000000E+00 -0.23441240685E+02  0.34237911941E+04  0.34237109471E+04 0.  0.
        5    1    3    3  502    0  0.80068049346E+03  0.92448616331E+03 -0.12095229443E+04  0.17200964396E+04  0.46999998093E+01 0.  1.
       -5    1    3    3    0  502 -0.80068049346E+03 -0.92448616331E+03  0.11860817037E+04  0.17036947545E+04  0.46999998093E+01 0. -1.
</event>
<event>
 5   0  0.1277635E-06  0.3385310E+04  0.7818609E-02  0.8141521E-01
       -2   -1    0    0    0  501  0.00000000000E+00  0.00000000000E+00  0.11297962575E+04  0.11297962575E+04  0.25500000920E-02 0. -1.
        2   -1    0    0  501    0  0.00000000000E+00  0.00000000000E+00 -0.25359263828E+04  0.25359263828E+04  0.25500000920E-02 0.  1.
    10030    2    1    2    0    0  0.00000000000E+00  0.00000000000E+00 -0.14061301253E+04  0.36657226403E+04  0.33853095200E+04 0.  0.
        4    1    3    3  502    0 -0.12915425795E+04  0.11683964518E+03  0.47485785132E+03  0.13810232906E+04  0.12699999809E+01 0. -1.
       -4    1    3    3    0  502  0.12915425795E+04 -0.11683964518E+03 -0.18809879766E+04  0.22846993497E+04  0.12699999809E+01 0.  1.
</event>
<event>
 5   0  0.4109937E-07  0.3360645E+04  0.7818609E-02  0.8147633E-01
       -1   -1    0    0    0  501  0.00000000000E+00  0.00000000000E+00  0.14613115085E+04  0.14613115085E+04  0.50400001928E-02 0.  1.
        1   -1    0    0  501    0  0.00000000000E+00  0.00000000000E+00 -0.19321573757E+04  0.19321573757E+04  0.50400001928E-02 0. -1.
    10030    2    1    2    0    0  0.00000000000E+00  0.00000000000E+00 -0.47084586720E+03  0.33934688842E+04  0.33606450626E+04 0.  0.
        5    1    3    3  502    0  0.89278098688E+03 -0.13531826087E+04  0.21082177170E+03  0.16348177184E+04  0.46999998093E+01 0. -1.
       -5    1    3    3    0  502 -0.89278098688E+03  0.13531826087E+04 -0.68166763889E+03  0.17586511658E+04  0.46999998093E+01 0.  1.
</event>
<event>
 5   0  0.1277635E-06  0.3410640E+04  0.7818609E-02  0.8135300E-01
        2   -1    0    0  501    0  0.00000000000E+00  0.00000000000E+00  0.14256056593E+04  0.14256056593E+04  0.25500000920E-02 0. -1.
       -2   -1    0    0    0  501  0.00000000000E+00  0.00000000000E+00 -0.20399159727E+04  0.20399159727E+04  0.25500000920E-02 0.  1.
    10030    2    1    2    0    0  0.00000000000E+00  0.00000000000E+00 -0.61431031334E+03  0.34655216320E+04  0.34106396791E+04 0.  0.
        4    1    3    3  502    0  0.53717324193E+03  0.82958176881E+02  0.13352323550E+04  0.14416255429E+04  0.12699999809E+01 0. -1.
       -4    1    3    3    0  502 -0.53717324193E+03 -0.82958176881E+02 -0.19495426684E+04  0.20238960892E+04  0.12699999809E+01 0.  1.
</event>
<event>
 5   0  0.4109937E-07  0.3399975E+04  0.7818609E-02  0.8137912E-01
        1   -1    0    0  501    0  0.00000000000E+00  0.00000000000E+00  0.17978368999E+04  0.17978368999E+04  0.50400001928E-02 0.  1.
       -1   -1    0    0    0  501  0.00000000000E+00  0.00000000000E+00 -0.16074637930E+04  0.16074637930E+04  0.50400001928E-02 0. -1.
    10030    2    1    2    0    0  0.00000000000E+00  0.00000000000E+00  0.19037310693E+03  0.34053006929E+04  0.33999751307E+04 0.  0.
        5    1    3    3  502    0  0.76191177164E+03  0.27777848736E+03 -0.14012304022E+04  0.16189932569E+04  0.46999998093E+01 0. -1.
       -5    1    3    3    0  502 -0.76191177164E+03 -0.27777848736E+03  0.15916035091E+04  0.17863074360E+04  0.46999998093E+01 0.  1.
</event>
<event>
 5   0  0.1268230E-06  0.3385858E+04  0.7818609E-02  0.8141386E-01
        2   -1    0    0  501    0  0.00000000000E+00  0.00000000000E+00  0.16268660884E+04  0.16268660884E+04  0.25500000920E-02 0.  1.
       -2   -1    0    0    0  501  0.00000000000E+00  0.00000000000E+00 -0.17616746344E+04  0.17616746344E+04  0.25500000920E-02 0. -1.
    10030    2    1    2    0    0  0.00000000000E+00  0.00000000000E+00 -0.13480854604E+03  0.33885407228E+04  0.33858580724E+04 0.  0.
        2    1    3    3  502    0  0.13452836084E+04 -0.73779485343E+03  0.64862012952E+03  0.16657842913E+04  0.25500000920E-02 0. -1.
       -2    1    3    3    0  502 -0.13452836084E+04  0.73779485343E+03 -0.78342867556E+03  0.17227564315E+04  0.25500000920E-02 0.  1.
</event>
<event>
 5   0  0.1300176E-06  0.3455873E+04  0.7818609E-02  0.8124328E-01
        2   -1    0    0  501    0  0.00000000000E+00  0.00000000000E+00  0.25902086991E+04  0.25902086991E+04  0.25500000920E-02 0.  1.
       -2   -1    0    0    0  501  0.00000000000E+00  0.00000000000E+00 -0.11527117451E+04  0.11527117451E+04  0.25500000920E-02 0. -1.
    10030    2    1    2    0    0  0.00000000000E+00  0.00000000000E+00  0.14374969540E+04  0.37429204442E+04  0.34558726768E+04 0.  0.
        1    1    3    3  502    0 -0.14495525292E+04 -0.25758372097E+03  0.16984320062E+04  0.22477151038E+04  0.50400001928E-02 0. -1.
       -1    1    3    3    0  502  0.14495525292E+04  0.25758372097E+03 -0.26093505218E+03  0.14952053403E+04  0.50400001928E-02 0.  1.
</event>
<event>
 5   0  0.4289684E-07  0.3384028E+04  0.7818609E-02  0.8141837E-01
       -1   -1    0    0    0  501  0.00000000000E+00  0.00000000000E+00  0.13518497330E+04  0.13518497330E+04  0.50400001928E-02 0.  1.
        1   -1    0    0  501    0  0.00000000000E+00  0.00000000000E+00 -0.21177735320E+04  0.21177735320E+04  0.50400001928E-02 0. -1.
    10030    2    1    2    0    0  0.00000000000E+00  0.00000000000E+00 -0.76592379905E+03  0.34696232650E+04  0.33840281227E+04 0.  0.
        4    1    3    3  502    0 -0.74124225422E+03  0.63361644938E+03 -0.18006879238E+04  0.20477764761E+04  0.12699999809E+01 0. -1.
       -4    1    3    3    0  502  0.74124225422E+03 -0.63361644938E+03  0.10347641247E+04  0.14218467889E+04  0.12699999809E+01 0.  1.
</event>
<event>
 5   0  0.1300176E-06  0.3440395E+04  0.7818609E-02  0.8128063E-01
        2   -1    0    0  501    0  0.00000000000E+00  0.00000000000E+00  0.30193748346E+04  0.30193748346E+04  0.25500000920E-02 0. -1.
       -2   -1    0    0    0  501  0.00000000000E+00  0.00000000000E+00 -0.98003058005E+03  0.98003058006E+03  0.25500000920E-02 0.  1.
    10030    2    1    2    0    0  0.00000000000E+00  0.00000000000E+00  0.20393442545E+04  0.39994054146E+04  0.34403951346E+04 0.  0.
        1    1    3    3  502    0 -0.15114091454E+04 -0.79315168108E+03  0.77134502298E+03  0.18730777716E+04  0.50400001928E-02 0. -1.
       -1    1    3    3    0  502  0.15114091454E+04  0.79315168108E+03  0.12679992315E+04  0.21263276430E+04  0.50400001928E-02 0.  1.
</event>
<event>
 5   0  0.4125758E-07  0.3372464E+04  0.7818609E-02  0.8144698E-01
       -1   -1    0    0    0  501  0.00000000000E+00  0.00000000000E+00  0.14131162482E+04  0.14131162482E+04  0.50400001928E-02 0. -1.
        1   -1    0    0  501    0  0.00000000000E+00  0.00000000000E+00 -0.20121330329E+04  0.20121330329E+04  0.50400001928E-02 0.  1.
    10030    2    1    2    0    0  0.00000000000E+00  0.00000000000E+00 -0.59901678463E+03  0.34252492811E+04  0.33724637180E+04 0.  0.
        2    1    3    3  502    0  0.31854058393E+03  0.66848367840E+03 -0.18381588342E+04  0.19817079582E+04  0.25500000920E-02 0.  1.
       -2    1    3    3    0  502 -0.31854058393E+03 -0.66848367840E+03  0.12391420496E+04  0.14435413229E+04  0.25500000920E-02 0. -1.
</event>
<event>
 5   0  0.1277635E-06  0.3385695E+04  0.7818609E-02  0.8141426E-01
        2   -1    0    0  501    0  0.00000000000E+00  0.00000000000E+00  0.13290376263E+04  0.13290376263E+04  0.25500000920E-02 0. -1.
       -2   -1    0    0    0  501  0.00000000000E+00  0.00000000000E+00 -0.21562461260E+04  0.21562461260E+04  0.25500000920E-02 0.  1.
    10030    2    1    2    0    0  0.00000000000E+00  0.00000000000E+00 -0.82720849969E+03  0.34852837522E+04  0.33856947488E+04 0.  0.
        4    1    3    3  502    0  0.10395305940E+04 -0.13294899329E+04 -0.55002900564E+03  0.17750213682E+04  0.12699999809E+01 0.  1.
       -4    1    3    3    0  502 -0.10395305940E+04  0.13294899329E+04 -0.27717949405E+03  0.17102623841E+04  0.12699999809E+01 0. -1.
</event>
<event>
 5   0  0.1256208E-06  0.3382978E+04  0.7818609E-02  0.8142097E-01
       -2   -1    0    0    0  501  0.00000000000E+00  0.00000000000E+00  0.13455090711E+04  0.13455090711E+04  0.25500000920E-02 0.  1.
        2   -1    0    0  501    0  0.00000000000E+00  0.00000000000E+00 -0.21264331847E+04  0.21264331847E+04  0.25500000920E-02 0. -1.
    10030    2    1    2    0    0  0.00000000000E+00  0.00000000000E+00 -0.78092411360E+03  0.34719422558E+04  0.33829780603E+04 0.  0.
        3    1    3    3  502    0 -0.13487510995E+04  0.89375313026E+03 -0.89659530551E+03  0.18498127847E+04  0.10100000352E+00 0. -1.
       -3    1    3    3    0  502  0.13487510995E+04 -0.89375313026E+03  0.11567119191E+03  0.16221294711E+04  0.10100000352E+00 0.  1.
</event>
<event>
 5   0  0.4125758E-07  0.3403571E+04  0.7818609E-02  0.8137030E-01
       -1   -1    0    0    0  501  0.00000000000E+00  0.00000000000E+00  0.25516757411E+04  0.25516757411E+04  0.50400001928E-02 0. -1.
        1   -1    0    0  501    0  0.00000000000E+00  0.00000000000E+00 -0.11349692627E+04  0.11349692627E+04  0.50400001928E-02 0.  1.
    10030    2    1    2    0    0  0.00000000000E+00  0.00000000000E+00  0.14167064784E+04  0.36866450038E+04  0.34035707923E+04 0.  0.
        2    1    3    3  502    0 -0.60441746314E+03  0.15883895939E+04  0.80384165996E+03  0.18800168579E+04  0.25500000920E-02 0. -1.
       -2    1    3    3    0  502  0.60441746314E+03 -0.15883895939E+04  0.61286481847E+03  0.18066281459E+04  0.25500000920E-02 0.  1.
</event>
<event>
 5   0  0.4289684E-07  0.3378030E+04  0.7818609E-02  0.8143320E-01
       -1   -1    0    0    0  501  0.00000000000E+00  0.00000000000E+00  0.15588839472E+04  0.15588839472E+04  0.50400001928E-02 0.  1.
        1   -1    0    0  501    0  0.00000000000E+00  0.00000000000E+00 -0.18300089015E+04  0.18300089015E+04  0.50400001928E-02 0. -1.
    10030    2    1    2    0    0  0.00000000000E+00  0.00000000000E+00 -0.27112495431E+03  0.33888928487E+04  0.33780298991E+04 0.  0.
        4    1    3    3  502    0  0.15457371960E+03  0.13083865322E+03  0.15466595894E+04  0.15598619446E+04  0.12699999809E+01 0.  1.
       -4    1    3    3    0  502 -0.15457371960E+03 -0.13083865322E+03 -0.18177845437E+04  0.18290309041E+04  0.12699999809E+01 0. -1.
</event>
<event>
 5   0  0.4109937E-07  0.3415910E+04  0.7818609E-02  0.8134012E-01
        1   -1    0    0  501    0  0.00000000000E+00  0.00000000000E+00  0.14194028987E+04  0.14194028987E+04  0.50400001928E-02 0.  1.
       -1   -1    0    0    0  501  0.00000000000E+00  0.00000000000E+00 -0.20551672674E+04  0.20551672674E+04  0.50400001928E-02 0. -1.
    10030    2    1    2    0    0  0.00000000000E+00  0.00000000000E+00 -0.63576436867E+03  0.34745701662E+04  0.34159100555E+04 0.  0.
        5    1    3    3  502    0  0.84403710848E+03 -0.96941235084E+03 -0.14618868422E+04  0.19466109462E+04  0.46999998093E+01 0. -1.
       -5    1    3    3    0  502 -0.84403710848E+03  0.96941235084E+03  0.82612247356E+03  0.15279592199E+04  0.46999998093E+01 0.  1.
</event>
<event>
 5   0  0.4464951E-07  0.2884025E+04  0.7818609E-02  0.8277646E-01
       -1   -1    0    0    0  501  0.00000000000E+00  0.00000000000E+00  0.10153864390E+04  0.10153864390E+04  0.50400001928E-02 0. -1.
        1   -1    0    0  501    0  0.00000000000E+00  0.00000000000E+00 -0.20478900131E+04  0.20478900131E+04  0.50400001928E-02 0.  1.
    10030    2    1    2    0    0  0.00000000000E+00  0.00000000000E+00 -0.10325035741E+04  0.30632764521E+04  0.28840247904E+04 0.  0.
        3    1    3    3  502    0  0.10396350742E+03  0.18774408518E+03 -0.20308330422E+04  0.20421408149E+04  0.10100000352E+00 0.  1.
       -3    1    3    3    0  502 -0.10396350742E+03 -0.18774408518E+03  0.99832946812E+03  0.10211356372E+04  0.10100000352E+00 0. -1.
</event>
<event>
 5   0  0.1256208E-06  0.2829835E+04  0.7818609E-02  0.8294065E-01
       -2   -1    0    0    0  501  0.00000000000E+00  0.00000000000E+00  0.17692578836E+04  0.17692578836E+04  0.25500000920E-02 0. -1.
        2   -1    0    0  501    0  0.00000000000E+00  0.00000000000E+00 -0.11315433784E+04  0.11315433784E+04  0.25500000920E-02 0.  1.
    10030    2    1    2    0    0  0.00000000000E+00  0.00000000000E+00  0.63771450525E+03  0.29008012620E+04  0.28298353612E+04 0.  0.
        3    1    3    3  502    0  0.38662669750E+03  0.58495387579E+03  0.15786360152E+04  0.17273514173E+04  0.10100000352E+00 0. -1.
       -3    1    3    3    0  502 -0.38662669750E+03 -0.58495387579E+03 -0.94092150995E+03  0.11734498447E+04  0.10100000352E+00 0.  1.
</event>
<event>
 5   0  0.1269497E-06  0.3384783E+04  0.7818609E-02  0.8141651E-01
        2   -1    0    0  501    0  0.00000000000E+00  0.00000000000E+00  0.23525216387E+04  0.23525216387E+04  0.25500000920E-02 0.  1.
       -2   -1    0    0    0  501  0.00000000000E+00  0.00000000000E+00 -0.12174972470E+04  0.12174972470E+04  0.25500000920E-02 0. -1.
    10030    2    1    2    0    0  0.00000000000E+00  0.00000000000E+00  0.11350243917E+04  0.35700188857E+04  0.33847827810E+04 0.  0.
        5    1    3    3  502    0 -0.65826619854E+03 -0.13516303168E+04  0.13871827812E+04  0.20456092148E+04  0.46999998093E+01 0.  1.
       -5    1    3    3    0  502  0.65826619854E+03  0.13516303168E+04 -0.25215838950E+03  0.15244096709E+04  0.46999998093E+01 0. -1.
</event>
<event>
 5   0  0.1268230E-06  0.2890600E+04  0.7818609E-02  0.8275680E-01
       -2   -1    0    0    0  501  0.00000000000E+00  0.00000000000E+00  0.14297596696E+04  0.14297596696E+04  0.25500000920E-02 0. -1.
        2   -1    0    0  501    0  0.00000000000E+00  0.00000000000E+00 -0.14610089902E+04  0.14610089902E+04  0.25500000920E-02 0.  1.
    10030    2    1    2    0    0  0.00000000000E+00  0.00000000000E+00 -0.31249320588E+02  0.28907686599E+04  0.28905997517E+04 0.  0.
        2    1    3    3  502    0  0.95445226408E+03 -0.10827438250E+04  0.59068499397E+02  0.14445768940E+04  0.25500000920E-02 0.  1.
       -2    1    3    3    0  502 -0.95445226408E+03  0.10827438250E+04 -0.90317819985E+02  0.14461917659E+04  0.25500000920E-02 0. -1.
</event>
<event>
 5   0  0.4464951E-07  0.3404568E+04  0.7818609E-02  0.8136786E-01
        1   -1    0    0  501    0  0.00000000000E+00  0.00000000000E+00  0.16107180567E+04  0.16107180567E+04  0.50400001928E-02 0.  1.
       -1   -1    0    0    0  501  0.00000000000E+00  0.00000000000E+00 -0.17990555201E+04  0.17990555201E+04  0.50400001928E-02 0. -1.
    10030    2    1    2    0    0  0.00000000000E+00  0.00000000000E+00 -0.18833746337E+03  0.34097735768E+04  0.34045682318E+04 0.  0.
        3    1    3    3  502    0  0.80639701110E+03  0.67210626331E+03 -0.14362803651E+04  0.17790177812E+04  0.10100000352E+00 0. -1.
       -3    1    3    3    0  502 -0.80639701110E+03 -0.67210626331E+03  0.12479429017E+04  0.16307557956E+04  0.10100000352E+00 0.  1.
</event>
<event>
 5   0  0.1268230E-06  0.3355388E+04  0.7818609E-02  0.8148943E-01
       -2   -1    0    0    0  501  0.00000000000E+00  0.00000000000E+00  0.12335479827E+04  0.12335479827E+04  0.25500000920E-02 0. -1.
        2   -1    0    0  501    0  0.00000000000E+00  0.00000000000E+00 -0.22817573472E+04  0.22817573472E+04  0.25500000920E-02 0.  1.
    10030    2    1    2    0    0  0.00000000000E+00  0.00000000000E+00 -0.10482093645E+04  0.35153053299E+04  0.33553880090E+04 0.  0.
        2    1    3    3  502    0  0.30600034592E+03 -0.11672832601E+04  0.69697906458E+03  0.13935444871E+04  0.25500000920E-02 0. -1.
       -2    1    3    3    0  502 -0.30600034592E+03  0.11672832601E+04 -0.17451884291E+04  0.21217608428E+04  0.25500000920E-02 0.  1.
</event>
<event>
 5   0  0.4272633E-07  0.3411403E+04  0.7818609E-02  0.8135113E-01
        1   -1    0    0  501    0  0.00000000000E+00  0.00000000000E+00  0.10843767139E+04  0.10843767140E+04  0.50400001928E-02 0.  1.
       -1   -1    0    0    0  501  0.00000000000E+00  0.00000000000E+00 -0.26830325630E+04  0.26830325630E+04  0.50400001928E-02 0. -1.
    10030    2    1    2    0    0  0.00000000000E+00  0.00000000000E+00 -0.15986558490E+04  0.37674092769E+04  0.34114032503E+04 0.  0.
        1    1    3    3  502    0 -0.23992993005E+03 -0.10095894892E+04  0.69567244933E+03  0.12493188003E+04  0.50400001928E-02 0.  1.
       -1    1    3    3    0  502  0.23992993005E+03  0.10095894892E+04 -0.22943282984E+04  0.25180904767E+04  0.50400001928E-02 0. -1.
</event>
<event>
 5   0  0.4109937E-07  0.3384506E+04  0.7818609E-02  0.8141720E-01
        1   -1    0    0  501    0  0.00000000000E+00  0.00000000000E+00  0.15718465937E+04  0.15718465937E+04  0.50400001928E-02 0.  1.
       -1   -1    0    0    0  501  0.00000000000E+00  0.00000000000E+00 -0.18218828448E+04  0.18218828448E+04  0.50400001928E-02 0. -1.
    10030    2    1    2    0    0  0.00000000000E+00  0.00000000000E+00 -0.25003625115E+03  0.33937294385E+04  0.33845060755E+04 0.  0.
        5    1    3    3  502    0 -0.51209620029E+03 -0.11741256322E+04 -0.12338729226E+04  0.17785606533E+04  0.46999998093E+01 0. -1.
       -5    1    3    3    0  502  0.51209620029E+03  0.11741256322E+04  0.98383667144E+03  0.16151687852E+04  0.46999998093E+01 0.  1.
</event>
<event>
 5   0  0.1277635E-06  0.3407829E+04  0.7818609E-02  0.8135987E-01
       -2   -1    0    0    0  501  0.00000000000E+00  0.00000000000E+00  0.15023528802E+04  0.15023528802E+04  0.25500000920E-02 0.  1.
        2   -1    0    0  501    0  0.00000000000E+00  0.00000000000E+00 -0.19325186834E+04  0.19325186834E+04  0.25500000920E-02 0. -1.
    10030    2    1    2    0    0  0.00000000000E+00  0.00000000000E+00 -0.43016580326E+03  0.34348715636E+04  0.34078292270E+04 0.  0.
        4    1    3    3  502    0  0.10876733067E+04  0.72287766095E+03 -0.13181796510E+04  0.18555819950E+04  0.12699999809E+01 0. -1.
       -4    1    3    3    0  502 -0.10876733067E+04 -0.72287766095E+03  0.88801384778E+03  0.15792895686E+04  0.12699999809E+01 0.  1.
</event>
<event>
 5   0  0.4464951E-07  0.3424121E+04  0.7818609E-02  0.8132011E-01
        1   -1    0    0  501    0  0.00000000000E+00  0.00000000000E+00  0.28126855295E+04  0.28126855296E+04  0.50400001928E-02 0.  1.
       -1   -1    0    0    0  501  0.00000000000E+00  0.00000000000E+00 -0.10421184121E+04  0.10421184121E+04  0.50400001928E-02 0. -1.
    10030    2    1    2    0    0  0.00000000000E+00  0.00000000000E+00  0.17705671174E+04  0.38548039417E+04  0.34241211298E+04 0.  0.
        3    1    3    3  502    0  0.12919898135E+04  0.40585535444E+03  0.20645042978E+04  0.24690350854E+04  0.10100000352E+00 0. -1.
       -3    1    3    3    0  502 -0.12919898135E+04 -0.40585535444E+03 -0.29393718041E+03  0.13857688563E+04  0.10100000352E+00 0.  1.
</event>
<event>
 5   0  0.4272633E-07  0.3398366E+04  0.7818609E-02  0.8138307E-01
        1   -1    0    0  501    0  0.00000000000E+00  0.00000000000E+00  0.23716238653E+04  0.23716238653E+04  0.50400001928E-02 0. -1.
       -1   -1    0    0    0  501  0.00000000000E+00  0.00000000000E+00 -0.12174035401E+04  0.12174035401E+04  0.50400001928E-02 0.  1.
    10030    2    1    2    0    0  0.00000000000E+00  0.00000000000E+00  0.11542203252E+04  0.35890274054E+04  0.33983662483E+04 0.  0.
        1    1    3    3  502    0  0.78900068088E+03 -0.76949859339E+03 -0.78872770884E+03  0.13552643869E+04  0.50400001928E-02 0.  1.
       -1    1    3    3    0  502 -0.78900068088E+03  0.76949859339E+03  0.19429480341E+04  0.22337630185E+04  0.50400001928E-02 0. -1.
</event>
<event>
 5   0  0.4125758E-07  0.3448208E+04  0.7818609E-02  0.8126175E-01
       -1   -1    0    0    0  501  0.00000000000E+00  0.00000000000E+00  0.29308238136E+04  0.29308238136E+04  0.50400001928E-02 0. -1.
        1   -1    0    0  501    0  0.00000000000E+00  0.00000000000E+00 -0.10142315370E+04  0.10142315370E+04  0.50400001928E-02 0.  1.
    10030    2    1    2    0    0  0.00000000000E+00  0.00000000000E+00  0.19165922766E+04  0.39450553507E+04  0.34482076163E+04 0.  0.
        2    1    3    3  502    0  0.13632470867E+04  0.77170987704E+03  0.17821632866E+04  0.23727799590E+04  0.25500000920E-02 0. -1.
       -2    1    3    3    0  502 -0.13632470867E+04 -0.77170987704E+03  0.13442899005E+03  0.15722753917E+04  0.25500000920E-02 0.  1.
</event>
<event>
 5   0  0.4289684E-07  0.3373893E+04  0.7818609E-02  0.8144344E-01
        1   -1    0    0  501    0  0.00000000000E+00  0.00000000000E+00  0.25380371049E+04  0.25380371049E+04  0.50400001928E-02 0. -1.
       -1   -1    0    0    0  501  0.00000000000E+00  0.00000000000E+00 -0.11212554270E+04  0.11212554270E+04  0.50400001928E-02 0.  1.
    10030    2    1    2    0    0  0.00000000000E+00  0.00000000000E+00  0.14167816779E+04  0.36592925319E+04  0.33738926347E+04 0.  0.
        4    1    3    3  502    0  0.14236375983E+04 -0.61994506351E+03  0.14234893473E+04  0.21065135718E+04  0.12699999809E+01 0.  1.
       -4    1    3    3    0  502 -0.14236375983E+04  0.61994506351E+03 -0.67076694008E+01  0.15527789601E+04  0.12699999809E+01 0. -1.
</event>
<event>
 5   0  0.4060750E-07  0.3424811E+04  0.7818609E-02  0.8131844E-01
       -3   -1    0    0    0  501  0.00000000000E+00  0.00000000000E+00  0.17721388023E+04  0.17721388052E+04  0.10100000352E+00 0. -1.
        3   -1    0    0  501    0  0.00000000000E+00  0.00000000000E+00 -0.16546851765E+04  0.16546851795E+04  0.10100000352E+00 0.  1.
    10030    2    1    2    0    0  0.00000000000E+00  0.00000000000E+00  0.11745362587E+03  0.34268239848E+04  0.34248105449E+04 0.  0.
        3    1    3    3  502    0 -0.10065054637E+04  0.41228554561E+03 -0.12646614942E+04  0.16680531541E+04  0.10100000352E+00 0.  1.
       -3    1    3    3    0  502  0.10065054637E+04 -0.41228554561E+03  0.13821151201E+04  0.17587708307E+04  0.10100000352E+00 0. -1.
</event>
<event>
 5   0  0.1300176E-06  0.3388687E+04  0.7818609E-02  0.8140688E-01
        2   -1    0    0  501    0  0.00000000000E+00  0.00000000000E+00  0.16232333508E+04  0.16232333508E+04  0.25500000920E-02 0.  1.
       -2   -1    0    0    0  501  0.00000000000E+00  0.00000000000E+00 -0.17685693277E+04  0.17685693277E+04  0.25500000920E-02 0. -1.
    10030    2    1    2    0    0  0.00000000000E+00  0.00000000000E+00 -0.14533597688E+03  0.33918026786E+04  0.33886874840E+04 0.  0.
        1    1    3    3  502    0 -0.57649174973E+03 -0.12749405156E+04  0.88371270537E+03  0.16549212070E+04  0.50400001928E-02 0.  1.
       -1    1    3    3    0  502  0.57649174973E+03  0.12749405156E+04 -0.10290486823E+04  0.17368814716E+04  0.50400001928E-02 0. -1.
</event>
<event>
 5   0  0.4125758E-07  0.3418040E+04  0.7818609E-02  0.8133493E-01
       -1   -1    0    0    0  501  0.00000000000E+00  0.00000000000E+00  0.11695530545E+04  0.11695530546E+04  0.50400001928E-02 0.  1.
        1   -1    0    0  501    0  0.00000000000E+00  0.00000000000E+00 -0.24973210935E+04  0.24973210935E+04  0.50400001928E-02 0. -1.
    10030    2    1    2    0    0  0.00000000000E+00  0.00000000000E+00 -0.13277680389E+04  0.36668741480E+04  0.34180400893E+04 0.  0.
        2    1    3    3  502    0 -0.66332957230E+03 -0.14779274379E+04 -0.79750576942E+02  0.16219234839E+04  0.25500000920E-02 0.  1.
       -2    1    3    3    0  502  0.66332957230E+03  0.14779274379E+04 -0.12480174620E+04  0.20449506641E+04  0.25500000920E-02 0. -1.
</event>
<event>
 5   0  0.1256208E-06  0.3507577E+04  0.7818609E-02  0.8111997E-01
        2   -1    0    0  501    0  0.00000000000E+00  0.00000000000E+00  0.16235212336E+04  0.16235212336E+04  0.25500000920E-02 0. -1.
       -2   -1    0    0    0  501  0.00000000000E+00  0.00000000000E+00 -0.18945080001E+04  0.18945080001E+04  0.25500000920E-02 0.  1.
    10030    2    1    2    0    0  0.00000000000E+00  0.00000000000E+00 -0.27098676654E+03  0.35180292337E+04  0.35075769217E+04 0.  0.
        3    1    3    3  502    0  0.37210570926E+03 -0.11923244966E+04  0.10993022410E+04  0.16639007757E+04  0.10100000352E+00 0. -1.
       -3    1    3    3    0  502 -0.37210570926E+03  0.11923244966E+04 -0.13702890076E+04  0.18541284579E+04  0.10100000352E+00 0.  1.
</event>
<event>
 5   0  0.4289684E-07  0.3398105E+04  0.7818609E-02  0.8138372E-01
       -1   -1    0    0    0  501  0.00000000000E+00  0.00000000000E+00  0.12752101824E+04  0.12752101824E+04  0.50400001928E-02 0.  1.
        1   -1    0    0  501    0  0.00000000000E+00  0.00000000000E+00 -0.22637669467E+04  0.22637669467E+04  0.50400001928E-02 0. -1.
    10030    2    1    2    0    0  0.00000000000E+00  0.00000000000E+00 -0.98855676428E+03  0.35389771290E+04  0.33981045663E+04 0.  0.
        4    1    3    3  502    0  0.12858838755E+03  0.16256744369E+04 -0.99093912308E+03  0.19082228137E+04  0.12699999809E+01 0. -1.
       -4    1    3    3    0  502 -0.12858838755E+03 -0.16256744369E+04  0.23823587983E+01  0.16307543153E+04  0.12699999809E+01 0.  1.
</event>
<event>
 5   0  0.1300176E-06  0.3388558E+04  0.7818609E-02  0.8140720E-01
       -2   -1    0    0    0  501  0.00000000000E+00  0.00000000000E+00  0.15053593213E+04  0.15053593213E+04  0.25500000920E-02 0.  1.
        2   -1    0    0  501    0  0.00000000000E+00  0.00000000000E+00 -0.19069074654E+04  0.19069074654E+04  0.25500000920E-02 0. -1.
    10030    2    1    2    0    0  0.00000000000E+00  0.00000000000E+00 -0.40154814414E+03  0.34122667867E+04  0.33885577628E+04 0.  0.
        1    1    3    3  502    0 -0.65896910257E+03 -0.74084228223E+03  0.11826992926E+04  0.15433292527E+04  0.50400001928E-02 0.  1.
       -1    1    3    3    0  502  0.65896910257E+03  0.74084228223E+03 -0.15842474368E+04  0.18689375341E+04  0.50400001928E-02 0. -1.
</event>
<event>
 5   0  0.4464951E-07  0.3426051E+04  0.7818609E-02  0.8131542E-01
        1   -1    0    0  501    0  0.00000000000E+00  0.00000000000E+00  0.18796174626E+04  0.18796174626E+04  0.50400001928E-02 0. -1.
       -1   -1    0    0    0  501  0.00000000000E+00  0.00000000000E+00 -0.15611986364E+04  0.15611986364E+04  0.50400001928E-02 0.  1.
    10030    2    1    2    0    0  0.00000000000E+00  0.00000000000E+00  0.31841882618E+03  0.34408160990E+04  0.34260509159E+04 0.  0.
        3    1    3    3  502    0  0.17054965605E+04  0.29191962371E+02  0.77810191257E+00  0.17057465533E+04  0.10100000352E+00 0. -1.
       -3    1    3    3    0  502 -0.17054965605E+04 -0.29191962371E+02  0.31764072427E+03  0.17350695457E+04  0.10100000352E+00 0.  1.
</event>
<event>
 5   0  0.1277635E-06  0.3413051E+04  0.7818609E-02  0.8134711E-01
        2   -1    0    0  501    0  0.00000000000E+00  0.00000000000E+00  0.22028138315E+04  0.22028138315E+04  0.25500000920E-02 0.  1.
       -2   -1    0    0    0  501  0.00000000000E+00  0.00000000000E+00 -0.13220499439E+04  0.13220499439E+04  0.25500000920E-02 0. -1.
    10030    2    1    2    0    0  0.00000000000E+00  0.00000000000E+00  0.88076388759E+03  0.35248637753E+04  0.34130513634E+04 0.  0.
        4    1    3    3  502    0 -0.32738835412E+03 -0.86328767812E+03 -0.10418285492E+04  0.13920693547E+04  0.12699999809E+01 0. -1.
       -4    1    3    3    0  502  0.32738835412E+03  0.86328767812E+03  0.19225924368E+04  0.21327944206E+04  0.12699999809E+01 0.  1.
</event>
<event>
 5   0  0.1277635E-06  0.3418339E+04  0.7818609E-02  0.8133420E-01
        2   -1    0    0  501    0  0.00000000000E+00  0.00000000000E+00  0.21712442747E+04  0.21712442747E+04  0.25500000920E-02 0. -1.
       -2   -1    0    0    0  501  0.00000000000E+00  0.00000000000E+00 -0.13454313925E+04  0.13454313925E+04  0.25500000920E-02 0.  1.
    10030    2    1    2    0    0  0.00000000000E+00  0.00000000000E+00  0.82581288220E+03  0.35166756672E+04  0.34183388995E+04 0.  0.
        4    1    3    3  502    0  0.69029901052E+03  0.13188835951E+04  0.12768823997E+04  0.19612233266E+04  0.12699999809E+01 0. -1.
       -4    1    3    3    0  502 -0.69029901052E+03 -0.13188835951E+04 -0.45106951747E+03  0.15554523406E+04  0.12699999809E+01 0.  1.
</event>
<event>
 5   0  0.1269497E-06  0.3389205E+04  0.7818609E-02  0.8140561E-01
       -2   -1    0    0    0  501  0.00000000000E+00  0.00000000000E+00  0.13745022167E+04  0.13745022168E+04  0.25500000920E-02 0.  1.
        2   -1    0    0  501    0  0.00000000000E+00  0.00000000000E+00 -0.20892488716E+04  0.20892488716E+04  0.25500000920E-02 0. -1.
    10030    2    1    2    0    0  0.00000000000E+00  0.00000000000E+00 -0.71474665489E+03  0.34637510884E+04  0.33892047477E+04 0.  0.
        5    1    3    3  502    0  0.10326086774E+04 -0.11950353117E+04 -0.98510226494E+03  0.18614077036E+04  0.46999998093E+01 0. -1.
       -5    1    3    3    0  502 -0.10326086774E+04  0.11950353117E+04  0.27035561004E+03  0.16023433848E+04  0.46999998093E+01 0.  1.
</event>
<event>
 5   0  0.1268230E-06  0.3366030E+04  0.7818609E-02  0.8146294E-01
        2   -1    0    0  501    0  0.00000000000E+00  0.00000000000E+00  0.19411351087E+04  0.19411351087E+04  0.25500000920E-02 0.  1.
       -2   -1    0    0    0  501  0.00000000000E+00  0.00000000000E+00 -0.14592178528E+04  0.14592178528E+04  0.25500000920E-02 0. -1.
    10030    2    1    2    0    0  0.00000000000E+00  0.00000000000E+00  0.48191725587E+03  0.34003529615E+04  0.33660297119E+04 0.  0.
        2    1    3    3  502    0 -0.73489086614E+03  0.87954851595E+03 -0.10040323068E+04  0.15237293232E+04  0.25500000920E-02 0. -1.
       -2    1    3    3    0  502  0.73489086614E+03 -0.87954851595E+03  0.14859495627E+04  0.18766236383E+04  0.25500000920E-02 0.  1.
</event>
<event>
 5   0  0.1256208E-06  0.3397162E+04  0.7818609E-02  0.8138603E-01
        2   -1    0    0  501    0  0.00000000000E+00  0.00000000000E+00  0.21479718616E+04  0.21479718616E+04  0.25500000920E-02 0.  1.
       -2   -1    0    0    0  501  0.00000000000E+00  0.00000000000E+00 -0.13432098367E+04  0.13432098367E+04  0.25500000920E-02 0. -1.
    10030    2    1    2    0    0  0.00000000000E+00  0.00000000000E+00  0.80476202485E+03  0.34911816983E+04  0.33971617173E+04 0.  0.
        3    1    3    3  502    0  0.15282075895E+04  0.70566974317E+03  0.63625059266E+03  0.17995007780E+04  0.10100000352E+00 0. -1.
       -3    1    3    3    0  502 -0.15282075895E+04 -0.70566974317E+03  0.16851143219E+03  0.16916809203E+04  0.10100000352E+00 0.  1.
</event>
<event>
 5   0  0.1256208E-06  0.3362389E+04  0.7818609E-02  0.8147200E-01
        2   -1    0    0  501    0  0.00000000000E+00  0.00000000000E+00  0.12628606434E+04  0.12628606434E+04  0.25500000920E-02 0. -1.
       -2   -1    0    0    0  501  0.00000000000E+00  0.00000000000E+00 -0.22381048007E+04  0.22381048007E+04  0.25500000920E-02 0.  1.
    10030    2    1    2    0    0  0.00000000000E+00  0.00000000000E+00 -0.97524415730E+03  0.35009654441E+04  0.33623887156E+04 0.  0.
        3    1    3    3  502    0  0.15057216078E+04 -0.47075508940E+03  0.11736393267E+03  0.15819551881E+04  0.10100000352E+00 0. -1.
       -3    1    3    3    0  502 -0.15057216078E+04  0.47075508940E+03 -0.10926080900E+04  0.19190102560E+04  0.10100000352E+00 0.  1.
</event>
<event>
 5   0  0.1268230E-06  0.3367833E+04  0.7818609E-02  0.8145847E-01
        2   -1    0    0  501    0  0.00000000000E+00  0.00000000000E+00  0.18977198969E+04  0.18977198969E+04  0.25500000920E-02 0.  1.
       -2   -1    0    0    0  501  0.00000000000E+00  0.00000000000E+00 -0.14942006865E+04  0.14942006865E+04  0.25500000920E-02 0. -1.
    10030    2    1    2    0    0  0.00000000000E+00  0.00000000000E+00  0.40351921034E+03  0.33919205834E+04  0.33678327588E+04 0.  0.
        2    1    3    3  502    0  0.65968032730E+03 -0.83287736427E+03  0.15175151843E+04  0.18524889130E+04  0.25500000920E-02 0.  1.
       -2    1    3    3    0  502 -0.65968032730E+03  0.83287736427E+03 -0.11139959739E+04  0.15394316705E+04  0.25500000920E-02 0. -1.
</event>
<event>
 5   0  0.4060750E-07  0.3373798E+04  0.7818609E-02  0.8144367E-01
       -4   -1    0    0    0  501  0.00000000000E+00  0.00000000000E+00  0.16515374500E+04  0.16515379383E+04  0.12699999809E+01 0.  1.
        4   -1    0    0  501    0  0.00000000000E+00  0.00000000000E+00 -0.17230169061E+04  0.17230173741E+04  0.12699999809E+01 0. -1.
    10030    2    1    2    0    0  0.00000000000E+00  0.00000000000E+00 -0.71479456106E+02  0.33745553124E+04  0.33737981925E+04 0.  0.
        5    1    3    3  502    0  0.22084212161E+03 -0.96632617057E+02  0.16342149420E+04  0.16519048617E+04  0.46999998093E+01 0.  1.
       -5    1    3    3    0  502 -0.22084212161E+03  0.96632617057E+02 -0.17056943982E+04  0.17226504507E+04  0.46999998093E+01 0. -1.
</event>
<event>
 5   0  0.1256208E-06  0.3533684E+04  0.7818609E-02  0.8105853E-01
       -2   -1    0    0    0  501  0.00000000000E+00  0.00000000000E+00  0.18106622919E+04  0.18106622919E+04  0.25500000920E-02 0.  1.
        2   -1    0    0  501    0  0.00000000000E+00  0.00000000000E+00 -0.17240823176E+04  0.17240823176E+04  0.25500000920E-02 0. -1.
    10030    2    1    2    0    0  0.00000000000E+00  0.00000000000E+00  0.86579974302E+02  0.35347446096E+04  0.35336841063E+04 0.  0.
        3    1    3    3  502    0  0.10638365697E+04  0.14055888736E+04  0.16291894663E+03  0.17703024945E+04  0.10100000352E+00 0.  1.
       -3    1    3    3    0  502 -0.10638365697E+04 -0.14055888736E+04 -0.76338972328E+02  0.17644421151E+04  0.10100000352E+00 0. -1.
</event>
<event>
 5   0  0.4272633E-07  0.2903277E+04  0.7818609E-02  0.8271903E-01
        1   -1    0    0  501    0  0.00000000000E+00  0.00000000000E+00  0.13863216009E+04  0.13863216009E+04  0.50400001928E-02 0. -1.
       -1   -1    0    0    0  501  0.00000000000E+00  0.00000000000E+00 -0.15200324544E+04  0.15200324544E+04  0.50400001928E-02 0.  1.
    10030    2    1    2    0    0  0.00000000000E+00  0.00000000000E+00 -0.13371085342E+03  0.29063540553E+04  0.29032766493E+04 0.  0.
        1    1    3    3  502    0  0.58382153159E+03 -0.12852944059E+04  0.27177008660E+03  0.14375980908E+04  0.50400001928E-02 0. -1.
       -1    1    3    3    0  502 -0.58382153159E+03  0.12852944059E+04 -0.40548094002E+03  0.14687559645E+04  0.50400001928E-02 0.  1.
</event>
<event>
 5   0  0.1300176E-06  0.3176476E+04  0.7818609E-02  0.8195057E-01
        2   -1    0    0  501    0  0.00000000000E+00  0.00000000000E+00  0.78025987316E+03  0.78025987317E+03  0.25500000920E-02 0. -1.
       -2   -1    0    0    0  501  0.00000000000E+00  0.00000000000E+00 -0.32328977831E+04  0.32328977831E+04  0.25500000920E-02 0.  1.
    10030    2    1    2    0    0  0.00000000000E+00  0.00000000000E+00 -0.24526379099E+04  0.40131576563E+04  0.31764762956E+04 0.  0.
        1    1    3    3  502    0 -0.33516540401E+03  0.68337463667E+03  0.53482677367E+03  0.93025610450E+03  0.50400001928E-02 0. -1.
       -1    1    3    3    0  502  0.33516540401E+03 -0.68337463667E+03 -0.29874646836E+04  0.30829015518E+04  0.50400001928E-02 0.  1.
</event>
<event>
 5   0  0.1268230E-06  0.3297491E+04  0.7818609E-02  0.8163534E-01
       -2   -1    0    0    0  501  0.00000000000E+00  0.00000000000E+00  0.14465175124E+04  0.14465175124E+04  0.25500000920E-02 0. -1.
        2   -1    0    0  501    0  0.00000000000E+00  0.00000000000E+00 -0.18792451954E+04  0.18792451954E+04  0.25500000920E-02 0.  1.
    10030    2    1    2    0    0  0.00000000000E+00  0.00000000000E+00 -0.43272768303E+03  0.33257627078E+04  0.32974906127E+04 0.  0.
        2    1    3    3  502    0  0.11692651281E+04  0.11596297435E+04 -0.13543244890E+03  0.16523510614E+04  0.25500000920E-02 0. -1.
       -2    1    3    3    0  502 -0.11692651281E+04 -0.11596297435E+04 -0.29729523413E+03  0.16734116464E+04  0.25500000920E-02 0.  1.
</event>
<event>
 5   0  0.4125758E-07  0.3397622E+04  0.7818609E-02  0.8138490E-01
       -1   -1    0    0    0  501  0.00000000000E+00  0.00000000000E+00  0.15463771167E+04  0.15463771167E+04  0.50400001928E-02 0.  1.
        1   -1    0    0  501    0  0.00000000000E+00  0.00000000000E+00 -0.18662711551E+04  0.18662711551E+04  0.50400001928E-02 0. -1.
    10030    2    1    2    0    0  0.00000000000E+00  0.00000000000E+00 -0.31989403846E+03  0.34126482718E+04  0.33976221142E+04 0.  0.
        2    1    3    3  502    0  0.13631919270E+04  0.32029200249E+03  0.80611733181E+03  0.16157674180E+04  0.25500000920E-02 0.  1.
       -2    1    3    3    0  502 -0.13631919270E+04 -0.32029200249E+03 -0.11260113703E+04  0.17968808537E+04  0.25500000920E-02 0. -1.
</event>
<event>
 5   0  0.1269497E-06  0.3493803E+04  0.7818609E-02  0.8115260E-01
        2   -1    0    0  501    0  0.00000000000E+00  0.00000000000E+00  0.10590972506E+04  0.10590972506E+04  0.25500000920E-02 0. -1.
       -2   -1    0    0    0  501  0.00000000000E+00  0.00000000000E+00 -0.28813830277E+04  0.28813830277E+04  0.25500000920E-02 0.  1.
    10030    2    1    2    0    0  0.00000000000E+00  0.00000000000E+00 -0.18222857772E+04  0.39404802783E+04  0.34938029953E+04 0.  0.
        5    1    3    3  502    0 -0.77138998785E+03 -0.33133839913E+03 -0.26389298121E+04  0.27692598815E+04  0.46999998093E+01 0.  1.
       -5    1    3    3    0  502  0.77138998785E+03  0.33133839913E+03  0.81664403494E+03  0.11712203968E+04  0.46999998093E+01 0. -1.
</event>
<event>
 5   0  0.4464951E-07  0.3393105E+04  0.7818609E-02  0.8139601E-01
       -1   -1    0    0    0  501  0.00000000000E+00  0.00000000000E+00  0.91066161036E+03  0.91066161038E+03  0.50400001928E-02 0. -1.
        1   -1    0    0  501    0  0.00000000000E+00  0.00000000000E+00 -0.31606584714E+04  0.31606584714E+04  0.50400001928E-02 0.  1.
    10030    2    1    2    0    0  0.00000000000E+00  0.00000000000E+00 -0.22499968611E+04  0.40713200818E+04  0.33931049695E+04 0.  0.
        3    1    3    3  502    0  0.16269022478E+04 -0.46979902666E+03 -0.10004864900E+04  0.19668490730E+04  0.10100000352E+00 0. -1.
       -3    1    3    3    0  502 -0.16269022478E+04  0.46979902666E+03 -0.12495103711E+04  0.21044710088E+04  0.10100000352E+00 0.  1.
</event>
<event>
 5   0  0.4109937E-07  0.3306104E+04  0.7818609E-02  0.8161344E-01
       -1   -1    0    0    0  501  0.00000000000E+00  0.00000000000E+00  0.94611437818E+03  0.94611437820E+03  0.50400001928E-02 0.  1.
        1   -1    0    0  501    0  0.00000000000E+00  0.00000000000E+00 -0.28882136766E+04  0.28882136766E+04  0.50400001928E-02 0. -1.
    10030    2    1    2    0    0  0.00000000000E+00  0.00000000000E+00 -0.19420992984E+04  0.38343280548E+04  0.33061037411E+04 0.  0.
        5    1    3    3  502    0 -0.80833320768E+03  0.88972958814E+03 -0.22870398734E+04  0.25837172421E+04  0.46999998093E+01 0. -1.
       -5    1    3    3    0  502  0.80833320768E+03 -0.88972958814E+03  0.34494057496E+03  0.12506108127E+04  0.46999998093E+01 0.  1.
</event>
<event>
 5   0  0.4289684E-07  0.3422534E+04  0.7818609E-02  0.8132398E-01
        1   -1    0    0  501    0  0.00000000000E+00  0.00000000000E+00  0.26110387620E+04  0.26110387620E+04  0.50400001928E-02 0. -1.
       -1   -1    0    0    0  501  0.00000000000E+00  0.00000000000E+00 -0.11215591588E+04  0.11215591588E+04  0.50400001928E-02 0.  1.
    10030    2    1    2    0    0  0.00000000000E+00  0.00000000000E+00  0.14894796031E+04  0.37325979208E+04  0.34225338202E+04 0.  0.
        4    1    3    3  502    0 -0.13613999824E+04  0.80399417357E+02  0.18720999625E+04  0.23161679258E+04  0.12699999809E+01 0. -1.
       -4    1    3    3    0  502  0.13613999824E+04 -0.80399417357E+02 -0.38262035933E+03  0.14164299950E+04  0.12699999809E+01 0.  1.
</event>
<event>
 5   0  0.1277635E-06  0.3068617E+04  0.7818609E-02  0.8224404E-01
        2   -1    0    0  501    0  0.00000000000E+00  0.00000000000E+00  0.76754016815E+03  0.76754016816E+03  0.25500000920E-02 0. -1.
       -2   -1    0    0    0  501  0.00000000000E+00  0.00000000000E+00 -0.30670739000E+04  0.30670739000E+04  0.25500000920E-02 0.  1.
    10030    2    1    2    0    0  0.00000000000E+00  0.00000000000E+00 -0.22995337319E+04  0.38346140682E+04  0.30686168982E+04 0.  0.
        4    1    3    3  502    0 -0.10495681123E+04  0.11121772321E+04 -0.99384223221E+03  0.18238024601E+04  0.12699999809E+01 0.  1.
       -4    1    3    3    0  502  0.10495681123E+04 -0.11121772321E+04 -0.13056914997E+04  0.20108116081E+04  0.12699999809E+01 0. -1.
</event>
<event>
 5   0  0.1268230E-06  0.3456596E+04  0.7818609E-02  0.8124154E-01
       -2   -1    0    0    0  501  0.00000000000E+00  0.00000000000E+00  0.18671665328E+04  0.18671665328E+04  0.25500000920E-02 0.  1.
        2   -1    0    0  501    0  0.00000000000E+00  0.00000000000E+00 -0.15997575479E+04  0.15997575479E+04  0.25500000920E-02 0. -1.
    10030    2    1    2    0    0  0.00000000000E+00  0.00000000000E+00  0.26740898491E+03  0.34669240807E+04  0.34565958711E+04 0.  0.
        2    1    3    3  502    0 -0.47489880691E+03  0.15015039851E+04  0.84785070561E+03  0.17885451946E+04  0.25500000920E-02 0.  1.
       -2    1    3    3    0  502  0.47489880691E+03 -0.15015039851E+04 -0.58044172070E+03  0.16783788861E+04  0.25500000920E-02 0. -1.
</event>
<event>
 5   0  0.1277635E-06  0.3336203E+04  0.7818609E-02  0.8153744E-01
       -2   -1    0    0    0  501  0.00000000000E+00  0.00000000000E+00  0.14668702314E+04  0.14668702314E+04  0.25500000920E-02 0. -1.
        2   -1    0    0  501    0  0.00000000000E+00  0.00000000000E+00 -0.18969382312E+04  0.18969382312E+04  0.25500000920E-02 0.  1.
    10030    2    1    2    0    0  0.00000000000E+00  0.00000000000E+00 -0.43006799979E+03  0.33638084626E+04  0.33362027649E+04 0.  0.
        4    1    3    3  502    0 -0.12938060611E+04 -0.99116357519E+03 -0.57325006912E+03  0.17277026976E+04  0.12699999809E+01 0. -1.
       -4    1    3    3    0  502  0.12938060611E+04  0.99116357519E+03  0.14318206934E+03  0.16361057650E+04  0.12699999809E+01 0.  1.
</event>
<event>
 5   0  0.1300176E-06  0.3399453E+04  0.7818609E-02  0.8138041E-01
        2   -1    0    0  501    0  0.00000000000E+00  0.00000000000E+00  0.18798186727E+04  0.18798186727E+04  0.25500000920E-02 0.  1.
       -2   -1    0    0    0  501  0.00000000000E+00  0.00000000000E+00 -0.15368875628E+04  0.15368875628E+04  0.25500000920E-02 0. -1.
    10030    2    1    2    0    0  0.00000000000E+00  0.00000000000E+00  0.34293110994E+03  0.34167062355E+04  0.33994528609E+04 0.  0.
        1    1    3    3  502    0 -0.10836113278E+04 -0.44282577921E+03  0.14101008283E+04  0.18326736006E+04  0.50400001928E-02 0.  1.
       -1    1    3    3    0  502  0.10836113278E+04  0.44282577921E+03 -0.10671697183E+04  0.15840326349E+04  0.50400001928E-02 0. -1.
</event>
<event>
 5   0  0.1256208E-06  0.3488376E+04  0.7818609E-02  0.8116550E-01
       -2   -1    0    0    0  501  0.00000000000E+00  0.00000000000E+00  0.12940132237E+04  0.12940132237E+04  0.25500000920E-02 0.  1.
        2   -1    0    0  501    0  0.00000000000E+00  0.00000000000E+00 -0.23509747325E+04  0.23509747325E+04  0.25500000920E-02 0. -1.
    10030    2    1    2    0    0  0.00000000000E+00  0.00000000000E+00 -0.10569615088E+04  0.36449879563E+04  0.34883763516E+04 0.  0.
        3    1    3    3  502    0  0.95658669550E+03 -0.11336331185E+04  0.43032680132E+03  0.15444621457E+04  0.10100000352E+00 0.  1.
       -3    1    3    3    0  502 -0.95658669550E+03  0.11336331185E+04 -0.14872883101E+04  0.21005258106E+04  0.10100000352E+00 0. -1.
</event>
<event>
 5   0  0.4272633E-07  0.3392760E+04  0.7818609E-02  0.8139685E-01
        1   -1    0    0  501    0  0.00000000000E+00  0.00000000000E+00  0.20847069516E+04  0.20847069516E+04  0.50400001928E-02 0.  1.
       -1   -1    0    0    0  501  0.00000000000E+00  0.00000000000E+00 -0.13803886030E+04  0.13803886030E+04  0.50400001928E-02 0. -1.
    10030    2    1    2    0    0  0.00000000000E+00  0.00000000000E+00  0.70431834859E+03  0.34650955546E+04  0.33927603609E+04 0.  0.
        1    1    3    3  502    0  0.49611438725E+03 -0.10443651142E+04 -0.91562731881E+03  0.14748563875E+04  0.50400001928E-02 0. -1.
       -1    1    3    3    0  502 -0.49611438725E+03  0.10443651142E+04  0.16199456674E+04  0.19902391671E+04  0.50400001928E-02 0.  1.
</event>
<event>
 5   0  0.1268230E-06  0.3417854E+04  0.7818609E-02  0.8133538E-01
       -2   -1    0    0    0  501  0.00000000000E+00  0.00000000000E+00  0.13476512200E+04  0.13476512200E+04  0.25500000920E-02 0. -1.
        2   -1    0    0  501    0  0.00000000000E+00  0.00000000000E+00 -0.21670532697E+04  0.21670532697E+04  0.25500000920E-02 0.  1.
    10030    2    1    2    0    0  0.00000000000E+00  0.00000000000E+00 -0.81940204971E+03  0.35147044897E+04  0.34178542875E+04 0.  0.
        2    1    3    3  502    0 -0.87136702233E+03  0.12437632438E+04 -0.12156207130E+04  0.19452406566E+04  0.25500000920E-02 0.  1.
       -2    1    3    3    0  502  0.87136702233E+03 -0.12437632438E+04  0.39621866328E+03  0.15694638331E+04  0.25500000920E-02 0. -1.
</event>
<event>
 5   0  0.4125758E-07  0.3347402E+04  0.7818609E-02  0.8150938E-01
        1   -1    0    0  501    0  0.00000000000E+00  0.00000000000E+00  0.13779110604E+04  0.13779110604E+04  0.50400001928E-02 0. -1.
       -1   -1    0    0    0  501  0.00000000000E+00  0.00000000000E+00 -0.20329867631E+04  0.20329867631E+04  0.50400001928E-02 0.  1.
    10030    2    1    2    0    0  0.00000000000E+00  0.00000000000E+00 -0.65507570269E+03  0.34108978235E+04  0.33474019457E+04 0.  0.
        2    1    3    3  502    0  0.11317454979E+04 -0.54179737975E+03 -0.14561958465E+04  0.19222119072E+04  0.25500000920E-02 0.  1.
       -2    1    3    3    0  502 -0.11317454979E+04  0.54179737975E+03  0.80112014381E+03  0.14886859163E+04  0.25500000920E-02 0. -1.
</event>
<event>
 5   0  0.1268230E-06  0.3402460E+04  0.7818609E-02  0.8137303E-01
       -2   -1    0    0    0  501  0.00000000000E+00  0.00000000000E+00  0.19174184297E+04  0.19174184297E+04  0.25500000920E-02 0.  1.
        2   -1    0    0  501    0  0.00000000000E+00  0.00000000000E+00 -0.15094167745E+04  0.15094167745E+04  0.25500000920E-02 0. -1.
    10030    2    1    2    0    0  0.00000000000E+00  0.00000000000E+00  0.40800165512E+03  0.34268352042E+04  0.34024600168E+04 0.  0.
        2    1    3    3  502    0 -0.39271791445E+03 -0.70955288663E+03  0.17102046846E+04  0.18927474006E+04  0.25500000920E-02 0.  1.
       -2    1    3    3    0  502  0.39271791445E+03  0.70955288663E+03 -0.13022030295E+04  0.15340878036E+04  0.25500000920E-02 0. -1.
</event>
<event>
 5   0  0.1277635E-06  0.3573530E+04  0.7818609E-02  0.8096582E-01
        2   -1    0    0  501    0  0.00000000000E+00  0.00000000000E+00  0.18219624145E+04  0.18219624145E+04  0.25500000920E-02 0.  1.
       -2   -1    0    0    0  501  0.00000000000E+00  0.00000000000E+00 -0.17522478646E+04  0.17522478646E+04  0.25500000920E-02 0. -1.
    10030    2    1    2    0    0  0.00000000000E+00  0.00000000000E+00  0.69714549906E+02  0.35742102792E+04  0.35735303275E+04 0.  0.
        4    1    3    3  502    0  0.18661793435E+03 -0.15716577183E+03  0.18052225418E+04  0.18216359053E+04  0.12699999809E+01 0.  1.
       -4    1    3    3    0  502 -0.18661793435E+03  0.15716577183E+03 -0.17355079919E+04  0.17525743739E+04  0.12699999809E+01 0. -1.
</event>
<event>
 5   0  0.4272633E-07  0.2793885E+04  0.7818609E-02  0.8305169E-01
       -1   -1    0    0    0  501  0.00000000000E+00  0.00000000000E+00  0.16275298116E+04  0.16275298116E+04  0.50400001928E-02 0. -1.
        1   -1    0    0  501    0  0.00000000000E+00  0.00000000000E+00 -0.11990242199E+04  0.11990242199E+04  0.50400001928E-02 0.  1.
    10030    2    1    2    0    0  0.00000000000E+00  0.00000000000E+00  0.42850559172E+03  0.28265540315E+04  0.27938845092E+04 0.  0.
        1    1    3    3  502    0 -0.13618011853E+04  0.12646135864E+03 -0.73596096206E+02  0.13696391236E+04  0.50400001928E-02 0.  1.
       -1    1    3    3    0  502  0.13618011853E+04 -0.12646135864E+03  0.50210168792E+03  0.14569149078E+04  0.50400001928E-02 0. -1.
</event>
<event>
 5   0  0.4109937E-07  0.3398166E+04  0.7818609E-02  0.8138356E-01
       -1   -1    0    0    0  501  0.00000000000E+00  0.00000000000E+00  0.14709890125E+04  0.14709890125E+04  0.50400001928E-02 0. -1.
        1   -1    0    0  501    0  0.00000000000E+00  0.00000000000E+00 -0.19625461234E+04  0.19625461234E+04  0.50400001928E-02 0.  1.
    10030    2    1    2    0    0  0.00000000000E+00  0.00000000000E+00 -0.49155711092E+03  0.34335351358E+04  0.33981664373E+04 0.  0.
        5    1    3    3  502    0 -0.10390072618E+04  0.92767404293E+03 -0.12289147790E+04  0.18575168489E+04  0.46999998093E+01 0.  1.
       -5    1    3    3    0  502  0.10390072618E+04 -0.92767404293E+03  0.73735766811E+03  0.15760182869E+04  0.46999998093E+01 0. -1.
</event>
<event>
 5   0  0.1256208E-06  0.3362766E+04  0.7818609E-02  0.8147106E-01
        2   -1    0    0  501    0  0.00000000000E+00  0.00000000000E+00  0.15304313831E+04  0.15304313831E+04  0.25500000920E-02 0. -1.
       -2   -1    0    0    0  501  0.00000000000E+00  0.00000000000E+00 -0.18472229792E+04  0.18472229792E+04  0.25500000920E-02 0.  1.
    10030    2    1    2    0    0  0.00000000000E+00  0.00000000000E+00 -0.31679159604E+03  0.33776543623E+04  0.33627655398E+04 0.  0.
        3    1    3    3  502    0  0.96903446792E+03  0.94298727704E+03  0.84542650744E+03  0.15946782730E+04  0.10100000352E+00 0. -1.
       -3    1    3    3    0  502 -0.96903446792E+03 -0.94298727704E+03 -0.11622181035E+04  0.17829760893E+04  0.10100000352E+00 0.  1.
</event>
<event>
 5   0  0.4109937E-07  0.3393693E+04  0.7818609E-02  0.8139456E-01
        1   -1    0    0  501    0  0.00000000000E+00  0.00000000000E+00  0.14076577174E+04  0.14076577174E+04  0.50400001928E-02 0. -1.
       -1   -1    0    0    0  501  0.00000000000E+00  0.00000000000E+00 -0.20454458403E+04  0.20454458403E+04  0.50400001928E-02 0.  1.
    10030    2    1    2    0    0  0.00000000000E+00  0.00000000000E+00 -0.63778812299E+03  0.34531035577E+04  0.33936927513E+04 0.  0.
        5    1    3    3  502    0  0.13573008035E+03  0.11795377422E+04 -0.15523590912E+04  0.19543727327E+04  0.46999998093E+01 0.  1.
       -5    1    3    3    0  502 -0.13573008035E+03 -0.11795377422E+04  0.91457096823E+03  0.14987308251E+04  0.46999998093E+01 0. -1.
</event>
<event>
 5   0  0.4289684E-07  0.3335304E+04  0.7818609E-02  0.8153970E-01
        1   -1    0    0  501    0  0.00000000000E+00  0.00000000000E+00  0.23848259591E+04  0.23848259591E+04  0.50400001928E-02 0.  1.
       -1   -1    0    0    0  501  0.00000000000E+00  0.00000000000E+00 -0.11661492535E+04  0.11661492535E+04  0.50400001928E-02 0. -1.
    10030    2    1    2    0    0  0.00000000000E+00  0.00000000000E+00  0.12186767056E+04  0.35509752127E+04  0.33353038914E+04 0.  0.
        4    1    3    3  502    0  0.14040185093E+04 -0.75618054192E+03  0.11287198657E+04  0.19537367107E+04  0.12699999809E+01 0.  1.
       -4    1    3    3    0  502 -0.14040185093E+04  0.75618054192E+03  0.89956839870E+02  0.15972385020E+04  0.12699999809E+01 0. -1.
</event>
<event>
 5   0  0.1277635E-06  0.3360315E+04  0.7818609E-02  0.8147716E-01
        2   -1    0    0  501    0  0.00000000000E+00  0.00000000000E+00  0.20955551039E+04  0.20955551039E+04  0.25500000920E-02 0. -1.
       -2   -1    0    0    0  501  0.00000000000E+00  0.00000000000E+00 -0.13471034073E+04  0.13471034073E+04  0.25500000920E-02 0.  1.
    10030    2    1    2    0    0  0.00000000000E+00  0.00000000000E+00  0.74845169660E+03  0.34426585111E+04  0.33603151165E+04 0.  0.
        4    1    3    3  502    0  0.57898371622E+01  0.65278716426E+03  0.19603110179E+04  0.20661523428E+04  0.12699999809E+01 0. -1.
       -4    1    3    3    0  502 -0.57898371622E+01 -0.65278716426E+03 -0.12118593213E+04  0.13765061683E+04  0.12699999809E+01 0.  1.
</event>
<event>
 5   0  0.1300176E-06  0.3408626E+04  0.7818609E-02  0.8135792E-01
       -2   -1    0    0    0  501  0.00000000000E+00  0.00000000000E+00  0.18574739237E+04  0.18574739237E+04  0.25500000920E-02 0.  1.
        2   -1    0    0  501    0  0.00000000000E+00  0.00000000000E+00 -0.15637815603E+04  0.15637815603E+04  0.25500000920E-02 0. -1.
    10030    2    1    2    0    0  0.00000000000E+00  0.00000000000E+00  0.29369236340E+03  0.34212554840E+04  0.34086263923E+04 0.  0.
        1    1    3    3  502    0 -0.13434670310E+04  0.23144993001E+03  0.11734802941E+04  0.17987575529E+04  0.50400001928E-02 0.  1.
       -1    1    3    3    0  502  0.13434670310E+04 -0.23144993001E+03 -0.87978793071E+03  0.16224979311E+04  0.50400001928E-02 0. -1.
</event>
<event>
 5   0  0.4125758E-07  0.3480770E+04  0.7818609E-02  0.8118362E-01
       -1   -1    0    0    0  501  0.00000000000E+00  0.00000000000E+00  0.13202259154E+04  0.13202259154E+04  0.50400001928E-02 0. -1.
        1   -1    0    0  501    0  0.00000000000E+00  0.00000000000E+00 -0.22942586991E+04  0.22942586991E+04  0.50400001928E-02 0.  1.
    10030    2    1    2    0    0  0.00000000000E+00  0.00000000000E+00 -0.97403278372E+03  0.36144846145E+04  0.34807699098E+04 0.  0.
        2    1    3    3  502    0 -0.13272284652E+04  0.11201407694E+04 -0.37004339872E+03  0.17757203775E+04  0.25500000920E-02 0. -1.
       -2    1    3    3    0  502  0.13272284652E+04 -0.11201407694E+04 -0.60398938500E+03  0.18387642370E+04  0.25500000920E-02 0.  1.
</event>
<event>
 5   0  0.1268230E-06  0.3418335E+04  0.7818609E-02  0.8133421E-01
       -2   -1    0    0    0  501  0.00000000000E+00  0.00000000000E+00  0.15565715998E+04  0.15565715998E+04  0.25500000920E-02 0.  1.
        2   -1    0    0  501    0  0.00000000000E+00  0.00000000000E+00 -0.18767233908E+04  0.18767233908E+04  0.25500000920E-02 0. -1.
    10030    2    1    2    0    0  0.00000000000E+00  0.00000000000E+00 -0.32015179102E+03  0.34332949906E+04  0.34183354609E+04 0.  0.
        2    1    3    3  502    0 -0.14699511174E+03  0.15092552883E+04  0.63191490515E+03  0.16427950375E+04  0.25500000920E-02 0. -1.
       -2    1    3    3    0  502  0.14699511174E+03 -0.15092552883E+04 -0.95206669617E+03  0.17904999531E+04  0.25500000920E-02 0.  1.
</event>
<event>
 5   0  0.1300176E-06  0.3397994E+04  0.7818609E-02  0.8138399E-01
        2   -1    0    0  501    0  0.00000000000E+00  0.00000000000E+00  0.19080835974E+04  0.19080835974E+04  0.25500000920E-02 0. -1.
       -2   -1    0    0    0  501  0.00000000000E+00  0.00000000000E+00 -0.15128220452E+04  0.15128220452E+04  0.25500000920E-02 0.  1.
    10030    2    1    2    0    0  0.00000000000E+00  0.00000000000E+00  0.39526155227E+03  0.34209056426E+04  0.33979940731E+04 0.  0.
        1    1    3    3  502    0  0.76078810389E+03 -0.12546372597E+04 -0.66469456529E+03  0.16108172018E+04  0.50400001928E-02 0.  1.
       -1    1    3    3    0  502 -0.76078810389E+03  0.12546372597E+04  0.10599561176E+04  0.18100884408E+04  0.50400001928E-02 0. -1.
</event>
<event>
 5   0  0.1256208E-06  0.3364923E+04  0.7818609E-02  0.8146569E-01
        2   -1    0    0  501    0  0.00000000000E+00  0.00000000000E+00  0.20096554067E+04  0.20096554067E+04  0.25500000920E-02 0. -1.
       -2   -1    0    0    0  501  0.00000000000E+00  0.00000000000E+00 -0.14085380695E+04  0.14085380695E+04  0.25500000920E-02 0.  1.
    10030    2    1    2    0    0  0.00000000000E+00  0.00000000000E+00  0.60111733718E+03  0.34181934762E+04  0.33649226719E+04 0.  0.
        3    1    3    3  502    0  0.46929996066E+03  0.58011085431E+01  0.19418099781E+04  0.19977242320E+04  0.10100000352E+00 0. -1.
       -3    1    3    3    0  502 -0.46929996066E+03 -0.58011085431E+01 -0.13406926409E+04  0.14204692442E+04  0.10100000352E+00 0.  1.
</event>
<event>
 5   0  0.1268230E-06  0.3423338E+04  0.7818609E-02  0.8132202E-01
       -2   -1    0    0    0  501  0.00000000000E+00  0.00000000000E+00  0.14811015777E+04  0.14811015777E+04  0.25500000920E-02 0. -1.
        2   -1    0    0  501    0  0.00000000000E+00  0.00000000000E+00 -0.19781299483E+04  0.19781299483E+04  0.25500000920E-02 0.  1.
    10030    2    1    2    0    0  0.00000000000E+00  0.00000000000E+00 -0.49702837062E+03  0.34592315260E+04  0.34233383632E+04 0.  0.
        2    1    3    3  502    0  0.12734167405E+04 -0.60874879189E+03 -0.12269881608E+04  0.18702045967E+04  0.25500000920E-02 0.  1.
       -2    1    3    3    0  502 -0.12734167405E+04  0.60874879189E+03  0.72995979018E+03  0.15890269293E+04  0.25500000920E-02 0. -1.
</event>
<event>
 5   0  0.4109937E-07  0.2777169E+04  0.7818609E-02  0.8310392E-01
        1   -1    0    0  501    0  0.00000000000E+00  0.00000000000E+00  0.16168224517E+04  0.16168224517E+04  0.50400001928E-02 0. -1.
       -1   -1    0    0    0  501  0.00000000000E+00  0.00000000000E+00 -0.11925652815E+04  0.11925652815E+04  0.50400001928E-02 0.  1.
    10030    2    1    2    0    0  0.00000000000E+00  0.00000000000E+00  0.42425717020E+03  0.28093877333E+04  0.27771685742E+04 0.  0.
        5    1    3    3  502    0  0.48597450539E+03 -0.10872114709E+04 -0.51025984337E+03  0.12956030257E+04  0.46999998093E+01 0.  1.
       -5    1    3    3    0  502 -0.48597450539E+03  0.10872114709E+04  0.93451701357E+03  0.15137847076E+04  0.46999998093E+01 0. -1.
</event>
<event>
 5   0  0.1277635E-06  0.3408719E+04  0.7818609E-02  0.8135770E-01
        2   -1    0    0  501    0  0.00000000000E+00  0.00000000000E+00  0.16575910128E+04  0.16575910128E+04  0.25500000920E-02 0. -1.
       -2   -1    0    0    0  501  0.00000000000E+00  0.00000000000E+00 -0.17524479097E+04  0.17524479097E+04  0.25500000920E-02 0.  1.
    10030    2    1    2    0    0  0.00000000000E+00  0.00000000000E+00 -0.94856896940E+02  0.34100389225E+04  0.34087193522E+04 0.  0.
        4    1    3    3  502    0  0.14647488506E+04  0.78521054349E+03  0.33060075419E+03  0.16945038402E+04  0.12699999809E+01 0.  1.
       -4    1    3    3    0  502 -0.14647488506E+04 -0.78521054349E+03 -0.42545765113E+03  0.17155350823E+04  0.12699999809E+01 0. -1.
</event>
<event>
 5   0  0.4464951E-07  0.3429584E+04  0.7818609E-02  0.8130683E-01
       -1   -1    0    0    0  501  0.00000000000E+00  0.00000000000E+00  0.29170415595E+04  0.29170415595E+04  0.50400001928E-02 0.  1.
        1   -1    0    0  501    0  0.00000000000E+00  0.00000000000E+00 -0.10080459698E+04  0.10080459698E+04  0.50400001928E-02 0. -1.
    10030    2    1    2    0    0  0.00000000000E+00  0.00000000000E+00  0.19089955897E+04  0.39250875294E+04  0.34295842243E+04 0.  0.
        3    1    3    3  502    0 -0.42558584712E+03 -0.14416348757E+04  0.18990069145E+04  0.24219128183E+04  0.10100000352E+00 0.  1.
       -3    1    3    3    0  502  0.42558584712E+03  0.14416348757E+04  0.99886751746E+01  0.15031747110E+04  0.10100000352E+00 0. -1.
</event>
<event>
 5   0  0.4464951E-07  0.3368769E+04  0.7818609E-02  0.8145614E-01
        1   -1    0    0  501    0  0.00000000000E+00  0.00000000000E+00  0.21951875149E+04  0.21951875149E+04  0.50400001928E-02 0. -1.
       -1   -1    0    0    0  501  0.00000000000E+00  0.00000000000E+00 -0.12924412407E+04  0.12924412407E+04  0.50400001928E-02 0.  1.
    10030    2    1    2    0    0  0.00000000000E+00  0.00000000000E+00  0.90274627418E+03  0.34876287556E+04  0.33687688406E+04 0.  0.
        3    1    3    3  502    0  0.73710937134E+03 -0.47535975289E+03 -0.10373671730E+04  0.13584652302E+04  0.10100000352E+00 0.  1.
       -3    1    3    3    0  502 -0.73710937134E+03  0.47535975289E+03  0.19401134471E+04  0.21291635254E+04  0.10100000352E+00 0. -1.
</event>
<event>
 5   0  0.1256208E-06  0.3398544E+04  0.7818609E-02  0.8138264E-01
       -2   -1    0    0    0  501  0.00000000000E+00  0.00000000000E+00  0.19597378008E+04  0.19597378008E+04  0.25500000920E-02 0. -1.
        2   -1    0    0  501    0  0.00000000000E+00  0.00000000000E+00 -0.14734242388E+04  0.14734242388E+04  0.25500000920E-02 0.  1.
    10030    2    1    2    0    0  0.00000000000E+00  0.00000000000E+00  0.48631356198E+03  0.34331620396E+04  0.33985439102E+04 0.  0.
        3    1    3    3  502    0  0.70103039805E+03 -0.90383287340E+03 -0.10262930455E+04  0.15367611745E+04  0.10100000352E+00 0.  1.
       -3    1    3    3    0  502 -0.70103039805E+03  0.90383287340E+03  0.15126066075E+04  0.18964008651E+04  0.10100000352E+00 0. -1.
</event>
<event>
 5   0  0.4464951E-07  0.3378951E+04  0.7818609E-02  0.8143092E-01
       -1   -1    0    0    0  501  0.00000000000E+00  0.00000000000E+00  0.27999401926E+04  0.27999401926E+04  0.50400001928E-02 0. -1.
        1   -1    0    0  501    0  0.00000000000E+00  0.00000000000E+00 -0.10194241504E+04  0.10194241504E+04  0.50400001928E-02 0.  1.
    10030    2    1    2    0    0  0.00000000000E+00  0.00000000000E+00  0.17805160422E+04  0.38193643430E+04  0.33789505187E+04 0.  0.
        3    1    3    3  502    0  0.14105614870E+03 -0.16047892406E+04  0.14656016250E+04  0.21778965717E+04  0.10100000352E+00 0. -1.
       -3    1    3    3    0  502 -0.14105614870E+03  0.16047892406E+04  0.31491441721E+03  0.16414677713E+04  0.10100000352E+00 0.  1.
</event>
<event>
 5   0  0.4289684E-07  0.3363220E+04  0.7818609E-02  0.8146993E-01
       -1   -1    0    0    0  501  0.00000000000E+00  0.00000000000E+00  0.23541590684E+04  0.23541590684E+04  0.50400001928E-02 0.  1.
        1   -1    0    0  501    0  0.00000000000E+00  0.00000000000E+00 -0.12011986617E+04  0.12011986617E+04  0.50400001928E-02 0. -1.
    10030    2    1    2    0    0  0.00000000000E+00  0.00000000000E+00  0.11529604067E+04  0.35553577301E+04  0.33632203154E+04 0.  0.
        4    1    3    3  502    0 -0.81143961157E+03  0.13223986997E+04 -0.10913828533E+03  0.15553409088E+04  0.12699999809E+01 0. -1.
       -4    1    3    3    0  502  0.81143961157E+03 -0.13223986997E+04  0.12620986920E+04  0.20000168213E+04  0.12699999809E+01 0.  1.
</event>
<event>
 5   0  0.4109937E-07  0.2847430E+04  0.7818609E-02  0.8288693E-01
       -1   -1    0    0    0  501  0.00000000000E+00  0.00000000000E+00  0.15079262046E+04  0.15079262046E+04  0.50400001928E-02 0.  1.
        1   -1    0    0  501    0  0.00000000000E+00  0.00000000000E+00 -0.13442065458E+04  0.13442065458E+04  0.50400001928E-02 0. -1.
    10030    2    1    2    0    0  0.00000000000E+00  0.00000000000E+00  0.16371965879E+03  0.28521327503E+04  0.28474299111E+04 0.  0.
        5    1    3    3  502    0  0.32522923331E+03  0.97671439659E+03 -0.90322626742E+03  0.13695199330E+04  0.46999998093E+01 0. -1.
       -5    1    3    3    0  502 -0.32522923331E+03 -0.97671439659E+03  0.10669459262E+04  0.14826128173E+04  0.46999998093E+01 0.  1.
</event>
<event>
 5   0  0.4289684E-07  0.3407228E+04  0.7818609E-02  0.8136135E-01
       -1   -1    0    0    0  501  0.00000000000E+00  0.00000000000E+00  0.15175613125E+04  0.15175613125E+04  0.50400001928E-02 0.  1.
        1   -1    0    0  501    0  0.00000000000E+00  0.00000000000E+00 -0.19124771016E+04  0.19124771016E+04  0.50400001928E-02 0. -1.
    10030    2    1    2    0    0  0.00000000000E+00  0.00000000000E+00 -0.39491578912E+03  0.34300384141E+04  0.34072283518E+04 0.  0.
        4    1    3    3  502    0 -0.17021346548E+03 -0.97374618382E+03  0.11993269371E+04  0.15542010711E+04  0.12699999809E+01 0.  1.
       -4    1    3    3    0  502  0.17021346548E+03  0.97374618382E+03 -0.15942427262E+04  0.18758373430E+04  0.12699999809E+01 0. -1.
</event>
<event>
 5   0  0.1256208E-06  0.3422686E+04  0.7818609E-02  0.8132361E-01
       -2   -1    0    0    0  501  0.00000000000E+00  0.00000000000E+00  0.13944647933E+04  0.13944647933E+04  0.25500000920E-02 0.  1.
        2   -1    0    0  501    0  0.00000000000E+00  0.00000000000E+00 -0.21002289080E+04  0.21002289080E+04  0.25500000920E-02 0. -1.
    10030    2    1    2    0    0  0.00000000000E+00  0.00000000000E+00 -0.70576411463E+03  0.34946937013E+04  0.34226862375E+04 0.  0.
        3    1    3    3  502    0 -0.11871010492E+04  0.99188961647E+03  0.39439057242E+03  0.15964328505E+04  0.10100000352E+00 0.  1.
       -3    1    3    3    0  502  0.11871010492E+04 -0.99188961647E+03 -0.11001546870E+04  0.18982608509E+04  0.10100000352E+00 0. -1.
</event>
<event>
 5   0  0.4272633E-07  0.3384176E+04  0.7818609E-02  0.8141801E-01
       -1   -1    0    0    0  501  0.00000000000E+00  0.00000000000E+00  0.19429222183E+04  0.19429222183E+04  0.50400001928E-02 0.  1.
        1   -1    0    0  501    0  0.00000000000E+00  0.00000000000E+00 -0.14736365796E+04  0.14736365796E+04  0.50400001928E-02 0. -1.
    10030    2    1    2    0    0  0.00000000000E+00  0.00000000000E+00  0.46928563869E+03  0.34165587979E+04  0.33841756764E+04 0.  0.
        1    1    3    3  502    0  0.85776233636E+03 -0.31439617489E+03 -0.12032613269E+04  0.15107743052E+04  0.50400001928E-02 0. -1.
       -1    1    3    3    0  502 -0.85776233636E+03  0.31439617489E+03  0.16725469656E+04  0.19057844927E+04  0.50400001928E-02 0.  1.
</event>
<event>
 5   0  0.1256208E-06  0.3383693E+04  0.7818609E-02  0.8141920E-01
       -2   -1    0    0    0  501  0.00000000000E+00  0.00000000000E+00  0.14911386367E+04  0.14911386367E+04  0.25500000920E-02 0.  1.
        2   -1    0    0  501    0  0.00000000000E+00  0.00000000000E+00 -0.19195694763E+04  0.19195694763E+04  0.25500000920E-02 0. -1.
    10030    2    1    2    0    0  0.00000000000E+00  0.00000000000E+00 -0.42843083958E+03  0.34107081130E+04  0.33836927827E+04 0.  0.
        3    1    3    3  502    0 -0.54927695797E+03 -0.15782438645E+03 -0.18193268056E+04  0.19069776478E+04  0.10100000352E+00 0. -1.
       -3    1    3    3    0  502  0.54927695797E+03  0.15782438645E+03  0.13908959660E+04  0.15037304652E+04  0.10100000352E+00 0.  1.
</event>
<event>
 5   0  0.1277635E-06  0.3399831E+04  0.7818609E-02  0.8137948E-01
        2   -1    0    0  501    0  0.00000000000E+00  0.00000000000E+00  0.10117924862E+04  0.10117924862E+04  0.25500000920E-02 0. -1.
       -2   -1    0    0    0  501  0.00000000000E+00  0.00000000000E+00 -0.28560324452E+04  0.28560324452E+04  0.25500000920E-02 0.  1.
    10030    2    1    2    0    0  0.00000000000E+00  0.00000000000E+00 -0.18442399590E+04  0.38678249314E+04  0.33998306830E+04 0.  0.
        4    1    3    3  502    0  0.45793607635E+03  0.16253809530E+04 -0.11443027977E+04  0.20398527393E+04  0.12699999809E+01 0.  1.
       -4    1    3    3    0  502 -0.45793607635E+03 -0.16253809530E+04 -0.69993716131E+03  0.18279721921E+04  0.12699999809E+01 0. -1.
</event>
<event>
 5   0  0.4289684E-07  0.3384338E+04  0.7818609E-02  0.8141761E-01
        1   -1    0    0  501    0  0.00000000000E+00  0.00000000000E+00  0.10409717666E+04  0.10409717666E+04  0.50400001928E-02 0. -1.
       -1   -1    0    0    0  501  0.00000000000E+00  0.00000000000E+00 -0.27507330485E+04  0.27507330485E+04  0.50400001928E-02 0.  1.
    10030    2    1    2    0    0  0.00000000000E+00  0.00000000000E+00 -0.17097612819E+04  0.37917048151E+04  0.33843377142E+04 0.  0.
        4    1    3    3  502    0  0.82678546126E+03 -0.62424697551E+03 -0.23539047300E+04  0.25717946217E+04  0.12699999809E+01 0.  1.
       -4    1    3    3    0  502 -0.82678546126E+03  0.62424697551E+03  0.64414344806E+03  0.12199101934E+04  0.12699999809E+01 0. -1.
</event>
<event>
 5   0  0.4272633E-07  0.3395745E+04  0.7818609E-02  0.8138951E-01
        1   -1    0    0  501    0  0.00000000000E+00  0.00000000000E+00  0.17661571443E+04  0.17661571443E+04  0.50400001928E-02 0. -1.
       -1   -1    0    0    0  501  0.00000000000E+00  0.00000000000E+00 -0.16322276427E+04  0.16322276427E+04  0.50400001928E-02 0.  1.
    10030    2    1    2    0    0  0.00000000000E+00  0.00000000000E+00  0.13392950159E+03  0.33983847870E+04  0.33957446973E+04 0.  0.
        1    1    3    3  502    0  0.71334211889E+03 -0.23046197715E+03  0.15915666397E+04  0.17592765758E+04  0.50400001928E-02 0. -1.
       -1    1    3    3    0  502 -0.71334211889E+03  0.23046197715E+03 -0.14576371381E+04  0.16391082112E+04  0.50400001928E-02 0.  1.
</event>
<event>
 5   0  0.1268230E-06  0.3389992E+04  0.7818609E-02  0.8140367E-01
       -2   -1    0    0    0  501  0.00000000000E+00  0.00000000000E+00  0.10325345868E+04  0.10325345868E+04  0.25500000920E-02 0. -1.
        2   -1    0    0  501    0  0.00000000000E+00  0.00000000000E+00 -0.27824841177E+04  0.27824841177E+04  0.25500000920E-02 0.  1.
    10030    2    1    2    0    0  0.00000000000E+00  0.00000000000E+00 -0.17499495309E+04  0.38150187046E+04  0.33899917928E+04 0.  0.
        2    1    3    3  502    0  0.20935017260E+03 -0.94698719400E+03  0.68942020069E+03  0.11899211963E+04  0.25500000920E-02 0. -1.
       -2    1    3    3    0  502 -0.20935017260E+03  0.94698719400E+03 -0.24393697316E+04  0.26250975082E+04  0.25500000920E-02 0.  1.
</event>
<event>
 5   0  0.1256208E-06  0.3402517E+04  0.7818609E-02  0.8137289E-01
       -2   -1    0    0    0  501  0.00000000000E+00  0.00000000000E+00  0.10846674608E+04  0.10846674608E+04  0.25500000920E-02 0.  1.
        2   -1    0    0  501    0  0.00000000000E+00  0.00000000000E+00 -0.26683571933E+04  0.26683571933E+04  0.25500000920E-02 0. -1.
    10030    2    1    2    0    0  0.00000000000E+00  0.00000000000E+00 -0.15836897324E+04  0.37530246541E+04  0.34025168458E+04 0.  0.
        3    1    3    3  502    0  0.16029356702E+04  0.40447582389E+03 -0.34888230312E+03  0.16895923551E+04  0.10100000352E+00 0. -1.
       -3    1    3    3    0  502 -0.16029356702E+04 -0.40447582389E+03 -0.12348074293E+04  0.20634322990E+04  0.10100000352E+00 0.  1.
</event>
<event>
 5   0  0.4289684E-07  0.3406861E+04  0.7818609E-02  0.8136224E-01
        1   -1    0    0  501    0  0.00000000000E+00  0.00000000000E+00  0.13241951414E+04  0.13241951414E+04  0.50400001928E-02 0. -1.
       -1   -1    0    0    0  501  0.00000000000E+00  0.00000000000E+00 -0.21912752869E+04  0.21912752869E+04  0.50400001928E-02 0.  1.
    10030    2    1    2    0    0  0.00000000000E+00  0.00000000000E+00 -0.86708014547E+03  0.35154704283E+04  0.34068613640E+04 0.  0.
        4    1    3    3  502    0 -0.16595155446E+04 -0.30596481710E+03 -0.67347849418E+03  0.18169152999E+04  0.12699999809E+01 0.  1.
       -4    1    3    3    0  502  0.16595155446E+04  0.30596481710E+03 -0.19360165128E+03  0.16985551284E+04  0.12699999809E+01 0. -1.
</event>
<event>
 5   0  0.4125758E-07  0.3406245E+04  0.7818609E-02  0.8136375E-01
       -1   -1    0    0    0  501  0.00000000000E+00  0.00000000000E+00  0.14718391084E+04  0.14718391084E+04  0.50400001928E-02 0. -1.
        1   -1    0    0  501    0  0.00000000000E+00  0.00000000000E+00 -0.19707496815E+04  0.19707496815E+04  0.50400001928E-02 0.  1.
    10030    2    1    2    0    0  0.00000000000E+00  0.00000000000E+00 -0.49891057309E+03  0.34425887899E+04  0.34062451199E+04 0.  0.
        2    1    3    3  502    0  0.83192781198E+03  0.89549726721E+03 -0.14481143486E+04  0.18950077590E+04  0.25500000920E-02 0.  1.
       -2    1    3    3    0  502 -0.83192781198E+03 -0.89549726721E+03  0.94920377552E+03  0.15475810310E+04  0.25500000920E-02 0. -1.
</event>
<event>
 5   0  0.4272633E-07  0.3398494E+04  0.7818609E-02  0.8138276E-01
       -1   -1    0    0    0  501  0.00000000000E+00  0.00000000000E+00  0.22285297364E+04  0.22285297364E+04  0.50400001928E-02 0. -1.
        1   -1    0    0  501    0  0.00000000000E+00  0.00000000000E+00 -0.12956703176E+04  0.12956703176E+04  0.50400001928E-02 0.  1.
    10030    2    1    2    0    0  0.00000000000E+00  0.00000000000E+00  0.93285941882E+03  0.35242000540E+04  0.33984936847E+04 0.  0.
        1    1    3    3  502    0  0.14895079809E+04 -0.11587833878E+03  0.13059283963E+04  0.19843162023E+04  0.50400001928E-02 0. -1.
       -1    1    3    3    0  502 -0.14895079809E+04  0.11587833878E+03 -0.37306897750E+03  0.15398838516E+04  0.50400001928E-02 0.  1.
</event>
<event>
 5   0  0.1268230E-06  0.3402021E+04  0.7818609E-02  0.8137410E-01
        2   -1    0    0  501    0  0.00000000000E+00  0.00000000000E+00  0.17844571576E+04  0.17844571576E+04  0.25500000920E-02 0.  1.
       -2   -1    0    0    0  501  0.00000000000E+00  0.00000000000E+00 -0.16214663665E+04  0.16214663665E+04  0.25500000920E-02 0. -1.
    10030    2    1    2    0    0  0.00000000000E+00  0.00000000000E+00  0.16299079110E+03  0.34059235241E+04  0.34020213188E+04 0.  0.
        2    1    3    3  502    0 -0.91963709119E+03 -0.36065070144E+03  0.14678711142E+04  0.17693069027E+04  0.25500000920E-02 0.  1.
       -2    1    3    3    0  502  0.91963709119E+03  0.36065070144E+03 -0.13048803231E+04  0.16366166214E+04  0.25500000920E-02 0. -1.
</event>
<event>
 5   0  0.4109937E-07  0.3396332E+04  0.7818609E-02  0.8138807E-01
        1   -1    0    0  501    0  0.00000000000E+00  0.00000000000E+00  0.15173165760E+04  0.15173165760E+04  0.50400001928E-02 0. -1.
       -1   -1    0    0    0  501  0.00000000000E+00  0.00000000000E+00 -0.19005711802E+04  0.19005711802E+04  0.50400001928E-02 0.  1.
    10030    2    1    2    0    0  0.00000000000E+00  0.00000000000E+00 -0.38325460419E+03  0.34178877562E+04  0.33963322308E+04 0.  0.
        5    1    3    3  502    0 -0.13045521761E+04 -0.44945534229E+03 -0.11877985062E+04  0.18206465517E+04  0.46999998093E+01 0.  1.
       -5    1    3    3    0  502  0.13045521761E+04  0.44945534229E+03  0.80454390198E+03  0.15972412045E+04  0.46999998093E+01 0. -1.
</event>
<event>
 5   0  0.4464951E-07  0.3381679E+04  0.7818609E-02  0.8142418E-01
       -1   -1    0    0    0  501  0.00000000000E+00  0.00000000000E+00  0.29113384929E+04  0.29113384929E+04  0.50400001928E-02 0. -1.
        1   -1    0    0  501    0  0.00000000000E+00  0.00000000000E+00 -0.98200147917E+03  0.98200147918E+03  0.50400001928E-02 0.  1.
    10030    2    1    2    0    0  0.00000000000E+00  0.00000000000E+00  0.19293370137E+04  0.38933399721E+04  0.33816792908E+04 0.  0.
        3    1    3    3  502    0  0.79633727494E+03 -0.39935620014E+03 -0.68988764683E+03  0.11267579179E+04  0.10100000352E+00 0.  1.
       -3    1    3    3    0  502 -0.79633727494E+03  0.39935620014E+03  0.26192246606E+04  0.27665820542E+04  0.10100000352E+00 0. -1.
</event>
<event>
 5   0  0.1256208E-06  0.3401428E+04  0.7818609E-02  0.8137556E-01
       -2   -1    0    0    0  501  0.00000000000E+00  0.00000000000E+00  0.17706165744E+04  0.17706165744E+04  0.25500000920E-02 0. -1.
        2   -1    0    0  501    0  0.00000000000E+00  0.00000000000E+00 -0.16335708329E+04  0.16335708329E+04  0.25500000920E-02 0.  1.
    10030    2    1    2    0    0  0.00000000000E+00  0.00000000000E+00  0.13704574147E+03  0.34041874073E+04  0.34014276956E+04 0.  0.
        3    1    3    3  502    0  0.10119187861E+04 -0.11644656813E+04  0.78497212697E+03  0.17309365104E+04  0.10100000352E+00 0. -1.
       -3    1    3    3    0  502 -0.10119187861E+04  0.11644656813E+04 -0.64792638550E+03  0.16732508969E+04  0.10100000352E+00 0.  1.
</event>
<event>
 5   0  0.1256208E-06  0.3412233E+04  0.7818609E-02  0.8134910E-01
       -2   -1    0    0    0  501  0.00000000000E+00  0.00000000000E+00  0.16855645887E+04  0.16855645887E+04  0.25500000920E-02 0. -1.
        2   -1    0    0  501    0  0.00000000000E+00  0.00000000000E+00 -0.17269192717E+04  0.17269192717E+04  0.25500000920E-02 0.  1.
    10030    2    1    2    0    0  0.00000000000E+00  0.00000000000E+00 -0.41354683055E+02  0.34124838604E+04  0.34122332698E+04 0.  0.
        3    1    3    3  502    0 -0.11753589375E+04 -0.68830876073E+03 -0.10481749955E+04  0.17186938103E+04  0.10100000352E+00 0.  1.
       -3    1    3    3    0  502  0.11753589375E+04  0.68830876073E+03  0.10068203124E+04  0.16937900501E+04  0.10100000352E+00 0. -1.
</event>
<event>
 5   0  0.4272633E-07  0.3481681E+04  0.7818609E-02  0.8118145E-01
       -1   -1    0    0    0  501  0.00000000000E+00  0.00000000000E+00  0.16382269099E+04  0.16382269099E+04  0.50400001928E-02 0.  1.
        1   -1    0    0  501    0  0.00000000000E+00  0.00000000000E+00 -0.18498817178E+04  0.18498817178E+04  0.50400001928E-02 0. -1.
    10030    2    1    2    0    0  0.00000000000E+00  0.00000000000E+00 -0.21165480790E+03  0.34881086277E+04  0.34816812089E+04 0.  0.
        1    1    3    3  502    0 -0.45208366881E+03  0.20387683667E+03  0.15659594065E+04  0.16426120269E+04  0.50400001928E-02 0.  1.
       -1    1    3    3    0  502  0.45208366881E+03 -0.20387683667E+03 -0.17776142144E+04  0.18454966008E+04  0.50400001928E-02 0. -1.
</event>
<event>
 5   0  0.1300176E-06  0.3471716E+04  0.7818609E-02  0.8120526E-01
       -2   -1    0    0    0  501  0.00000000000E+00  0.00000000000E+00  0.20257274016E+04  0.20257274016E+04  0.25500000920E-02 0. -1.
        2   -1    0    0  501    0  0.00000000000E+00  0.00000000000E+00 -0.14874674799E+04  0.14874674800E+04  0.25500000920E-02 0.  1.
    10030    2    1    2    0    0  0.00000000000E+00  0.00000000000E+00  0.53825992165E+03  0.35131948816E+04  0.34717163669E+04 0.  0.
        1    1    3    3  502    0  0.14073623577E+04  0.96447590806E+03 -0.54568398896E+02  0.17070033079E+04  0.50400001928E-02 0.  1.
       -1    1    3    3    0  502 -0.14073623577E+04 -0.96447590806E+03  0.59282832055E+03  0.18061915736E+04  0.50400001928E-02 0. -1.
</event>
<event>
 5   0  0.4125758E-07  0.3410351E+04  0.7818609E-02  0.8135370E-01
        1   -1    0    0  501    0  0.00000000000E+00  0.00000000000E+00  0.24689829248E+04  0.24689829248E+04  0.50400001928E-02 0. -1.
       -1   -1    0    0    0  501  0.00000000000E+00  0.00000000000E+00 -0.11776605331E+04  0.11776605331E+04  0.50400001928E-02 0.  1.
    10030    2    1    2    0    0  0.00000000000E+00  0.00000000000E+00  0.12913223917E+04  0.36466434580E+04  0.34103511535E+04 0.  0.
        2    1    3    3  502    0  0.30392227139E+03  0.15454379565E+04 -0.52965761286E+02  0.15759291216E+04  0.25500000920E-02 0. -1.
       -2    1    3    3    0  502 -0.30392227139E+03 -0.15454379565E+04  0.13442881530E+04  0.20707143363E+04  0.25500000920E-02 0.  1.
</event>
<event>
 5   0  0.4272633E-07  0.3401239E+04  0.7818609E-02  0.8137602E-01
        1   -1    0    0  501    0  0.00000000000E+00  0.00000000000E+00  0.11822497005E+04  0.11822497005E+04  0.50400001928E-02 0. -1.
       -1   -1    0    0    0  501  0.00000000000E+00  0.00000000000E+00 -0.24462740044E+04  0.24462740044E+04  0.50400001928E-02 0.  1.
    10030    2    1    2    0    0  0.00000000000E+00  0.00000000000E+00 -0.12640243039E+04  0.36285237049E+04  0.34012390149E+04 0.  0.
        1    1    3    3  502    0 -0.16414276311E+04 -0.23625805967E+03 -0.10340281740E+04  0.19543072439E+04  0.50400001928E-02 0.  1.
       -1    1    3    3    0  502  0.16414276311E+04  0.23625805967E+03 -0.22999612989E+03  0.16742164611E+04  0.50400001928E-02 0. -1.
</event>
<event>
 5   0  0.4125758E-07  0.3403282E+04  0.7818609E-02  0.8137101E-01
        1   -1    0    0  501    0  0.00000000000E+00  0.00000000000E+00  0.18679912459E+04  0.18679912459E+04  0.50400001928E-02 0. -1.
       -1   -1    0    0    0  501  0.00000000000E+00  0.00000000000E+00 -0.15501042966E+04  0.15501042966E+04  0.50400001928E-02 0.  1.
    10030    2    1    2    0    0  0.00000000000E+00  0.00000000000E+00  0.31788694927E+03  0.34180955425E+04  0.34032815084E+04 0.  0.
        2    1    3    3  502    0  0.93042049780E+02 -0.13570636194E+04 -0.86790739160E+03  0.16135494199E+04  0.25500000920E-02 0.  1.
       -2    1    3    3    0  502 -0.93042049780E+02  0.13570636194E+04  0.11857943409E+04  0.18045461227E+04  0.25500000920E-02 0. -1.
</event>
<event>
 5   0  0.1300176E-06  0.3410695E+04  0.7818609E-02  0.8135287E-01
        2   -1    0    0  501    0  0.00000000000E+00  0.00000000000E+00  0.25251737864E+04  0.25251737864E+04  0.25500000920E-02 0.  1.
       -2   -1    0    0    0  501  0.00000000000E+00  0.00000000000E+00 -0.11516868225E+04  0.11516868225E+04  0.25500000920E-02 0. -1.
    10030    2    1    2    0    0  0.00000000000E+00  0.00000000000E+00  0.13734869640E+04  0.36768606089E+04  0.34106945769E+04 0.  0.
        1    1    3    3  502    0 -0.16995373833E+04 -0.12730981489E+03  0.75119422038E+03  0.18625058021E+04  0.50400001928E-02 0. -1.
       -1    1    3    3    0  502  0.16995373833E+04  0.12730981489E+03  0.62229274357E+03  0.18143548068E+04  0.50400001928E-02 0.  1.
</event>
<event>
 5   0  0.4289684E-07  0.3448850E+04  0.7818609E-02  0.8126020E-01
        1   -1    0    0  501    0  0.00000000000E+00  0.00000000000E+00  0.21356006283E+04  0.21356006283E+04  0.50400001928E-02 0.  1.
       -1   -1    0    0    0  501  0.00000000000E+00  0.00000000000E+00 -0.13924143835E+04  0.13924143835E+04  0.50400001928E-02 0. -1.
    10030    2    1    2    0    0  0.00000000000E+00  0.00000000000E+00  0.74318624485E+03  0.35280150118E+04  0.34488496820E+04 0.  0.
        4    1    3    3  502    0  0.44780184506E+03 -0.11461829054E+04  0.16073698362E+04  0.20243273323E+04  0.12699999809E+01 0.  1.
       -4    1    3    3    0  502 -0.44780184506E+03  0.11461829054E+04 -0.86418359137E+03  0.15036876795E+04  0.12699999809E+01 0. -1.
</event>
<event>
 5   0  0.4125758E-07  0.3420002E+04  0.7818609E-02  0.8133015E-01
        1   -1    0    0  501    0  0.00000000000E+00  0.00000000000E+00  0.20322255203E+04  0.20322255203E+04  0.50400001928E-02 0.  1.
       -1   -1    0    0    0  501  0.00000000000E+00  0.00000000000E+00 -0.14388675957E+04  0.14388675957E+04  0.50400001928E-02 0. -1.
    10030    2    1    2    0    0  0.00000000000E+00  0.00000000000E+00  0.59335792458E+03  0.34710931160E+04  0.34200020165E+04 0.  0.
        2    1    3    3  502    0  0.72587427796E+03 -0.12621617721E+03 -0.12695133391E+04  0.14678174645E+04  0.25500000920E-02 0. -1.
       -2    1    3    3    0  502 -0.72587427796E+03  0.12621617721E+03  0.18628712637E+04  0.20032756515E+04  0.25500000920E-02 0.  1.
</event>
<event>
 5   0  0.1268230E-06  0.3782451E+04  0.7818609E-02  0.8049931E-01
        2   -1    0    0  501    0  0.00000000000E+00  0.00000000000E+00  0.27101000762E+04  0.27101000762E+04  0.25500000920E-02 0.  1.
       -2   -1    0    0    0  501  0.00000000000E+00  0.00000000000E+00 -0.13197792886E+04  0.13197792886E+04  0.25500000920E-02 0. -1.
    10030    2    1    2    0    0  0.00000000000E+00  0.00000000000E+00  0.13903207876E+04  0.40298793649E+04  0.37824510311E+04 0.  0.
        2    1    3    3  502    0  0.14401258547E+04 -0.98249428933E+03  0.14762456665E+04  0.22844165062E+04  0.25500000920E-02 0.  1.
       -2    1    3    3    0  502 -0.14401258547E+04  0.98249428933E+03 -0.85924878914E+02  0.17454628586E+04  0.25500000920E-02 0. -1.
</event>
<event>
 5   0  0.4464951E-07  0.3382550E+04  0.7818609E-02  0.8142202E-01
        1   -1    0    0  501    0  0.00000000000E+00  0.00000000000E+00  0.19527217344E+04  0.19527217344E+04  0.50400001928E-02 0.  1.
       -1   -1    0    0    0  501  0.00000000000E+00  0.00000000000E+00 -0.14648329025E+04  0.14648329025E+04  0.50400001928E-02 0. -1.
    10030    2    1    2    0    0  0.00000000000E+00  0.00000000000E+00  0.48788883193E+03  0.34175546369E+04  0.33825499529E+04 0.  0.
        3    1    3    3  502    0 -0.18763007893E+03  0.10185537261E+04  0.15948505159E+04  0.19016321720E+04  0.10100000352E+00 0.  1.
       -3    1    3    3    0  502  0.18763007893E+03 -0.10185537261E+04 -0.11069616839E+04  0.15159224649E+04  0.10100000352E+00 0. -1.
</event>
<event>
 5   0  0.1269497E-06  0.3391015E+04  0.7818609E-02  0.8140115E-01
        2   -1    0    0  501    0  0.00000000000E+00  0.00000000000E+00  0.26752919784E+04  0.26752919784E+04  0.25500000920E-02 0.  1.
       -2   -1    0    0    0  501  0.00000000000E+00  0.00000000000E+00 -0.10745538414E+04  0.10745538414E+04  0.25500000920E-02 0. -1.
    10030    2    1    2    0    0  0.00000000000E+00  0.00000000000E+00  0.16007381370E+04  0.37498458198E+04  0.33910147580E+04 0.  0.
        5    1    3    3  502    0  0.73238354615E+03  0.10058824199E+04 -0.47326184734E+03  0.13312340018E+04  0.46999998093E+01 0. -1.
       -5    1    3    3    0  502 -0.73238354615E+03 -0.10058824199E+04  0.20739999844E+04  0.24186118181E+04  0.46999998093E+01 0.  1.
</event>
<event>
 5   0  0.4464951E-07  0.3400093E+04  0.7818609E-02  0.8137883E-01
       -1   -1    0    0    0  501  0.00000000000E+00  0.00000000000E+00  0.17407403744E+04  0.17407403744E+04  0.50400001928E-02 0.  1.
        1   -1    0    0  501    0  0.00000000000E+00  0.00000000000E+00 -0.16603040684E+04  0.16603040684E+04  0.50400001928E-02 0. -1.
    10030    2    1    2    0    0  0.00000000000E+00  0.00000000000E+00  0.80436306038E+02  0.34010444428E+04  0.34000931314E+04 0.  0.
        3    1    3    3  502    0  0.16964372585E+04  0.82233697974E+02  0.11437769999E+03  0.17022761297E+04  0.10100000352E+00 0.  1.
       -3    1    3    3    0  502 -0.16964372585E+04 -0.82233697974E+02 -0.33941393950E+02  0.16987683131E+04  0.10100000352E+00 0. -1.
</event>
<event>
 5   0  0.1268230E-06  0.3419883E+04  0.7818609E-02  0.8133044E-01
        2   -1    0    0  501    0  0.00000000000E+00  0.00000000000E+00  0.17538925890E+04  0.17538925890E+04  0.25500000920E-02 0. -1.
       -2   -1    0    0    0  501  0.00000000000E+00  0.00000000000E+00 -0.16670919274E+04  0.16670919274E+04  0.25500000920E-02 0.  1.
    10030    2    1    2    0    0  0.00000000000E+00  0.00000000000E+00  0.86800661572E+02  0.34209845164E+04  0.34198831423E+04 0.  0.
        2    1    3    3  502    0 -0.35212683614E+03 -0.24363420058E+03  0.16993939049E+04  0.17525097936E+04  0.25500000920E-02 0. -1.
       -2    1    3    3    0  502  0.35212683614E+03  0.24363420058E+03 -0.16125932433E+04  0.16684747229E+04  0.25500000920E-02 0.  1.
</event>
<event>
 5   0  0.1268230E-06  0.3382719E+04  0.7818609E-02  0.8142161E-01
        2   -1    0    0  501    0  0.00000000000E+00  0.00000000000E+00  0.14300875950E+04  0.14300875950E+04  0.25500000920E-02 0. -1.
       -2   -1    0    0    0  501  0.00000000000E+00  0.00000000000E+00 -0.20003646501E+04  0.20003646501E+04  0.25500000920E-02 0.  1.
    10030    2    1    2    0    0  0.00000000000E+00  0.00000000000E+00 -0.57027705515E+03  0.34304522451E+04  0.33827188305E+04 0.  0.
        2    1    3    3  502    0 -0.10825790831E+04 -0.12496679782E+04 -0.64660777068E+03  0.17753166298E+04  0.25500000920E-02 0.  1.
       -2    1    3    3    0  502  0.10825790831E+04  0.12496679782E+04  0.76330715523E+02  0.16551356153E+04  0.25500000920E-02 0. -1.
</event>
<event>
 5   0  0.4272633E-07  0.3447696E+04  0.7818609E-02  0.8126298E-01
        1   -1    0    0  501    0  0.00000000000E+00  0.00000000000E+00  0.19909978846E+04  0.19909978846E+04  0.50400001928E-02 0.  1.
       -1   -1    0    0    0  501  0.00000000000E+00  0.00000000000E+00 -0.14925439016E+04  0.14925439016E+04  0.50400001928E-02 0. -1.
    10030    2    1    2    0    0  0.00000000000E+00  0.00000000000E+00  0.49845398295E+03  0.34835417862E+04  0.34476958977E+04 0.  0.
        1    1    3    3  502    0 -0.11309514515E+04  0.42858737249E+03  0.14903768844E+04  0.19193648896E+04  0.50400001928E-02 0.  1.
       -1    1    3    3    0  502  0.11309514515E+04 -0.42858737249E+03 -0.99192290147E+03  0.15641768967E+04  0.50400001928E-02 0. -1.
</event>
<event>
 5   0  0.1256208E-06  0.3377853E+04  0.7818609E-02  0.8143363E-01
        2   -1    0    0  501    0  0.00000000000E+00  0.00000000000E+00  0.28862364614E+04  0.28862364614E+04  0.25500000920E-02 0. -1.
       -2   -1    0    0    0  501  0.00000000000E+00  0.00000000000E+00 -0.98830205007E+03  0.98830205007E+03  0.25500000920E-02 0.  1.
    10030    2    1    2    0    0  0.00000000000E+00  0.00000000000E+00  0.18979344113E+04  0.38745385115E+04  0.33778534082E+04 0.  0.
        3    1    3    3  502    0  0.10517745214E+04  0.94942300375E+03  0.20032723976E+04  0.24537184013E+04  0.10100000352E+00 0. -1.
       -3    1    3    3    0  502 -0.10517745214E+04 -0.94942300375E+03 -0.10533798625E+03  0.14208201102E+04  0.10100000352E+00 0.  1.
</event>
<event>
 5   0  0.1268230E-06  0.3397076E+04  0.7818609E-02  0.8138624E-01
        2   -1    0    0  501    0  0.00000000000E+00  0.00000000000E+00  0.19684599185E+04  0.19684599185E+04  0.25500000920E-02 0. -1.
       -2   -1    0    0    0  501  0.00000000000E+00  0.00000000000E+00 -0.14656284796E+04  0.14656284796E+04  0.25500000920E-02 0.  1.
    10030    2    1    2    0    0  0.00000000000E+00  0.00000000000E+00  0.50283143884E+03  0.34340883981E+04  0.33970757528E+04 0.  0.
        2    1    3    3  502    0  0.80658470316E+03 -0.86720197280E+03 -0.97939370471E+03  0.15368247050E+04  0.25500000920E-02 0.  1.
       -2    1    3    3    0  502 -0.80658470316E+03  0.86720197280E+03  0.14822251435E+04  0.18972636931E+04  0.25500000920E-02 0. -1.
</event>
<event>
 5   0  0.4464951E-07  0.3368296E+04  0.7818609E-02  0.8145732E-01
        1   -1    0    0  501    0  0.00000000000E+00  0.00000000000E+00  0.13718787316E+04  0.13718787316E+04  0.50400001928E-02 0. -1.
       -1   -1    0    0    0  501  0.00000000000E+00  0.00000000000E+00 -0.20674961314E+04  0.20674961314E+04  0.50400001928E-02 0.  1.
    10030    2    1    2    0    0  0.00000000000E+00  0.00000000000E+00 -0.69561739981E+03  0.34393748630E+04  0.33682956939E+04 0.  0.
        3    1    3    3  502    0  0.57307591583E+03  0.10814143191E+04 -0.15291500678E+04  0.19586150400E+04  0.10100000352E+00 0.  1.
       -3    1    3    3    0  502 -0.57307591583E+03 -0.10814143191E+04  0.83353266799E+03  0.14807598231E+04  0.10100000352E+00 0. -1.
</event>
<event>
 5   0  0.4109937E-07  0.3345522E+04  0.7818609E-02  0.8151408E-01
       -1   -1    0    0    0  501  0.00000000000E+00  0.00000000000E+00  0.10813289270E+04  0.10813289270E+04  0.50400001928E-02 0. -1.
        1   -1    0    0  501    0  0.00000000000E+00  0.00000000000E+00 -0.25876767652E+04  0.25876767652E+04  0.50400001928E-02 0.  1.
    10030    2    1    2    0    0  0.00000000000E+00  0.00000000000E+00 -0.15063478382E+04  0.36690056922E+04  0.33455222253E+04 0.  0.
        5    1    3    3  502    0  0.18578755227E+03 -0.15797264624E+04 -0.18537263118E+03  0.16013862161E+04  0.46999998093E+01 0. -1.
       -5    1    3    3    0  502 -0.18578755227E+03  0.15797264624E+04 -0.13209752070E+04  0.20676194762E+04  0.46999998093E+01 0.  1.
</event>
<event>
 5   0  0.4289684E-07  0.3383301E+04  0.7818609E-02  0.8142017E-01
        1   -1    0    0  501    0  0.00000000000E+00  0.00000000000E+00  0.84108181982E+03  0.84108181983E+03  0.50400001928E-02 0. -1.
       -1   -1    0    0    0  501  0.00000000000E+00  0.00000000000E+00 -0.34023816966E+04  0.34023816966E+04  0.50400001928E-02 0.  1.
    10030    2    1    2    0    0  0.00000000000E+00  0.00000000000E+00 -0.25612998768E+04  0.42434635165E+04  0.33833009852E+04 0.  0.
        4    1    3    3  502    0 -0.11838124678E+04  0.16546859737E+03  0.22071391024E+03  0.12155278930E+04  0.12699999809E+01 0. -1.
       -4    1    3    3    0  502  0.11838124678E+04 -0.16546859737E+03 -0.27820137870E+04  0.30279356235E+04  0.12699999809E+01 0.  1.
</event>
<event>
 5   0  0.1256208E-06  0.3359666E+04  0.7818609E-02  0.8147877E-01
        2   -1    0    0  501    0  0.00000000000E+00  0.00000000000E+00  0.17426487581E+04  0.17426487581E+04  0.25500000920E-02 0. -1.
       -2   -1    0    0    0  501  0.00000000000E+00  0.00000000000E+00 -0.16192814853E+04  0.16192814853E+04  0.25500000920E-02 0.  1.
    10030    2    1    2    0    0  0.00000000000E+00  0.00000000000E+00  0.12336727288E+03  0.33619302434E+04  0.33596659771E+04 0.  0.
        3    1    3    3  502    0  0.10454278576E+04 -0.79702181614E+03  0.11081779524E+04  0.17193666174E+04  0.10100000352E+00 0. -1.
       -3    1    3    3    0  502 -0.10454278576E+04  0.79702181614E+03 -0.98481067950E+03  0.16425636260E+04  0.10100000352E+00 0.  1.
</event>
<event>
 5   0  0.1268230E-06  0.3411446E+04  0.7818609E-02  0.8135103E-01
        2   -1    0    0  501    0  0.00000000000E+00  0.00000000000E+00  0.28037938717E+04  0.28037938717E+04  0.25500000920E-02 0. -1.
       -2   -1    0    0    0  501  0.00000000000E+00  0.00000000000E+00 -0.10376980661E+04  0.10376980661E+04  0.25500000920E-02 0.  1.
    10030    2    1    2    0    0  0.00000000000E+00  0.00000000000E+00  0.17660958055E+04  0.38414919378E+04  0.34114463082E+04 0.  0.
        2    1    3    3  502    0 -0.10887056711E+04 -0.80532746563E+03 -0.28483342826E+03  0.13838216818E+04  0.25500000920E-02 0.  1.
       -2    1    3    3    0  502  0.10887056711E+04  0.80532746563E+03  0.20509292338E+04  0.24576702560E+04  0.25500000920E-02 0. -1.
</event>
<event>
 5   0  0.1277635E-06  0.3432253E+04  0.7818609E-02  0.8130036E-01
       -2   -1    0    0    0  501  0.00000000000E+00  0.00000000000E+00  0.16249957838E+04  0.16249957838E+04  0.25500000920E-02 0.  1.
        2   -1    0    0  501    0  0.00000000000E+00  0.00000000000E+00 -0.18123674164E+04  0.18123674164E+04  0.25500000920E-02 0. -1.
    10030    2    1    2    0    0  0.00000000000E+00  0.00000000000E+00 -0.18737163261E+03  0.34373632002E+04  0.34322525608E+04 0.  0.
        4    1    3    3  502    0  0.17086957959E+03  0.11632661054E+04 -0.13456285312E+04  0.17869253488E+04  0.12699999809E+01 0. -1.
       -4    1    3    3    0  502 -0.17086957959E+03 -0.11632661054E+04  0.11582568986E+04  0.16504378514E+04  0.12699999809E+01 0.  1.
</event>
<event>
 5   0  0.4125758E-07  0.3360372E+04  0.7818609E-02  0.8147701E-01
       -1   -1    0    0    0  501  0.00000000000E+00  0.00000000000E+00  0.11575703119E+04  0.11575703119E+04  0.50400001928E-02 0.  1.
        1   -1    0    0  501    0  0.00000000000E+00  0.00000000000E+00 -0.24387505238E+04  0.24387505238E+04  0.50400001928E-02 0. -1.
    10030    2    1    2    0    0  0.00000000000E+00  0.00000000000E+00 -0.12811802120E+04  0.35963208357E+04  0.33603721249E+04 0.  0.
        2    1    3    3  502    0  0.11098976794E+04  0.12057217128E+04 -0.10372740855E+04  0.19394780834E+04  0.25500000920E-02 0. -1.
       -2    1    3    3    0  502 -0.11098976794E+04 -0.12057217128E+04 -0.24390612648E+03  0.16568427523E+04  0.25500000920E-02 0.  1.
</event>
<event>
 5   0  0.1256208E-06  0.3427390E+04  0.7818609E-02  0.8131216E-01
        2   -1    0    0  501    0  0.00000000000E+00  0.00000000000E+00  0.24751452452E+04  0.24751452452E+04  0.25500000920E-02 0.  1.
       -2   -1    0    0    0  501  0.00000000000E+00  0.00000000000E+00 -0.11864962010E+04  0.11864962010E+04  0.25500000920E-02 0. -1.
    10030    2    1    2    0    0  0.00000000000E+00  0.00000000000E+00  0.12886490442E+04  0.36616414461E+04  0.34273899283E+04 0.  0.
        3    1    3    3  502    0 -0.27178813036E+03  0.31684308067E+03 -0.11313477824E+04  0.12059046979E+04  0.10100000352E+00 0. -1.
       -3    1    3    3    0  502  0.27178813036E+03 -0.31684308067E+03  0.24199968266E+04  0.24557367482E+04  0.10100000352E+00 0.  1.
</event>
<event>
 5   0  0.1268230E-06  0.3400245E+04  0.7818609E-02  0.8137846E-01
       -2   -1    0    0    0  501  0.00000000000E+00  0.00000000000E+00  0.16490665548E+04  0.16490665548E+04  0.25500000920E-02 0. -1.
        2   -1    0    0  501    0  0.00000000000E+00  0.00000000000E+00 -0.17527589072E+04  0.17527589072E+04  0.25500000920E-02 0.  1.
    10030    2    1    2    0    0  0.00000000000E+00  0.00000000000E+00 -0.10369235231E+03  0.34018254620E+04  0.34002447515E+04 0.  0.
        2    1    3    3  502    0  0.77520502140E+03 -0.55376619082E+03  0.13569335265E+04  0.16579711742E+04  0.25500000920E-02 0. -1.
       -2    1    3    3    0  502 -0.77520502140E+03  0.55376619082E+03 -0.14606258788E+04  0.17438542878E+04  0.25500000920E-02 0.  1.
</event>
<event>
 5   0  0.4272633E-07  0.3384304E+04  0.7818609E-02  0.8141770E-01
        1   -1    0    0  501    0  0.00000000000E+00  0.00000000000E+00  0.18780442462E+04  0.18780442462E+04  0.50400001928E-02 0.  1.
       -1   -1    0    0    0  501  0.00000000000E+00  0.00000000000E+00 -0.15246592793E+04  0.15246592793E+04  0.50400001928E-02 0. -1.
    10030    2    1    2    0    0  0.00000000000E+00  0.00000000000E+00  0.35338496692E+03  0.34027035255E+04  0.33843035248E+04 0.  0.
        1    1    3    3  502    0  0.67002873763E+03  0.43150965590E+03  0.16775367869E+04  0.18572207095E+04  0.50400001928E-02 0.  1.
       -1    1    3    3    0  502 -0.67002873763E+03 -0.43150965590E+03 -0.13241518199E+04  0.15454828160E+04  0.50400001928E-02 0. -1.
</event>
<event>
 5   0  0.4109937E-07  0.3356838E+04  0.7818609E-02  0.8148582E-01
        1   -1    0    0  501    0  0.00000000000E+00  0.00000000000E+00  0.97893141156E+03  0.97893141157E+03  0.50400001928E-02 0. -1.
       -1   -1    0    0    0  501  0.00000000000E+00  0.00000000000E+00 -0.28777200962E+04  0.28777200962E+04  0.50400001928E-02 0.  1.
    10030    2    1    2    0    0  0.00000000000E+00  0.00000000000E+00 -0.18987886846E+04  0.38566515078E+04  0.33568381527E+04 0.  0.
        5    1    3    3  502    0  0.78477615774E+03 -0.11204747145E+04  0.16789042167E+03  0.13782403591E+04  0.46999998093E+01 0. -1.
       -5    1    3    3    0  502 -0.78477615774E+03  0.11204747145E+04 -0.20666791063E+04  0.24784111487E+04  0.46999998093E+01 0.  1.
</event>
<event>
 5   0  0.4289684E-07  0.3374004E+04  0.7818609E-02  0.8144316E-01
       -1   -1    0    0    0  501  0.00000000000E+00  0.00000000000E+00  0.13085131468E+04  0.13085131469E+04  0.50400001928E-02 0. -1.
        1   -1    0    0  501    0  0.00000000000E+00  0.00000000000E+00 -0.21749692907E+04  0.21749692907E+04  0.50400001928E-02 0.  1.
    10030    2    1    2    0    0  0.00000000000E+00  0.00000000000E+00 -0.86645614385E+03  0.34834824376E+04  0.33740040966E+04 0.  0.
        4    1    3    3  502    0  0.58259999383E+03 -0.14427574716E+04  0.23984733589E+03  0.15743253260E+04  0.12699999809E+01 0. -1.
       -4    1    3    3    0  502 -0.58259999383E+03  0.14427574716E+04 -0.11063034797E+04  0.19091571116E+04  0.12699999809E+01 0.  1.
</event>
<event>
 5   0  0.4464951E-07  0.2894700E+04  0.7818609E-02  0.8274456E-01
        1   -1    0    0  501    0  0.00000000000E+00  0.00000000000E+00  0.16226721499E+04  0.16226721499E+04  0.50400001928E-02 0.  1.
       -1   -1    0    0    0  501  0.00000000000E+00  0.00000000000E+00 -0.12909701610E+04  0.12909701610E+04  0.50400001928E-02 0. -1.
    10030    2    1    2    0    0  0.00000000000E+00  0.00000000000E+00  0.33170198884E+03  0.29136423109E+04  0.28946995192E+04 0.  0.
        3    1    3    3  502    0  0.96330144651E+03 -0.22463284423E+03  0.12293692293E+04  0.15778967976E+04  0.10100000352E+00 0.  1.
       -3    1    3    3    0  502 -0.96330144651E+03  0.22463284423E+03 -0.89766724049E+03  0.13357455133E+04  0.10100000352E+00 0. -1.
</event>
<event>
 5   0  0.1256208E-06  0.3413635E+04  0.7818609E-02  0.8134568E-01
        2   -1    0    0  501    0  0.00000000000E+00  0.00000000000E+00  0.17229642526E+04  0.17229642526E+04  0.25500000920E-02 0. -1.
       -2   -1    0    0    0  501  0.00000000000E+00  0.00000000000E+00 -0.16908219552E+04  0.16908219552E+04  0.25500000920E-02 0.  1.
    10030    2    1    2    0    0  0.00000000000E+00  0.00000000000E+00  0.32142297395E+02  0.34137862078E+04  0.34136348876E+04 0.  0.
        3    1    3    3  502    0  0.33936508008E+03  0.16726985402E+04  0.27764062194E+02  0.17070031978E+04  0.10100000352E+00 0. -1.
       -3    1    3    3    0  502 -0.33936508008E+03 -0.16726985402E+04  0.43782352013E+01  0.17067830100E+04  0.10100000352E+00 0.  1.
</event>
<event>
 5   0  0.4125758E-07  0.3388645E+04  0.7818609E-02  0.8140699E-01
        1   -1    0    0  501    0  0.00000000000E+00  0.00000000000E+00  0.20435949775E+04  0.20435949775E+04  0.50400001928E-02 0. -1.
       -1   -1    0    0    0  501  0.00000000000E+00  0.00000000000E+00 -0.14047441604E+04  0.14047441604E+04  0.50400001928E-02 0.  1.
    10030    2    1    2    0    0  0.00000000000E+00  0.00000000000E+00  0.63885081718E+03  0.34483391379E+04  0.33886446322E+04 0.  0.
        2    1    3    3  502    0  0.84617529537E+03 -0.19541606255E+03  0.17998829553E+04  0.19984440749E+04  0.25500000920E-02 0.  1.
       -2    1    3    3    0  502 -0.84617529537E+03  0.19541606255E+03 -0.11610321381E+04  0.14498950630E+04  0.25500000920E-02 0. -1.
</event>
<event>
 5   0  0.1300176E-06  0.3397054E+04  0.7818609E-02  0.8138630E-01
       -2   -1    0    0    0  501  0.00000000000E+00  0.00000000000E+00  0.14451017982E+04  0.14451017982E+04  0.25500000920E-02 0.  1.
        2   -1    0    0  501    0  0.00000000000E+00  0.00000000000E+00 -0.19963949339E+04  0.19963949339E+04  0.25500000920E-02 0. -1.
    10030    2    1    2    0    0  0.00000000000E+00  0.00000000000E+00 -0.55129313564E+03  0.34414967321E+04  0.33970539642E+04 0.  0.
        1    1    3    3  502    0 -0.96838267090E+03 -0.82019604134E+03 -0.14193570207E+04  0.19039592684E+04  0.50400001928E-02 0. -1.
       -1    1    3    3    0  502  0.96838267090E+03  0.82019604134E+03  0.86806388507E+03  0.15375374636E+04  0.50400001928E-02 0.  1.
</event>
<event>
 5   0  0.4125758E-07  0.3368229E+04  0.7818609E-02  0.8145748E-01
       -1   -1    0    0    0  501  0.00000000000E+00  0.00000000000E+00  0.15015130491E+04  0.15015130491E+04  0.50400001928E-02 0.  1.
        1   -1    0    0  501    0  0.00000000000E+00  0.00000000000E+00 -0.18889224228E+04  0.18889224228E+04  0.50400001928E-02 0. -1.
    10030    2    1    2    0    0  0.00000000000E+00  0.00000000000E+00 -0.38740937370E+03  0.33904354719E+04  0.33682290103E+04 0.  0.
        2    1    3    3  502    0  0.79357695199E+03  0.70035670794E+03  0.11248850759E+04  0.15445485849E+04  0.25500000920E-02 0.  1.
       -2    1    3    3    0  502 -0.79357695199E+03 -0.70035670794E+03 -0.15122944496E+04  0.18458868870E+04  0.25500000920E-02 0. -1.
</event>
<event>
 5   0  0.4464951E-07  0.3398396E+04  0.7818609E-02  0.8138300E-01
        1   -1    0    0  501    0  0.00000000000E+00  0.00000000000E+00  0.13316167748E+04  0.13316167749E+04  0.50400001928E-02 0.  1.
       -1   -1    0    0    0  501  0.00000000000E+00  0.00000000000E+00 -0.21682470290E+04  0.21682470290E+04  0.50400001928E-02 0. -1.
    10030    2    1    2    0    0  0.00000000000E+00  0.00000000000E+00 -0.83663025415E+03  0.34998638039E+04  0.33983961605E+04 0.  0.
        3    1    3    3  502    0 -0.42153720745E+03  0.10409791747E+04  0.89488155760E+03  0.14360168076E+04  0.10100000352E+00 0.  1.
       -3    1    3    3    0  502  0.42153720745E+03 -0.10409791747E+04 -0.17315118118E+04  0.20638469962E+04  0.10100000352E+00 0. -1.
</event>
<event>
 5   0  0.1300176E-06  0.3394060E+04  0.7818609E-02  0.8139366E-01
        2   -1    0    0  501    0  0.00000000000E+00  0.00000000000E+00  0.11714814129E+04  0.11714814129E+04  0.25500000920E-02 0. -1.
       -2   -1    0    0    0  501  0.00000000000E+00  0.00000000000E+00 -0.24583499379E+04  0.24583499379E+04  0.25500000920E-02 0.  1.
    10030    2    1    2    0    0  0.00000000000E+00  0.00000000000E+00 -0.12868685250E+04  0.36298313508E+04  0.33940602579E+04 0.  0.
        1    1    3    3  502    0 -0.61518212591E+03 -0.43195956258E+03  0.98372662832E+03  0.12380453106E+04  0.50400001928E-02 0. -1.
       -1    1    3    3    0  502  0.61518212591E+03  0.43195956258E+03 -0.22705951534E+04  0.23917860402E+04  0.50400001928E-02 0.  1.
</event>
<event>
 5   0  0.4289684E-07  0.3456102E+04  0.7818609E-02  0.8124273E-01
       -1   -1    0    0    0  501  0.00000000000E+00  0.00000000000E+00  0.18372802399E+04  0.18372802399E+04  0.50400001928E-02 0.  1.
        1   -1    0    0  501    0  0.00000000000E+00  0.00000000000E+00 -0.16253158529E+04  0.16253158529E+04  0.50400001928E-02 0. -1.
    10030    2    1    2    0    0  0.00000000000E+00  0.00000000000E+00  0.21196438695E+03  0.34625960928E+04  0.34561022555E+04 0.  0.
        4    1    3    3  502    0  0.95822087119E+03 -0.59985352159E+03 -0.12034347280E+04  0.16511414969E+04  0.12699999809E+01 0. -1.
       -4    1    3    3    0  502 -0.95822087119E+03  0.59985352159E+03  0.14153991150E+04  0.18114545959E+04  0.12699999809E+01 0.  1.
</event>
<event>
 5   0  0.1268230E-06  0.3413878E+04  0.7818609E-02  0.8134509E-01
       -2   -1    0    0    0  501  0.00000000000E+00  0.00000000000E+00  0.19107107680E+04  0.19107107680E+04  0.25500000920E-02 0. -1.
        2   -1    0    0  501    0  0.00000000000E+00  0.00000000000E+00 -0.15248989169E+04  0.15248989169E+04  0.25500000920E-02 0.  1.
    10030    2    1    2    0    0  0.00000000000E+00  0.00000000000E+00  0.38581185107E+03  0.34356096849E+04  0.34138780181E+04 0.  0.
        2    1    3    3  502    0 -0.58257458031E+03  0.34790127202E+03  0.17691497199E+04  0.18948137555E+04  0.25500000920E-02 0. -1.
       -2    1    3    3    0  502  0.58257458031E+03 -0.34790127202E+03 -0.13833378688E+04  0.15407959294E+04  0.25500000920E-02 0.  1.
</event>
<event>
 5   0  0.4109937E-07  0.3470638E+04  0.7818609E-02  0.8120784E-01
       -1   -1    0    0    0  501  0.00000000000E+00  0.00000000000E+00  0.22993219544E+04  0.22993219544E+04  0.50400001928E-02 0. -1.
        1   -1    0    0  501    0  0.00000000000E+00  0.00000000000E+00 -0.13096610162E+04  0.13096610162E+04  0.50400001928E-02 0.  1.
    10030    2    1    2    0    0  0.00000000000E+00  0.00000000000E+00  0.98966093818E+03  0.36089829705E+04  0.34706381703E+04 0.  0.
        5    1    3    3  502    0  0.16262923198E+04  0.21292130185E+03 -0.94458262444E+02  0.16428958103E+04  0.46999998093E+01 0.  1.
       -5    1    3    3    0  502 -0.16262923198E+04 -0.21292130185E+03  0.10841192006E+04  0.19660871602E+04  0.46999998093E+01 0. -1.
</event>
<event>
 5   0  0.1256208E-06  0.3408025E+04  0.7818609E-02  0.8135940E-01
       -2   -1    0    0    0  501  0.00000000000E+00  0.00000000000E+00  0.14157682143E+04  0.14157682143E+04  0.25500000920E-02 0.  1.
        2   -1    0    0  501    0  0.00000000000E+00  0.00000000000E+00 -0.20509416171E+04  0.20509416171E+04  0.25500000920E-02 0. -1.
    10030    2    1    2    0    0  0.00000000000E+00  0.00000000000E+00 -0.63517340283E+03  0.34667098314E+04  0.34080246190E+04 0.  0.
        3    1    3    3  502    0 -0.33396105965E+03 -0.11838521113E+03 -0.20130551557E+04  0.20440000288E+04  0.10100000352E+00 0. -1.
       -3    1    3    3    0  502  0.33396105965E+03  0.11838521113E+03  0.13778817529E+04  0.14227098027E+04  0.10100000352E+00 0.  1.
</event>
<event>
 5   0  0.4125758E-07  0.3413627E+04  0.7818609E-02  0.8134570E-01
       -1   -1    0    0    0  501  0.00000000000E+00  0.00000000000E+00  0.10948859998E+04  0.10948859998E+04  0.50400001928E-02 0. -1.
        1   -1    0    0  501    0  0.00000000000E+00  0.00000000000E+00 -0.26607446106E+04  0.26607446106E+04  0.50400001928E-02 0.  1.
    10030    2    1    2    0    0  0.00000000000E+00  0.00000000000E+00 -0.15658586108E+04  0.37556306103E+04  0.34136268238E+04 0.  0.
        2    1    3    3  502    0 -0.12452743960E+04  0.66765108302E+03  0.27046575200E+03  0.14386167012E+04  0.25500000920E-02 0.  1.
       -2    1    3    3    0  502  0.12452743960E+04 -0.66765108302E+03 -0.18363243628E+04  0.23170139092E+04  0.25500000920E-02 0. -1.
</event>
<event>
 5   0  0.1268230E-06  0.3445742E+04  0.7818609E-02  0.8126770E-01
        2   -1    0    0  501    0  0.00000000000E+00  0.00000000000E+00  0.22986944965E+04  0.22986944965E+04  0.25500000920E-02 0. -1.
       -2   -1    0    0    0  501  0.00000000000E+00  0.00000000000E+00 -0.12912911049E+04  0.12912911049E+04  0.25500000920E-02 0.  1.
    10030    2    1    2    0    0  0.00000000000E+00  0.00000000000E+00  0.10074033916E+04  0.35899856014E+04  0.34457415784E+04 0.  0.
        2    1    3    3  502    0  0.23684049677E+03 -0.42887606229E+03 -0.12171860247E+04  0.13120860934E+04  0.25500000920E-02 0.  1.
       -2    1    3    3    0  502 -0.23684049677E+03  0.42887606229E+03  0.22245894163E+04  0.22778995081E+04  0.25500000920E-02 0. -1.
</event>
<event>
 5   0  0.1300176E-06  0.2726810E+04  0.7818609E-02  0.8326358E-01
        2   -1    0    0  501    0  0.00000000000E+00  0.00000000000E+00  0.27636679137E+04  0.27636679137E+04  0.25500000920E-02 0.  1.
       -2   -1    0    0    0  501  0.00000000000E+00  0.00000000000E+00 -0.67261074386E+03  0.67261074386E+03  0.25500000920E-02 0. -1.
    10030    2    1    2    0    0  0.00000000000E+00  0.00000000000E+00  0.20910571698E+04  0.34362786575E+04  0.27268096605E+04 0.  0.
        1    1    3    3  502    0 -0.11732496434E+04 -0.52272150464E+03  0.16218059728E+04  0.20688178050E+04  0.50400001928E-02 0. -1.
       -1    1    3    3    0  502  0.11732496434E+04  0.52272150464E+03  0.46925119707E+03  0.13674608525E+04  0.50400001928E-02 0.  1.
</event>
<event>
 5   0  0.4464951E-07  0.3382643E+04  0.7818609E-02  0.8142179E-01
       -1   -1    0    0    0  501  0.00000000000E+00  0.00000000000E+00  0.14545085450E+04  0.14545085450E+04  0.50400001928E-02 0. -1.
        1   -1    0    0  501    0  0.00000000000E+00  0.00000000000E+00 -0.19666910028E+04  0.19666910028E+04  0.50400001928E-02 0.  1.
    10030    2    1    2    0    0  0.00000000000E+00  0.00000000000E+00 -0.51218245779E+03  0.34211995477E+04  0.33826432675E+04 0.  0.
        3    1    3    3  502    0 -0.27773490833E+03  0.14282680568E+03  0.14250926519E+04  0.14589123525E+04  0.10100000352E+00 0. -1.
       -3    1    3    3    0  502  0.27773490833E+03 -0.14282680568E+03 -0.19372751097E+04  0.19622871952E+04  0.10100000352E+00 0.  1.
</event>
<event>
 5   0  0.4289684E-07  0.3488048E+04  0.7818609E-02  0.8116628E-01
       -1   -1    0    0    0  501  0.00000000000E+00  0.00000000000E+00  0.28918187149E+04  0.28918187149E+04  0.50400001928E-02 0.  1.
        1   -1    0    0  501    0  0.00000000000E+00  0.00000000000E+00 -0.10518017306E+04  0.10518017306E+04  0.50400001928E-02 0. -1.
    10030    2    1    2    0    0  0.00000000000E+00  0.00000000000E+00  0.18400169843E+04  0.39436204455E+04  0.34880481240E+04 0.  0.
        4    1    3    3  502    0  0.71331028791E+03  0.76923932056E+03  0.24952026491E+04  0.27067653338E+04  0.12699999809E+01 0.  1.
       -4    1    3    3    0  502 -0.71331028791E+03 -0.76923932056E+03 -0.65518566478E+03  0.12368551117E+04  0.12699999809E+01 0. -1.
</event>
<event>
 5   0  0.1268230E-06  0.3357077E+04  0.7818609E-02  0.8148522E-01
       -2   -1    0    0    0  501  0.00000000000E+00  0.00000000000E+00  0.14684624808E+04  0.14684624808E+04  0.25500000920E-02 0.  1.
        2   -1    0    0  501    0  0.00000000000E+00  0.00000000000E+00 -0.19186679748E+04  0.19186679748E+04  0.25500000920E-02 0. -1.
    10030    2    1    2    0    0  0.00000000000E+00  0.00000000000E+00 -0.45020549402E+03  0.33871304556E+04  0.33570772610E+04 0.  0.
        2    1    3    3  502    0  0.48276865820E+03 -0.15436910638E+04 -0.67794613609E+03  0.17537555819E+04  0.25500000920E-02 0. -1.
       -2    1    3    3    0  502 -0.48276865820E+03  0.15436910638E+04  0.22774064207E+03  0.16333748736E+04  0.25500000920E-02 0.  1.
</event>
<event>
 5   0  0.1277635E-06  0.3318825E+04  0.7818609E-02  0.8158122E-01
       -2   -1    0    0    0  501  0.00000000000E+00  0.00000000000E+00  0.14310138166E+04  0.14310138166E+04  0.25500000920E-02 0. -1.
        2   -1    0    0  501    0  0.00000000000E+00  0.00000000000E+00 -0.19242648505E+04  0.19242648505E+04  0.25500000920E-02 0.  1.
    10030    2    1    2    0    0  0.00000000000E+00  0.00000000000E+00 -0.49325103389E+03  0.33552786671E+04  0.33188248450E+04 0.  0.
        4    1    3    3  502    0  0.60807334151E+03 -0.96578318200E+03  0.97124623726E+03  0.14986030861E+04  0.12699999809E+01 0. -1.
       -4    1    3    3    0  502 -0.60807334151E+03  0.96578318200E+03 -0.14644972712E+04  0.18566755811E+04  0.12699999809E+01 0.  1.
</event>
<event>
 5   0  0.1256208E-06  0.3413193E+04  0.7818609E-02  0.8134676E-01
        2   -1    0    0  501    0  0.00000000000E+00  0.00000000000E+00  0.14878361098E+04  0.14878361098E+04  0.25500000920E-02 0. -1.
       -2   -1    0    0    0  501  0.00000000000E+00  0.00000000000E+00 -0.19575214677E+04  0.19575214677E+04  0.25500000920E-02 0.  1.
    10030    2    1    2    0    0  0.00000000000E+00  0.00000000000E+00 -0.46968535788E+03  0.34453575775E+04  0.34131927138E+04 0.  0.
        3    1    3    3  502    0 -0.10727553452E+04 -0.79857109958E+03  0.83531367859E+03  0.15767906594E+04  0.10100000352E+00 0. -1.
       -3    1    3    3    0  502  0.10727553452E+04  0.79857109958E+03 -0.13049990365E+04  0.18685669180E+04  0.10100000352E+00 0.  1.
</event>
<event>
 5   0  0.1269497E-06  0.3414738E+04  0.7818609E-02  0.8134299E-01
        2   -1    0    0  501    0  0.00000000000E+00  0.00000000000E+00  0.21570461652E+04  0.21570461652E+04  0.25500000920E-02 0.  1.
       -2   -1    0    0    0  501  0.00000000000E+00  0.00000000000E+00 -0.13514353132E+04  0.13514353132E+04  0.25500000920E-02 0. -1.
    10030    2    1    2    0    0  0.00000000000E+00  0.00000000000E+00  0.80561085200E+03  0.35084814784E+04  0.34147376824E+04 0.  0.
        5    1    3    3  502    0 -0.15321453892E+04  0.57739822871E+03  0.90006288151E+03  0.18684200515E+04  0.46999998093E+01 0.  1.
       -5    1    3    3    0  502  0.15321453892E+04 -0.57739822871E+03 -0.94452029506E+02  0.16400614269E+04  0.46999998093E+01 0. -1.
</event>
<event>
 5   0  0.4289684E-07  0.3407190E+04  0.7818609E-02  0.8136144E-01
        1   -1    0    0  501    0  0.00000000000E+00  0.00000000000E+00  0.17219900967E+04  0.17219900967E+04  0.50400001928E-02 0.  1.
       -1   -1    0    0    0  501  0.00000000000E+00  0.00000000000E+00 -0.16853965635E+04  0.16853965635E+04  0.50400001928E-02 0. -1.
    10030    2    1    2    0    0  0.00000000000E+00  0.00000000000E+00  0.36593533194E+02  0.34073866602E+04  0.34071901569E+04 0.  0.
        4    1    3    3  502    0 -0.10137014577E+04 -0.55531338449E+03  0.12698764272E+04  0.17171346346E+04  0.12699999809E+01 0.  1.
       -4    1    3    3    0  502  0.10137014577E+04  0.55531338449E+03 -0.12332828940E+04  0.16902520255E+04  0.12699999809E+01 0. -1.
</event>
<event>
 5   0  0.4109937E-07  0.3329983E+04  0.7818609E-02  0.8155308E-01
       -1   -1    0    0    0  501  0.00000000000E+00  0.00000000000E+00  0.12720068979E+04  0.12720068980E+04  0.50400001928E-02 0. -1.
        1   -1    0    0  501    0  0.00000000000E+00  0.00000000000E+00 -0.21793887125E+04  0.21793887125E+04  0.50400001928E-02 0.  1.
    10030    2    1    2    0    0  0.00000000000E+00  0.00000000000E+00 -0.90738181454E+03  0.34513956104E+04  0.33299834688E+04 0.  0.
        5    1    3    3  502    0  0.22596001513E+03 -0.16402477793E+04 -0.63530726057E+03  0.17734452659E+04  0.46999998093E+01 0.  1.
       -5    1    3    3    0  502 -0.22596001513E+03  0.16402477793E+04 -0.27207455397E+03  0.16779503445E+04  0.46999998093E+01 0. -1.
</event>
<event>
 5   0  0.4272633E-07  0.3375464E+04  0.7818609E-02  0.8143955E-01
        1   -1    0    0  501    0  0.00000000000E+00  0.00000000000E+00  0.96574952502E+03  0.96574952504E+03  0.50400001928E-02 0. -1.
       -1   -1    0    0    0  501  0.00000000000E+00  0.00000000000E+00 -0.29494592037E+04  0.29494592037E+04  0.50400001928E-02 0.  1.
    10030    2    1    2    0    0  0.00000000000E+00  0.00000000000E+00 -0.19837096786E+04  0.39152087287E+04  0.33754637163E+04 0.  0.
        1    1    3    3  502    0  0.54003826815E+03 -0.74140954252E+03  0.65140785896E+03  0.11250162841E+04  0.50400001928E-02 0. -1.
       -1    1    3    3    0  502 -0.54003826815E+03  0.74140954252E+03 -0.26351175376E+04  0.27901924446E+04  0.50400001928E-02 0.  1.
</event>
<event>
 5   0  0.1277635E-06  0.3387532E+04  0.7818609E-02  0.8140973E-01
       -2   -1    0    0    0  501  0.00000000000E+00  0.00000000000E+00  0.20924111538E+04  0.20924111538E+04  0.25500000920E-02 0.  1.
        2   -1    0    0  501    0  0.00000000000E+00  0.00000000000E+00 -0.13710703628E+04  0.13710703628E+04  0.25500000920E-02 0. -1.
    10030    2    1    2    0    0  0.00000000000E+00  0.00000000000E+00  0.72134079099E+03  0.34634815166E+04  0.33875317975E+04 0.  0.
        4    1    3    3  502    0  0.80430546981E+03  0.14177640617E+04  0.83129381658E+03  0.18297577014E+04  0.12699999809E+01 0.  1.
       -4    1    3    3    0  502 -0.80430546981E+03 -0.14177640617E+04 -0.10995302558E+03  0.16337238152E+04  0.12699999809E+01 0. -1.
</event>
<event>
 5   0  0.1277635E-06  0.3396219E+04  0.7818609E-02  0.8138835E-01
        2   -1    0    0  501    0  0.00000000000E+00  0.00000000000E+00  0.33441085201E+04  0.33441085201E+04  0.25500000920E-02 0.  1.
       -2   -1    0    0    0  501  0.00000000000E+00  0.00000000000E+00 -0.86228558476E+03  0.86228558476E+03  0.25500000920E-02 0. -1.
    10030    2    1    2    0    0  0.00000000000E+00  0.00000000000E+00  0.24818229353E+04  0.42063941049E+04  0.33962194103E+04 0.  0.
        4    1    3    3  502    0 -0.83906179395E+03 -0.45615976268E+02  0.30685497875E+04  0.31815255653E+04  0.12699999809E+01 0.  1.
       -4    1    3    3    0  502  0.83906179395E+03  0.45615976268E+02 -0.58672685219E+03  0.10248685395E+04  0.12699999809E+01 0. -1.
</event>
<event>
 5   0  0.4060750E-07  0.3403335E+04  0.7818609E-02  0.8137088E-01
        3   -1    0    0  501    0  0.00000000000E+00  0.00000000000E+00  0.17741270978E+04  0.17741271007E+04  0.10100000352E+00 0. -1.
       -3   -1    0    0    0  501  0.00000000000E+00  0.00000000000E+00 -0.16321677925E+04  0.16321677956E+04  0.10100000352E+00 0.  1.
    10030    2    1    2    0    0  0.00000000000E+00  0.00000000000E+00  0.14195930528E+03  0.34062948963E+04  0.34033354928E+04 0.  0.
        5    1    3    3  502    0  0.11617097582E+04  0.81839710090E+03  0.10079067141E+04  0.17421944241E+04  0.46999998093E+01 0. -1.
       -5    1    3    3    0  502 -0.11617097582E+04 -0.81839710090E+03 -0.86594740880E+03  0.16641004723E+04  0.46999998093E+01 0.  1.
</event>
<event>
 5   0  0.1268230E-06  0.2768168E+04  0.7818609E-02  0.8313220E-01
        2   -1    0    0  501    0  0.00000000000E+00  0.00000000000E+00  0.17642300671E+04  0.17642300671E+04  0.25500000920E-02 0.  1.
       -2   -1    0    0    0  501  0.00000000000E+00  0.00000000000E+00 -0.10858494440E+04  0.10858494440E+04  0.25500000920E-02 0. -1.
    10030    2    1    2    0    0  0.00000000000E+00  0.00000000000E+00  0.67838062313E+03  0.28500795112E+04  0.27681677966E+04 0.  0.
        2    1    3    3  502    0 -0.94776108639E+03  0.99085557741E+03  0.53356868548E+03  0.14713060165E+04  0.25500000920E-02 0.  1.
       -2    1    3    3    0  502  0.94776108639E+03 -0.99085557741E+03  0.14481193765E+03  0.13787734946E+04  0.25500000920E-02 0. -1.
</event>
<event>
 5   0  0.4125758E-07  0.3324849E+04  0.7818609E-02  0.8156601E-01
       -1   -1    0    0    0  501  0.00000000000E+00  0.00000000000E+00  0.13431328180E+04  0.13431328180E+04  0.50400001928E-02 0.  1.
        1   -1    0    0  501    0  0.00000000000E+00  0.00000000000E+00 -0.20576191324E+04  0.20576191324E+04  0.50400001928E-02 0. -1.
    10030    2    1    2    0    0  0.00000000000E+00  0.00000000000E+00 -0.71448631436E+03  0.34007519504E+04  0.33248493401E+04 0.  0.
        2    1    3    3  502    0 -0.83127655282E+03  0.29589047066E+03 -0.17983375195E+04  0.20031449553E+04  0.25500000920E-02 0. -1.
       -2    1    3    3    0  502  0.83127655282E+03 -0.29589047066E+03  0.10838512051E+04  0.13976069951E+04  0.25500000920E-02 0.  1.
</event>
<event>
 5   0  0.4464951E-07  0.3380588E+04  0.7818609E-02  0.8142687E-01
        1   -1    0    0  501    0  0.00000000000E+00  0.00000000000E+00  0.22605035183E+04  0.22605035183E+04  0.50400001928E-02 0.  1.
       -1   -1    0    0    0  501  0.00000000000E+00  0.00000000000E+00 -0.12639190454E+04  0.12639190454E+04  0.50400001928E-02 0. -1.
    10030    2    1    2    0    0  0.00000000000E+00  0.00000000000E+00  0.99658447290E+03  0.35244225638E+04  0.33805877886E+04 0.  0.
        3    1    3    3  502    0  0.10121095932E+04  0.90211128041E+03  0.15506572591E+04  0.20597836139E+04  0.10100000352E+00 0.  1.
       -3    1    3    3    0  502 -0.10121095932E+04 -0.90211128041E+03 -0.55407278621E+03  0.14646389499E+04  0.10100000352E+00 0. -1.
</event>
<event>
 5   0  0.1269497E-06  0.3406948E+04  0.7818609E-02  0.8136203E-01
       -2   -1    0    0    0  501  0.00000000000E+00  0.00000000000E+00  0.15671473995E+04  0.15671473995E+04  0.25500000920E-02 0. -1.
        2   -1    0    0  501    0  0.00000000000E+00  0.00000000000E+00 -0.18516596831E+04  0.18516596831E+04  0.25500000920E-02 0.  1.
    10030    2    1    2    0    0  0.00000000000E+00  0.00000000000E+00 -0.28451228363E+03  0.34188070825E+04  0.34069479932E+04 0.  0.
        5    1    3    3  502    0 -0.70574756475E+03 -0.15493277458E+04 -0.84562730165E+02  0.17046023098E+04  0.46999998093E+01 0.  1.
       -5    1    3    3    0  502  0.70574756475E+03  0.15493277458E+04 -0.19994955346E+03  0.17142047728E+04  0.46999998093E+01 0. -1.
</event>
<event>
 5   0  0.1300176E-06  0.3415441E+04  0.7818609E-02  0.8134127E-01
       -2   -1    0    0    0  501  0.00000000000E+00  0.00000000000E+00  0.23477989727E+04  0.23477989727E+04  0.25500000920E-02 0.  1.
        2   -1    0    0  501    0  0.00000000000E+00  0.00000000000E+00 -0.12421458466E+04  0.12421458466E+04  0.25500000920E-02 0. -1.
    10030    2    1    2    0    0  0.00000000000E+00  0.00000000000E+00  0.11056531261E+04  0.35899448194E+04  0.34154406701E+04 0.  0.
        1    1    3    3  502    0 -0.51287694061E+03  0.66341447339E+03  0.21165004374E+04  0.22765622375E+04  0.50400001928E-02 0.  1.
       -1    1    3    3    0  502  0.51287694061E+03 -0.66341447339E+03 -0.10108473113E+04  0.13133825819E+04  0.50400001928E-02 0. -1.
</event>
<event>
 5   0  0.4289684E-07  0.3389569E+04  0.7818609E-02  0.8140471E-01
        1   -1    0    0  501    0  0.00000000000E+00  0.00000000000E+00  0.23876161600E+04  0.23876161600E+04  0.50400001928E-02 0. -1.
       -1   -1    0    0    0  501  0.00000000000E+00  0.00000000000E+00 -0.12029964631E+04  0.12029964631E+04  0.50400001928E-02 0.  1.
    10030    2    1    2    0    0  0.00000000000E+00  0.00000000000E+00  0.11846196969E+04  0.35906126231E+04  0.33895685836E+04 0.  0.
        4    1    3    3  502    0 -0.29854402035E+03  0.85243148043E+03  0.21114262129E+04  0.22964952049E+04  0.12699999809E+01 0. -1.
       -4    1    3    3    0  502  0.29854402035E+03 -0.85243148043E+03 -0.92680651600E+03  0.12941174181E+04  0.12699999809E+01 0.  1.
</event>
<event>
 5   0  0.4289684E-07  0.3388349E+04  0.7818609E-02  0.8140772E-01
       -1   -1    0    0    0  501  0.00000000000E+00  0.00000000000E+00  0.99151352607E+03  0.99151352608E+03  0.50400001928E-02 0.  1.
        1   -1    0    0  501    0  0.00000000000E+00  0.00000000000E+00 -0.28947931077E+04  0.28947931077E+04  0.50400001928E-02 0. -1.
    10030    2    1    2    0    0  0.00000000000E+00  0.00000000000E+00 -0.19032795817E+04  0.38863066338E+04  0.33883485780E+04 0.  0.
        4    1    3    3  502    0 -0.40476984763E+03  0.16447690130E+04 -0.99004457017E+03  0.19619616713E+04  0.12699999809E+01 0. -1.
       -4    1    3    3    0  502  0.40476984763E+03 -0.16447690130E+04 -0.91323501148E+03  0.19243449625E+04  0.12699999809E+01 0.  1.
</event>
<event>
 5   0  0.4109937E-07  0.3430703E+04  0.7818609E-02  0.8130412E-01
       -1   -1    0    0    0  501  0.00000000000E+00  0.00000000000E+00  0.17067536012E+04  0.17067536012E+04  0.50400001928E-02 0.  1.
        1   -1    0    0  501    0  0.00000000000E+00  0.00000000000E+00 -0.17239930234E+04  0.17239930235E+04  0.50400001928E-02 0. -1.
    10030    2    1    2    0    0  0.00000000000E+00  0.00000000000E+00 -0.17239422273E+02  0.34307466246E+04  0.34307033105E+04 0.  0.
        5    1    3    3  502    0  0.44204111878E+03 -0.15367507887E+04 -0.62943820773E+03  0.17184929109E+04  0.46999998093E+01 0.  1.
       -5    1    3    3    0  502 -0.44204111878E+03  0.15367507887E+04  0.61219878546E+03  0.17122537138E+04  0.46999998093E+01 0. -1.
</event>
<event>
 5   0  0.1277635E-06  0.3338288E+04  0.7818609E-02  0.8153221E-01
        2   -1    0    0  501    0  0.00000000000E+00  0.00000000000E+00  0.13562419301E+04  0.13562419301E+04  0.25500000920E-02 0.  1.
       -2   -1    0    0    0  501  0.00000000000E+00  0.00000000000E+00 -0.20542365954E+04  0.20542365954E+04  0.25500000920E-02 0. -1.
    10030    2    1    2    0    0  0.00000000000E+00  0.00000000000E+00 -0.69799466528E+03  0.34104785254E+04  0.33382880672E+04 0.  0.
        4    1    3    3  502    0 -0.32906208651E+03  0.10181315970E+04  0.95978618165E+03  0.14373812762E+04  0.12699999809E+01 0.  1.
       -4    1    3    3    0  502  0.32906208651E+03 -0.10181315970E+04 -0.16577808469E+04  0.19730972493E+04  0.12699999809E+01 0. -1.
</event>
<event>
 5   0  0.4109937E-07  0.3429595E+04  0.7818609E-02  0.8130681E-01
       -1   -1    0    0    0  501  0.00000000000E+00  0.00000000000E+00  0.14651046274E+04  0.14651046274E+04  0.50400001928E-02 0.  1.
        1   -1    0    0  501    0  0.00000000000E+00  0.00000000000E+00 -0.20070450410E+04  0.20070450410E+04  0.50400001928E-02 0. -1.
    10030    2    1    2    0    0  0.00000000000E+00  0.00000000000E+00 -0.54194041353E+03  0.34721496684E+04  0.34295952980E+04 0.  0.
        5    1    3    3  502    0 -0.26987599243E+03  0.12614377099E+04  0.87284954540E+03  0.15575450447E+04  0.46999998093E+01 0.  1.
       -5    1    3    3    0  502  0.26987599243E+03 -0.12614377099E+04 -0.14147899589E+04  0.19146046237E+04  0.46999998093E+01 0. -1.
</event>
<event>
 5   0  0.1256208E-06  0.3431897E+04  0.7818609E-02  0.8130122E-01
       -2   -1    0    0    0  501  0.00000000000E+00  0.00000000000E+00  0.14394119510E+04  0.14394119510E+04  0.25500000920E-02 0.  1.
        2   -1    0    0  501    0  0.00000000000E+00  0.00000000000E+00 -0.20456126693E+04  0.20456126693E+04  0.25500000920E-02 0. -1.
    10030    2    1    2    0    0  0.00000000000E+00  0.00000000000E+00 -0.60620071824E+03  0.34850246203E+04  0.34318970400E+04 0.  0.
        3    1    3    3  502    0 -0.13541965625E+04  0.32151757317E+03  0.71605839900E+03  0.15652352925E+04  0.10100000352E+00 0.  1.
       -3    1    3    3    0  502  0.13541965625E+04 -0.32151757317E+03 -0.13222591172E+04  0.19197893278E+04  0.10100000352E+00 0. -1.
</event>
<event>
 5   0  0.1256208E-06  0.3407684E+04  0.7818609E-02  0.8136023E-01
        2   -1    0    0  501    0  0.00000000000E+00  0.00000000000E+00  0.26438479964E+04  0.26438479964E+04  0.25500000920E-02 0.  1.
       -2   -1    0    0    0  501  0.00000000000E+00  0.00000000000E+00 -0.10980498532E+04  0.10980498532E+04  0.25500000920E-02 0. -1.
    10030    2    1    2    0    0  0.00000000000E+00  0.00000000000E+00  0.15457981432E+04  0.37418978496E+04  0.34076836146E+04 0.  0.
        3    1    3    3  502    0  0.14065171116E+04 -0.82609481257E+03  0.23232197584E+03  0.16476336168E+04  0.10100000352E+00 0. -1.
       -3    1    3    3    0  502 -0.14065171116E+04  0.82609481257E+03  0.13134761673E+04  0.20942642328E+04  0.10100000352E+00 0.  1.
</event>
<event>
 5   0  0.4109937E-07  0.3416036E+04  0.7818609E-02  0.8133982E-01
        1   -1    0    0  501    0  0.00000000000E+00  0.00000000000E+00  0.25799089460E+04  0.25799089460E+04  0.50400001928E-02 0.  1.
       -1   -1    0    0    0  501  0.00000000000E+00  0.00000000000E+00 -0.11307865302E+04  0.11307865302E+04  0.50400001928E-02 0. -1.
    10030    2    1    2    0    0  0.00000000000E+00  0.00000000000E+00  0.14491224158E+04  0.37106954763E+04  0.34160364667E+04 0.  0.
        5    1    3    3  502    0 -0.71974766361E+03  0.69099693368E+03  0.22304256003E+04  0.24434266738E+04  0.46999998093E+01 0.  1.
       -5    1    3    3    0  502  0.71974766361E+03 -0.69099693368E+03 -0.78130318452E+03  0.12672688025E+04  0.46999998093E+01 0. -1.
</event>
<event>
 5   0  0.1256208E-06  0.3410895E+04  0.7818609E-02  0.8135238E-01
       -2   -1    0    0    0  501  0.00000000000E+00  0.00000000000E+00  0.18793618372E+04  0.18793618372E+04  0.25500000920E-02 0. -1.
        2   -1    0    0  501    0  0.00000000000E+00  0.00000000000E+00 -0.15476266248E+04  0.15476266248E+04  0.25500000920E-02 0.  1.
    10030    2    1    2    0    0  0.00000000000E+00  0.00000000000E+00  0.33173521237E+03  0.34269884621E+04  0.34108945554E+04 0.  0.
        3    1    3    3  502    0  0.81960903675E+03 -0.14925072595E+04  0.26230756026E+03  0.17228296954E+04  0.10100000352E+00 0. -1.
       -3    1    3    3    0  502 -0.81960903675E+03  0.14925072595E+04  0.69427652108E+02  0.17041587667E+04  0.10100000352E+00 0.  1.
</event>
<event>
 5   0  0.1268230E-06  0.3279629E+04  0.7818609E-02  0.8168098E-01
        2   -1    0    0  501    0  0.00000000000E+00  0.00000000000E+00  0.18532354264E+04  0.18532354264E+04  0.25500000920E-02 0.  1.
       -2   -1    0    0    0  501  0.00000000000E+00  0.00000000000E+00 -0.14509714772E+04  0.14509714772E+04  0.25500000920E-02 0. -1.
    10030    2    1    2    0    0  0.00000000000E+00  0.00000000000E+00  0.40226394922E+03  0.33042069036E+04  0.32796290913E+04 0.  0.
        2    1    3    3  502    0 -0.13617351973E+04 -0.26331684980E+02  0.11211984076E+04  0.17641150684E+04  0.25500000920E-02 0.  1.
       -2    1    3    3    0  502  0.13617351973E+04  0.26331684980E+02 -0.71893445838E+03  0.15400918352E+04  0.25500000920E-02 0. -1.
</event>
<event>
 5   0  0.1300176E-06  0.3419268E+04  0.7818609E-02  0.8133193E-01
        2   -1    0    0  501    0  0.00000000000E+00  0.00000000000E+00  0.18573777779E+04  0.18573777779E+04  0.25500000920E-02 0. -1.
       -2   -1    0    0    0  501  0.00000000000E+00  0.00000000000E+00 -0.15736423907E+04  0.15736423907E+04  0.25500000920E-02 0.  1.
    10030    2    1    2    0    0  0.00000000000E+00  0.00000000000E+00  0.28373538717E+03  0.34310201686E+04  0.34192679958E+04 0.  0.
        1    1    3    3  502    0  0.13727063162E+04  0.26254693436E+03 -0.84619678669E+03  0.16338000260E+04  0.50400001928E-02 0.  1.
       -1    1    3    3    0  502 -0.13727063162E+04 -0.26254693436E+03  0.11299321739E+04  0.17972201426E+04  0.50400001928E-02 0. -1.
</event>
<event>
 5   0  0.4272633E-07  0.3366992E+04  0.7818609E-02  0.8146055E-01
        1   -1    0    0  501    0  0.00000000000E+00  0.00000000000E+00  0.17282745285E+04  0.17282745285E+04  0.50400001928E-02 0.  1.
       -1   -1    0    0    0  501  0.00000000000E+00  0.00000000000E+00 -0.16398773349E+04  0.16398773349E+04  0.50400001928E-02 0. -1.
    10030    2    1    2    0    0  0.00000000000E+00  0.00000000000E+00  0.88397193607E+02  0.33681518634E+04  0.33669916708E+04 0.  0.
        1    1    3    3  502    0 -0.96788140723E+03  0.51701828947E+03  0.13213749571E+04  0.17175954435E+04  0.50400001928E-02 0.  1.
       -1    1    3    3    0  502  0.96788140723E+03 -0.51701828947E+03 -0.12329777635E+04  0.16505564199E+04  0.50400001928E-02 0. -1.
</event>
<event>
 5   0  0.1277635E-06  0.3375988E+04  0.7818609E-02  0.8143825E-01
       -2   -1    0    0    0  501  0.00000000000E+00  0.00000000000E+00  0.16670637947E+04  0.16670637947E+04  0.25500000920E-02 0. -1.
        2   -1    0    0  501    0  0.00000000000E+00  0.00000000000E+00 -0.17091869065E+04  0.17091869065E+04  0.25500000920E-02 0.  1.
    10030    2    1    2    0    0  0.00000000000E+00  0.00000000000E+00 -0.42123111791E+02  0.33762507013E+04  0.33759879208E+04 0.  0.
        4    1    3    3  502    0 -0.46509124015E+03 -0.15568073159E+04 -0.47865931721E+03  0.16938344769E+04  0.12699999809E+01 0.  1.
       -4    1    3    3    0  502  0.46509124015E+03  0.15568073159E+04  0.43653620542E+03  0.16824162243E+04  0.12699999809E+01 0. -1.
</event>
<event>
 5   0  0.1277635E-06  0.3545295E+04  0.7818609E-02  0.8103139E-01
        2   -1    0    0  501    0  0.00000000000E+00  0.00000000000E+00  0.23634295806E+04  0.23634295806E+04  0.25500000920E-02 0.  1.
       -2   -1    0    0    0  501  0.00000000000E+00  0.00000000000E+00 -0.13295420704E+04  0.13295420704E+04  0.25500000920E-02 0. -1.
    10030    2    1    2    0    0  0.00000000000E+00  0.00000000000E+00  0.10338875101E+04  0.36929716510E+04  0.35452949428E+04 0.  0.
        4    1    3    3  502    0  0.68177847452E+02  0.17710591369E+04  0.48435545847E+03  0.18373623780E+04  0.12699999809E+01 0.  1.
       -4    1    3    3    0  502 -0.68177847452E+02 -0.17710591369E+04  0.54953205165E+03  0.18556092730E+04  0.12699999809E+01 0. -1.
</event>
<event>
 5   0  0.1269497E-06  0.3557929E+04  0.7818609E-02  0.8100197E-01
       -2   -1    0    0    0  501  0.00000000000E+00  0.00000000000E+00  0.89960905494E+03  0.89960905495E+03  0.25500000920E-02 0.  1.
        2   -1    0    0  501    0  0.00000000000E+00  0.00000000000E+00 -0.35178771908E+04  0.35178771908E+04  0.25500000920E-02 0. -1.
    10030    2    1    2    0    0  0.00000000000E+00  0.00000000000E+00 -0.26182681358E+04  0.44174862457E+04  0.35579287092E+04 0.  0.
        5    1    3    3  502    0 -0.24343540644E+03  0.32202852921E+03 -0.34602494136E+04  0.34837208936E+04  0.46999998093E+01 0. -1.
       -5    1    3    3    0  502  0.24343540644E+03 -0.32202852921E+03  0.84198127772E+03  0.93376535209E+03  0.46999998093E+01 0.  1.
</event>
<event>
 5   0  0.4289684E-07  0.3388667E+04  0.7818609E-02  0.8140693E-01
       -1   -1    0    0    0  501  0.00000000000E+00  0.00000000000E+00  0.98688076805E+03  0.98688076806E+03  0.50400001928E-02 0.  1.
        1   -1    0    0  501    0  0.00000000000E+00  0.00000000000E+00 -0.29089296708E+04  0.29089296708E+04  0.50400001928E-02 0. -1.
    10030    2    1    2    0    0  0.00000000000E+00  0.00000000000E+00 -0.19220489027E+04  0.38958104388E+04  0.33886674359E+04 0.  0.
        4    1    3    3  502    0  0.19485642169E+03  0.28356137895E+03  0.94629649713E+03  0.10069035476E+04  0.12699999809E+01 0.  1.
       -4    1    3    3    0  502 -0.19485642169E+03 -0.28356137895E+03 -0.28683453999E+04  0.28889068913E+04  0.12699999809E+01 0. -1.
</event>
<event>
 5   0  0.4125758E-07  0.3438778E+04  0.7818609E-02  0.8128454E-01
       -1   -1    0    0    0  501  0.00000000000E+00  0.00000000000E+00  0.17359962028E+04  0.17359962028E+04  0.50400001928E-02 0. -1.
        1   -1    0    0  501    0  0.00000000000E+00  0.00000000000E+00 -0.17029401731E+04  0.17029401731E+04  0.50400001928E-02 0.  1.
    10030    2    1    2    0    0  0.00000000000E+00  0.00000000000E+00  0.33056029687E+02  0.34389363759E+04  0.34387775002E+04 0.  0.
        2    1    3    3  502    0  0.48544891896E+03 -0.67711485292E+03  0.15206428809E+04  0.17339261657E+04  0.25500000920E-02 0. -1.
       -2    1    3    3    0  502 -0.48544891896E+03  0.67711485292E+03 -0.14875868512E+04  0.17050102102E+04  0.25500000920E-02 0.  1.
</event>
<event>
 5   0  0.1256208E-06  0.3354249E+04  0.7818609E-02  0.8149227E-01
       -2   -1    0    0    0  501  0.00000000000E+00  0.00000000000E+00  0.15708554183E+04  0.15708554183E+04  0.25500000920E-02 0. -1.
        2   -1    0    0  501    0  0.00000000000E+00  0.00000000000E+00 -0.17905825121E+04  0.17905825121E+04  0.25500000920E-02 0.  1.
    10030    2    1    2    0    0  0.00000000000E+00  0.00000000000E+00 -0.21972709381E+03  0.33614379304E+04  0.33542487928E+04 0.  0.
        3    1    3    3  502    0  0.67207693111E+02 -0.14976123445E+04 -0.86339708833E+03  0.17299751879E+04  0.10100000352E+00 0. -1.
       -3    1    3    3    0  502 -0.67207693111E+02  0.14976123445E+04  0.64366999452E+03  0.16314627425E+04  0.10100000352E+00 0.  1.
</event>
<event>
 5   0  0.1277635E-06  0.3451364E+04  0.7818609E-02  0.8125414E-01
       -2   -1    0    0    0  501  0.00000000000E+00  0.00000000000E+00  0.15239747388E+04  0.15239747389E+04  0.25500000920E-02 0.  1.
        2   -1    0    0  501    0  0.00000000000E+00  0.00000000000E+00 -0.19540862501E+04  0.19540862501E+04  0.25500000920E-02 0. -1.
    10030    2    1    2    0    0  0.00000000000E+00  0.00000000000E+00 -0.43011151124E+03  0.34780609889E+04  0.34513638363E+04 0.  0.
        4    1    3    3  502    0 -0.16823787169E+04  0.37388691874E+03 -0.30398172239E+03  0.17500274500E+04  0.12699999809E+01 0.  1.
       -4    1    3    3    0  502  0.16823787169E+04 -0.37388691874E+03 -0.12612978885E+03  0.17280335390E+04  0.12699999809E+01 0. -1.
</event>
<event>
 5   0  0.1277635E-06  0.3449597E+04  0.7818609E-02  0.8125840E-01
       -2   -1    0    0    0  501  0.00000000000E+00  0.00000000000E+00  0.11279591305E+04  0.11279591305E+04  0.25500000920E-02 0. -1.
        2   -1    0    0  501    0  0.00000000000E+00  0.00000000000E+00 -0.26374444135E+04  0.26374444135E+04  0.25500000920E-02 0.  1.
    10030    2    1    2    0    0  0.00000000000E+00  0.00000000000E+00 -0.15094852830E+04  0.37654035440E+04  0.34495967923E+04 0.  0.
        4    1    3    3  502    0  0.16688097745E+04 -0.42110205045E+03 -0.87763230595E+03  0.19319661172E+04  0.12699999809E+01 0.  1.
       -4    1    3    3    0  502 -0.16688097745E+04  0.42110205045E+03 -0.63185297704E+03  0.18334374268E+04  0.12699999809E+01 0. -1.
</event>
<event>
 5   0  0.4464951E-07  0.3405325E+04  0.7818609E-02  0.8136601E-01
       -1   -1    0    0    0  501  0.00000000000E+00  0.00000000000E+00  0.17776472187E+04  0.17776472188E+04  0.50400001928E-02 0.  1.
        1   -1    0    0  501    0  0.00000000000E+00  0.00000000000E+00 -0.16308407988E+04  0.16308407988E+04  0.50400001928E-02 0. -1.
    10030    2    1    2    0    0  0.00000000000E+00  0.00000000000E+00  0.14680641990E+03  0.34084880176E+04  0.34053250126E+04 0.  0.
        3    1    3    3  502    0 -0.26412772386E+03 -0.15447700496E+04 -0.59278365614E+03  0.16755507852E+04  0.10100000352E+00 0.  1.
       -3    1    3    3    0  502  0.26412772386E+03  0.15447700496E+04  0.73959007605E+03  0.17329372324E+04  0.10100000352E+00 0. -1.
</event>
<event>
 5   0  0.4272633E-07  0.3387816E+04  0.7818609E-02  0.8140903E-01
        1   -1    0    0  501    0  0.00000000000E+00  0.00000000000E+00  0.10529254592E+04  0.10529254592E+04  0.50400001928E-02 0. -1.
       -1   -1    0    0    0  501  0.00000000000E+00  0.00000000000E+00 -0.27250972282E+04  0.27250972282E+04  0.50400001928E-02 0.  1.
    10030    2    1    2    0    0  0.00000000000E+00  0.00000000000E+00 -0.16721717689E+04  0.37780226874E+04  0.33878159634E+04 0.  0.
        1    1    3    3  502    0  0.11204395243E+04  0.47825743426E+03  0.47642362465E+03  0.13080880594E+04  0.50400001928E-02 0. -1.
       -1    1    3    3    0  502 -0.11204395243E+04 -0.47825743426E+03 -0.21485953936E+04  0.24699346280E+04  0.50400001928E-02 0.  1.
</event>
<event>
 5   0  0.4289684E-07  0.3354377E+04  0.7818609E-02  0.8149195E-01
        1   -1    0    0  501    0  0.00000000000E+00  0.00000000000E+00  0.11920466078E+04  0.11920466078E+04  0.50400001928E-02 0. -1.
       -1   -1    0    0    0  501  0.00000000000E+00  0.00000000000E+00 -0.23597743032E+04  0.23597743032E+04  0.50400001928E-02 0.  1.
    10030    2    1    2    0    0  0.00000000000E+00  0.00000000000E+00 -0.11677276954E+04  0.35518209111E+04  0.33543768145E+04 0.  0.
        4    1    3    3  502    0 -0.14372041348E+04 -0.11326769489E+03 -0.14913855129E+04  0.20742752124E+04  0.12699999809E+01 0.  1.
       -4    1    3    3    0  502  0.14372041348E+04  0.11326769489E+03  0.32365781749E+03  0.14775456986E+04  0.12699999809E+01 0. -1.
</event>
<event>
 5   0  0.1300176E-06  0.3382365E+04  0.7818609E-02  0.8142248E-01
        2   -1    0    0  501    0  0.00000000000E+00  0.00000000000E+00  0.26267748084E+04  0.26267748084E+04  0.25500000920E-02 0. -1.
       -2   -1    0    0    0  501  0.00000000000E+00  0.00000000000E+00 -0.10888248585E+04  0.10888248585E+04  0.25500000920E-02 0.  1.
    10030    2    1    2    0    0  0.00000000000E+00  0.00000000000E+00  0.15379499499E+04  0.37155996669E+04  0.33823646811E+04 0.  0.
        1    1    3    3  502    0 -0.12796959131E+04 -0.94844736654E+03  0.13932247948E+04  0.21161874600E+04  0.50400001928E-02 0. -1.
       -1    1    3    3    0  502  0.12796959131E+04  0.94844736654E+03  0.14472515511E+03  0.15994122069E+04  0.50400001928E-02 0.  1.
</event>
<event>
 5   0  0.1277635E-06  0.3398893E+04  0.7818609E-02  0.8138178E-01
       -2   -1    0    0    0  501  0.00000000000E+00  0.00000000000E+00  0.16175892537E+04  0.16175892537E+04  0.25500000920E-02 0. -1.
        2   -1    0    0  501    0  0.00000000000E+00  0.00000000000E+00 -0.17854465030E+04  0.17854465030E+04  0.25500000920E-02 0.  1.
    10030    2    1    2    0    0  0.00000000000E+00  0.00000000000E+00 -0.16785724932E+03  0.34030357567E+04  0.33988933942E+04 0.  0.
        4    1    3    3  502    0 -0.57177741358E+03 -0.12081897501E+04  0.96685775406E+03  0.16496870650E+04  0.12699999809E+01 0. -1.
       -4    1    3    3    0  502  0.57177741358E+03  0.12081897501E+04 -0.11347150034E+04  0.17533486917E+04  0.12699999809E+01 0.  1.
</event>
<event>
 5   0  0.4109937E-07  0.3358253E+04  0.7818609E-02  0.8148229E-01
       -1   -1    0    0    0  501  0.00000000000E+00  0.00000000000E+00  0.10522672897E+04  0.10522672897E+04  0.50400001928E-02 0. -1.
        1   -1    0    0  501    0  0.00000000000E+00  0.00000000000E+00 -0.26794193622E+04  0.26794193622E+04  0.50400001928E-02 0.  1.
    10030    2    1    2    0    0  0.00000000000E+00  0.00000000000E+00 -0.16271520724E+04  0.37316866519E+04  0.33582527304E+04 0.  0.
        5    1    3    3  502    0 -0.64860333972E+03 -0.32745740526E+03  0.86853412785E+03  0.11323816785E+04  0.46999998093E+01 0. -1.
       -5    1    3    3    0  502  0.64860333972E+03  0.32745740526E+03 -0.24956862003E+04  0.25993049734E+04  0.46999998093E+01 0.  1.
</event>
<event>
 5   0  0.1300176E-06  0.3382877E+04  0.7818609E-02  0.8142122E-01
       -2   -1    0    0    0  501  0.00000000000E+00  0.00000000000E+00  0.21081611544E+04  0.21081611544E+04  0.25500000920E-02 0. -1.
        2   -1    0    0  501    0  0.00000000000E+00  0.00000000000E+00 -0.13570900303E+04  0.13570900303E+04  0.25500000920E-02 0.  1.
    10030    2    1    2    0    0  0.00000000000E+00  0.00000000000E+00  0.75107112414E+03  0.34652511847E+04  0.33828771689E+04 0.  0.
        1    1    3    3  502    0 -0.45741171480E+03 -0.68480283208E+03  0.18889360910E+04  0.20606455182E+04  0.50400001928E-02 0. -1.
       -1    1    3    3    0  502  0.45741171480E+03  0.68480283208E+03 -0.11378649669E+04  0.14046056666E+04  0.50400001928E-02 0.  1.
</event>
<event>
 5   0  0.4464951E-07  0.3285707E+04  0.7818609E-02  0.8166542E-01
       -1   -1    0    0    0  501  0.00000000000E+00  0.00000000000E+00  0.12194003883E+04  0.12194003883E+04  0.50400001928E-02 0.  1.
        1   -1    0    0  501    0  0.00000000000E+00  0.00000000000E+00 -0.22133565059E+04  0.22133565059E+04  0.50400001928E-02 0. -1.
    10030    2    1    2    0    0  0.00000000000E+00  0.00000000000E+00 -0.99395611760E+03  0.34327568942E+04  0.32857070975E+04 0.  0.
        3    1    3    3  502    0  0.60372306011E+03  0.98447349994E+03  0.72377537829E+03  0.13629088061E+04  0.10100000352E+00 0.  1.
       -3    1    3    3    0  502 -0.60372306011E+03 -0.98447349994E+03 -0.17177314959E+04  0.20698480880E+04  0.10100000352E+00 0. -1.
</event>
<event>
 5   0  0.4060750E-07  0.3416908E+04  0.7818609E-02  0.8133769E-01
        3   -1    0    0  501    0  0.00000000000E+00  0.00000000000E+00  0.15481544839E+04  0.15481544871E+04  0.10100000352E+00 0. -1.
       -3   -1    0    0    0  501  0.00000000000E+00  0.00000000000E+00 -0.18853511657E+04  0.18853511684E+04  0.10100000352E+00 0.  1.
    10030    2    1    2    0    0  0.00000000000E+00  0.00000000000E+00 -0.33719668186E+03  0.34335056556E+04  0.34169078835E+04 0.  0.
        3    1    3    3  502    0  0.79060317231E+03 -0.96211952479E+03 -0.13439327060E+04  0.18321797086E+04  0.10100000352E+00 0.  1.
       -3    1    3    3    0  502 -0.79060317231E+03  0.96211952479E+03  0.10067360241E+04  0.16013259470E+04  0.10100000352E+00 0. -1.
</event>
<event>
 5   0  0.4109937E-07  0.3196217E+04  0.7818609E-02  0.8189817E-01
        1   -1    0    0  501    0  0.00000000000E+00  0.00000000000E+00  0.18404870004E+04  0.18404870004E+04  0.50400001928E-02 0.  1.
       -1   -1    0    0    0  501  0.00000000000E+00  0.00000000000E+00 -0.13876490804E+04  0.13876490804E+04  0.50400001928E-02 0. -1.
    10030    2    1    2    0    0  0.00000000000E+00  0.00000000000E+00  0.45283792001E+03  0.32281360808E+04  0.31962165718E+04 0.  0.
        5    1    3    3  502    0  0.25044954105E+03  0.94670215513E+02 -0.13648279406E+04  0.13908503944E+04  0.46999998093E+01 0. -1.
       -5    1    3    3    0  502 -0.25044954105E+03 -0.94670215513E+02  0.18176658606E+04  0.18372856863E+04  0.46999998093E+01 0.  1.
</event>
<event>
 5   0  0.4060750E-07  0.3393835E+04  0.7818609E-02  0.8139421E-01
       -4   -1    0    0    0  501  0.00000000000E+00  0.00000000000E+00  0.13962981378E+04  0.13962987154E+04  0.12699999809E+01 0. -1.
        4   -1    0    0  501    0  0.00000000000E+00  0.00000000000E+00 -0.20622576525E+04  0.20622580436E+04  0.12699999809E+01 0.  1.
    10030    2    1    2    0    0  0.00000000000E+00  0.00000000000E+00 -0.66595951471E+03  0.34585567590E+04  0.33938345245E+04 0.  0.
        3    1    3    3  502    0 -0.11062535031E+04  0.12721446345E+04 -0.13595517777E+03  0.16913404757E+04  0.10100000352E+00 0. -1.
       -3    1    3    3    0  502  0.11062535031E+04 -0.12721446345E+04 -0.53000433693E+03  0.17672162832E+04  0.10100000352E+00 0.  1.
</event>
<event>
 5   0  0.1269497E-06  0.3388486E+04  0.7818609E-02  0.8140738E-01
        2   -1    0    0  501    0  0.00000000000E+00  0.00000000000E+00  0.21030139500E+04  0.21030139500E+04  0.25500000920E-02 0.  1.
       -2   -1    0    0    0  501  0.00000000000E+00  0.00000000000E+00 -0.13649264840E+04  0.13649264840E+04  0.25500000920E-02 0. -1.
    10030    2    1    2    0    0  0.00000000000E+00  0.00000000000E+00  0.73808746603E+03  0.34679404340E+04  0.33884860552E+04 0.  0.
        5    1    3    3  502    0  0.24915733750E+03  0.62255193570E+03  0.19614145905E+04  0.20728771255E+04  0.46999998093E+01 0.  1.
       -5    1    3    3    0  502 -0.24915733750E+03 -0.62255193570E+03 -0.12233271245E+04  0.13950633086E+04  0.46999998093E+01 0. -1.
</event>
<event>
 5   0  0.1277635E-06  0.3381637E+04  0.7818609E-02  0.8142428E-01
       -2   -1    0    0    0  501  0.00000000000E+00  0.00000000000E+00  0.22278156123E+04  0.22278156123E+04  0.25500000920E-02 0.  1.
        2   -1    0    0  501    0  0.00000000000E+00  0.00000000000E+00 -0.12832598727E+04  0.12832598727E+04  0.25500000920E-02 0. -1.
    10030    2    1    2    0    0  0.00000000000E+00  0.00000000000E+00  0.94455573959E+03  0.35110754851E+04  0.33816365146E+04 0.  0.
        4    1    3    3  502    0 -0.59387448352E+03 -0.13250468316E+04  0.13717091280E+04  0.19975043311E+04  0.12699999809E+01 0. -1.
       -4    1    3    3    0  502  0.59387448352E+03  0.13250468316E+04 -0.42715338841E+03  0.15135711540E+04  0.12699999809E+01 0.  1.
</event>
<event>
 5   0  0.4272633E-07  0.3393736E+04  0.7818609E-02  0.8139445E-01
       -1   -1    0    0    0  501  0.00000000000E+00  0.00000000000E+00  0.12243558090E+04  0.12243558090E+04  0.50400001928E-02 0. -1.
        1   -1    0    0  501    0  0.00000000000E+00  0.00000000000E+00 -0.23517361282E+04  0.23517361282E+04  0.50400001928E-02 0.  1.
    10030    2    1    2    0    0  0.00000000000E+00  0.00000000000E+00 -0.11273803192E+04  0.35760919372E+04  0.33937364599E+04 0.  0.
        1    1    3    3  502    0 -0.12280442264E+04 -0.11366914187E+04 -0.86024024250E+03  0.18815348199E+04  0.50400001928E-02 0. -1.
       -1    1    3    3    0  502  0.12280442264E+04  0.11366914187E+04 -0.26714007674E+03  0.16945571174E+04  0.50400001928E-02 0.  1.
</event>
<event>
 5   0  0.1269497E-06  0.3386116E+04  0.7818609E-02  0.8141322E-01
       -2   -1    0    0    0  501  0.00000000000E+00  0.00000000000E+00  0.13304824882E+04  0.13304824882E+04  0.25500000920E-02 0. -1.
        2   -1    0    0  501    0  0.00000000000E+00  0.00000000000E+00 -0.21544402219E+04  0.21544402219E+04  0.25500000920E-02 0.  1.
    10030    2    1    2    0    0  0.00000000000E+00  0.00000000000E+00 -0.82395773367E+03  0.34849227101E+04  0.33861157612E+04 0.  0.
        5    1    3    3  502    0  0.95025315664E+03  0.35353503266E+02 -0.18536363675E+04  0.20833196597E+04  0.46999998093E+01 0.  1.
       -5    1    3    3    0  502 -0.95025315664E+03 -0.35353503266E+02  0.10296786338E+04  0.14016030504E+04  0.46999998093E+01 0. -1.
</event>
<event>
 5   0  0.4109937E-07  0.3466253E+04  0.7818609E-02  0.8121834E-01
        1   -1    0    0  501    0  0.00000000000E+00  0.00000000000E+00  0.25772551058E+04  0.25772551058E+04  0.50400001928E-02 0. -1.
       -1   -1    0    0    0  501  0.00000000000E+00  0.00000000000E+00 -0.11654752354E+04  0.11654752354E+04  0.50400001928E-02 0.  1.
    10030    2    1    2    0    0  0.00000000000E+00  0.00000000000E+00  0.14117798704E+04  0.37427303413E+04  0.34662527324E+04 0.  0.
        5    1    3    3  502    0 -0.61873150479E+03 -0.82464433595E+03  0.22101500878E+04  0.24387809366E+04  0.46999998093E+01 0. -1.
       -5    1    3    3    0  502  0.61873150479E+03  0.82464433595E+03 -0.79837021746E+03  0.13039494047E+04  0.46999998093E+01 0.  1.
</event>
<event>
 5   0  0.1256208E-06  0.3380664E+04  0.7818609E-02  0.8142668E-01
       -2   -1    0    0    0  501  0.00000000000E+00  0.00000000000E+00  0.15254810105E+04  0.15254810106E+04  0.25500000920E-02 0. -1.
        2   -1    0    0  501    0  0.00000000000E+00  0.00000000000E+00 -0.18729975068E+04  0.18729975068E+04  0.25500000920E-02 0.  1.
    10030    2    1    2    0    0  0.00000000000E+00  0.00000000000E+00 -0.34751649620E+03  0.33984785173E+04  0.33806639167E+04 0.  0.
        3    1    3    3  502    0  0.42774763167E+03 -0.24659298712E+03  0.14513761945E+04  0.15330587092E+04  0.10100000352E+00 0. -1.
       -3    1    3    3    0  502 -0.42774763167E+03  0.24659298712E+03 -0.17988926907E+04  0.18654198081E+04  0.10100000352E+00 0.  1.
</event>
<event>
 5   0  0.1269497E-06  0.3378636E+04  0.7818609E-02  0.8143170E-01
       -2   -1    0    0    0  501  0.00000000000E+00  0.00000000000E+00  0.10991832256E+04  0.10991832256E+04  0.25500000920E-02 0.  1.
        2   -1    0    0  501    0  0.00000000000E+00  0.00000000000E+00 -0.25962874771E+04  0.25962874771E+04  0.25500000920E-02 0. -1.
    10030    2    1    2    0    0  0.00000000000E+00  0.00000000000E+00 -0.14971042515E+04  0.36954707027E+04  0.33786362005E+04 0.  0.
        5    1    3    3  502    0 -0.10880777941E+04  0.92003718863E+03 -0.17410546312E+04  0.22498166666E+04  0.46999998093E+01 0. -1.
       -5    1    3    3    0  502  0.10880777941E+04 -0.92003718863E+03  0.24395037970E+03  0.14456540362E+04  0.46999998093E+01 0.  1.
</event>
<event>
 5   0  0.4289684E-07  0.3496684E+04  0.7818609E-02  0.8114576E-01
       -1   -1    0    0    0  501  0.00000000000E+00  0.00000000000E+00  0.11413702446E+04  0.11413702447E+04  0.50400001928E-02 0.  1.
        1   -1    0    0  501    0  0.00000000000E+00  0.00000000000E+00 -0.26780972541E+04  0.26780972541E+04  0.50400001928E-02 0. -1.
    10030    2    1    2    0    0  0.00000000000E+00  0.00000000000E+00 -0.15367270095E+04  0.38194674988E+04  0.34966844400E+04 0.  0.
        4    1    3    3  502    0 -0.12977026245E+04  0.31798516175E+03  0.46336071623E+03  0.14141610343E+04  0.12699999809E+01 0.  1.
       -4    1    3    3    0  502  0.12977026245E+04 -0.31798516175E+03 -0.20000877257E+04  0.24053064645E+04  0.12699999809E+01 0. -1.
</event>
<event>
 5   0  0.1256208E-06  0.3406544E+04  0.7818609E-02  0.8136302E-01
       -2   -1    0    0    0  501  0.00000000000E+00  0.00000000000E+00  0.13986705413E+04  0.13986705413E+04  0.25500000920E-02 0.  1.
        2   -1    0    0  501    0  0.00000000000E+00  0.00000000000E+00 -0.20742091770E+04  0.20742091770E+04  0.25500000920E-02 0. -1.
    10030    2    1    2    0    0  0.00000000000E+00  0.00000000000E+00 -0.67553863570E+03  0.34728797183E+04  0.34065438628E+04 0.  0.
        3    1    3    3  502    0  0.14576513279E+04  0.15170678419E+03  0.54710330647E+03  0.15643159465E+04  0.10100000352E+00 0.  1.
       -3    1    3    3    0  502 -0.14576513279E+04 -0.15170678419E+03 -0.12226419422E+04  0.19085637718E+04  0.10100000352E+00 0. -1.
</event>
<event>
 5   0  0.1268230E-06  0.3323283E+04  0.7818609E-02  0.8156996E-01
        2   -1    0    0  501    0  0.00000000000E+00  0.00000000000E+00  0.25606509460E+04  0.25606509460E+04  0.25500000920E-02 0.  1.
       -2   -1    0    0    0  501  0.00000000000E+00  0.00000000000E+00 -0.10782620546E+04  0.10782620546E+04  0.25500000920E-02 0. -1.
    10030    2    1    2    0    0  0.00000000000E+00  0.00000000000E+00  0.14823888914E+04  0.36389130006E+04  0.33232831658E+04 0.  0.
        2    1    3    3  502    0 -0.21827504241E+03 -0.12131318416E+03  0.25399865603E+04  0.25522328673E+04  0.25500000920E-02 0.  1.
       -2    1    3    3    0  502  0.21827504241E+03  0.12131318416E+03 -0.10575976689E+04  0.10866801332E+04  0.25500000920E-02 0. -1.
</event>
<event>
 5   0  0.1277635E-06  0.3391758E+04  0.7818609E-02  0.8139932E-01
       -2   -1    0    0    0  501  0.00000000000E+00  0.00000000000E+00  0.13586787035E+04  0.13586787035E+04  0.25500000920E-02 0.  1.
        2   -1    0    0  501    0  0.00000000000E+00  0.00000000000E+00 -0.21167659199E+04  0.21167659199E+04  0.25500000920E-02 0. -1.
    10030    2    1    2    0    0  0.00000000000E+00  0.00000000000E+00 -0.75808721635E+03  0.34754446234E+04  0.33917575241E+04 0.  0.
        4    1    3    3  502    0 -0.97198893656E+03  0.10110941204E+04  0.59785758377E+03  0.15246340926E+04  0.12699999809E+01 0.  1.
       -4    1    3    3    0  502  0.97198893656E+03 -0.10110941204E+04 -0.13559448001E+04  0.19508105308E+04  0.12699999809E+01 0. -1.
</event>
<event>
 5   0  0.1269497E-06  0.3393002E+04  0.7818609E-02  0.8139626E-01
       -2   -1    0    0    0  501  0.00000000000E+00  0.00000000000E+00  0.14053949882E+04  0.14053949882E+04  0.25500000920E-02 0.  1.
        2   -1    0    0  501    0  0.00000000000E+00  0.00000000000E+00 -0.20479052333E+04  0.20479052333E+04  0.25500000920E-02 0. -1.
    10030    2    1    2    0    0  0.00000000000E+00  0.00000000000E+00 -0.64251024510E+03  0.34533002216E+04  0.33930020638E+04 0.  0.
        5    1    3    3  502    0 -0.14107122712E+04  0.80364267754E+03 -0.82208031732E+03  0.18198320811E+04  0.46999998093E+01 0.  1.
       -5    1    3    3    0  502  0.14107122712E+04 -0.80364267754E+03  0.17957007222E+03  0.16334681405E+04  0.46999998093E+01 0. -1.
</event>
<event>
 5   0  0.1300176E-06  0.3395569E+04  0.7818609E-02  0.8138995E-01
        2   -1    0    0  501    0  0.00000000000E+00  0.00000000000E+00  0.11294319087E+04  0.11294319087E+04  0.25500000920E-02 0. -1.
       -2   -1    0    0    0  501  0.00000000000E+00  0.00000000000E+00 -0.25521438269E+04  0.25521438269E+04  0.25500000920E-02 0.  1.
    10030    2    1    2    0    0  0.00000000000E+00  0.00000000000E+00 -0.14227119182E+04  0.36815757356E+04  0.33955692741E+04 0.  0.
        1    1    3    3  502    0  0.80868809058E+03  0.14725875452E+04 -0.97689734791E+03  0.19434039555E+04  0.50400001928E-02 0.  1.
       -1    1    3    3    0  502 -0.80868809058E+03 -0.14725875452E+04 -0.44581457031E+03  0.17381717801E+04  0.50400001928E-02 0. -1.
</event>
<event>
 5   0  0.1300176E-06  0.3378082E+04  0.7818609E-02  0.8143307E-01
       -2   -1    0    0    0  501  0.00000000000E+00  0.00000000000E+00  0.18927822801E+04  0.18927822801E+04  0.25500000920E-02 0.  1.
        2   -1    0    0  501    0  0.00000000000E+00  0.00000000000E+00 -0.15072310068E+04  0.15072310068E+04  0.25500000920E-02 0. -1.
    10030    2    1    2    0    0  0.00000000000E+00  0.00000000000E+00  0.38555127330E+03  0.34000132869E+04  0.33780823801E+04 0.  0.
        1    1    3    3  502    0  0.49896079589E+03  0.30314730948E+03 -0.14024429208E+04  0.15191136604E+04  0.50400001928E-02 0. -1.
       -1    1    3    3    0  502 -0.49896079589E+03 -0.30314730948E+03  0.17879941941E+04  0.18808996265E+04  0.50400001928E-02 0.  1.
</event>
<event>
 5   0  0.4272633E-07  0.3350609E+04  0.7818609E-02  0.8150136E-01
        1   -1    0    0  501    0  0.00000000000E+00  0.00000000000E+00  0.23399166080E+04  0.23399166080E+04  0.50400001928E-02 0. -1.
       -1   -1    0    0    0  501  0.00000000000E+00  0.00000000000E+00 -0.11994641132E+04  0.11994641132E+04  0.50400001928E-02 0.  1.
    10030    2    1    2    0    0  0.00000000000E+00  0.00000000000E+00  0.11404524948E+04  0.35393807212E+04  0.33506094963E+04 0.  0.
        1    1    3    3  502    0  0.98168548477E+03  0.79323801040E+03  0.17339810326E+04  0.21446732044E+04  0.50400001928E-02 0. -1.
       -1    1    3    3    0  502 -0.98168548477E+03 -0.79323801040E+03 -0.59352853785E+03  0.13947075168E+04  0.50400001928E-02 0.  1.
</event>
<event>
 5   0  0.4125758E-07  0.3418460E+04  0.7818609E-02  0.8133390E-01
        1   -1    0    0  501    0  0.00000000000E+00  0.00000000000E+00  0.14227069677E+04  0.14227069677E+04  0.50400001928E-02 0. -1.
       -1   -1    0    0    0  501  0.00000000000E+00  0.00000000000E+00 -0.20534570380E+04  0.20534570380E+04  0.50400001928E-02 0.  1.
    10030    2    1    2    0    0  0.00000000000E+00  0.00000000000E+00 -0.63075007033E+03  0.34761640057E+04  0.34184602592E+04 0.  0.
        2    1    3    3  502    0 -0.16464000775E+03  0.10973356494E+04  0.10066534062E+04  0.14981998998E+04  0.25500000920E-02 0. -1.
       -2    1    3    3    0  502  0.16464000775E+03 -0.10973356494E+04 -0.16374034765E+04  0.19779641060E+04  0.25500000920E-02 0.  1.
</event>
<event>
 5   0  0.1300176E-06  0.3497546E+04  0.7818609E-02  0.8114372E-01
        2   -1    0    0  501    0  0.00000000000E+00  0.00000000000E+00  0.18035305153E+04  0.18035305153E+04  0.25500000920E-02 0.  1.
       -2   -1    0    0    0  501  0.00000000000E+00  0.00000000000E+00 -0.16956784759E+04  0.16956784759E+04  0.25500000920E-02 0. -1.
    10030    2    1    2    0    0  0.00000000000E+00  0.00000000000E+00  0.10785203944E+03  0.34992089912E+04  0.34975464974E+04 0.  0.
        1    1    3    3  502    0 -0.11396494176E+04  0.27708059067E+03 -0.12438541712E+04  0.17096045297E+04  0.50400001928E-02 0. -1.
       -1    1    3    3    0  502  0.11396494176E+04 -0.27708059067E+03  0.13517062106E+04  0.17896044615E+04  0.50400001928E-02 0.  1.
</event>
<event>
 5   0  0.4109937E-07  0.3410861E+04  0.7818609E-02  0.8135246E-01
       -1   -1    0    0    0  501  0.00000000000E+00  0.00000000000E+00  0.25751890033E+04  0.25751890033E+04  0.50400001928E-02 0. -1.
        1   -1    0    0  501    0  0.00000000000E+00  0.00000000000E+00 -0.11294288524E+04  0.11294288524E+04  0.50400001928E-02 0.  1.
    10030    2    1    2    0    0  0.00000000000E+00  0.00000000000E+00  0.14457601509E+04  0.37046178557E+04  0.34108607481E+04 0.  0.
        5    1    3    3  502    0  0.50037702397E+03  0.12542359998E+04 -0.40845540053E+03  0.14107951707E+04  0.46999998093E+01 0.  1.
       -5    1    3    3    0  502 -0.50037702397E+03 -0.12542359998E+04  0.18542155514E+04  0.22938226850E+04  0.46999998093E+01 0. -1.
</event>
<event>
 5   0  0.1269497E-06  0.3709197E+04  0.7818609E-02  0.8065927E-01
       -2   -1    0    0    0  501  0.00000000000E+00  0.00000000000E+00  0.18499771467E+04  0.18499771467E+04  0.25500000920E-02 0. -1.
        2   -1    0    0  501    0  0.00000000000E+00  0.00000000000E+00 -0.18592311190E+04  0.18592311190E+04  0.25500000920E-02 0.  1.
    10030    2    1    2    0    0  0.00000000000E+00  0.00000000000E+00 -0.92539722377E+01  0.37092082657E+04  0.37091967220E+04 0.  0.
        5    1    3    3  502    0 -0.11969417383E+04  0.12734145117E+03 -0.14155274117E+04  0.18581241383E+04  0.46999998093E+01 0.  1.
       -5    1    3    3    0  502  0.11969417383E+04 -0.12734145117E+03  0.14062734395E+04  0.18510841274E+04  0.46999998093E+01 0. -1.
</event>
<event>
 5   0  0.4464951E-07  0.3392353E+04  0.7818609E-02  0.8139786E-01
        1   -1    0    0  501    0  0.00000000000E+00  0.00000000000E+00  0.13806391380E+04  0.13806391380E+04  0.50400001928E-02 0.  1.
       -1   -1    0    0    0  501  0.00000000000E+00  0.00000000000E+00 -0.20838283215E+04  0.20838283215E+04  0.50400001928E-02 0. -1.
    10030    2    1    2    0    0  0.00000000000E+00  0.00000000000E+00 -0.70318918352E+03  0.34644674595E+04  0.33923531287E+04 0.  0.
        3    1    3    3  502    0  0.97766850926E+03  0.13833649159E+04 -0.26326479946E+03  0.17143052731E+04  0.10100000352E+00 0.  1.
       -3    1    3    3    0  502 -0.97766850926E+03 -0.13833649159E+04 -0.43992438405E+03  0.17501621864E+04  0.10100000352E+00 0. -1.
</event>
<event>
 5   0  0.1268230E-06  0.3373290E+04  0.7818609E-02  0.8144493E-01
       -2   -1    0    0    0  501  0.00000000000E+00  0.00000000000E+00  0.11417821280E+04  0.11417821280E+04  0.25500000920E-02 0.  1.
        2   -1    0    0  501    0  0.00000000000E+00  0.00000000000E+00 -0.24915189062E+04  0.24915189062E+04  0.25500000920E-02 0. -1.
    10030    2    1    2    0    0  0.00000000000E+00  0.00000000000E+00 -0.13497367782E+04  0.36333010342E+04  0.33732902387E+04 0.  0.
        2    1    3    3  502    0  0.99651179600E+03  0.61023379813E+02 -0.21390673137E+04  0.23605864917E+04  0.25500000920E-02 0. -1.
       -2    1    3    3    0  502 -0.99651179600E+03 -0.61023379813E+02  0.78933053545E+03  0.12727145425E+04  0.25500000920E-02 0.  1.
</event>
<event>
 5   0  0.4289684E-07  0.3403232E+04  0.7818609E-02  0.8137113E-01
        1   -1    0    0  501    0  0.00000000000E+00  0.00000000000E+00  0.14472078864E+04  0.14472078865E+04  0.50400001928E-02 0.  1.
       -1   -1    0    0    0  501  0.00000000000E+00  0.00000000000E+00 -0.20007475476E+04  0.20007475476E+04  0.50400001928E-02 0. -1.
    10030    2    1    2    0    0  0.00000000000E+00  0.00000000000E+00 -0.55353966115E+03  0.34479554341E+04  0.34032323633E+04 0.  0.
        4    1    3    3  502    0  0.14365120882E+04  0.57803792714E+03 -0.99159199036E+03  0.18387362815E+04  0.12699999809E+01 0.  1.
       -4    1    3    3    0  502 -0.14365120882E+04 -0.57803792714E+03  0.43805232921E+03  0.16092191525E+04  0.12699999809E+01 0. -1.
</event>
<event>
 5   0  0.4109937E-07  0.3373198E+04  0.7818609E-02  0.8144516E-01
        1   -1    0    0  501    0  0.00000000000E+00  0.00000000000E+00  0.16256127840E+04  0.16256127840E+04  0.50400001928E-02 0.  1.
       -1   -1    0    0    0  501  0.00000000000E+00  0.00000000000E+00 -0.17498729573E+04  0.17498729573E+04  0.50400001928E-02 0. -1.
    10030    2    1    2    0    0  0.00000000000E+00  0.00000000000E+00 -0.12426017327E+03  0.33754857413E+04  0.33731978002E+04 0.  0.
        5    1    3    3  502    0 -0.34677945113E+03  0.13783235979E+04  0.84653969006E+03  0.16542924364E+04  0.46999998093E+01 0. -1.
       -5    1    3    3    0  502  0.34677945113E+03 -0.13783235979E+04 -0.97079986333E+03  0.17211933049E+04  0.46999998093E+01 0.  1.
</event>
<event>
 5   0  0.4272633E-07  0.3556680E+04  0.7818609E-02  0.8100487E-01
        1   -1    0    0  501    0  0.00000000000E+00  0.00000000000E+00  0.13643653243E+04  0.13643653243E+04  0.50400001928E-02 0. -1.
       -1   -1    0    0    0  501  0.00000000000E+00  0.00000000000E+00 -0.23179230031E+04  0.23179230031E+04  0.50400001928E-02 0.  1.
    10030    2    1    2    0    0  0.00000000000E+00  0.00000000000E+00 -0.95355767883E+03  0.36822883274E+04  0.35566803454E+04 0.  0.
        1    1    3    3  502    0  0.40792465450E+03  0.35077508815E+03 -0.22316466326E+04  0.22955810548E+04  0.50400001928E-02 0.  1.
       -1    1    3    3    0  502 -0.40792465450E+03 -0.35077508815E+03  0.12780889538E+04  0.13867072726E+04  0.50400001928E-02 0. -1.
</event>
<event>
 5   0  0.4125758E-07  0.3425956E+04  0.7818609E-02  0.8131565E-01
       -1   -1    0    0    0  501  0.00000000000E+00  0.00000000000E+00  0.18201038574E+04  0.18201038574E+04  0.50400001928E-02 0.  1.
        1   -1    0    0  501    0  0.00000000000E+00  0.00000000000E+00 -0.16121569941E+04  0.16121569941E+04  0.50400001928E-02 0. -1.
    10030    2    1    2    0    0  0.00000000000E+00  0.00000000000E+00  0.20794686338E+03  0.34322608515E+04  0.34259557287E+04 0.  0.
        2    1    3    3  502    0 -0.11025601793E+04  0.70169066493E+02 -0.12075311297E+04  0.16366716458E+04  0.25500000920E-02 0. -1.
       -2    1    3    3    0  502  0.11025601793E+04 -0.70169066493E+02  0.14154779931E+04  0.17955892057E+04  0.25500000920E-02 0.  1.
</event>
<event>
 5   0  0.1256208E-06  0.3380167E+04  0.7818609E-02  0.8142791E-01
        2   -1    0    0  501    0  0.00000000000E+00  0.00000000000E+00  0.26182387597E+04  0.26182387597E+04  0.25500000920E-02 0.  1.
       -2   -1    0    0    0  501  0.00000000000E+00  0.00000000000E+00 -0.10909556208E+04  0.10909556208E+04  0.25500000920E-02 0. -1.
    10030    2    1    2    0    0  0.00000000000E+00  0.00000000000E+00  0.15272831390E+04  0.37091943805E+04  0.33801670322E+04 0.  0.
        3    1    3    3  502    0  0.41126443599E+03  0.12282764251E+04  0.19549415235E+04  0.23451221255E+04  0.10100000352E+00 0. -1.
       -3    1    3    3    0  502 -0.41126443599E+03 -0.12282764251E+04 -0.42765838455E+03  0.13640722550E+04  0.10100000352E+00 0.  1.
</event>
<event>
 5   0  0.1300176E-06  0.3347506E+04  0.7818609E-02  0.8150912E-01
       -2   -1    0    0    0  501  0.00000000000E+00  0.00000000000E+00  0.12693366759E+04  0.12693366759E+04  0.25500000920E-02 0.  1.
        2   -1    0    0  501    0  0.00000000000E+00  0.00000000000E+00 -0.22070186167E+04  0.22070186167E+04  0.25500000920E-02 0. -1.
    10030    2    1    2    0    0  0.00000000000E+00  0.00000000000E+00 -0.93768194085E+03  0.34763552926E+04  0.33475063403E+04 0.  0.
        1    1    3    3  502    0  0.58742353178E+03 -0.15672702851E+04 -0.47596976066E+03  0.17401005044E+04  0.50400001928E-02 0. -1.
       -1    1    3    3    0  502 -0.58742353178E+03  0.15672702851E+04 -0.46171218019E+03  0.17362547882E+04  0.50400001928E-02 0.  1.
</event>
<event>
 5   0  0.4125758E-07  0.3388234E+04  0.7818609E-02  0.8140800E-01
        1   -1    0    0  501    0  0.00000000000E+00  0.00000000000E+00  0.20813740174E+04  0.20813740174E+04  0.50400001928E-02 0. -1.
       -1   -1    0    0    0  501  0.00000000000E+00  0.00000000000E+00 -0.13789121514E+04  0.13789121514E+04  0.50400001928E-02 0.  1.
    10030    2    1    2    0    0  0.00000000000E+00  0.00000000000E+00  0.70246186609E+03  0.34602861688E+04  0.33882337134E+04 0.  0.
        2    1    3    3  502    0  0.20196339311E+03 -0.15962055864E+04 -0.19049283517E+03  0.16201694376E+04  0.25500000920E-02 0.  1.
       -2    1    3    3    0  502 -0.20196339311E+03  0.15962055864E+04  0.89295470126E+03  0.18401167313E+04  0.25500000920E-02 0. -1.
</event>
<event>
 5   0  0.4289684E-07  0.3357490E+04  0.7818609E-02  0.8148419E-01
       -1   -1    0    0    0  501  0.00000000000E+00  0.00000000000E+00  0.14064089955E+04  0.14064089955E+04  0.50400001928E-02 0. -1.
        1   -1    0    0  501    0  0.00000000000E+00  0.00000000000E+00 -0.20038157427E+04  0.20038157428E+04  0.50400001928E-02 0.  1.
    10030    2    1    2    0    0  0.00000000000E+00  0.00000000000E+00 -0.59740674728E+03  0.34102247382E+04  0.33574898278E+04 0.  0.
        4    1    3    3  502    0  0.15818628368E+04  0.53608087092E+03 -0.12720185965E+03  0.16750685540E+04  0.12699999809E+01 0.  1.
       -4    1    3    3    0  502 -0.15818628368E+04 -0.53608087092E+03 -0.47020488764E+03  0.17351561843E+04  0.12699999809E+01 0. -1.
</event>
<event>
 5   0  0.4464951E-07  0.3337445E+04  0.7818609E-02  0.8153432E-01
        1   -1    0    0  501    0  0.00000000000E+00  0.00000000000E+00  0.19119844952E+04  0.19119844952E+04  0.50400001928E-02 0.  1.
       -1   -1    0    0    0  501  0.00000000000E+00  0.00000000000E+00 -0.14564106802E+04  0.14564106802E+04  0.50400001928E-02 0. -1.
    10030    2    1    2    0    0  0.00000000000E+00  0.00000000000E+00  0.45557381497E+03  0.33683951754E+04  0.33374449145E+04 0.  0.
        3    1    3    3  502    0 -0.86756873313E+03  0.14217114582E+04  0.33216577090E+03  0.16983147784E+04  0.10100000352E+00 0. -1.
       -3    1    3    3    0  502  0.86756873313E+03 -0.14217114582E+04  0.12340804407E+03  0.16700803970E+04  0.10100000352E+00 0.  1.
</event>
<event>
 5   0  0.4289684E-07  0.3417420E+04  0.7818609E-02  0.8133644E-01
       -1   -1    0    0    0  501  0.00000000000E+00  0.00000000000E+00  0.15939527652E+04  0.15939527652E+04  0.50400001928E-02 0.  1.
        1   -1    0    0  501    0  0.00000000000E+00  0.00000000000E+00 -0.18317295201E+04  0.18317295201E+04  0.50400001928E-02 0. -1.
    10030    2    1    2    0    0  0.00000000000E+00  0.00000000000E+00 -0.23777675487E+03  0.34256822853E+04  0.34174202748E+04 0.  0.
        4    1    3    3  502    0  0.82990961840E+03  0.12966611362E+04  0.62425988626E+03  0.16612591897E+04  0.12699999809E+01 0.  1.
       -4    1    3    3    0  502 -0.82990961840E+03 -0.12966611362E+04 -0.86203664113E+03  0.17644230956E+04  0.12699999809E+01 0. -1.
</event>
<event>
 5   0  0.1268230E-06  0.3423171E+04  0.7818609E-02  0.8132243E-01
       -2   -1    0    0    0  501  0.00000000000E+00  0.00000000000E+00  0.14614832555E+04  0.14614832555E+04  0.25500000920E-02 0.  1.
        2   -1    0    0  501    0  0.00000000000E+00  0.00000000000E+00 -0.20044880119E+04  0.20044880119E+04  0.25500000920E-02 0. -1.
    10030    2    1    2    0    0  0.00000000000E+00  0.00000000000E+00 -0.54300475638E+03  0.34659712673E+04  0.34231714331E+04 0.  0.
        2    1    3    3  502    0  0.15971194335E+04  0.59848671787E+03 -0.12636146659E+03  0.17102467823E+04  0.25500000920E-02 0.  1.
       -2    1    3    3    0  502 -0.15971194335E+04 -0.59848671787E+03 -0.41664328978E+03  0.17557244850E+04  0.25500000920E-02 0. -1.
</event>
<event>
 5   0  0.1300176E-06  0.3407671E+04  0.7818609E-02  0.8136026E-01
        2   -1    0    0  501    0  0.00000000000E+00  0.00000000000E+00  0.22254818587E+04  0.22254818587E+04  0.25500000920E-02 0. -1.
       -2   -1    0    0    0  501  0.00000000000E+00  0.00000000000E+00 -0.13044616624E+04  0.13044616625E+04  0.25500000920E-02 0.  1.
    10030    2    1    2    0    0  0.00000000000E+00  0.00000000000E+00  0.92102019622E+03  0.35299435211E+04  0.34076712078E+04 0.  0.
        1    1    3    3  502    0 -0.10822763795E+04 -0.90778278702E+03 -0.52638872451E+03  0.15074736613E+04  0.50400001928E-02 0.  1.
       -1    1    3    3    0  502  0.10822763795E+04  0.90778278702E+03  0.14474089207E+04  0.20224698598E+04  0.50400001928E-02 0. -1.
</event>
<event>
 5   0  0.4272633E-07  0.3289297E+04  0.7818609E-02  0.8165624E-01
       -1   -1    0    0    0  501  0.00000000000E+00  0.00000000000E+00  0.93394505758E+03  0.93394505760E+03  0.50400001928E-02 0. -1.
        1   -1    0    0  501    0  0.00000000000E+00  0.00000000000E+00 -0.28961753533E+04  0.28961753533E+04  0.50400001928E-02 0.  1.
    10030    2    1    2    0    0  0.00000000000E+00  0.00000000000E+00 -0.19622302957E+04  0.38301204109E+04  0.32892969809E+04 0.  0.
        1    1    3    3  502    0  0.56894707011E+03 -0.10942573832E+04 -0.22480163886E+04  0.25641134282E+04  0.50400001928E-02 0.  1.
       -1    1    3    3    0  502 -0.56894707011E+03  0.10942573832E+04  0.28578609286E+03  0.12660069827E+04  0.50400001928E-02 0. -1.
</event>
<event>
 5   0  0.1268230E-06  0.3062216E+04  0.7818609E-02  0.8226185E-01
        2   -1    0    0  501    0  0.00000000000E+00  0.00000000000E+00  0.21089053310E+04  0.21089053310E+04  0.25500000920E-02 0.  1.
       -2   -1    0    0    0  501  0.00000000000E+00  0.00000000000E+00 -0.11116151672E+04  0.11116151672E+04  0.25500000920E-02 0. -1.
    10030    2    1    2    0    0  0.00000000000E+00  0.00000000000E+00  0.99729016387E+03  0.32205204982E+04  0.30622156371E+04 0.  0.
        2    1    3    3  502    0 -0.52996310069E+03 -0.14337872807E+03 -0.10045348230E+04  0.11447744574E+04  0.25500000920E-02 0. -1.
       -2    1    3    3    0  502  0.52996310069E+03  0.14337872807E+03  0.20018249869E+04  0.20757460408E+04  0.25500000920E-02 0.  1.
</event>
<event>
 5   0  0.4464951E-07  0.3281269E+04  0.7818609E-02  0.8167678E-01
       -1   -1    0    0    0  501  0.00000000000E+00  0.00000000000E+00  0.24291582139E+04  0.24291582139E+04  0.50400001928E-02 0.  1.
        1   -1    0    0  501    0  0.00000000000E+00  0.00000000000E+00 -0.11080719668E+04  0.11080719668E+04  0.50400001928E-02 0. -1.
    10030    2    1    2    0    0  0.00000000000E+00  0.00000000000E+00  0.13210862471E+04  0.35372301807E+04  0.32812693396E+04 0.  0.
        3    1    3    3  502    0 -0.95350858597E+03 -0.61441767349E+03 -0.61724468261E+03  0.12913863517E+04  0.10100000352E+00 0. -1.
       -3    1    3    3    0  502  0.95350858597E+03  0.61441767349E+03  0.19383309297E+04  0.22458438290E+04  0.10100000352E+00 0.  1.
</event>
<event>
 5   0  0.1300176E-06  0.3263425E+04  0.7818609E-02  0.8172265E-01
       -2   -1    0    0    0  501  0.00000000000E+00  0.00000000000E+00  0.20212845247E+04  0.20212845247E+04  0.25500000920E-02 0.  1.
        2   -1    0    0  501    0  0.00000000000E+00  0.00000000000E+00 -0.13172244749E+04  0.13172244749E+04  0.25500000920E-02 0. -1.
    10030    2    1    2    0    0  0.00000000000E+00  0.00000000000E+00  0.70406004987E+03  0.33385089996E+04  0.32634248554E+04 0.  0.
        1    1    3    3  502    0  0.33231090557E+03  0.15463275377E+04 -0.58355578183E+02  0.15827080480E+04  0.50400001928E-02 0.  1.
       -1    1    3    3    0  502 -0.33231090557E+03 -0.15463275377E+04  0.76241562805E+03  0.17558009516E+04  0.50400001928E-02 0. -1.
</event>
<event>
 5   0  0.4464951E-07  0.3393441E+04  0.7818609E-02  0.8139518E-01
        1   -1    0    0  501    0  0.00000000000E+00  0.00000000000E+00  0.89988817019E+03  0.89988817020E+03  0.50400001928E-02 0.  1.
       -1   -1    0    0    0  501  0.00000000000E+00  0.00000000000E+00 -0.31991316476E+04  0.31991316476E+04  0.50400001928E-02 0. -1.
    10030    2    1    2    0    0  0.00000000000E+00  0.00000000000E+00 -0.22992434774E+04  0.40990198178E+04  0.33934411588E+04 0.  0.
        3    1    3    3  502    0 -0.16849795427E+04 -0.12131119558E+03 -0.95867703924E+03  0.19424042167E+04  0.10100000352E+00 0. -1.
       -3    1    3    3    0  502  0.16849795427E+04  0.12131119558E+03 -0.13405664382E+04  0.21566156011E+04  0.10100000352E+00 0.  1.
</event>
<event>
 5   0  0.1269497E-06  0.3437158E+04  0.7818609E-02  0.8128846E-01
       -2   -1    0    0    0  501  0.00000000000E+00  0.00000000000E+00  0.14731524953E+04  0.14731524953E+04  0.25500000920E-02 0. -1.
        2   -1    0    0  501    0  0.00000000000E+00  0.00000000000E+00 -0.20048938277E+04  0.20048938277E+04  0.25500000920E-02 0.  1.
    10030    2    1    2    0    0  0.00000000000E+00  0.00000000000E+00 -0.53174133244E+03  0.34780463229E+04  0.34371583292E+04 0.  0.
        5    1    3    3  502    0 -0.89634430473E+02  0.44528987769E+03  0.14113066303E+04  0.14826078042E+04  0.46999998093E+01 0. -1.
       -5    1    3    3    0  502  0.89634430473E+02 -0.44528987769E+03 -0.19430479628E+04  0.19954385187E+04  0.46999998093E+01 0.  1.
</event>
<event>
 5   0  0.1300176E-06  0.3319367E+04  0.7818609E-02  0.8157985E-01
        2   -1    0    0  501    0  0.00000000000E+00  0.00000000000E+00  0.23143320160E+04  0.23143320160E+04  0.25500000920E-02 0.  1.
       -2   -1    0    0    0  501  0.00000000000E+00  0.00000000000E+00 -0.11902135036E+04  0.11902135036E+04  0.25500000920E-02 0. -1.
    10030    2    1    2    0    0  0.00000000000E+00  0.00000000000E+00  0.11241185125E+04  0.35045455196E+04  0.33193669380E+04 0.  0.
        1    1    3    3  502    0  0.22866763216E+03  0.11524904065E+04 -0.67552263906E+03  0.13553058175E+04  0.50400001928E-02 0. -1.
       -1    1    3    3    0  502 -0.22866763216E+03 -0.11524904065E+04  0.17996411515E+04  0.21492397021E+04  0.50400001928E-02 0.  1.
</event>
<event>
 5   0  0.4125758E-07  0.3378680E+04  0.7818609E-02  0.8143159E-01
       -1   -1    0    0    0  501  0.00000000000E+00  0.00000000000E+00  0.12959437003E+04  0.12959437003E+04  0.50400001928E-02 0.  1.
        1   -1    0    0  501    0  0.00000000000E+00  0.00000000000E+00 -0.22021559067E+04  0.22021559067E+04  0.50400001928E-02 0. -1.
    10030    2    1    2    0    0  0.00000000000E+00  0.00000000000E+00 -0.90621220641E+03  0.34980996070E+04  0.33786802597E+04 0.  0.
        2    1    3    3  502    0 -0.44202606664E+03  0.92201810738E+03 -0.18453912840E+04  0.21097330222E+04  0.25500000920E-02 0. -1.
       -2    1    3    3    0  502  0.44202606664E+03 -0.92201810738E+03  0.93917907759E+03  0.13883665848E+04  0.25500000920E-02 0.  1.
</event>
<event>
 5   0  0.1268230E-06  0.3381579E+04  0.7818609E-02  0.8142442E-01
        2   -1    0    0  501    0  0.00000000000E+00  0.00000000000E+00  0.16071160422E+04  0.16071160422E+04  0.25500000920E-02 0. -1.
       -2   -1    0    0    0  501  0.00000000000E+00  0.00000000000E+00 -0.17788190596E+04  0.17788190596E+04  0.25500000920E-02 0.  1.
    10030    2    1    2    0    0  0.00000000000E+00  0.00000000000E+00 -0.17170301744E+03  0.33859351018E+04  0.33815787123E+04 0.  0.
        2    1    3    3  502    0  0.16692590669E+04  0.97131922810E+02  0.16528668849E+03  0.16802321662E+04  0.25500000920E-02 0. -1.
       -2    1    3    3    0  502 -0.16692590669E+04 -0.97131922810E+02 -0.33698970594E+03  0.17057029357E+04  0.25500000920E-02 0.  1.
</event>
<event>
 5   0  0.1300176E-06  0.3426051E+04  0.7818609E-02  0.8131542E-01
       -2   -1    0    0    0  501  0.00000000000E+00  0.00000000000E+00  0.22562244119E+04  0.22562244119E+04  0.25500000920E-02 0. -1.
        2   -1    0    0  501    0  0.00000000000E+00  0.00000000000E+00 -0.13006045435E+04  0.13006045435E+04  0.25500000920E-02 0.  1.
    10030    2    1    2    0    0  0.00000000000E+00  0.00000000000E+00  0.95561986842E+03  0.35568289554E+04  0.34260506250E+04 0.  0.
        1    1    3    3  502    0  0.69349963164E+02  0.15893622956E+04  0.11373340576E+04  0.19556100538E+04  0.50400001928E-02 0. -1.
       -1    1    3    3    0  502 -0.69349963164E+02 -0.15893622956E+04 -0.18171418916E+03  0.16012189015E+04  0.50400001928E-02 0.  1.
</event>
<event>
 5   0  0.4125758E-07  0.3449132E+04  0.7818609E-02  0.8125952E-01
       -1   -1    0    0    0  501  0.00000000000E+00  0.00000000000E+00  0.11116717254E+04  0.11116717254E+04  0.50400001928E-02 0.  1.
        1   -1    0    0  501    0  0.00000000000E+00  0.00000000000E+00 -0.26753656901E+04  0.26753656901E+04  0.50400001928E-02 0. -1.
    10030    2    1    2    0    0  0.00000000000E+00  0.00000000000E+00 -0.15636939647E+04  0.37870374155E+04  0.34491322925E+04 0.  0.
        2    1    3    3  502    0  0.13293261400E+04  0.84425955191E+03 -0.99463086970E+01  0.15747955761E+04  0.25500000920E-02 0.  1.
       -2    1    3    3    0  502 -0.13293261400E+04 -0.84425955191E+03 -0.15537476560E+04  0.22122418394E+04  0.25500000920E-02 0. -1.
</event>
<event>
 5   0  0.4289684E-07  0.3440571E+04  0.7818609E-02  0.8128020E-01
       -1   -1    0    0    0  501  0.00000000000E+00  0.00000000000E+00  0.13986032859E+04  0.13986032859E+04  0.50400001928E-02 0. -1.
        1   -1    0    0  501    0  0.00000000000E+00  0.00000000000E+00 -0.21159552656E+04  0.21159552656E+04  0.50400001928E-02 0.  1.
    10030    2    1    2    0    0  0.00000000000E+00  0.00000000000E+00 -0.71735197967E+03  0.35145585514E+04  0.34405708754E+04 0.  0.
        4    1    3    3  502    0 -0.10055302249E+04 -0.36383554623E+03  0.10178607190E+04  0.14763161565E+04  0.12699999809E+01 0. -1.
       -4    1    3    3    0  502  0.10055302249E+04  0.36383554623E+03 -0.17352126986E+04  0.20382423949E+04  0.12699999809E+01 0.  1.
</event>
<event>
 5   0  0.1269497E-06  0.3374445E+04  0.7818609E-02  0.8144207E-01
        2   -1    0    0  501    0  0.00000000000E+00  0.00000000000E+00  0.15877542078E+04  0.15877542078E+04  0.25500000920E-02 0. -1.
       -2   -1    0    0    0  501  0.00000000000E+00  0.00000000000E+00 -0.17929225103E+04  0.17929225103E+04  0.25500000920E-02 0.  1.
    10030    2    1    2    0    0  0.00000000000E+00  0.00000000000E+00 -0.20516830247E+03  0.33806767180E+04  0.33744452936E+04 0.  0.
        5    1    3    3  502    0 -0.14659160781E+04 -0.47250237128E+03 -0.79271742199E+03  0.17322215331E+04  0.46999998093E+01 0.  1.
       -5    1    3    3    0  502  0.14659160781E+04  0.47250237128E+03  0.58754911952E+03  0.16484551849E+04  0.46999998093E+01 0. -1.
</event>
<event>
 5   0  0.4109937E-07  0.3039545E+04  0.7818609E-02  0.8232528E-01
       -1   -1    0    0    0  501  0.00000000000E+00  0.00000000000E+00  0.10481557348E+04  0.10481557348E+04  0.50400001928E-02 0.  1.
        1   -1    0    0  501    0  0.00000000000E+00  0.00000000000E+00 -0.22035930592E+04  0.22035930593E+04  0.50400001928E-02 0. -1.
    10030    2    1    2    0    0  0.00000000000E+00  0.00000000000E+00 -0.11554373244E+04  0.32517487941E+04  0.30395451648E+04 0.  0.
        5    1    3    3  502    0  0.13161179064E+04 -0.43028584224E+03 -0.12478481036E+04  0.18639901365E+04  0.46999998093E+01 0. -1.
       -5    1    3    3    0  502 -0.13161179064E+04  0.43028584224E+03  0.92410779124E+02  0.13877586576E+04  0.46999998093E+01 0.  1.
</event>
<event>
 5   0  0.4464951E-07  0.3401691E+04  0.7818609E-02  0.8137491E-01
       -1   -1    0    0    0  501  0.00000000000E+00  0.00000000000E+00  0.91101755569E+03  0.91101755570E+03  0.50400001928E-02 0.  1.
        1   -1    0    0  501    0  0.00000000000E+00  0.00000000000E+00 -0.31754331510E+04  0.31754331510E+04  0.50400001928E-02 0. -1.
    10030    2    1    2    0    0  0.00000000000E+00  0.00000000000E+00 -0.22644155953E+04  0.40864507067E+04  0.34016909604E+04 0.  0.
        3    1    3    3  502    0 -0.16915017020E+04  0.15545113894E+03 -0.10279485866E+04  0.19854524349E+04  0.10100000352E+00 0.  1.
       -3    1    3    3    0  502  0.16915017020E+04 -0.15545113894E+03 -0.12364670087E+04  0.21009982718E+04  0.10100000352E+00 0. -1.
</event>
<event>
 5   0  0.1256208E-06  0.3438268E+04  0.7818609E-02  0.8128578E-01
       -2   -1    0    0    0  501  0.00000000000E+00  0.00000000000E+00  0.15340666163E+04  0.15340666163E+04  0.25500000920E-02 0.  1.
        2   -1    0    0  501    0  0.00000000000E+00  0.00000000000E+00 -0.19265272442E+04  0.19265272442E+04  0.25500000920E-02 0. -1.
    10030    2    1    2    0    0  0.00000000000E+00  0.00000000000E+00 -0.39246062785E+03  0.34605938605E+04  0.34382676631E+04 0.  0.
        3    1    3    3  502    0 -0.37260548929E+03 -0.37693442470E+02 -0.18849707949E+04  0.19218143912E+04  0.10100000352E+00 0. -1.
       -3    1    3    3    0  502  0.37260548929E+03  0.37693442470E+02  0.14925101671E+04  0.15387794693E+04  0.10100000352E+00 0.  1.
</event>
<event>
 5   0  0.1269497E-06  0.3406730E+04  0.7818609E-02  0.8136256E-01
        2   -1    0    0  501    0  0.00000000000E+00  0.00000000000E+00  0.21275295598E+04  0.21275295598E+04  0.25500000920E-02 0. -1.
       -2   -1    0    0    0  501  0.00000000000E+00  0.00000000000E+00 -0.13637661979E+04  0.13637661979E+04  0.25500000920E-02 0.  1.
    10030    2    1    2    0    0  0.00000000000E+00  0.00000000000E+00  0.76376336192E+03  0.34912957578E+04  0.34067303379E+04 0.  0.
        5    1    3    3  502    0  0.15794217579E+04  0.63732587760E+03  0.40847668099E+03  0.17514658582E+04  0.46999998093E+01 0.  1.
       -5    1    3    3    0  502 -0.15794217579E+04 -0.63732587760E+03  0.35528668093E+03  0.17398298995E+04  0.46999998093E+01 0. -1.
</event>
<event>
 5   0  0.4109937E-07  0.3383997E+04  0.7818609E-02  0.8141845E-01
        1   -1    0    0  501    0  0.00000000000E+00  0.00000000000E+00  0.20759181167E+04  0.20759181167E+04  0.50400001928E-02 0. -1.
       -1   -1    0    0    0  501  0.00000000000E+00  0.00000000000E+00 -0.13790809098E+04  0.13790809098E+04  0.50400001928E-02 0.  1.
    10030    2    1    2    0    0  0.00000000000E+00  0.00000000000E+00  0.69683720687E+03  0.34549990265E+04  0.33839970716E+04 0.  0.
        5    1    3    3  502    0 -0.10968992900E+04  0.10701077282E+04  0.10807680979E+04  0.18752067549E+04  0.46999998093E+01 0. -1.
       -5    1    3    3    0  502  0.10968992900E+04 -0.10701077282E+04 -0.38393089099E+03  0.15797922716E+04  0.46999998093E+01 0.  1.
</event>
<event>
 5   0  0.4125758E-07  0.3412253E+04  0.7818609E-02  0.8134906E-01
       -1   -1    0    0    0  501  0.00000000000E+00  0.00000000000E+00  0.12597253287E+04  0.12597253287E+04  0.50400001928E-02 0. -1.
        1   -1    0    0  501    0  0.00000000000E+00  0.00000000000E+00 -0.23107158979E+04  0.23107158979E+04  0.50400001928E-02 0.  1.
    10030    2    1    2    0    0  0.00000000000E+00  0.00000000000E+00 -0.10509905692E+04  0.35704412266E+04  0.34122528301E+04 0.  0.
        2    1    3    3  502    0  0.10049597810E+04 -0.12999462985E+04 -0.10062090266E+04  0.19267229032E+04  0.25500000920E-02 0.  1.
       -2    1    3    3    0  502 -0.10049597810E+04  0.12999462985E+04 -0.44781542615E+02  0.16437183235E+04  0.25500000920E-02 0. -1.
</event>
<event>
 5   0  0.1277635E-06  0.3375985E+04  0.7818609E-02  0.8143826E-01
        2   -1    0    0  501    0  0.00000000000E+00  0.00000000000E+00  0.17464542183E+04  0.17464542183E+04  0.25500000920E-02 0. -1.
       -2   -1    0    0    0  501  0.00000000000E+00  0.00000000000E+00 -0.16314879705E+04  0.16314879705E+04  0.25500000920E-02 0.  1.
    10030    2    1    2    0    0  0.00000000000E+00  0.00000000000E+00  0.11496624775E+03  0.33779421888E+04  0.33759852181E+04 0.  0.
        4    1    3    3  502    0 -0.10743338955E+04  0.12819541246E+04  0.28503029492E+03  0.16967155267E+04  0.12699999809E+01 0. -1.
       -4    1    3    3    0  502  0.10743338955E+04 -0.12819541246E+04 -0.17006404717E+03  0.16812266621E+04  0.12699999809E+01 0.  1.
</event>
<event>
 5   0  0.1269497E-06  0.3416886E+04  0.7818609E-02  0.8133774E-01
       -2   -1    0    0    0  501  0.00000000000E+00  0.00000000000E+00  0.15536779693E+04  0.15536779693E+04  0.25500000920E-02 0. -1.
        2   -1    0    0  501    0  0.00000000000E+00  0.00000000000E+00 -0.18786250244E+04  0.18786250244E+04  0.25500000920E-02 0.  1.
    10030    2    1    2    0    0  0.00000000000E+00  0.00000000000E+00 -0.32494705504E+03  0.34323029937E+04  0.34168864851E+04 0.  0.
        5    1    3    3  502    0 -0.45869890537E+03 -0.56592879065E+03 -0.17147860214E+04  0.18631138642E+04  0.46999998093E+01 0.  1.
       -5    1    3    3    0  502  0.45869890537E+03  0.56592879065E+03  0.13898389663E+04  0.15691891295E+04  0.46999998093E+01 0. -1.
</event>
<event>
 5   0  0.4272633E-07  0.3410706E+04  0.7818609E-02  0.8135284E-01
       -1   -1    0    0    0  501  0.00000000000E+00  0.00000000000E+00  0.10512541481E+04  0.10512541481E+04  0.50400001928E-02 0. -1.
        1   -1    0    0  501    0  0.00000000000E+00  0.00000000000E+00 -0.27664367674E+04  0.27664367674E+04  0.50400001928E-02 0.  1.
    10030    2    1    2    0    0  0.00000000000E+00  0.00000000000E+00 -0.17151826193E+04  0.38176909155E+04  0.34107055734E+04 0.  0.
        1    1    3    3  502    0 -0.33605426809E+03 -0.14102470649E+04  0.14762242929E+03  0.14572308111E+04  0.50400001928E-02 0. -1.
       -1    1    3    3    0  502  0.33605426809E+03  0.14102470649E+04 -0.18628050486E+04  0.23604601043E+04  0.50400001928E-02 0.  1.
</event>
<event>
 5   0  0.1268230E-06  0.2888246E+04  0.7818609E-02  0.8276383E-01
        2   -1    0    0  501    0  0.00000000000E+00  0.00000000000E+00  0.20253638244E+04  0.20253638244E+04  0.25500000920E-02 0. -1.
       -2   -1    0    0    0  501  0.00000000000E+00  0.00000000000E+00 -0.10296873661E+04  0.10296873661E+04  0.25500000920E-02 0.  1.
    10030    2    1    2    0    0  0.00000000000E+00  0.00000000000E+00  0.99567645829E+03  0.30550511906E+04  0.28882462096E+04 0.  0.
        2    1    3    3  502    0  0.20331336071E+03 -0.33902156555E+03 -0.97134212412E+03  0.10487027542E+04  0.25500000920E-02 0.  1.
       -2    1    3    3    0  502 -0.20331336071E+03  0.33902156555E+03  0.19670185824E+04  0.20063484364E+04  0.25500000920E-02 0. -1.
</event>
<event>
 5   0  0.4125758E-07  0.3399725E+04  0.7818609E-02  0.8137974E-01
        1   -1    0    0  501    0  0.00000000000E+00  0.00000000000E+00  0.29148398885E+04  0.29148398885E+04  0.50400001928E-02 0.  1.
       -1   -1    0    0    0  501  0.00000000000E+00  0.00000000000E+00 -0.99131790199E+03  0.99131790200E+03  0.50400001928E-02 0. -1.
    10030    2    1    2    0    0  0.00000000000E+00  0.00000000000E+00  0.19235219865E+04  0.39061577905E+04  0.33997252612E+04 0.  0.
        2    1    3    3  502    0  0.67856050871E+03  0.74645234538E+03 -0.61021891918E+03  0.11789837137E+04  0.25500000920E-02 0. -1.
       -2    1    3    3    0  502 -0.67856050871E+03 -0.74645234538E+03  0.25337409057E+04  0.27271740768E+04  0.25500000920E-02 0.  1.
</event>
<event>
 5   0  0.1300176E-06  0.2856680E+04  0.7818609E-02  0.8285884E-01
        2   -1    0    0  501    0  0.00000000000E+00  0.00000000000E+00  0.26104237394E+04  0.26104237394E+04  0.25500000920E-02 0. -1.
       -2   -1    0    0    0  501  0.00000000000E+00  0.00000000000E+00 -0.78154153250E+03  0.78154153251E+03  0.25500000920E-02 0.  1.
    10030    2    1    2    0    0  0.00000000000E+00  0.00000000000E+00  0.18288822069E+04  0.33919652719E+04  0.28566795899E+04 0.  0.
        1    1    3    3  502    0 -0.35286122680E+02 -0.13409362869E+04  0.14971041911E+04  0.20101433269E+04  0.50400001928E-02 0. -1.
       -1    1    3    3    0  502  0.35286122680E+02  0.13409362869E+04  0.33177801584E+03  0.13818219450E+04  0.50400001928E-02 0.  1.
</event>
<event>
 5   0  0.4464951E-07  0.3393596E+04  0.7818609E-02  0.8139480E-01
       -1   -1    0    0    0  501  0.00000000000E+00  0.00000000000E+00  0.20038261820E+04  0.20038261821E+04  0.50400001928E-02 0.  1.
        1   -1    0    0  501    0  0.00000000000E+00  0.00000000000E+00 -0.14368132623E+04  0.14368132623E+04  0.50400001928E-02 0. -1.
    10030    2    1    2    0    0  0.00000000000E+00  0.00000000000E+00  0.56701291979E+03  0.34406394443E+04  0.33935963423E+04 0.  0.
        3    1    3    3  502    0  0.25234674367E+03  0.15604250343E+04 -0.34190678212E+03  0.16172524307E+04  0.10100000352E+00 0. -1.
       -3    1    3    3    0  502 -0.25234674367E+03 -0.15604250343E+04  0.90891970191E+03  0.18233870136E+04  0.10100000352E+00 0.  1.
</event>
<event>
 5   0  0.4464951E-07  0.3333105E+04  0.7818609E-02  0.8154523E-01
       -1   -1    0    0    0  501  0.00000000000E+00  0.00000000000E+00  0.19820833975E+04  0.19820833976E+04  0.50400001928E-02 0.  1.
        1   -1    0    0  501    0  0.00000000000E+00  0.00000000000E+00 -0.14012512662E+04  0.14012512662E+04  0.50400001928E-02 0. -1.
    10030    2    1    2    0    0  0.00000000000E+00  0.00000000000E+00  0.58083213134E+03  0.33833346638E+04  0.33331047812E+04 0.  0.
        3    1    3    3  502    0 -0.15008142294E+03 -0.85063117116E+03 -0.11562987302E+04  0.14433033591E+04  0.10100000352E+00 0. -1.
       -3    1    3    3    0  502  0.15008142294E+03  0.85063117116E+03  0.17371308615E+04  0.19400313047E+04  0.10100000352E+00 0.  1.
</event>
<event>
 5   0  0.1277635E-06  0.3392559E+04  0.7818609E-02  0.8139735E-01
        2   -1    0    0  501    0  0.00000000000E+00  0.00000000000E+00  0.21094144848E+04  0.21094144848E+04  0.25500000920E-02 0.  1.
       -2   -1    0    0    0  501  0.00000000000E+00  0.00000000000E+00 -0.13640578175E+04  0.13640578175E+04  0.25500000920E-02 0. -1.
    10030    2    1    2    0    0  0.00000000000E+00  0.00000000000E+00  0.74535666732E+03  0.34734723024E+04  0.33925585144E+04 0.  0.
        4    1    3    3  502    0 -0.78516318352E+03 -0.14153356670E+04  0.89243285778E+03  0.18482679171E+04  0.12699999809E+01 0.  1.
       -4    1    3    3    0  502  0.78516318352E+03  0.14153356670E+04 -0.14707619046E+03  0.16252043852E+04  0.12699999809E+01 0. -1.
</event>
<event>
 5   0  0.1300176E-06  0.3397102E+04  0.7818609E-02  0.8138618E-01
       -2   -1    0    0    0  501  0.00000000000E+00  0.00000000000E+00  0.11358544631E+04  0.11358544631E+04  0.25500000920E-02 0.  1.
        2   -1    0    0  501    0  0.00000000000E+00  0.00000000000E+00 -0.25400051699E+04  0.25400051699E+04  0.25500000920E-02 0. -1.
    10030    2    1    2    0    0  0.00000000000E+00  0.00000000000E+00 -0.14041507067E+04  0.36758596330E+04  0.33971024174E+04 0.  0.
        1    1    3    3  502    0  0.13681117200E+02 -0.11597546558E+04 -0.20448113752E+04  0.23508448683E+04  0.50400001928E-02 0. -1.
       -1    1    3    3    0  502 -0.13681117200E+02  0.11597546558E+04  0.64066066846E+03  0.13250147647E+04  0.50400001928E-02 0.  1.
</event>
<event>
 5   0  0.4125758E-07  0.3433422E+04  0.7818609E-02  0.8129752E-01
       -1   -1    0    0    0  501  0.00000000000E+00  0.00000000000E+00  0.15485909110E+04  0.15485909110E+04  0.50400001928E-02 0. -1.
        1   -1    0    0  501    0  0.00000000000E+00  0.00000000000E+00 -0.19030828107E+04  0.19030828107E+04  0.50400001928E-02 0.  1.
    10030    2    1    2    0    0  0.00000000000E+00  0.00000000000E+00 -0.35449189972E+03  0.34516737217E+04  0.34334220501E+04 0.  0.
        2    1    3    3  502    0  0.71683631429E+02 -0.55642858550E+03 -0.18083211472E+04  0.18933506503E+04  0.25500000920E-02 0.  1.
       -2    1    3    3    0  502 -0.71683631429E+02  0.55642858550E+03  0.14538292475E+04  0.15583230713E+04  0.25500000920E-02 0. -1.
</event>
<event>
 5   0  0.4289684E-07  0.3388209E+04  0.7818609E-02  0.8140806E-01
       -1   -1    0    0    0  501  0.00000000000E+00  0.00000000000E+00  0.19006328902E+04  0.19006328902E+04  0.50400001928E-02 0.  1.
        1   -1    0    0  501    0  0.00000000000E+00  0.00000000000E+00 -0.15100181011E+04  0.15100181011E+04  0.50400001928E-02 0. -1.
    10030    2    1    2    0    0  0.00000000000E+00  0.00000000000E+00  0.39061478918E+03  0.34106509913E+04  0.33882090064E+04 0.  0.
        4    1    3    3  502    0 -0.66113284424E+03 -0.98841094804E+03  0.14099210883E+04  0.18444326846E+04  0.12699999809E+01 0.  1.
       -4    1    3    3    0  502  0.66113284424E+03  0.98841094804E+03 -0.10193062991E+04  0.15662183067E+04  0.12699999809E+01 0. -1.
</event>
<event>
 5   0  0.4109937E-07  0.2944150E+04  0.7818609E-02  0.8259861E-01
       -1   -1    0    0    0  501  0.00000000000E+00  0.00000000000E+00  0.14403096186E+04  0.14403096186E+04  0.50400001928E-02 0. -1.
        1   -1    0    0  501    0  0.00000000000E+00  0.00000000000E+00 -0.15045414271E+04  0.15045414271E+04  0.50400001928E-02 0.  1.
    10030    2    1    2    0    0  0.00000000000E+00  0.00000000000E+00 -0.64231808563E+02  0.29448510457E+04  0.29441504643E+04 0.  0.
        5    1    3    3  502    0  0.28730002644E+03  0.14332451399E+04 -0.20608389316E+03  0.14762200369E+04  0.46999998093E+01 0.  1.
       -5    1    3    3    0  502 -0.28730002644E+03 -0.14332451399E+04  0.14185208460E+03  0.14686310088E+04  0.46999998093E+01 0. -1.
</event>
<event>
 5   0  0.1268230E-06  0.3400136E+04  0.7818609E-02  0.8137873E-01
        2   -1    0    0  501    0  0.00000000000E+00  0.00000000000E+00  0.12419586405E+04  0.12419586405E+04  0.25500000920E-02 0. -1.
       -2   -1    0    0    0  501  0.00000000000E+00  0.00000000000E+00 -0.23271551359E+04  0.23271551359E+04  0.25500000920E-02 0.  1.
    10030    2    1    2    0    0  0.00000000000E+00  0.00000000000E+00 -0.10851964954E+04  0.35691137764E+04  0.34001355437E+04 0.  0.
        2    1    3    3  502    0 -0.13845315437E+04  0.56796757063E+03 -0.13893571978E+04  0.20420157149E+04  0.25500000920E-02 0.  1.
       -2    1    3    3    0  502  0.13845315437E+04 -0.56796757063E+03  0.30416070235E+03  0.15270980616E+04  0.25500000920E-02 0. -1.
</event>
<event>
 5   0  0.4289684E-07  0.3416125E+04  0.7818609E-02  0.8133960E-01
       -1   -1    0    0    0  501  0.00000000000E+00  0.00000000000E+00  0.15861621639E+04  0.15861621639E+04  0.50400001928E-02 0.  1.
        1   -1    0    0  501    0  0.00000000000E+00  0.00000000000E+00 -0.18393309585E+04  0.18393309585E+04  0.50400001928E-02 0. -1.
    10030    2    1    2    0    0  0.00000000000E+00  0.00000000000E+00 -0.25316879460E+03  0.34254931224E+04  0.34161248065E+04 0.  0.
        4    1    3    3  502    0 -0.24563100241E+03  0.95961851440E+03 -0.15219007909E+04  0.18158705661E+04  0.12699999809E+01 0. -1.
       -4    1    3    3    0  502  0.24563100241E+03 -0.95961851440E+03  0.12687319963E+04  0.16096225563E+04  0.12699999809E+01 0.  1.
</event>
<event>
 5   0  0.1269497E-06  0.3419443E+04  0.7818609E-02  0.8133151E-01
       -2   -1    0    0    0  501  0.00000000000E+00  0.00000000000E+00  0.21119575428E+04  0.21119575428E+04  0.25500000920E-02 0. -1.
        2   -1    0    0  501    0  0.00000000000E+00  0.00000000000E+00 -0.13840940935E+04  0.13840940935E+04  0.25500000920E-02 0.  1.
    10030    2    1    2    0    0  0.00000000000E+00  0.00000000000E+00  0.72786344928E+03  0.34960516362E+04  0.34194432065E+04 0.  0.
        5    1    3    3  502    0  0.12407953009E+04  0.73864156372E+03 -0.57197913085E+03  0.15531730601E+04  0.46999998093E+01 0.  1.
       -5    1    3    3    0  502 -0.12407953009E+04 -0.73864156372E+03  0.12998425801E+04  0.19428785761E+04  0.46999998093E+01 0. -1.
</event>
<event>
 5   0  0.4109937E-07  0.3400531E+04  0.7818609E-02  0.8137776E-01
       -1   -1    0    0    0  501  0.00000000000E+00  0.00000000000E+00  0.14860500525E+04  0.14860500525E+04  0.50400001928E-02 0. -1.
        1   -1    0    0  501    0  0.00000000000E+00  0.00000000000E+00 -0.19453607904E+04  0.19453607904E+04  0.50400001928E-02 0.  1.
    10030    2    1    2    0    0  0.00000000000E+00  0.00000000000E+00 -0.45931073794E+03  0.34314108429E+04  0.34005314318E+04 0.  0.
        5    1    3    3  502    0 -0.90853895146E+02  0.15741116117E+04 -0.87167154866E+03  0.18016423549E+04  0.46999998093E+01 0.  1.
       -5    1    3    3    0  502  0.90853895146E+02 -0.15741116117E+04  0.41236081072E+03  0.16297684880E+04  0.46999998093E+01 0. -1.
</event>
<event>
 5   0  0.4272633E-07  0.3404399E+04  0.7818609E-02  0.8136827E-01
       -1   -1    0    0    0  501  0.00000000000E+00  0.00000000000E+00  0.18094307950E+04  0.18094307950E+04  0.50400001928E-02 0.  1.
        1   -1    0    0  501    0  0.00000000000E+00  0.00000000000E+00 -0.16013234083E+04  0.16013234083E+04  0.50400001928E-02 0. -1.
    10030    2    1    2    0    0  0.00000000000E+00  0.00000000000E+00  0.20810738670E+03  0.34107542033E+04  0.34043994406E+04 0.  0.
        1    1    3    3  502    0  0.97415146765E+03  0.39114389200E+03 -0.12384174114E+04  0.16234661410E+04  0.50400001928E-02 0. -1.
       -1    1    3    3    0  502 -0.97415146765E+03 -0.39114389200E+03  0.14465247981E+04  0.17872880623E+04  0.50400001928E-02 0.  1.
</event>
<event>
 5   0  0.1268230E-06  0.3406966E+04  0.7818609E-02  0.8136199E-01
        2   -1    0    0  501    0  0.00000000000E+00  0.00000000000E+00  0.23617161249E+04  0.23617161249E+04  0.25500000920E-02 0. -1.
       -2   -1    0    0    0  501  0.00000000000E+00  0.00000000000E+00 -0.12287061627E+04  0.12287061627E+04  0.25500000920E-02 0.  1.
    10030    2    1    2    0    0  0.00000000000E+00  0.00000000000E+00  0.11330099622E+04  0.35904222875E+04  0.34069664848E+04 0.  0.
        2    1    3    3  502    0 -0.11709715615E+04 -0.11698011676E+04  0.99099223333E+03  0.19291642688E+04  0.25500000920E-02 0. -1.
       -2    1    3    3    0  502  0.11709715615E+04  0.11698011676E+04  0.14201772888E+03  0.16612580187E+04  0.25500000920E-02 0.  1.
</event>
<event>
 5   0  0.4109937E-07  0.3439300E+04  0.7818609E-02  0.8128328E-01
       -1   -1    0    0    0  501  0.00000000000E+00  0.00000000000E+00  0.21910822900E+04  0.21910822900E+04  0.50400001928E-02 0. -1.
        1   -1    0    0  501    0  0.00000000000E+00  0.00000000000E+00 -0.13496508522E+04  0.13496508522E+04  0.50400001928E-02 0.  1.
    10030    2    1    2    0    0  0.00000000000E+00  0.00000000000E+00  0.84143143779E+03  0.35407331422E+04  0.34392999753E+04 0.  0.
        5    1    3    3  502    0  0.12516902952E+04 -0.10687010090E+04  0.93373311535E+03  0.18922817079E+04  0.46999998093E+01 0. -1.
       -5    1    3    3    0  502 -0.12516902952E+04  0.10687010090E+04 -0.92301677561E+02  0.16484514343E+04  0.46999998093E+01 0.  1.
</event>
<event>
 5   0  0.1300176E-06  0.3423892E+04  0.7818609E-02  0.8132067E-01
        2   -1    0    0  501    0  0.00000000000E+00  0.00000000000E+00  0.21836601492E+04  0.21836601492E+04  0.25500000920E-02 0.  1.
       -2   -1    0    0    0  501  0.00000000000E+00  0.00000000000E+00 -0.13421315796E+04  0.13421315796E+04  0.25500000920E-02 0. -1.
    10030    2    1    2    0    0  0.00000000000E+00  0.00000000000E+00  0.84152856964E+03  0.35257917288E+04  0.34238920808E+04 0.  0.
        1    1    3    3  502    0 -0.15285313999E+04  0.11145214192E+03  0.12063105097E+04  0.19503883886E+04  0.50400001928E-02 0.  1.
       -1    1    3    3    0  502  0.15285313999E+04 -0.11145214192E+03 -0.36478194007E+03  0.15754033402E+04  0.50400001928E-02 0. -1.
</event>
<event>
 5   0  0.4272633E-07  0.3402182E+04  0.7818609E-02  0.8137371E-01
        1   -1    0    0  501    0  0.00000000000E+00  0.00000000000E+00  0.20940068552E+04  0.20940068552E+04  0.50400001928E-02 0.  1.
       -1   -1    0    0    0  501  0.00000000000E+00  0.00000000000E+00 -0.13819012217E+04  0.13819012217E+04  0.50400001928E-02 0. -1.
    10030    2    1    2    0    0  0.00000000000E+00  0.00000000000E+00  0.71210563344E+03  0.34759080769E+04  0.34021820242E+04 0.  0.
        1    1    3    3  502    0  0.86643857311E+02  0.31964109319E+03 -0.13486470609E+04  0.13887139667E+04  0.50400001928E-02 0. -1.
       -1    1    3    3    0  502 -0.86643857311E+02 -0.31964109319E+03  0.20607526943E+04  0.20871941102E+04  0.50400001928E-02 0.  1.
</event>
<event>
 5   0  0.4125758E-07  0.2761077E+04  0.7818609E-02  0.8315455E-01
       -1   -1    0    0    0  501  0.00000000000E+00  0.00000000000E+00  0.10245705029E+04  0.10245705029E+04  0.50400001928E-02 0.  1.
        1   -1    0    0  501    0  0.00000000000E+00  0.00000000000E+00 -0.18601811395E+04  0.18601811395E+04  0.50400001928E-02 0. -1.
    10030    2    1    2    0    0  0.00000000000E+00  0.00000000000E+00 -0.83561063663E+03  0.28847516424E+04  0.27610771272E+04 0.  0.
        2    1    3    3  502    0 -0.12832589350E+04  0.24134938041E+03  0.50471058042E+02  0.13067326985E+04  0.25500000920E-02 0.  1.
       -2    1    3    3    0  502  0.12832589350E+04 -0.24134938041E+03 -0.88608169467E+03  0.15780189439E+04  0.25500000920E-02 0. -1.
</event>
<event>
 5   0  0.1277635E-06  0.3244841E+04  0.7818609E-02  0.8177074E-01
       -2   -1    0    0    0  501  0.00000000000E+00  0.00000000000E+00  0.19819678969E+04  0.19819678969E+04  0.25500000920E-02 0.  1.
        2   -1    0    0  501    0  0.00000000000E+00  0.00000000000E+00 -0.13280979582E+04  0.13280979582E+04  0.25500000920E-02 0. -1.
    10030    2    1    2    0    0  0.00000000000E+00  0.00000000000E+00  0.65386993868E+03  0.33100658551E+04  0.32448405305E+04 0.  0.
        4    1    3    3  502    0  0.25554388923E+03  0.12506296783E+04 -0.69462837268E+03  0.14532334501E+04  0.12699999809E+01 0. -1.
       -4    1    3    3    0  502 -0.25554388923E+03 -0.12506296783E+04  0.13484983114E+04  0.18568324050E+04  0.12699999809E+01 0.  1.
</event>
<event>
 5   0  0.1268230E-06  0.3413301E+04  0.7818609E-02  0.8134649E-01
        2   -1    0    0  501    0  0.00000000000E+00  0.00000000000E+00  0.17870889933E+04  0.17870889933E+04  0.25500000920E-02 0. -1.
       -2   -1    0    0    0  501  0.00000000000E+00  0.00000000000E+00 -0.16298329070E+04  0.16298329070E+04  0.25500000920E-02 0.  1.
    10030    2    1    2    0    0  0.00000000000E+00  0.00000000000E+00  0.15725608632E+03  0.34169219004E+04  0.34133013047E+04 0.  0.
        2    1    3    3  502    0 -0.10073998879E+02 -0.16051917300E+04 -0.50156802842E+03  0.16817587410E+04  0.25500000920E-02 0.  1.
       -2    1    3    3    0  502  0.10073998879E+02  0.16051917300E+04  0.65882411474E+03  0.17351631594E+04  0.25500000920E-02 0. -1.
</event>
<event>
 5   0  0.1277635E-06  0.3414026E+04  0.7818609E-02  0.8134472E-01
        2   -1    0    0  501    0  0.00000000000E+00  0.00000000000E+00  0.23875093482E+04  0.23875093482E+04  0.25500000920E-02 0.  1.
       -2   -1    0    0    0  501  0.00000000000E+00  0.00000000000E+00 -0.12204742151E+04  0.12204742151E+04  0.25500000920E-02 0. -1.
    10030    2    1    2    0    0  0.00000000000E+00  0.00000000000E+00  0.11670351331E+04  0.36079835634E+04  0.34140261264E+04 0.  0.
        4    1    3    3  502    0  0.10561495713E+04 -0.12077904847E+04 -0.32416341483E+02  0.16047623513E+04  0.12699999809E+01 0. -1.
       -4    1    3    3    0  502 -0.10561495713E+04  0.12077904847E+04  0.11994514746E+04  0.20032212121E+04  0.12699999809E+01 0.  1.
</event>
<event>
 5   0  0.4125758E-07  0.3350367E+04  0.7818609E-02  0.8150196E-01
       -1   -1    0    0    0  501  0.00000000000E+00  0.00000000000E+00  0.15612890933E+04  0.15612890933E+04  0.50400001928E-02 0.  1.
        1   -1    0    0  501    0  0.00000000000E+00  0.00000000000E+00 -0.17973862789E+04  0.17973862789E+04  0.50400001928E-02 0. -1.
    10030    2    1    2    0    0  0.00000000000E+00  0.00000000000E+00 -0.23609718555E+03  0.33586753722E+04  0.33503669016E+04 0.  0.
        2    1    3    3  502    0 -0.42906187100E+03 -0.48404029409E+03 -0.16671477811E+04  0.17882311986E+04  0.25500000920E-02 0. -1.
       -2    1    3    3    0  502  0.42906187100E+03  0.48404029409E+03  0.14310505956E+04  0.15704441737E+04  0.25500000920E-02 0.  1.
</event>
<event>
 5   0  0.1300176E-06  0.3434553E+04  0.7818609E-02  0.8129478E-01
        2   -1    0    0  501    0  0.00000000000E+00  0.00000000000E+00  0.19566095468E+04  0.19566095468E+04  0.25500000920E-02 0.  1.
       -2   -1    0    0    0  501  0.00000000000E+00  0.00000000000E+00 -0.15072187999E+04  0.15072187999E+04  0.25500000920E-02 0. -1.
    10030    2    1    2    0    0  0.00000000000E+00  0.00000000000E+00  0.44939074689E+03  0.34638283467E+04  0.34345530673E+04 0.  0.
        1    1    3    3  502    0 -0.88622759371E+03  0.73916479290E+03  0.15072563875E+04  0.18983112907E+04  0.50400001928E-02 0.  1.
       -1    1    3    3    0  502  0.88622759371E+03 -0.73916479290E+03 -0.10578656406E+04  0.15655170559E+04  0.50400001928E-02 0. -1.
</event>
<event>
 5   0  0.4289684E-07  0.3418341E+04  0.7818609E-02  0.8133419E-01
        1   -1    0    0  501    0  0.00000000000E+00  0.00000000000E+00  0.13014972665E+04  0.13014972665E+04  0.50400001928E-02 0. -1.
       -1   -1    0    0    0  501  0.00000000000E+00  0.00000000000E+00 -0.22445410240E+04  0.22445410240E+04  0.50400001928E-02 0.  1.
    10030    2    1    2    0    0  0.00000000000E+00  0.00000000000E+00 -0.94304375750E+03  0.35460382905E+04  0.34183411224E+04 0.  0.
        4    1    3    3  502    0 -0.32881987257E+03 -0.11737450008E+04  0.77134311498E+03  0.14424880066E+04  0.12699999809E+01 0. -1.
       -4    1    3    3    0  502  0.32881987257E+03  0.11737450008E+04 -0.17143868725E+04  0.21035502839E+04  0.12699999809E+01 0.  1.
</event>
<event>
 5   0  0.4125758E-07  0.3408342E+04  0.7818609E-02  0.8135862E-01
        1   -1    0    0  501    0  0.00000000000E+00  0.00000000000E+00  0.21963696789E+04  0.21963696789E+04  0.50400001928E-02 0. -1.
       -1   -1    0    0    0  501  0.00000000000E+00  0.00000000000E+00 -0.13222723444E+04  0.13222723444E+04  0.50400001928E-02 0.  1.
    10030    2    1    2    0    0  0.00000000000E+00  0.00000000000E+00  0.87409733451E+03  0.35186420233E+04  0.34083420512E+04 0.  0.
        2    1    3    3  502    0 -0.11684100413E+04  0.12383962479E+04  0.51285237643E+03  0.17781520890E+04  0.25500000920E-02 0.  1.
       -2    1    3    3    0  502  0.11684100413E+04 -0.12383962479E+04  0.36124495808E+03  0.17404899343E+04  0.25500000920E-02 0. -1.
</event>
<event>
 5   0  0.4272633E-07  0.3375487E+04  0.7818609E-02  0.8143949E-01
       -1   -1    0    0    0  501  0.00000000000E+00  0.00000000000E+00  0.32842624296E+04  0.32842624296E+04  0.50400001928E-02 0. -1.
        1   -1    0    0  501    0  0.00000000000E+00  0.00000000000E+00 -0.86731134202E+03  0.86731134203E+03  0.50400001928E-02 0.  1.
    10030    2    1    2    0    0  0.00000000000E+00  0.00000000000E+00  0.24169510876E+04  0.41515737716E+04  0.33754869607E+04 0.  0.
        1    1    3    3  502    0 -0.66182625362E+03 -0.10749765443E+04  0.25862529756E+04  0.28778973253E+04  0.50400001928E-02 0. -1.
       -1    1    3    3    0  502  0.66182625362E+03  0.10749765443E+04 -0.16930188805E+03  0.12736764464E+04  0.50400001928E-02 0.  1.
</event>
<event>
 5   0  0.1300176E-06  0.3103179E+04  0.7818609E-02  0.8214866E-01
        2   -1    0    0  501    0  0.00000000000E+00  0.00000000000E+00  0.16862818847E+04  0.16862818847E+04  0.25500000920E-02 0. -1.
       -2   -1    0    0    0  501  0.00000000000E+00  0.00000000000E+00 -0.14276555806E+04  0.14276555806E+04  0.25500000920E-02 0.  1.
    10030    2    1    2    0    0  0.00000000000E+00  0.00000000000E+00  0.25862630403E+03  0.31139374653E+04  0.31031788496E+04 0.  0.
        1    1    3    3  502    0  0.99578818692E+03  0.21942299309E+03 -0.10442238450E+04  0.14595012852E+04  0.50400001928E-02 0.  1.
       -1    1    3    3    0  502 -0.99578818692E+03 -0.21942299309E+03  0.13028501490E+04  0.16544361801E+04  0.50400001928E-02 0. -1.
</event>
<event>
 5   0  0.4464951E-07  0.3400239E+04  0.7818609E-02  0.8137848E-01
        1   -1    0    0  501    0  0.00000000000E+00  0.00000000000E+00  0.16850696443E+04  0.16850696443E+04  0.50400001928E-02 0.  1.
       -1   -1    0    0    0  501  0.00000000000E+00  0.00000000000E+00 -0.17153033389E+04  0.17153033389E+04  0.50400001928E-02 0. -1.
    10030    2    1    2    0    0  0.00000000000E+00  0.00000000000E+00 -0.30233694585E+02  0.34003729832E+04  0.34002385723E+04 0.  0.
        3    1    3    3  502    0 -0.11421359617E+04 -0.35275560895E+03  0.11938538098E+04  0.16894371856E+04  0.10100000352E+00 0.  1.
       -3    1    3    3    0  502  0.11421359617E+04  0.35275560895E+03 -0.12240875044E+04  0.17109357975E+04  0.10100000352E+00 0. -1.
</event>
<event>
 5   0  0.4109937E-07  0.3390208E+04  0.7818609E-02  0.8140314E-01
       -1   -1    0    0    0  501  0.00000000000E+00  0.00000000000E+00  0.12447217366E+04  0.12447217366E+04  0.50400001928E-02 0.  1.
        1   -1    0    0  501    0  0.00000000000E+00  0.00000000000E+00 -0.23084495720E+04  0.23084495720E+04  0.50400001928E-02 0. -1.
    10030    2    1    2    0    0  0.00000000000E+00  0.00000000000E+00 -0.10637278354E+04  0.35531713087E+04  0.33902078758E+04 0.  0.
        5    1    3    3  502    0 -0.16605891664E+03 -0.55579099130E+03  0.11374554992E+04  0.12768344812E+04  0.46999998093E+01 0.  1.
       -5    1    3    3    0  502  0.16605891664E+03  0.55579099130E+03 -0.22011833345E+04  0.22763368274E+04  0.46999998093E+01 0. -1.
</event>
<event>
 5   0  0.4464951E-07  0.3414472E+04  0.7818609E-02  0.8134364E-01
       -1   -1    0    0    0  501  0.00000000000E+00  0.00000000000E+00  0.14892190681E+04  0.14892190681E+04  0.50400001928E-02 0.  1.
        1   -1    0    0  501    0  0.00000000000E+00  0.00000000000E+00 -0.19571694717E+04  0.19571694717E+04  0.50400001928E-02 0. -1.
    10030    2    1    2    0    0  0.00000000000E+00  0.00000000000E+00 -0.46795040356E+03  0.34463885399E+04  0.34144716118E+04 0.  0.
        3    1    3    3  502    0  0.40160871112E+03  0.12365585530E+04  0.88284287391E+03  0.15715527869E+04  0.10100000352E+00 0.  1.
       -3    1    3    3    0  502 -0.40160871112E+03 -0.12365585530E+04 -0.13507932775E+04  0.18748357529E+04  0.10100000352E+00 0. -1.
</event>
<event>
 5   0  0.1268230E-06  0.3401240E+04  0.7818609E-02  0.8137602E-01
        2   -1    0    0  501    0  0.00000000000E+00  0.00000000000E+00  0.21589782054E+04  0.21589782054E+04  0.25500000920E-02 0.  1.
       -2   -1    0    0    0  501  0.00000000000E+00  0.00000000000E+00 -0.13395728133E+04  0.13395728133E+04  0.25500000920E-02 0. -1.
    10030    2    1    2    0    0  0.00000000000E+00  0.00000000000E+00  0.81940539211E+03  0.34985510186E+04  0.34012400729E+04 0.  0.
        2    1    3    3  502    0  0.75327593371E+02  0.22965872900E+03 -0.13218159780E+04  0.13437316912E+04  0.25500000920E-02 0. -1.
       -2    1    3    3    0  502 -0.75327593371E+02 -0.22965872900E+03  0.21412213701E+04  0.21548193275E+04  0.25500000920E-02 0.  1.
</event>
<event>
 5   0  0.1268230E-06  0.3403684E+04  0.7818609E-02  0.8137003E-01
       -2   -1    0    0    0  501  0.00000000000E+00  0.00000000000E+00  0.14932270239E+04  0.14932270239E+04  0.25500000920E-02 0.  1.
        2   -1    0    0  501    0  0.00000000000E+00  0.00000000000E+00 -0.19396019451E+04  0.19396019451E+04  0.25500000920E-02 0. -1.
    10030    2    1    2    0    0  0.00000000000E+00  0.00000000000E+00 -0.44637492128E+03  0.34328289690E+04  0.34036839101E+04 0.  0.
        2    1    3    3  502    0  0.14508822016E+04 -0.13615165429E+03 -0.11097305704E+04  0.18316927621E+04  0.25500000920E-02 0. -1.
       -2    1    3    3    0  502 -0.14508822016E+04  0.13615165429E+03  0.66335564911E+03  0.16011362069E+04  0.25500000920E-02 0.  1.
</event>
<event>
 5   0  0.1277635E-06  0.3415724E+04  0.7818609E-02  0.8134058E-01
        2   -1    0    0  501    0  0.00000000000E+00  0.00000000000E+00  0.22999962933E+04  0.22999962933E+04  0.25500000920E-02 0. -1.
       -2   -1    0    0    0  501  0.00000000000E+00  0.00000000000E+00 -0.12681729977E+04  0.12681729977E+04  0.25500000920E-02 0.  1.
    10030    2    1    2    0    0  0.00000000000E+00  0.00000000000E+00  0.10318232956E+04  0.35681692910E+04  0.34157243413E+04 0.  0.
        4    1    3    3  502    0  0.11749935968E+03  0.14110220275E+04  0.15135212210E+04  0.20725678181E+04  0.12699999809E+01 0. -1.
       -4    1    3    3    0  502 -0.11749935968E+03 -0.14110220275E+04 -0.48169792538E+03  0.14956014729E+04  0.12699999809E+01 0.  1.
</event>
<event>
 5   0  0.4464951E-07  0.3376645E+04  0.7818609E-02  0.8143662E-01
       -1   -1    0    0    0  501  0.00000000000E+00  0.00000000000E+00  0.18738298570E+04  0.18738298570E+04  0.50400001928E-02 0. -1.
        1   -1    0    0  501    0  0.00000000000E+00  0.00000000000E+00 -0.15211799091E+04  0.15211799091E+04  0.50400001928E-02 0.  1.
    10030    2    1    2    0    0  0.00000000000E+00  0.00000000000E+00  0.35264994789E+03  0.33950097661E+04  0.33766446846E+04 0.  0.
        3    1    3    3  502    0 -0.18736717826E+03  0.18539952883E+02  0.18632410841E+04  0.18727299691E+04  0.10100000352E+00 0. -1.
       -3    1    3    3    0  502  0.18736717826E+03 -0.18539952883E+02 -0.15105911362E+04  0.15222797970E+04  0.10100000352E+00 0.  1.
</event>
<event>
 5   0  0.4289684E-07  0.3386692E+04  0.7818609E-02  0.8141180E-01
        1   -1    0    0  501    0  0.00000000000E+00  0.00000000000E+00  0.20302757368E+04  0.20302757368E+04  0.50400001928E-02 0.  1.
       -1   -1    0    0    0  501  0.00000000000E+00  0.00000000000E+00 -0.14123308368E+04  0.14123308368E+04  0.50400001928E-02 0. -1.
    10030    2    1    2    0    0  0.00000000000E+00  0.00000000000E+00  0.61794489994E+03  0.34426065736E+04  0.33866922094E+04 0.  0.
        4    1    3    3  502    0 -0.26492063482E+03  0.16690637776E+04  0.41780351366E+03  0.17408383685E+04  0.12699999809E+01 0.  1.
       -4    1    3    3    0  502  0.26492063482E+03 -0.16690637776E+04  0.20014138628E+03  0.17017682051E+04  0.12699999809E+01 0. -1.
</event>
<event>
 5   0  0.1269497E-06  0.3112024E+04  0.7818609E-02  0.8212446E-01
        2   -1    0    0  501    0  0.00000000000E+00  0.00000000000E+00  0.18215011312E+04  0.18215011312E+04  0.25500000920E-02 0. -1.
       -2   -1    0    0    0  501  0.00000000000E+00  0.00000000000E+00 -0.13292182732E+04  0.13292182732E+04  0.25500000920E-02 0.  1.
    10030    2    1    2    0    0  0.00000000000E+00  0.00000000000E+00  0.49228285803E+03  0.31507194044E+04  0.31120235142E+04 0.  0.
        5    1    3    3  502    0 -0.70077577225E+03  0.21107003397E+03  0.16363554135E+04  0.17925731146E+04  0.46999998093E+01 0. -1.
       -5    1    3    3    0  502  0.70077577225E+03 -0.21107003397E+03 -0.11440725554E+04  0.13581462897E+04  0.46999998093E+01 0.  1.
</event>
<event>
 5   0  0.4109937E-07  0.3395027E+04  0.7818609E-02  0.8139128E-01
       -1   -1    0    0    0  501  0.00000000000E+00  0.00000000000E+00  0.14391401358E+04  0.14391401358E+04  0.50400001928E-02 0. -1.
        1   -1    0    0  501    0  0.00000000000E+00  0.00000000000E+00 -0.20022735789E+04  0.20022735789E+04  0.50400001928E-02 0.  1.
    10030    2    1    2    0    0  0.00000000000E+00  0.00000000000E+00 -0.56313344309E+03  0.34414137147E+04  0.33950271105E+04 0.  0.
        5    1    3    3  502    0  0.23590411542E+03 -0.74462874941E+03 -0.18092775673E+04  0.19706928050E+04  0.46999998093E+01 0.  1.
       -5    1    3    3    0  502 -0.23590411542E+03  0.74462874941E+03  0.12461441242E+04  0.14707209097E+04  0.46999998093E+01 0. -1.
</event>
<event>
 5   0  0.4125758E-07  0.3394250E+04  0.7818609E-02  0.8139319E-01
        1   -1    0    0  501    0  0.00000000000E+00  0.00000000000E+00  0.17469739464E+04  0.17469739464E+04  0.50400001928E-02 0.  1.
       -1   -1    0    0    0  501  0.00000000000E+00  0.00000000000E+00 -0.16486985112E+04  0.16486985113E+04  0.50400001928E-02 0. -1.
    10030    2    1    2    0    0  0.00000000000E+00  0.00000000000E+00  0.98275435122E+02  0.33956724576E+04  0.33942500465E+04 0.  0.
        2    1    3    3  502    0 -0.16592037193E+04 -0.33417190118E+03  0.17411205495E+03  0.17014531582E+04  0.25500000920E-02 0.  1.
       -2    1    3    3    0  502  0.16592037193E+04  0.33417190118E+03 -0.75836619824E+02  0.16942192995E+04  0.25500000920E-02 0. -1.
</event>
<event>
 5   0  0.1256208E-06  0.3287335E+04  0.7818609E-02  0.8166126E-01
        2   -1    0    0  501    0  0.00000000000E+00  0.00000000000E+00  0.19923062606E+04  0.19923062606E+04  0.25500000920E-02 0. -1.
       -2   -1    0    0    0  501  0.00000000000E+00  0.00000000000E+00 -0.13560377207E+04  0.13560377207E+04  0.25500000920E-02 0.  1.
    10030    2    1    2    0    0  0.00000000000E+00  0.00000000000E+00  0.63626853989E+03  0.33483439813E+04  0.32873347505E+04 0.  0.
        3    1    3    3  502    0 -0.10249227411E+04  0.12548485986E+04  0.36358099843E+02  0.16206275181E+04  0.10100000352E+00 0.  1.
       -3    1    3    3    0  502  0.10249227411E+04 -0.12548485986E+04  0.59991044005E+03  0.17277164632E+04  0.10100000352E+00 0. -1.
</event>
<event>
 5   0  0.4464951E-07  0.3381032E+04  0.7818609E-02  0.8142577E-01
        1   -1    0    0  501    0  0.00000000000E+00  0.00000000000E+00  0.21456530977E+04  0.21456530977E+04  0.50400001928E-02 0. -1.
       -1   -1    0    0    0  501  0.00000000000E+00  0.00000000000E+00 -0.13319226098E+04  0.13319226098E+04  0.50400001928E-02 0.  1.
    10030    2    1    2    0    0  0.00000000000E+00  0.00000000000E+00  0.81373048788E+03  0.34775757076E+04  0.33810317205E+04 0.  0.
        3    1    3    3  502    0 -0.91566692456E+03 -0.24919503396E+02 -0.10545428842E+04  0.13968276927E+04  0.10100000352E+00 0.  1.
       -3    1    3    3    0  502  0.91566692456E+03  0.24919503396E+02  0.18682733721E+04  0.20807480149E+04  0.10100000352E+00 0. -1.
</event>
<event>
 5   0  0.4464951E-07  0.3479424E+04  0.7818609E-02  0.8118684E-01
       -1   -1    0    0    0  501  0.00000000000E+00  0.00000000000E+00  0.15107309312E+04  0.15107309312E+04  0.50400001928E-02 0.  1.
        1   -1    0    0  501    0  0.00000000000E+00  0.00000000000E+00 -0.20033998059E+04  0.20033998059E+04  0.50400001928E-02 0. -1.
    10030    2    1    2    0    0  0.00000000000E+00  0.00000000000E+00 -0.49266887473E+03  0.35141307372E+04  0.34794241216E+04 0.  0.
        3    1    3    3  502    0  0.11197352762E+04  0.40867095076E+03  0.10334989425E+04  0.15776371918E+04  0.10100000352E+00 0.  1.
       -3    1    3    3    0  502 -0.11197352762E+04 -0.40867095076E+03 -0.15261678172E+04  0.19364935453E+04  0.10100000352E+00 0. -1.
</event>
<event>
 5   0  0.4464951E-07  0.3397490E+04  0.7818609E-02  0.8138523E-01
        1   -1    0    0  501    0  0.00000000000E+00  0.00000000000E+00  0.17827937756E+04  0.17827937756E+04  0.50400001928E-02 0.  1.
       -1   -1    0    0    0  501  0.00000000000E+00  0.00000000000E+00 -0.16186589180E+04  0.16186589180E+04  0.50400001928E-02 0. -1.
    10030    2    1    2    0    0  0.00000000000E+00  0.00000000000E+00  0.16413485758E+03  0.34014526935E+04  0.33974902759E+04 0.  0.
        3    1    3    3  502    0 -0.63079146094E+03 -0.15764340671E+04  0.13402013139E+03  0.17032332902E+04  0.10100000352E+00 0. -1.
       -3    1    3    3    0  502  0.63079146094E+03  0.15764340671E+04  0.30114726194E+02  0.16982194033E+04  0.10100000352E+00 0.  1.
</event>
<event>
 5   0  0.4125758E-07  0.3397034E+04  0.7818609E-02  0.8138635E-01
        1   -1    0    0  501    0  0.00000000000E+00  0.00000000000E+00  0.12126090369E+04  0.12126090369E+04  0.50400001928E-02 0. -1.
       -1   -1    0    0    0  501  0.00000000000E+00  0.00000000000E+00 -0.23791342800E+04  0.23791342800E+04  0.50400001928E-02 0.  1.
    10030    2    1    2    0    0  0.00000000000E+00  0.00000000000E+00 -0.11665252431E+04  0.35917433169E+04  0.33970338403E+04 0.  0.
        2    1    3    3  502    0  0.46597527698E+03 -0.11552542730E+04  0.63756797844E+03  0.13993706876E+04  0.25500000920E-02 0. -1.
       -2    1    3    3    0  502 -0.46597527698E+03  0.11552542730E+04 -0.18040932215E+04  0.21923726294E+04  0.25500000920E-02 0.  1.
</event>
<event>
 5   0  0.4289684E-07  0.3390432E+04  0.7818609E-02  0.8140259E-01
        1   -1    0    0  501    0  0.00000000000E+00  0.00000000000E+00  0.23564671066E+04  0.23564671066E+04  0.50400001928E-02 0.  1.
       -1   -1    0    0    0  501  0.00000000000E+00  0.00000000000E+00 -0.12195195524E+04  0.12195195524E+04  0.50400001928E-02 0. -1.
    10030    2    1    2    0    0  0.00000000000E+00  0.00000000000E+00  0.11369475542E+04  0.35759866590E+04  0.33904322504E+04 0.  0.
        4    1    3    3  502    0 -0.33792481738E+03  0.12633535191E+04 -0.56921680476E+03  0.14262765090E+04  0.12699999809E+01 0. -1.
       -4    1    3    3    0  502  0.33792481738E+03 -0.12633535191E+04  0.17061643589E+04  0.21497101500E+04  0.12699999809E+01 0.  1.
</event>
<event>
 5   0  0.4289684E-07  0.3062310E+04  0.7818609E-02  0.8226158E-01
       -1   -1    0    0    0  501  0.00000000000E+00  0.00000000000E+00  0.27206903302E+04  0.27206903302E+04  0.50400001928E-02 0. -1.
        1   -1    0    0  501    0  0.00000000000E+00  0.00000000000E+00 -0.86170636339E+03  0.86170636341E+03  0.50400001928E-02 0.  1.
    10030    2    1    2    0    0  0.00000000000E+00  0.00000000000E+00  0.18589839668E+04  0.35823966936E+04  0.30623103503E+04 0.  0.
        4    1    3    3  502    0 -0.12723829546E+04 -0.62029921245E+03  0.16123238266E+04  0.21455347191E+04  0.12699999809E+01 0. -1.
       -4    1    3    3    0  502  0.12723829546E+04  0.62029921245E+03  0.24666014015E+03  0.14368619745E+04  0.12699999809E+01 0.  1.
</event>
<event>
 5   0  0.1256208E-06  0.3400531E+04  0.7818609E-02  0.8137776E-01
       -2   -1    0    0    0  501  0.00000000000E+00  0.00000000000E+00  0.13524073060E+04  0.13524073060E+04  0.25500000920E-02 0. -1.
        2   -1    0    0  501    0  0.00000000000E+00  0.00000000000E+00 -0.21375971622E+04  0.21375971622E+04  0.25500000920E-02 0.  1.
    10030    2    1    2    0    0  0.00000000000E+00  0.00000000000E+00 -0.78518985621E+03  0.34900044682E+04  0.34005305582E+04 0.  0.
        3    1    3    3  502    0  0.12985911417E+04 -0.10774049675E+04 -0.17789798709E+03  0.16966991841E+04  0.10100000352E+00 0. -1.
       -3    1    3    3    0  502 -0.12985911417E+04  0.10774049675E+04 -0.60729186912E+03  0.17933052841E+04  0.10100000352E+00 0.  1.
</event>
<event>
 5   0  0.1277635E-06  0.3392634E+04  0.7818609E-02  0.8139716E-01
       -2   -1    0    0    0  501  0.00000000000E+00  0.00000000000E+00  0.10002483114E+04  0.10002483114E+04  0.25500000920E-02 0. -1.
        2   -1    0    0  501    0  0.00000000000E+00  0.00000000000E+00 -0.28767777856E+04  0.28767777856E+04  0.25500000920E-02 0.  1.
    10030    2    1    2    0    0  0.00000000000E+00  0.00000000000E+00 -0.18765294741E+04  0.38770260970E+04  0.33926344468E+04 0.  0.
        4    1    3    3  502    0 -0.42366254489E+03 -0.36535740755E+03  0.89179066854E+03  0.10527431769E+04  0.12699999809E+01 0. -1.
       -4    1    3    3    0  502  0.42366254489E+03  0.36535740755E+03 -0.27683201427E+04  0.28242829200E+04  0.12699999809E+01 0.  1.
</event>
<event>
 5   0  0.1277635E-06  0.3400852E+04  0.7818609E-02  0.8137697E-01
        2   -1    0    0  501    0  0.00000000000E+00  0.00000000000E+00  0.27996420589E+04  0.27996420589E+04  0.25500000920E-02 0.  1.
       -2   -1    0    0    0  501  0.00000000000E+00  0.00000000000E+00 -0.10327919933E+04  0.10327919933E+04  0.25500000920E-02 0. -1.
    10030    2    1    2    0    0  0.00000000000E+00  0.00000000000E+00  0.17668500657E+04  0.38324340522E+04  0.34008516007E+04 0.  0.
        4    1    3    3  502    0 -0.93664624462E+03 -0.53500799728E+03  0.23647390541E+04  0.25991406564E+04  0.12699999809E+01 0.  1.
       -4    1    3    3    0  502  0.93664624462E+03  0.53500799728E+03 -0.59788898846E+03  0.12332933958E+04  0.12699999809E+01 0. -1.
</event>
<event>
 5   0  0.4109937E-07  0.3433359E+04  0.7818609E-02  0.8129767E-01
        1   -1    0    0  501    0  0.00000000000E+00  0.00000000000E+00  0.24806706270E+04  0.24806706270E+04  0.50400001928E-02 0.  1.
       -1   -1    0    0    0  501  0.00000000000E+00  0.00000000000E+00 -0.11879804432E+04  0.11879804432E+04  0.50400001928E-02 0. -1.
    10030    2    1    2    0    0  0.00000000000E+00  0.00000000000E+00  0.12926901838E+04  0.36686510702E+04  0.34333588166E+04 0.  0.
        5    1    3    3  502    0  0.41878481858E+03  0.58944758936E+03  0.23100097340E+04  0.24205363551E+04  0.46999998093E+01 0.  1.
       -5    1    3    3    0  502 -0.41878481858E+03 -0.58944758936E+03 -0.10173195503E+04  0.12481147152E+04  0.46999998093E+01 0. -1.
</event>
<event>
 5   0  0.4464951E-07  0.3369716E+04  0.7818609E-02  0.8145379E-01
        1   -1    0    0  501    0  0.00000000000E+00  0.00000000000E+00  0.94185658488E+03  0.94185658489E+03  0.50400001928E-02 0. -1.
       -1   -1    0    0    0  501  0.00000000000E+00  0.00000000000E+00 -0.30139896858E+04  0.30139896858E+04  0.50400001928E-02 0.  1.
    10030    2    1    2    0    0  0.00000000000E+00  0.00000000000E+00 -0.20721331010E+04  0.39558462707E+04  0.33697157342E+04 0.  0.
        3    1    3    3  502    0 -0.43101604765E+03 -0.16197429623E+04 -0.12373688764E+04  0.20833683889E+04  0.10100000352E+00 0. -1.
       -3    1    3    3    0  502  0.43101604765E+03  0.16197429623E+04 -0.83476422459E+03  0.18724778819E+04  0.10100000352E+00 0.  1.
</event>
<event>
 5   0  0.1277635E-06  0.3408207E+04  0.7818609E-02  0.8135895E-01
       -2   -1    0    0    0  501  0.00000000000E+00  0.00000000000E+00  0.10124524017E+04  0.10124524017E+04  0.25500000920E-02 0.  1.
        2   -1    0    0  501    0  0.00000000000E+00  0.00000000000E+00 -0.28682520416E+04  0.28682520416E+04  0.25500000920E-02 0. -1.
    10030    2    1    2    0    0  0.00000000000E+00  0.00000000000E+00 -0.18557996399E+04  0.38807044433E+04  0.34082069587E+04 0.  0.
        4    1    3    3  502    0  0.20106400866E+03  0.10515427315E+04 -0.24375249517E+04  0.26622731555E+04  0.12699999809E+01 0. -1.
       -4    1    3    3    0  502 -0.20106400866E+03 -0.10515427315E+04  0.58172531182E+03  0.12184312878E+04  0.12699999809E+01 0.  1.
</event>
<event>
 5   0  0.1269497E-06  0.3444485E+04  0.7818609E-02  0.8127074E-01
        2   -1    0    0  501    0  0.00000000000E+00  0.00000000000E+00  0.17623502772E+04  0.17623502772E+04  0.25500000920E-02 0. -1.
       -2   -1    0    0    0  501  0.00000000000E+00  0.00000000000E+00 -0.16830471179E+04  0.16830471179E+04  0.25500000920E-02 0.  1.
    10030    2    1    2    0    0  0.00000000000E+00  0.00000000000E+00  0.79303159328E+02  0.34453973951E+04  0.34444846086E+04 0.  0.
        5    1    3    3  502    0  0.31319581146E+03  0.91178542502E+03  0.14671429994E+04  0.17555554529E+04  0.46999998093E+01 0. -1.
       -5    1    3    3    0  502 -0.31319581146E+03 -0.91178542502E+03 -0.13878398401E+04  0.16898419421E+04  0.46999998093E+01 0.  1.
</event>
<event>
 5   0  0.4109937E-07  0.3394219E+04  0.7818609E-02  0.8139327E-01
        1   -1    0    0  501    0  0.00000000000E+00  0.00000000000E+00  0.21105597707E+04  0.21105597707E+04  0.50400001928E-02 0. -1.
       -1   -1    0    0    0  501  0.00000000000E+00  0.00000000000E+00 -0.13646525756E+04  0.13646525756E+04  0.50400001928E-02 0.  1.
    10030    2    1    2    0    0  0.00000000000E+00  0.00000000000E+00  0.74590719511E+03  0.34752123464E+04  0.33942191015E+04 0.  0.
        5    1    3    3  502    0 -0.44328427550E+03  0.15973545529E+04  0.80229438068E+00  0.16577289435E+04  0.46999998093E+01 0.  1.
       -5    1    3    3    0  502  0.44328427550E+03 -0.15973545529E+04  0.74510490073E+03  0.18174834028E+04  0.46999998093E+01 0. -1.
</event>
<event>
 5   0  0.4464951E-07  0.3449747E+04  0.7818609E-02  0.8125803E-01
       -1   -1    0    0    0  501  0.00000000000E+00  0.00000000000E+00  0.21514477360E+04  0.21514477360E+04  0.50400001928E-02 0.  1.
        1   -1    0    0  501    0  0.00000000000E+00  0.00000000000E+00 -0.13828778497E+04  0.13828778497E+04  0.50400001928E-02 0. -1.
    10030    2    1    2    0    0  0.00000000000E+00  0.00000000000E+00  0.76856988627E+03  0.35343255856E+04  0.34497474799E+04 0.  0.
        3    1    3    3  502    0 -0.83944909755E+03 -0.12919078175E+04  0.11788565199E+04  0.19399493037E+04  0.10100000352E+00 0.  1.
       -3    1    3    3    0  502  0.83944909755E+03  0.12919078175E+04 -0.41028663367E+03  0.15943762819E+04  0.10100000352E+00 0. -1.
</event>
<event>
 5   0  0.1268230E-06  0.3393073E+04  0.7818609E-02  0.8139608E-01
       -2   -1    0    0    0  501  0.00000000000E+00  0.00000000000E+00  0.20790222212E+04  0.20790222212E+04  0.25500000920E-02 0.  1.
        2   -1    0    0  501    0  0.00000000000E+00  0.00000000000E+00 -0.13844183828E+04  0.13844183828E+04  0.25500000920E-02 0. -1.
    10030    2    1    2    0    0  0.00000000000E+00  0.00000000000E+00  0.69460383843E+03  0.34634406040E+04  0.33930732861E+04 0.  0.
        2    1    3    3  502    0 -0.52910938952E+03  0.11418533693E+04  0.15086362498E+04  0.19646295318E+04  0.25500000920E-02 0.  1.
       -2    1    3    3    0  502  0.52910938952E+03 -0.11418533693E+04 -0.81403241139E+03  0.14988110721E+04  0.25500000920E-02 0. -1.
</event>
<event>
 5   0  0.1269497E-06  0.3426604E+04  0.7818609E-02  0.8131408E-01
       -2   -1    0    0    0  501  0.00000000000E+00  0.00000000000E+00  0.14605195866E+04  0.14605195866E+04  0.25500000920E-02 0.  1.
        2   -1    0    0  501    0  0.00000000000E+00  0.00000000000E+00 -0.20098348037E+04  0.20098348037E+04  0.25500000920E-02 0. -1.
    10030    2    1    2    0    0  0.00000000000E+00  0.00000000000E+00 -0.54931521711E+03  0.34703543904E+04  0.34266036227E+04 0.  0.
        5    1    3    3  502    0 -0.79841478954E+03  0.11742168758E+04 -0.12456108677E+04  0.18888673779E+04  0.46999998093E+01 0. -1.
       -5    1    3    3    0  502  0.79841478954E+03 -0.11742168758E+04  0.69629565064E+03  0.15814870125E+04  0.46999998093E+01 0.  1.
</event>
<event>
 5   0  0.1300176E-06  0.3175415E+04  0.7818609E-02  0.8195340E-01
       -2   -1    0    0    0  501  0.00000000000E+00  0.00000000000E+00  0.15619088813E+04  0.15619088813E+04  0.25500000920E-02 0.  1.
        2   -1    0    0  501    0  0.00000000000E+00  0.00000000000E+00 -0.16139326237E+04  0.16139326237E+04  0.25500000920E-02 0. -1.
    10030    2    1    2    0    0  0.00000000000E+00  0.00000000000E+00 -0.52023742405E+02  0.31758415051E+04  0.31754153737E+04 0.  0.
        1    1    3    3  502    0 -0.60743582829E+03  0.14054383186E+04 -0.44628314354E+03  0.15948052537E+04  0.50400001928E-02 0. -1.
       -1    1    3    3    0  502  0.60743582829E+03 -0.14054383186E+04  0.39425940113E+03  0.15810362514E+04  0.50400001928E-02 0.  1.
</event>
<event>
 5   0  0.1277635E-06  0.3342464E+04  0.7818609E-02  0.8152174E-01
       -2   -1    0    0    0  501  0.00000000000E+00  0.00000000000E+00  0.16163602723E+04  0.16163602723E+04  0.25500000920E-02 0. -1.
        2   -1    0    0  501    0  0.00000000000E+00  0.00000000000E+00 -0.17279666078E+04  0.17279666078E+04  0.25500000920E-02 0.  1.
    10030    2    1    2    0    0  0.00000000000E+00  0.00000000000E+00 -0.11160633554E+03  0.33443268801E+04  0.33424641070E+04 0.  0.
        4    1    3    3  502    0 -0.47430946042E+03 -0.15941671961E+04 -0.21922346212E+03  0.16776170757E+04  0.12699999809E+01 0. -1.
       -4    1    3    3    0  502  0.47430946042E+03  0.15941671961E+04  0.10761712658E+03  0.16667098044E+04  0.12699999809E+01 0.  1.
</event>
<event>
 5   0  0.1269497E-06  0.3444932E+04  0.7818609E-02  0.8126966E-01
       -2   -1    0    0    0  501  0.00000000000E+00  0.00000000000E+00  0.10225011679E+04  0.10225011679E+04  0.25500000920E-02 0.  1.
        2   -1    0    0  501    0  0.00000000000E+00  0.00000000000E+00 -0.29016003235E+04  0.29016003235E+04  0.25500000920E-02 0. -1.
    10030    2    1    2    0    0  0.00000000000E+00  0.00000000000E+00 -0.18790991556E+04  0.39241014914E+04  0.34449323474E+04 0.  0.
        5    1    3    3  502    0  0.61225759410E+03 -0.12913411578E+04 -0.20347670759E+04  0.24865076896E+04  0.46999998093E+01 0. -1.
       -5    1    3    3    0  502 -0.61225759410E+03  0.12913411578E+04  0.15566792026E+03  0.14375938018E+04  0.46999998093E+01 0.  1.
</event>
<event>
 5   0  0.1256208E-06  0.3385860E+04  0.7818609E-02  0.8141386E-01
        2   -1    0    0  501    0  0.00000000000E+00  0.00000000000E+00  0.17266835271E+04  0.17266835271E+04  0.25500000920E-02 0.  1.
       -2   -1    0    0    0  501  0.00000000000E+00  0.00000000000E+00 -0.16598360673E+04  0.16598360673E+04  0.25500000920E-02 0. -1.
    10030    2    1    2    0    0  0.00000000000E+00  0.00000000000E+00  0.66847459788E+02  0.33865195944E+04  0.33858597697E+04 0.  0.
        3    1    3    3  502    0  0.13018544901E+04 -0.77895150589E+03  0.78484972703E+03  0.17080924056E+04  0.10100000352E+00 0.  1.
       -3    1    3    3    0  502 -0.13018544901E+04  0.77895150589E+03 -0.71800226724E+03  0.16784271887E+04  0.10100000352E+00 0. -1.
</event>
<event>
 5   0  0.4289684E-07  0.3483624E+04  0.7818609E-02  0.8117682E-01
       -1   -1    0    0    0  501  0.00000000000E+00  0.00000000000E+00  0.20590173153E+04  0.20590173153E+04  0.50400001928E-02 0. -1.
        1   -1    0    0  501    0  0.00000000000E+00  0.00000000000E+00 -0.14734744035E+04  0.14734744036E+04  0.50400001928E-02 0.  1.
    10030    2    1    2    0    0  0.00000000000E+00  0.00000000000E+00  0.58554291174E+03  0.35324917189E+04  0.34836241534E+04 0.  0.
        4    1    3    3  502    0  0.12263861678E+04 -0.10571426869E+04 -0.35836863437E+03  0.16583134155E+04  0.12699999809E+01 0. -1.
       -4    1    3    3    0  502 -0.12263861678E+04  0.10571426869E+04  0.94391154611E+03  0.18741783034E+04  0.12699999809E+01 0.  1.
</event>
<event>
 5   0  0.1269497E-06  0.3403408E+04  0.7818609E-02  0.8137070E-01
       -2   -1    0    0    0  501  0.00000000000E+00  0.00000000000E+00  0.13317867172E+04  0.13317867172E+04  0.25500000920E-02 0. -1.
        2   -1    0    0  501    0  0.00000000000E+00  0.00000000000E+00 -0.21743696054E+04  0.21743696054E+04  0.25500000920E-02 0.  1.
    10030    2    1    2    0    0  0.00000000000E+00  0.00000000000E+00 -0.84258288819E+03  0.35061563227E+04  0.34034080325E+04 0.  0.
        5    1    3    3  502    0  0.36487968755E+03  0.47347047721E+02  0.12903110642E+04  0.13417539498E+04  0.46999998093E+01 0. -1.
       -5    1    3    3    0  502 -0.36487968755E+03 -0.47347047721E+02 -0.21328939524E+04  0.21644023729E+04  0.46999998093E+01 0.  1.
</event>
<event>
 5   0  0.4109937E-07  0.3378757E+04  0.7818609E-02  0.8143140E-01
       -1   -1    0    0    0  501  0.00000000000E+00  0.00000000000E+00  0.12128729253E+04  0.12128729253E+04  0.50400001928E-02 0.  1.
        1   -1    0    0  501    0  0.00000000000E+00  0.00000000000E+00 -0.23530905717E+04  0.23530905718E+04  0.50400001928E-02 0. -1.
    10030    2    1    2    0    0  0.00000000000E+00  0.00000000000E+00 -0.11402176464E+04  0.35659634971E+04  0.33787570764E+04 0.  0.
        5    1    3    3  502    0 -0.12073235710E+04  0.61811685386E+03 -0.16330241375E+04  0.21228491642E+04  0.46999998093E+01 0. -1.
       -5    1    3    3    0  502  0.12073235710E+04 -0.61811685386E+03  0.49280649111E+03  0.14431143329E+04  0.46999998093E+01 0.  1.
</event>
<event>
 5   0  0.4109937E-07  0.3367023E+04  0.7818609E-02  0.8146048E-01
        1   -1    0    0  501    0  0.00000000000E+00  0.00000000000E+00  0.31687796695E+04  0.31687796695E+04  0.50400001928E-02 0. -1.
       -1   -1    0    0    0  501  0.00000000000E+00  0.00000000000E+00 -0.89441742701E+03  0.89441742703E+03  0.50400001928E-02 0.  1.
    10030    2    1    2    0    0  0.00000000000E+00  0.00000000000E+00  0.22743622425E+04  0.40631970966E+04  0.33670234682E+04 0.  0.
        5    1    3    3  502    0 -0.54414589018E+03  0.62503005863E+03 -0.63122288925E+03  0.10417397707E+04  0.46999998093E+01 0.  1.
       -5    1    3    3    0  502  0.54414589018E+03 -0.62503005863E+03  0.29055851318E+04  0.30214573258E+04  0.46999998093E+01 0. -1.
</event>
<event>
 5   0  0.4109937E-07  0.3329874E+04  0.7818609E-02  0.8155335E-01
       -1   -1    0    0    0  501  0.00000000000E+00  0.00000000000E+00  0.12424607311E+04  0.12424607311E+04  0.50400001928E-02 0.  1.
        1   -1    0    0  501    0  0.00000000000E+00  0.00000000000E+00 -0.22310693010E+04  0.22310693010E+04  0.50400001928E-02 0. -1.
    10030    2    1    2    0    0  0.00000000000E+00  0.00000000000E+00 -0.98860856991E+03  0.34735300321E+04  0.33298744690E+04 0.  0.
        5    1    3    3  502    0 -0.15003957402E+04 -0.71745345415E+03 -0.41305254839E+03  0.17136397912E+04  0.46999998093E+01 0.  1.
       -5    1    3    3    0  502  0.15003957402E+04  0.71745345415E+03 -0.57555602152E+03  0.17598902409E+04  0.46999998093E+01 0. -1.
</event>
<event>
 5   0  0.4272633E-07  0.3408234E+04  0.7818609E-02  0.8135888E-01
       -1   -1    0    0    0  501  0.00000000000E+00  0.00000000000E+00  0.14497181293E+04  0.14497181293E+04  0.50400001928E-02 0.  1.
        1   -1    0    0  501    0  0.00000000000E+00  0.00000000000E+00 -0.20031581620E+04  0.20031581620E+04  0.50400001928E-02 0. -1.
    10030    2    1    2    0    0  0.00000000000E+00  0.00000000000E+00 -0.55344003269E+03  0.34528762912E+04  0.34082339727E+04 0.  0.
        1    1    3    3  502    0  0.47389209806E+01 -0.32006946338E+03 -0.19724263211E+04  0.19982323466E+04  0.50400001928E-02 0. -1.
       -1    1    3    3    0  502 -0.47389209806E+01  0.32006946338E+03  0.14189862885E+04  0.14546439446E+04  0.50400001928E-02 0.  1.
</event>
<event>
 5   0  0.1256208E-06  0.3367673E+04  0.7818609E-02  0.8145886E-01
        2   -1    0    0  501    0  0.00000000000E+00  0.00000000000E+00  0.14425033786E+04  0.14425033786E+04  0.25500000920E-02 0.  1.
       -2   -1    0    0    0  501  0.00000000000E+00  0.00000000000E+00 -0.19655449066E+04  0.19655449067E+04  0.25500000920E-02 0. -1.
    10030    2    1    2    0    0  0.00000000000E+00  0.00000000000E+00 -0.52304152805E+03  0.34080482853E+04  0.33676728871E+04 0.  0.
        3    1    3    3  502    0  0.86463370420E+03 -0.12385321460E+04  0.49154591131E+03  0.15884491532E+04  0.10100000352E+00 0.  1.
       -3    1    3    3    0  502 -0.86463370420E+03  0.12385321460E+04 -0.10145874394E+04  0.18195991321E+04  0.10100000352E+00 0. -1.
</event>
<event>
 5   0  0.4125758E-07  0.2975578E+04  0.7818609E-02  0.8250739E-01
        1   -1    0    0  501    0  0.00000000000E+00  0.00000000000E+00  0.23723154229E+04  0.23723154229E+04  0.50400001928E-02 0. -1.
       -1   -1    0    0    0  501  0.00000000000E+00  0.00000000000E+00 -0.93306161700E+03  0.93306161702E+03  0.50400001928E-02 0.  1.
    10030    2    1    2    0    0  0.00000000000E+00  0.00000000000E+00  0.14392538059E+04  0.33053770399E+04  0.29755782393E+04 0.  0.
        2    1    3    3  502    0 -0.54820204411E+03  0.12606997774E+03  0.22496375043E+04  0.23188980187E+04  0.25500000920E-02 0. -1.
       -2    1    3    3    0  502  0.54820204411E+03 -0.12606997774E+03 -0.81038369846E+03  0.98647902115E+03  0.25500000920E-02 0.  1.
</event>
<event>
 5   0  0.4289684E-07  0.3430994E+04  0.7818609E-02  0.8130341E-01
        1   -1    0    0  501    0  0.00000000000E+00  0.00000000000E+00  0.16460015683E+04  0.16460015683E+04  0.50400001928E-02 0. -1.
       -1   -1    0    0    0  501  0.00000000000E+00  0.00000000000E+00 -0.17879264254E+04  0.17879264254E+04  0.50400001928E-02 0.  1.
    10030    2    1    2    0    0  0.00000000000E+00  0.00000000000E+00 -0.14192485702E+03  0.34339279937E+04  0.34309938503E+04 0.  0.
        4    1    3    3  502    0  0.35980841389E+03  0.11409662310E+04 -0.13015105451E+04  0.17678227702E+04  0.12699999809E+01 0.  1.
       -4    1    3    3    0  502 -0.35980841389E+03 -0.11409662310E+04  0.11595856880E+04  0.16661052235E+04  0.12699999809E+01 0. -1.
</event>
<event>
 5   0  0.1268230E-06  0.3398291E+04  0.7818609E-02  0.8138326E-01
        2   -1    0    0  501    0  0.00000000000E+00  0.00000000000E+00  0.16896425178E+04  0.16896425178E+04  0.25500000920E-02 0.  1.
       -2   -1    0    0    0  501  0.00000000000E+00  0.00000000000E+00 -0.17087019480E+04  0.17087019480E+04  0.25500000920E-02 0. -1.
    10030    2    1    2    0    0  0.00000000000E+00  0.00000000000E+00 -0.19059430133E+02  0.33983444658E+04  0.33982910185E+04 0.  0.
        2    1    3    3  502    0  0.67337446013E+03 -0.20994124576E+03 -0.15553829220E+04  0.17078420666E+04  0.25500000920E-02 0. -1.
       -2    1    3    3    0  502 -0.67337446013E+03  0.20994124576E+03  0.15363234919E+04  0.16905023993E+04  0.25500000920E-02 0.  1.
</event>
<event>
 5   0  0.1268230E-06  0.3430338E+04  0.7818609E-02  0.8130500E-01
        2   -1    0    0  501    0  0.00000000000E+00  0.00000000000E+00  0.14771806384E+04  0.14771806384E+04  0.25500000920E-02 0. -1.
       -2   -1    0    0    0  501  0.00000000000E+00  0.00000000000E+00 -0.19914999870E+04  0.19914999870E+04  0.25500000920E-02 0.  1.
    10030    2    1    2    0    0  0.00000000000E+00  0.00000000000E+00 -0.51431934857E+03  0.34686806254E+04  0.34303383053E+04 0.  0.
        2    1    3    3  502    0 -0.47974916895E+03  0.15566280110E+04  0.28601787139E+03  0.16538005480E+04  0.25500000920E-02 0. -1.
       -2    1    3    3    0  502  0.47974916895E+03 -0.15566280110E+04 -0.80033721996E+03  0.18148800774E+04  0.25500000920E-02 0.  1.
</event>
<event>
 5   0  0.4272633E-07  0.2893543E+04  0.7818609E-02  0.8274801E-01
        1   -1    0    0  501    0  0.00000000000E+00  0.00000000000E+00  0.14748913312E+04  0.14748913312E+04  0.50400001928E-02 0. -1.
       -1   -1    0    0    0  501  0.00000000000E+00  0.00000000000E+00 -0.14191874784E+04  0.14191874784E+04  0.50400001928E-02 0.  1.
    10030    2    1    2    0    0  0.00000000000E+00  0.00000000000E+00  0.55703852814E+02  0.28940788096E+04  0.28935426793E+04 0.  0.
        1    1    3    3  502    0  0.11153975743E+04  0.90338913475E+03 -0.15363039591E+03  0.14435463193E+04  0.50400001928E-02 0.  1.
       -1    1    3    3    0  502 -0.11153975743E+04 -0.90338913475E+03  0.20933424872E+03  0.14505324902E+04  0.50400001928E-02 0. -1.
</event>
<event>
 5   0  0.1269497E-06  0.3418428E+04  0.7818609E-02  0.8133398E-01
        2   -1    0    0  501    0  0.00000000000E+00  0.00000000000E+00  0.12696994066E+04  0.12696994066E+04  0.25500000920E-02 0.  1.
       -2   -1    0    0    0  501  0.00000000000E+00  0.00000000000E+00 -0.23008694503E+04  0.23008694503E+04  0.25500000920E-02 0. -1.
    10030    2    1    2    0    0  0.00000000000E+00  0.00000000000E+00 -0.10311700437E+04  0.35705688570E+04  0.34184280456E+04 0.  0.
        5    1    3    3  502    0  0.85015412422E+03 -0.86409260403E+03  0.74302200967E+03  0.14218023281E+04  0.46999998093E+01 0.  1.
       -5    1    3    3    0  502 -0.85015412422E+03  0.86409260403E+03 -0.17741920534E+04  0.21487665289E+04  0.46999998093E+01 0. -1.
</event>
<event>
 5   0  0.4464951E-07  0.3375500E+04  0.7818609E-02  0.8143946E-01
       -1   -1    0    0    0  501  0.00000000000E+00  0.00000000000E+00  0.16174937014E+04  0.16174937014E+04  0.50400001928E-02 0.  1.
        1   -1    0    0  501    0  0.00000000000E+00  0.00000000000E+00 -0.17610577641E+04  0.17610577641E+04  0.50400001928E-02 0. -1.
    10030    2    1    2    0    0  0.00000000000E+00  0.00000000000E+00 -0.14356406272E+03  0.33785514655E+04  0.33754998689E+04 0.  0.
        3    1    3    3  502    0  0.83262814692E+03 -0.14498609037E+04 -0.30249759941E+03  0.16990794799E+04  0.10100000352E+00 0. -1.
       -3    1    3    3    0  502 -0.83262814692E+03  0.14498609037E+04  0.15893353669E+03  0.16794719856E+04  0.10100000352E+00 0.  1.
</event>
<event>
 5   0  0.1277635E-06  0.3382074E+04  0.7818609E-02  0.8142320E-01
       -2   -1    0    0    0  501  0.00000000000E+00  0.00000000000E+00  0.11063157281E+04  0.11063157281E+04  0.25500000920E-02 0.  1.
        2   -1    0    0  501    0  0.00000000000E+00  0.00000000000E+00 -0.25848011739E+04  0.25848011739E+04  0.25500000920E-02 0. -1.
    10030    2    1    2    0    0  0.00000000000E+00  0.00000000000E+00 -0.14784854458E+04  0.36911169021E+04  0.33820740340E+04 0.  0.
        4    1    3    3  502    0 -0.99807220086E+03 -0.92259864622E+03 -0.18372936598E+04  0.22853853034E+04  0.12699999809E+01 0. -1.
       -4    1    3    3    0  502  0.99807220086E+03  0.92259864622E+03  0.35880821395E+03  0.14057315986E+04  0.12699999809E+01 0.  1.
</event>
<event>
 5   0  0.4125758E-07  0.3459547E+04  0.7818609E-02  0.8123444E-01
       -1   -1    0    0    0  501  0.00000000000E+00  0.00000000000E+00  0.16485338433E+04  0.16485338433E+04  0.50400001928E-02 0.  1.
        1   -1    0    0  501    0  0.00000000000E+00  0.00000000000E+00 -0.18150170450E+04  0.18150170450E+04  0.50400001928E-02 0. -1.
    10030    2    1    2    0    0  0.00000000000E+00  0.00000000000E+00 -0.16648320172E+03  0.34635508883E+04  0.34595473836E+04 0.  0.
        2    1    3    3  502    0  0.11626973832E+03  0.57513064715E+03 -0.17123379631E+04  0.18100815488E+04  0.25500000920E-02 0. -1.
       -2    1    3    3    0  502 -0.11626973832E+03 -0.57513064715E+03  0.15458547614E+04  0.16534693395E+04  0.25500000920E-02 0.  1.
</event>
<event>
 5   0  0.4464951E-07  0.3397905E+04  0.7818609E-02  0.8138421E-01
       -1   -1    0    0    0  501  0.00000000000E+00  0.00000000000E+00  0.26530430367E+04  0.26530430367E+04  0.50400001928E-02 0.  1.
        1   -1    0    0  501    0  0.00000000000E+00  0.00000000000E+00 -0.10879730800E+04  0.10879730800E+04  0.50400001928E-02 0. -1.
    10030    2    1    2    0    0  0.00000000000E+00  0.00000000000E+00  0.15650699567E+04  0.37410161167E+04  0.33979048862E+04 0.  0.
        3    1    3    3  502    0 -0.68558784351E+03  0.34569716974E+03 -0.88605492053E+03  0.11724463982E+04  0.10100000352E+00 0. -1.
       -3    1    3    3    0  502  0.68558784351E+03 -0.34569716974E+03  0.24511248773E+04  0.25685697185E+04  0.10100000352E+00 0.  1.
</event>
<event>
 5   0  0.4272633E-07  0.3015907E+04  0.7818609E-02  0.8239203E-01
        1   -1    0    0  501    0  0.00000000000E+00  0.00000000000E+00  0.19458184372E+04  0.19458184372E+04  0.50400001928E-02 0. -1.
       -1   -1    0    0    0  501  0.00000000000E+00  0.00000000000E+00 -0.11686206842E+04  0.11686206842E+04  0.50400001928E-02 0.  1.
    10030    2    1    2    0    0  0.00000000000E+00  0.00000000000E+00  0.77719775306E+03  0.31144391214E+04  0.30159069438E+04 0.  0.
        1    1    3    3  502    0 -0.14634298190E+04 -0.35418669785E+03  0.30313875948E+03  0.15358932774E+04  0.50400001928E-02 0.  1.
       -1    1    3    3    0  502  0.14634298190E+04  0.35418669785E+03  0.47405899358E+03  0.15785458440E+04  0.50400001928E-02 0. -1.
</event>
<event>
 5   0  0.4464951E-07  0.3045328E+04  0.7818609E-02  0.8230904E-01
        1   -1    0    0  501    0  0.00000000000E+00  0.00000000000E+00  0.26850999390E+04  0.26850999390E+04  0.50400001928E-02 0. -1.
       -1   -1    0    0    0  501  0.00000000000E+00  0.00000000000E+00 -0.86347086868E+03  0.86347086869E+03  0.50400001928E-02 0.  1.
    10030    2    1    2    0    0  0.00000000000E+00  0.00000000000E+00  0.18216290704E+04  0.35485708077E+04  0.30453279475E+04 0.  0.
        3    1    3    3  502    0 -0.31483054429E+03  0.10521483116E+04 -0.31816395113E+03  0.11433996026E+04  0.10100000352E+00 0.  1.
       -3    1    3    3    0  502  0.31483054429E+03 -0.10521483116E+04  0.21397930215E+04  0.24051712052E+04  0.10100000352E+00 0. -1.
</event>
<event>
 5   0  0.1277635E-06  0.3066078E+04  0.7818609E-02  0.8225110E-01
       -2   -1    0    0    0  501  0.00000000000E+00  0.00000000000E+00  0.16985028723E+04  0.16985028723E+04  0.25500000920E-02 0. -1.
        2   -1    0    0  501    0  0.00000000000E+00  0.00000000000E+00 -0.13836943249E+04  0.13836943249E+04  0.25500000920E-02 0.  1.
    10030    2    1    2    0    0  0.00000000000E+00  0.00000000000E+00  0.31480854741E+03  0.30821971972E+04  0.30660781368E+04 0.  0.
        4    1    3    3  502    0  0.26784142353E+03  0.17864434199E+03 -0.13493265299E+04  0.13872045726E+04  0.12699999809E+01 0.  1.
       -4    1    3    3    0  502 -0.26784142353E+03 -0.17864434199E+03  0.16641350773E+04  0.16949926246E+04  0.12699999809E+01 0. -1.
</event>
<event>
 5   0  0.1300176E-06  0.3455400E+04  0.7818609E-02  0.8124442E-01
        2   -1    0    0  501    0  0.00000000000E+00  0.00000000000E+00  0.19390728839E+04  0.19390728839E+04  0.25500000920E-02 0.  1.
       -2   -1    0    0    0  501  0.00000000000E+00  0.00000000000E+00 -0.15393686437E+04  0.15393686437E+04  0.25500000920E-02 0. -1.
    10030    2    1    2    0    0  0.00000000000E+00  0.00000000000E+00  0.39970424022E+03  0.34784415276E+04  0.34554004083E+04 0.  0.
        1    1    3    3  502    0 -0.16646467282E+04  0.11299388116E+03 -0.25161542321E+03  0.16873430795E+04  0.50400001928E-02 0. -1.
       -1    1    3    3    0  502  0.16646467282E+04 -0.11299388116E+03  0.65131966343E+03  0.17910984481E+04  0.50400001928E-02 0.  1.
</event>
<event>
 5   0  0.4125758E-07  0.3442845E+04  0.7818609E-02  0.8127470E-01
        1   -1    0    0  501    0  0.00000000000E+00  0.00000000000E+00  0.16414660132E+04  0.16414660132E+04  0.50400001928E-02 0. -1.
       -1   -1    0    0    0  501  0.00000000000E+00  0.00000000000E+00 -0.18052731818E+04  0.18052731818E+04  0.50400001928E-02 0.  1.
    10030    2    1    2    0    0  0.00000000000E+00  0.00000000000E+00 -0.16380716861E+03  0.34467391950E+04  0.34428445056E+04 0.  0.
        2    1    3    3  502    0  0.15020722825E+04  0.84051526154E+03 -0.10657950171E+03  0.17245423268E+04  0.25500000920E-02 0.  1.
       -2    1    3    3    0  502 -0.15020722825E+04 -0.84051526154E+03 -0.57227666901E+02  0.17221968682E+04  0.25500000920E-02 0. -1.
</event>
<event>
 5   0  0.4125758E-07  0.3409286E+04  0.7818609E-02  0.8135631E-01
       -1   -1    0    0    0  501  0.00000000000E+00  0.00000000000E+00  0.10786344737E+04  0.10786344737E+04  0.50400001928E-02 0. -1.
        1   -1    0    0  501    0  0.00000000000E+00  0.00000000000E+00 -0.26939689944E+04  0.26939689944E+04  0.50400001928E-02 0.  1.
    10030    2    1    2    0    0  0.00000000000E+00  0.00000000000E+00 -0.16153345207E+04  0.37726034681E+04  0.34092860417E+04 0.  0.
        2    1    3    3  502    0  0.24672272658E+03  0.34011493802E+03  0.10204328705E+04  0.11035549456E+04  0.25500000920E-02 0. -1.
       -2    1    3    3    0  502 -0.24672272658E+03 -0.34011493802E+03 -0.26357673912E+04  0.26690485225E+04  0.25500000920E-02 0.  1.
</event>
<event>
 5   0  0.4060750E-07  0.3341315E+04  0.7818609E-02  0.8152462E-01
       -3   -1    0    0    0  501  0.00000000000E+00  0.00000000000E+00  0.10959161998E+04  0.10959162044E+04  0.10100000352E+00 0. -1.
        3   -1    0    0  501    0  0.00000000000E+00  0.00000000000E+00 -0.25468162853E+04  0.25468162873E+04  0.10100000352E+00 0.  1.
    10030    2    1    2    0    0  0.00000000000E+00  0.00000000000E+00 -0.14509000855E+04  0.36427324917E+04  0.33413154518E+04 0.  0.
        3    1    3    3  502    0  0.15485611132E+04 -0.61096012001E+01 -0.14089149651E+04  0.20935902745E+04  0.10100000352E+00 0.  1.
       -3    1    3    3    0  502 -0.15485611132E+04  0.61096012001E+01 -0.41985120401E+02  0.15491422172E+04  0.10100000352E+00 0. -1.
</event>
<event>
 5   0  0.1277635E-06  0.3422534E+04  0.7818609E-02  0.8132398E-01
       -2   -1    0    0    0  501  0.00000000000E+00  0.00000000000E+00  0.13226646158E+04  0.13226646158E+04  0.25500000920E-02 0.  1.
        2   -1    0    0  501    0  0.00000000000E+00  0.00000000000E+00 -0.22140413702E+04  0.22140413702E+04  0.25500000920E-02 0. -1.
    10030    2    1    2    0    0  0.00000000000E+00  0.00000000000E+00 -0.89137675437E+03  0.35367059861E+04  0.34225336687E+04 0.  0.
        4    1    3    3  502    0  0.11962271305E+04  0.10776466150E+04  0.15343798077E+03  0.16173516628E+04  0.12699999809E+01 0.  1.
       -4    1    3    3    0  502 -0.11962271305E+04 -0.10776466150E+04 -0.10448147351E+04  0.19193543232E+04  0.12699999809E+01 0. -1.
</event>
<event>
 5   0  0.4464951E-07  0.3432277E+04  0.7818609E-02  0.8130030E-01
       -1   -1    0    0    0  501  0.00000000000E+00  0.00000000000E+00  0.14836994047E+04  0.14836994047E+04  0.50400001928E-02 0.  1.
        1   -1    0    0  501    0  0.00000000000E+00  0.00000000000E+00 -0.19849917032E+04  0.19849917032E+04  0.50400001928E-02 0. -1.
    10030    2    1    2    0    0  0.00000000000E+00  0.00000000000E+00 -0.50129229846E+03  0.34686911079E+04  0.34322768003E+04 0.  0.
        3    1    3    3  502    0  0.95942036168E+03 -0.14370020476E+03 -0.16812899292E+04  0.19411009803E+04  0.10100000352E+00 0. -1.
       -3    1    3    3    0  502 -0.95942036168E+03  0.14370020476E+03  0.11799976308E+04  0.15275901276E+04  0.10100000352E+00 0.  1.
</event>
<event>
 5   0  0.1277635E-06  0.3544294E+04  0.7818609E-02  0.8103372E-01
        2   -1    0    0  501    0  0.00000000000E+00  0.00000000000E+00  0.17023630210E+04  0.17023630210E+04  0.25500000920E-02 0. -1.
       -2   -1    0    0    0  501  0.00000000000E+00  0.00000000000E+00 -0.18447910998E+04  0.18447910998E+04  0.25500000920E-02 0.  1.
    10030    2    1    2    0    0  0.00000000000E+00  0.00000000000E+00 -0.14242807885E+03  0.35471541208E+04  0.35442935261E+04 0.  0.
        4    1    3    3  502    0  0.12090298036E+04 -0.34777407522E+03  0.11779129674E+04  0.17234211456E+04  0.12699999809E+01 0. -1.
       -4    1    3    3    0  502 -0.12090298036E+04  0.34777407522E+03 -0.13203410463E+04  0.18237329752E+04  0.12699999809E+01 0.  1.
</event>
<event>
 5   0  0.4464951E-07  0.3373203E+04  0.7818609E-02  0.8144515E-01
       -1   -1    0    0    0  501  0.00000000000E+00  0.00000000000E+00  0.22592854473E+04  0.22592854473E+04  0.50400001928E-02 0. -1.
        1   -1    0    0  501    0  0.00000000000E+00  0.00000000000E+00 -0.12590813536E+04  0.12590813536E+04  0.50400001928E-02 0.  1.
    10030    2    1    2    0    0  0.00000000000E+00  0.00000000000E+00  0.10002040938E+04  0.35183668009E+04  0.33732027387E+04 0.  0.
        3    1    3    3  502    0  0.85069250922E+02  0.13121667676E+04 -0.60157434982E+03  0.14459979640E+04  0.10100000352E+00 0.  1.
       -3    1    3    3    0  502 -0.85069250922E+02 -0.13121667676E+04  0.16017784436E+04  0.20723688369E+04  0.10100000352E+00 0. -1.
</event>
<event>
 5   0  0.4464951E-07  0.3402214E+04  0.7818609E-02  0.8137363E-01
        1   -1    0    0  501    0  0.00000000000E+00  0.00000000000E+00  0.20850891079E+04  0.20850891079E+04  0.50400001928E-02 0.  1.
       -1   -1    0    0    0  501  0.00000000000E+00  0.00000000000E+00 -0.13878373955E+04  0.13878373955E+04  0.50400001928E-02 0. -1.
    10030    2    1    2    0    0  0.00000000000E+00  0.00000000000E+00  0.69725171240E+03  0.34729265034E+04  0.34022137716E+04 0.  0.
        3    1    3    3  502    0  0.10506501931E+02  0.13099469178E+04 -0.75914541708E+03  0.15140584826E+04  0.10100000352E+00 0. -1.
       -3    1    3    3    0  502 -0.10506501931E+02 -0.13099469178E+04  0.14563971295E+04  0.19588680208E+04  0.10100000352E+00 0.  1.
</event>
<event>
 5   0  0.1277635E-06  0.3402408E+04  0.7818609E-02  0.8137316E-01
        2   -1    0    0  501    0  0.00000000000E+00  0.00000000000E+00  0.11800818837E+04  0.11800818837E+04  0.25500000920E-02 0.  1.
       -2   -1    0    0    0  501  0.00000000000E+00  0.00000000000E+00 -0.24524526838E+04  0.24524526838E+04  0.25500000920E-02 0. -1.
    10030    2    1    2    0    0  0.00000000000E+00  0.00000000000E+00 -0.12723708001E+04  0.36325345675E+04  0.34024079607E+04 0.  0.
        4    1    3    3  502    0  0.15236314489E+04 -0.56272254311E+03 -0.96016333415E+02  0.16270618310E+04  0.12699999809E+01 0.  1.
       -4    1    3    3    0  502 -0.15236314489E+04  0.56272254311E+03 -0.11763544667E+04  0.20054727365E+04  0.12699999809E+01 0. -1.
</event>
<event>
 5   0  0.1300176E-06  0.3169661E+04  0.7818609E-02  0.8196876E-01
        2   -1    0    0  501    0  0.00000000000E+00  0.00000000000E+00  0.16919370328E+04  0.16919370328E+04  0.25500000920E-02 0.  1.
       -2   -1    0    0    0  501  0.00000000000E+00  0.00000000000E+00 -0.14845042647E+04  0.14845042647E+04  0.25500000920E-02 0. -1.
    10030    2    1    2    0    0  0.00000000000E+00  0.00000000000E+00  0.20743276816E+03  0.31764412975E+04  0.31696610170E+04 0.  0.
        1    1    3    3  502    0  0.59396590583E+03 -0.26574065662E+03 -0.13444610339E+04  0.14936495793E+04  0.50400001928E-02 0. -1.
       -1    1    3    3    0  502 -0.59396590583E+03  0.26574065662E+03  0.15518938021E+04  0.16827917182E+04  0.50400001928E-02 0.  1.
</event>
<event>
 5   0  0.1268230E-06  0.3473050E+04  0.7818609E-02  0.8120207E-01
       -2   -1    0    0    0  501  0.00000000000E+00  0.00000000000E+00  0.18637404280E+04  0.18637404280E+04  0.25500000920E-02 0. -1.
        2   -1    0    0  501    0  0.00000000000E+00  0.00000000000E+00 -0.16179930356E+04  0.16179930356E+04  0.25500000920E-02 0.  1.
    10030    2    1    2    0    0  0.00000000000E+00  0.00000000000E+00  0.24574739241E+03  0.34817334637E+04  0.34730499754E+04 0.  0.
        2    1    3    3  502    0 -0.48051986552E+03  0.12730594470E+04  0.12044313172E+04  0.18172051328E+04  0.25500000920E-02 0. -1.
       -2    1    3    3    0  502  0.48051986552E+03 -0.12730594470E+04 -0.95868392482E+03  0.16645283309E+04  0.25500000920E-02 0.  1.
</event>
<event>
 5   0  0.1277635E-06  0.3662265E+04  0.7818609E-02  0.8076376E-01
        2   -1    0    0  501    0  0.00000000000E+00  0.00000000000E+00  0.14863090056E+04  0.14863090056E+04  0.25500000920E-02 0.  1.
       -2   -1    0    0    0  501  0.00000000000E+00  0.00000000000E+00 -0.22559551844E+04  0.22559551844E+04  0.25500000920E-02 0. -1.
    10030    2    1    2    0    0  0.00000000000E+00  0.00000000000E+00 -0.76964617882E+03  0.37422641900E+04  0.36622651497E+04 0.  0.
        4    1    3    3  502    0 -0.90893664947E+03 -0.12870943953E+04  0.56843596061E+03  0.16750817501E+04  0.12699999809E+01 0.  1.
       -4    1    3    3    0  502  0.90893664947E+03  0.12870943953E+04 -0.13380821394E+04  0.20671824399E+04  0.12699999809E+01 0. -1.
</event>
<event>
 5   0  0.4272633E-07  0.3392502E+04  0.7818609E-02  0.8139749E-01
        1   -1    0    0  501    0  0.00000000000E+00  0.00000000000E+00  0.14868577531E+04  0.14868577531E+04  0.50400001928E-02 0. -1.
       -1   -1    0    0    0  501  0.00000000000E+00  0.00000000000E+00 -0.19351330241E+04  0.19351330241E+04  0.50400001928E-02 0.  1.
    10030    2    1    2    0    0  0.00000000000E+00  0.00000000000E+00 -0.44827527105E+03  0.34219907772E+04  0.33925020502E+04 0.  0.
        1    1    3    3  502    0  0.79910419323E+03 -0.95517630697E+03  0.93754062809E+03  0.15588174102E+04  0.50400001928E-02 0. -1.
       -1    1    3    3    0  502 -0.79910419323E+03  0.95517630697E+03 -0.13858158991E+04  0.18631733670E+04  0.50400001928E-02 0.  1.
</event>
<event>
 5   0  0.4464951E-07  0.3410436E+04  0.7818609E-02  0.8135350E-01
        1   -1    0    0  501    0  0.00000000000E+00  0.00000000000E+00  0.99623900151E+03  0.99623900152E+03  0.50400001928E-02 0.  1.
       -1   -1    0    0    0  501  0.00000000000E+00  0.00000000000E+00 -0.29187457782E+04  0.29187457782E+04  0.50400001928E-02 0. -1.
    10030    2    1    2    0    0  0.00000000000E+00  0.00000000000E+00 -0.19225067767E+04  0.39149847797E+04  0.34104359720E+04 0.  0.
        3    1    3    3  502    0  0.79434214201E+03  0.41430888980E+03  0.70430693849E+03  0.11395962305E+04  0.10100000352E+00 0.  1.
       -3    1    3    3    0  502 -0.79434214201E+03 -0.41430888980E+03 -0.26268137152E+04  0.27753885492E+04  0.10100000352E+00 0. -1.
</event>
<event>
 5   0  0.1268230E-06  0.3396046E+04  0.7818609E-02  0.8138878E-01
        2   -1    0    0  501    0  0.00000000000E+00  0.00000000000E+00  0.15902589013E+04  0.15902589013E+04  0.25500000920E-02 0. -1.
       -2   -1    0    0    0  501  0.00000000000E+00  0.00000000000E+00 -0.18130892802E+04  0.18130892802E+04  0.25500000920E-02 0.  1.
    10030    2    1    2    0    0  0.00000000000E+00  0.00000000000E+00 -0.22283037890E+03  0.34033481816E+04  0.33960455632E+04 0.  0.
        2    1    3    3  502    0 -0.12864485161E+04  0.10120575125E+04 -0.56412895976E+03  0.17313150137E+04  0.25500000920E-02 0. -1.
       -2    1    3    3    0  502  0.12864485161E+04 -0.10120575125E+04  0.34129858085E+03  0.16720331679E+04  0.25500000920E-02 0.  1.
</event>
<event>
 5   0  0.4125758E-07  0.3376900E+04  0.7818609E-02  0.8143599E-01
        1   -1    0    0  501    0  0.00000000000E+00  0.00000000000E+00  0.23913243837E+04  0.23913243837E+04  0.50400001928E-02 0.  1.
       -1   -1    0    0    0  501  0.00000000000E+00  0.00000000000E+00 -0.11921690295E+04  0.11921690295E+04  0.50400001928E-02 0. -1.
    10030    2    1    2    0    0  0.00000000000E+00  0.00000000000E+00  0.11991553542E+04  0.35834934132E+04  0.33768996844E+04 0.  0.
        2    1    3    3  502    0  0.37094961059E+03  0.39828154991E+03 -0.10965265845E+04  0.12241741531E+04  0.25500000920E-02 0. -1.
       -2    1    3    3    0  502 -0.37094961059E+03 -0.39828154991E+03  0.22956819388E+04  0.23593192600E+04  0.25500000920E-02 0.  1.
</event>
<event>
 5   0  0.4289684E-07  0.3393163E+04  0.7818609E-02  0.8139586E-01
        1   -1    0    0  501    0  0.00000000000E+00  0.00000000000E+00  0.28103091334E+04  0.28103091334E+04  0.50400001928E-02 0.  1.
       -1   -1    0    0    0  501  0.00000000000E+00  0.00000000000E+00 -0.10242249454E+04  0.10242249454E+04  0.50400001928E-02 0. -1.
    10030    2    1    2    0    0  0.00000000000E+00  0.00000000000E+00  0.17860841880E+04  0.38345340788E+04  0.33931629602E+04 0.  0.
        4    1    3    3  502    0 -0.11687872844E+04 -0.59969881407E+03 -0.32024381208E+03  0.13521316858E+04  0.12699999809E+01 0. -1.
       -4    1    3    3    0  502  0.11687872844E+04  0.59969881407E+03  0.21063280001E+04  0.24824023929E+04  0.12699999809E+01 0.  1.
</event>
<event>
 5   0  0.4289684E-07  0.3407435E+04  0.7818609E-02  0.8136084E-01
       -1   -1    0    0    0  501  0.00000000000E+00  0.00000000000E+00  0.16202099051E+04  0.16202099051E+04  0.50400001928E-02 0.  1.
        1   -1    0    0  501    0  0.00000000000E+00  0.00000000000E+00 -0.17915293894E+04  0.17915293894E+04  0.50400001928E-02 0. -1.
    10030    2    1    2    0    0  0.00000000000E+00  0.00000000000E+00 -0.17131948431E+03  0.34117392946E+04  0.34074352009E+04 0.  0.
        4    1    3    3  502    0  0.60046142874E+02 -0.70301867946E+03 -0.16383639466E+04  0.17838382318E+04  0.12699999809E+01 0. -1.
       -4    1    3    3    0  502 -0.60046142874E+02  0.70301867946E+03  0.14670444623E+04  0.16279010628E+04  0.12699999809E+01 0.  1.
</event>
<event>
 5   0  0.1268230E-06  0.3426466E+04  0.7818609E-02  0.8131441E-01
        2   -1    0    0  501    0  0.00000000000E+00  0.00000000000E+00  0.97485027332E+03  0.97485027333E+03  0.25500000920E-02 0. -1.
       -2   -1    0    0    0  501  0.00000000000E+00  0.00000000000E+00 -0.30108898312E+04  0.30108898312E+04  0.25500000920E-02 0.  1.
    10030    2    1    2    0    0  0.00000000000E+00  0.00000000000E+00 -0.20360395579E+04  0.39857401046E+04  0.34264656864E+04 0.  0.
        2    1    3    3  502    0 -0.70821489328E+01 -0.87233909021E+03  0.69714739201E+03  0.11167095107E+04  0.25500000920E-02 0. -1.
       -2    1    3    3    0  502  0.70821489328E+01  0.87233909021E+03 -0.27331869499E+04  0.28690305938E+04  0.25500000920E-02 0.  1.
</event>
<event>
 5   0  0.4272633E-07  0.3365392E+04  0.7818609E-02  0.8146453E-01
        1   -1    0    0  501    0  0.00000000000E+00  0.00000000000E+00  0.12644776739E+04  0.12644776739E+04  0.50400001928E-02 0.  1.
       -1   -1    0    0    0  501  0.00000000000E+00  0.00000000000E+00 -0.22392369317E+04  0.22392369317E+04  0.50400001928E-02 0. -1.
    10030    2    1    2    0    0  0.00000000000E+00  0.00000000000E+00 -0.97475925776E+03  0.35037146056E+04  0.33653915711E+04 0.  0.
        1    1    3    3  502    0  0.68488085508E+03 -0.13365110682E+04 -0.12776172382E+04  0.19717072370E+04  0.50400001928E-02 0. -1.
       -1    1    3    3    0  502 -0.68488085508E+03  0.13365110682E+04  0.30285798042E+03  0.15320073686E+04  0.50400001928E-02 0.  1.
</event>
<event>
 5   0  0.1268230E-06  0.3463204E+04  0.7818609E-02  0.8122566E-01
       -2   -1    0    0    0  501  0.00000000000E+00  0.00000000000E+00  0.15280887240E+04  0.15280887240E+04  0.25500000920E-02 0. -1.
        2   -1    0    0  501    0  0.00000000000E+00  0.00000000000E+00 -0.19622196853E+04  0.19622196853E+04  0.25500000920E-02 0.  1.
    10030    2    1    2    0    0  0.00000000000E+00  0.00000000000E+00 -0.43413096133E+03  0.34903084093E+04  0.34632041667E+04 0.  0.
        2    1    3    3  502    0 -0.19396794288E+03  0.14403873789E+04 -0.11657649281E+04  0.18631551819E+04  0.25500000920E-02 0.  1.
       -2    1    3    3    0  502  0.19396794288E+03 -0.14403873789E+04  0.73163396679E+03  0.16271532274E+04  0.25500000920E-02 0. -1.
</event>
<event>
 5   0  0.1268230E-06  0.3456577E+04  0.7818609E-02  0.8124159E-01
       -2   -1    0    0    0  501  0.00000000000E+00  0.00000000000E+00  0.11465481469E+04  0.11465481469E+04  0.25500000920E-02 0. -1.
        2   -1    0    0  501    0  0.00000000000E+00  0.00000000000E+00 -0.26051939482E+04  0.26051939482E+04  0.25500000920E-02 0.  1.
    10030    2    1    2    0    0  0.00000000000E+00  0.00000000000E+00 -0.14586458013E+04  0.37517420951E+04  0.34565765107E+04 0.  0.
        2    1    3    3  502    0 -0.96960192763E+03  0.28191810403E+03 -0.22517283487E+04  0.24677694932E+04  0.25500000920E-02 0.  1.
       -2    1    3    3    0  502  0.96960192763E+03 -0.28191810403E+03  0.79308254738E+03  0.12839726019E+04  0.25500000920E-02 0. -1.
</event>
<event>
 5   0  0.1268230E-06  0.3354013E+04  0.7818609E-02  0.8149286E-01
        2   -1    0    0  501    0  0.00000000000E+00  0.00000000000E+00  0.19018993342E+04  0.19018993342E+04  0.25500000920E-02 0.  1.
       -2   -1    0    0    0  501  0.00000000000E+00  0.00000000000E+00 -0.14787066280E+04  0.14787066280E+04  0.25500000920E-02 0. -1.
    10030    2    1    2    0    0  0.00000000000E+00  0.00000000000E+00  0.42319270622E+03  0.33806059622E+04  0.33540132088E+04 0.  0.
        2    1    3    3  502    0  0.28710422533E+03  0.12216697343E+04  0.13328214312E+04  0.18306607396E+04  0.25500000920E-02 0.  1.
       -2    1    3    3    0  502 -0.28710422533E+03 -0.12216697343E+04 -0.90962872501E+03  0.15499452226E+04  0.25500000920E-02 0. -1.
</event>
<event>
 5   0  0.1300176E-06  0.3359523E+04  0.7818609E-02  0.8147913E-01
        2   -1    0    0  501    0  0.00000000000E+00  0.00000000000E+00  0.16825581608E+04  0.16825581608E+04  0.25500000920E-02 0.  1.
       -2   -1    0    0    0  501  0.00000000000E+00  0.00000000000E+00 -0.16769691180E+04  0.16769691180E+04  0.25500000920E-02 0. -1.
    10030    2    1    2    0    0  0.00000000000E+00  0.00000000000E+00  0.55890427886E+01  0.33595272788E+04  0.33595226297E+04 0.  0.
        1    1    3    3  502    0 -0.94090720184E+03 -0.12914785408E+04  0.52084435857E+03  0.16806254877E+04  0.50400001928E-02 0.  1.
       -1    1    3    3    0  502  0.94090720184E+03  0.12914785408E+04 -0.51525531578E+03  0.16789017912E+04  0.50400001928E-02 0. -1.
</event>
<event>
 5   0  0.4125758E-07  0.3363107E+04  0.7818609E-02  0.8147021E-01
       -1   -1    0    0    0  501  0.00000000000E+00  0.00000000000E+00  0.17368720493E+04  0.17368720493E+04  0.50400001928E-02 0.  1.
        1   -1    0    0  501    0  0.00000000000E+00  0.00000000000E+00 -0.16279968385E+04  0.16279968385E+04  0.50400001928E-02 0. -1.
    10030    2    1    2    0    0  0.00000000000E+00  0.00000000000E+00  0.10887521080E+03  0.33648688877E+04  0.33631070188E+04 0.  0.
        2    1    3    3  502    0 -0.95702888115E+03 -0.53975007811E+03  0.13280490082E+04  0.17236439871E+04  0.25500000920E-02 0.  1.
       -2    1    3    3    0  502  0.95702888115E+03  0.53975007811E+03 -0.12191737974E+04  0.16412249006E+04  0.25500000920E-02 0. -1.
</event>
<event>
 5   0  0.1277635E-06  0.3388427E+04  0.7818609E-02  0.8140752E-01
       -2   -1    0    0    0  501  0.00000000000E+00  0.00000000000E+00  0.10290424430E+04  0.10290424430E+04  0.25500000920E-02 0.  1.
        2   -1    0    0  501    0  0.00000000000E+00  0.00000000000E+00 -0.27893505259E+04  0.27893505259E+04  0.25500000920E-02 0. -1.
    10030    2    1    2    0    0  0.00000000000E+00  0.00000000000E+00 -0.17603080829E+04  0.38183929689E+04  0.33884274108E+04 0.  0.
        4    1    3    3  502    0  0.48940588403E+03 -0.90032132084E+03 -0.24005243191E+04  0.26100986992E+04  0.12699999809E+01 0. -1.
       -4    1    3    3    0  502 -0.48940588403E+03  0.90032132084E+03  0.64021623624E+03  0.12082942697E+04  0.12699999809E+01 0.  1.
</event>
<event>
 5   0  0.1269497E-06  0.3504119E+04  0.7818609E-02  0.8112814E-01
       -2   -1    0    0    0  501  0.00000000000E+00  0.00000000000E+00  0.16139619018E+04  0.16139619018E+04  0.25500000920E-02 0. -1.
        2   -1    0    0  501    0  0.00000000000E+00  0.00000000000E+00 -0.19019736983E+04  0.19019736983E+04  0.25500000920E-02 0.  1.
    10030    2    1    2    0    0  0.00000000000E+00  0.00000000000E+00 -0.28801179645E+03  0.35159356001E+04  0.35041193400E+04 0.  0.
        5    1    3    3  502    0  0.14872188160E+04 -0.91390401800E+03  0.70028922780E+01  0.17455977461E+04  0.46999998093E+01 0. -1.
       -5    1    3    3    0  502 -0.14872188160E+04  0.91390401800E+03 -0.29501468873E+03  0.17703378540E+04  0.46999998093E+01 0.  1.
</event>
<event>
 5   0  0.4109937E-07  0.3468683E+04  0.7818609E-02  0.8121252E-01
       -1   -1    0    0    0  501  0.00000000000E+00  0.00000000000E+00  0.11489850128E+04  0.11489850128E+04  0.50400001928E-02 0.  1.
        1   -1    0    0  501    0  0.00000000000E+00  0.00000000000E+00 -0.26179104276E+04  0.26179104276E+04  0.50400001928E-02 0. -1.
    10030    2    1    2    0    0  0.00000000000E+00  0.00000000000E+00 -0.14689254148E+04  0.37668954404E+04  0.34686826584E+04 0.  0.
        5    1    3    3  502    0  0.97549975455E+03  0.14298716020E+04 -0.61656992144E+03  0.18374746603E+04  0.46999998093E+01 0. -1.
       -5    1    3    3    0  502 -0.97549975455E+03 -0.14298716020E+04 -0.85235549335E+03  0.19294207800E+04  0.46999998093E+01 0.  1.
</event>
<event>
 5   0  0.1269497E-06  0.3424855E+04  0.7818609E-02  0.8131833E-01
        2   -1    0    0  501    0  0.00000000000E+00  0.00000000000E+00  0.23777672140E+04  0.23777672140E+04  0.25500000920E-02 0. -1.
       -2   -1    0    0    0  501  0.00000000000E+00  0.00000000000E+00 -0.12332611509E+04  0.12332611509E+04  0.25500000920E-02 0.  1.
    10030    2    1    2    0    0  0.00000000000E+00  0.00000000000E+00  0.11445060631E+04  0.36110283649E+04  0.34248549931E+04 0.  0.
        5    1    3    3  502    0  0.53283537350E+02  0.16331613523E+03 -0.12241461358E+04  0.12361501313E+04  0.46999998093E+01 0.  1.
       -5    1    3    3    0  502 -0.53283537350E+02 -0.16331613523E+03  0.23686521988E+04  0.23748782336E+04  0.46999998093E+01 0. -1.
</event>
<event>
 5   0  0.4109937E-07  0.3362196E+04  0.7818609E-02  0.8147247E-01
       -1   -1    0    0    0  501  0.00000000000E+00  0.00000000000E+00  0.13325698672E+04  0.13325698672E+04  0.50400001928E-02 0. -1.
        1   -1    0    0  501    0  0.00000000000E+00  0.00000000000E+00 -0.21207824138E+04  0.21207824138E+04  0.50400001928E-02 0.  1.
    10030    2    1    2    0    0  0.00000000000E+00  0.00000000000E+00 -0.78821254660E+03  0.34533522810E+04  0.33621961511E+04 0.  0.
        5    1    3    3  502    0 -0.34151093293E+03  0.34951063879E+03 -0.20462189255E+04  0.21037636239E+04  0.46999998093E+01 0.  1.
       -5    1    3    3    0  502  0.34151093293E+03 -0.34951063879E+03  0.12580063790E+04  0.13495886571E+04  0.46999998093E+01 0. -1.
</event>
<event>
 5   0  0.1269497E-06  0.3386290E+04  0.7818609E-02  0.8141279E-01
       -2   -1    0    0    0  501  0.00000000000E+00  0.00000000000E+00  0.17470522490E+04  0.17470522490E+04  0.25500000920E-02 0.  1.
        2   -1    0    0  501    0  0.00000000000E+00  0.00000000000E+00 -0.16409015571E+04  0.16409015571E+04  0.25500000920E-02 0. -1.
    10030    2    1    2    0    0  0.00000000000E+00  0.00000000000E+00  0.10615069192E+03  0.33879538061E+04  0.33862904516E+04 0.  0.
        5    1    3    3  502    0  0.31666472151E+03  0.16220550087E+04  0.42119584109E+03  0.17055107809E+04  0.46999998093E+01 0.  1.
       -5    1    3    3    0  502 -0.31666472151E+03 -0.16220550087E+04 -0.31504514917E+03  0.16824430252E+04  0.46999998093E+01 0. -1.
</event>
<event>
 5   0  0.1268230E-06  0.3381039E+04  0.7818609E-02  0.8142576E-01
        2   -1    0    0  501    0  0.00000000000E+00  0.00000000000E+00  0.21218087165E+04  0.21218087165E+04  0.25500000920E-02 0. -1.
       -2   -1    0    0    0  501  0.00000000000E+00  0.00000000000E+00 -0.13468960022E+04  0.13468960022E+04  0.25500000920E-02 0.  1.
    10030    2    1    2    0    0  0.00000000000E+00  0.00000000000E+00  0.77491271434E+03  0.34687047187E+04  0.33810387029E+04 0.  0.
        2    1    3    3  502    0  0.12630294975E+04  0.10262871906E+04  0.85686417636E+03  0.18392186183E+04  0.25500000920E-02 0. -1.
       -2    1    3    3    0  502 -0.12630294975E+04 -0.10262871906E+04 -0.81951462029E+02  0.16294861004E+04  0.25500000920E-02 0.  1.
</event>
<event>
 5   0  0.4272633E-07  0.3240170E+04  0.7818609E-02  0.8178288E-01
       -1   -1    0    0    0  501  0.00000000000E+00  0.00000000000E+00  0.14396083342E+04  0.14396083343E+04  0.50400001928E-02 0. -1.
        1   -1    0    0  501    0  0.00000000000E+00  0.00000000000E+00 -0.18231870577E+04  0.18231870577E+04  0.50400001928E-02 0.  1.
    10030    2    1    2    0    0  0.00000000000E+00  0.00000000000E+00 -0.38357872345E+03  0.32627953920E+04  0.32401699234E+04 0.  0.
        1    1    3    3  502    0  0.15933030945E+04  0.29261057867E+03 -0.21290196589E+03  0.16338797228E+04  0.50400001928E-02 0. -1.
       -1    1    3    3    0  502 -0.15933030945E+04 -0.29261057867E+03 -0.17067675756E+03  0.16289156691E+04  0.50400001928E-02 0.  1.
</event>
<event>
 5   0  0.4464951E-07  0.3285007E+04  0.7818609E-02  0.8166721E-01
       -1   -1    0    0    0  501  0.00000000000E+00  0.00000000000E+00  0.11565422196E+04  0.11565422196E+04  0.50400001928E-02 0. -1.
        1   -1    0    0  501    0  0.00000000000E+00  0.00000000000E+00 -0.23326582499E+04  0.23326582499E+04  0.50400001928E-02 0.  1.
    10030    2    1    2    0    0  0.00000000000E+00  0.00000000000E+00 -0.11761160303E+04  0.34892004695E+04  0.32850070014E+04 0.  0.
        3    1    3    3  502    0  0.12652205354E+04 -0.27279845413E+03 -0.16621608412E+04  0.21066515307E+04  0.10100000352E+00 0.  1.
       -3    1    3    3    0  502 -0.12652205354E+04  0.27279845413E+03  0.48604481089E+03  0.13825489388E+04  0.10100000352E+00 0. -1.
</event>
<event>
 5   0  0.1277635E-06  0.3431832E+04  0.7818609E-02  0.8130138E-01
       -2   -1    0    0    0  501  0.00000000000E+00  0.00000000000E+00  0.23407564267E+04  0.23407564267E+04  0.25500000920E-02 0. -1.
        2   -1    0    0  501    0  0.00000000000E+00  0.00000000000E+00 -0.12578699652E+04  0.12578699652E+04  0.25500000920E-02 0.  1.
    10030    2    1    2    0    0  0.00000000000E+00  0.00000000000E+00  0.10828864616E+04  0.35986263919E+04  0.34318317004E+04 0.  0.
        4    1    3    3  502    0  0.86714423229E+02 -0.14528317060E+03  0.23319876617E+04  0.23381177597E+04  0.12699999809E+01 0. -1.
       -4    1    3    3    0  502 -0.86714423229E+02  0.14528317060E+03 -0.12491012001E+04  0.12605086322E+04  0.12699999809E+01 0.  1.
</event>
<event>
 5   0  0.1277635E-06  0.3378232E+04  0.7818609E-02  0.8143270E-01
       -2   -1    0    0    0  501  0.00000000000E+00  0.00000000000E+00  0.13875183119E+04  0.13875183119E+04  0.25500000920E-02 0. -1.
        2   -1    0    0  501    0  0.00000000000E+00  0.00000000000E+00 -0.20562709856E+04  0.20562709856E+04  0.25500000920E-02 0.  1.
    10030    2    1    2    0    0  0.00000000000E+00  0.00000000000E+00 -0.66875267375E+03  0.34437892975E+04  0.33782324649E+04 0.  0.
        4    1    3    3  502    0  0.28455060284E+03  0.14538848421E+04 -0.11615169979E+04  0.18825178695E+04  0.12699999809E+01 0.  1.
       -4    1    3    3    0  502 -0.28455060284E+03 -0.14538848421E+04  0.49276432418E+03  0.15612714280E+04  0.12699999809E+01 0. -1.
</event>
<event>
 5   0  0.1300176E-06  0.3392766E+04  0.7818609E-02  0.8139684E-01
       -2   -1    0    0    0  501  0.00000000000E+00  0.00000000000E+00  0.22670303855E+04  0.22670303855E+04  0.25500000920E-02 0. -1.
        2   -1    0    0  501    0  0.00000000000E+00  0.00000000000E+00 -0.12693765099E+04  0.12693765099E+04  0.25500000920E-02 0.  1.
    10030    2    1    2    0    0  0.00000000000E+00  0.00000000000E+00  0.99765387569E+03  0.35364068954E+04  0.33927659032E+04 0.  0.
        1    1    3    3  502    0 -0.11677388712E+04  0.12102391389E+04  0.73055023285E+03  0.18335747837E+04  0.50400001928E-02 0.  1.
       -1    1    3    3    0  502  0.11677388712E+04 -0.12102391389E+04  0.26710364284E+03  0.17028321117E+04  0.50400001928E-02 0. -1.
</event>
<event>
 5   0  0.1269497E-06  0.3401752E+04  0.7818609E-02  0.8137477E-01
        2   -1    0    0  501    0  0.00000000000E+00  0.00000000000E+00  0.17714263676E+04  0.17714263676E+04  0.25500000920E-02 0.  1.
       -2   -1    0    0    0  501  0.00000000000E+00  0.00000000000E+00 -0.16331350549E+04  0.16331350549E+04  0.25500000920E-02 0. -1.
    10030    2    1    2    0    0  0.00000000000E+00  0.00000000000E+00  0.13829131267E+03  0.34045614226E+04  0.34017516066E+04 0.  0.
        5    1    3    3  502    0  0.13551496760E+04 -0.90171251005E+03  0.56294990711E+03  0.17223387539E+04  0.46999998093E+01 0.  1.
       -5    1    3    3    0  502 -0.13551496760E+04  0.90171251005E+03 -0.42465859444E+03  0.16822226687E+04  0.46999998093E+01 0. -1.
</event>
<event>
 5   0  0.4464951E-07  0.3349452E+04  0.7818609E-02  0.8150425E-01
        1   -1    0    0  501    0  0.00000000000E+00  0.00000000000E+00  0.22567958610E+04  0.22567958610E+04  0.50400001928E-02 0. -1.
       -1   -1    0    0    0  501  0.00000000000E+00  0.00000000000E+00 -0.12427828069E+04  0.12427828069E+04  0.50400001928E-02 0.  1.
    10030    2    1    2    0    0  0.00000000000E+00  0.00000000000E+00  0.10140130541E+04  0.34995786679E+04  0.33494519520E+04 0.  0.
        3    1    3    3  502    0  0.10877958981E+04 -0.29337255573E+03  0.18016323043E+04  0.21249109023E+04  0.10100000352E+00 0. -1.
       -3    1    3    3    0  502 -0.10877958981E+04  0.29337255573E+03 -0.78761925017E+03  0.13746677656E+04  0.10100000352E+00 0.  1.
</event>
<event>
 5   0  0.4272633E-07  0.3402868E+04  0.7818609E-02  0.8137203E-01
       -1   -1    0    0    0  501  0.00000000000E+00  0.00000000000E+00  0.14243506130E+04  0.14243506130E+04  0.50400001928E-02 0.  1.
        1   -1    0    0  501    0  0.00000000000E+00  0.00000000000E+00 -0.20324190337E+04  0.20324190337E+04  0.50400001928E-02 0. -1.
    10030    2    1    2    0    0  0.00000000000E+00  0.00000000000E+00 -0.60806842069E+03  0.34567696467E+04  0.34028677885E+04 0.  0.
        1    1    3    3  502    0 -0.28130234995E+03 -0.41483926654E+03  0.13476526963E+04  0.14378422789E+04  0.50400001928E-02 0.  1.
       -1    1    3    3    0  502  0.28130234995E+03  0.41483926654E+03 -0.19557211170E+04  0.20189273678E+04  0.50400001928E-02 0. -1.
</event>
<event>
 5   0  0.1268230E-06  0.3043674E+04  0.7818609E-02  0.8231368E-01
       -2   -1    0    0    0  501  0.00000000000E+00  0.00000000000E+00  0.10797811973E+04  0.10797811973E+04  0.25500000920E-02 0.  1.
        2   -1    0    0  501    0  0.00000000000E+00  0.00000000000E+00 -0.21448672137E+04  0.21448672137E+04  0.25500000920E-02 0. -1.
    10030    2    1    2    0    0  0.00000000000E+00  0.00000000000E+00 -0.10650860164E+04  0.32246484110E+04  0.30436736278E+04 0.  0.
        2    1    3    3  502    0 -0.67263301012E+03 -0.11536181262E+04  0.24072974068E+03  0.13569158984E+04  0.25500000920E-02 0.  1.
       -2    1    3    3    0  502  0.67263301012E+03  0.11536181262E+04 -0.13058157571E+04  0.18677325126E+04  0.25500000920E-02 0. -1.
</event>
<event>
 5   0  0.4109937E-07  0.3345594E+04  0.7818609E-02  0.8151390E-01
       -1   -1    0    0    0  501  0.00000000000E+00  0.00000000000E+00  0.14187351783E+04  0.14187351783E+04  0.50400001928E-02 0.  1.
        1   -1    0    0  501    0  0.00000000000E+00  0.00000000000E+00 -0.19723551781E+04  0.19723551781E+04  0.50400001928E-02 0. -1.
    10030    2    1    2    0    0  0.00000000000E+00  0.00000000000E+00 -0.55361999983E+03  0.33910903565E+04  0.33455939236E+04 0.  0.
        5    1    3    3  502    0  0.10643606958E+04  0.40329035517E+03  0.96571541802E+03  0.14926939270E+04  0.46999998093E+01 0.  1.
       -5    1    3    3    0  502 -0.10643606958E+04 -0.40329035517E+03 -0.15193354179E+04  0.18983964294E+04  0.46999998093E+01 0. -1.
</event>
<event>
 5   0  0.4464951E-07  0.3371170E+04  0.7818609E-02  0.8145019E-01
        1   -1    0    0  501    0  0.00000000000E+00  0.00000000000E+00  0.19706063391E+04  0.19706063391E+04  0.50400001928E-02 0. -1.
       -1   -1    0    0    0  501  0.00000000000E+00  0.00000000000E+00 -0.14417880532E+04  0.14417880532E+04  0.50400001928E-02 0.  1.
    10030    2    1    2    0    0  0.00000000000E+00  0.00000000000E+00  0.52881828594E+03  0.34123943923E+04  0.33711699318E+04 0.  0.
        3    1    3    3  502    0 -0.42635266968E+03  0.16129532794E+04  0.21049137908E+02  0.16684837299E+04  0.10100000352E+00 0. -1.
       -3    1    3    3    0  502  0.42635266968E+03 -0.16129532794E+04  0.50776914803E+03  0.17439106624E+04  0.10100000352E+00 0.  1.
</event>
<event>
 5   0  0.4125758E-07  0.3366223E+04  0.7818609E-02  0.8146246E-01
        1   -1    0    0  501    0  0.00000000000E+00  0.00000000000E+00  0.11992252143E+04  0.11992252143E+04  0.50400001928E-02 0.  1.
       -1   -1    0    0    0  501  0.00000000000E+00  0.00000000000E+00 -0.23622453962E+04  0.23622453962E+04  0.50400001928E-02 0. -1.
    10030    2    1    2    0    0  0.00000000000E+00  0.00000000000E+00 -0.11630201819E+04  0.35614706105E+04  0.33662229525E+04 0.  0.
        2    1    3    3  502    0  0.30841506219E+03  0.37427160488E+03  0.11237007008E+04  0.12238882097E+04  0.25500000920E-02 0.  1.
       -2    1    3    3    0  502 -0.30841506219E+03 -0.37427160488E+03 -0.22867208827E+04  0.23375824008E+04  0.25500000920E-02 0. -1.
</event>
<event>
 5   0  0.1268230E-06  0.3402792E+04  0.7818609E-02  0.8137221E-01
        2   -1    0    0  501    0  0.00000000000E+00  0.00000000000E+00  0.20861481871E+04  0.20861481871E+04  0.25500000920E-02 0.  1.
       -2   -1    0    0    0  501  0.00000000000E+00  0.00000000000E+00 -0.13876045258E+04  0.13876045258E+04  0.25500000920E-02 0. -1.
    10030    2    1    2    0    0  0.00000000000E+00  0.00000000000E+00  0.69854366128E+03  0.34737527130E+04  0.34027921864E+04 0.  0.
        2    1    3    3  502    0 -0.84088201810E+03  0.17796627330E+03 -0.11496785488E+04  0.14354495214E+04  0.25500000920E-02 0. -1.
       -2    1    3    3    0  502  0.84088201810E+03 -0.17796627330E+03  0.18482222101E+04  0.20383031916E+04  0.25500000920E-02 0.  1.
</event>
<event>
 5   0  0.1256208E-06  0.3329508E+04  0.7818609E-02  0.8155427E-01
        2   -1    0    0  501    0  0.00000000000E+00  0.00000000000E+00  0.13224038299E+04  0.13224038299E+04  0.25500000920E-02 0.  1.
       -2   -1    0    0    0  501  0.00000000000E+00  0.00000000000E+00 -0.20957330798E+04  0.20957330798E+04  0.25500000920E-02 0. -1.
    10030    2    1    2    0    0  0.00000000000E+00  0.00000000000E+00 -0.77332924989E+03  0.34181369097E+04  0.33295077421E+04 0.  0.
        3    1    3    3  502    0 -0.42364022458E+03 -0.90679215953E+03 -0.17523625016E+04  0.20180479201E+04  0.10100000352E+00 0. -1.
       -3    1    3    3    0  502  0.42364022458E+03  0.90679215953E+03  0.97903325174E+03  0.14000889896E+04  0.10100000352E+00 0.  1.
</event>
<event>
 5   0  0.4109937E-07  0.3387379E+04  0.7818609E-02  0.8141011E-01
        1   -1    0    0  501    0  0.00000000000E+00  0.00000000000E+00  0.17588191553E+04  0.17588191553E+04  0.50400001928E-02 0. -1.
       -1   -1    0    0    0  501  0.00000000000E+00  0.00000000000E+00 -0.16309716011E+04  0.16309716012E+04  0.50400001928E-02 0.  1.
    10030    2    1    2    0    0  0.00000000000E+00  0.00000000000E+00  0.12784755418E+03  0.33897907565E+04  0.33873789832E+04 0.  0.
        5    1    3    3  502    0 -0.89918848851E+03  0.32477386449E+03 -0.13351216895E+04  0.16421297198E+04  0.46999998093E+01 0.  1.
       -5    1    3    3    0  502  0.89918848851E+03 -0.32477386449E+03  0.14629692437E+04  0.17476610366E+04  0.46999998093E+01 0. -1.
</event>
<event>
 5   0  0.4272633E-07  0.3411496E+04  0.7818609E-02  0.8135091E-01
       -1   -1    0    0    0  501  0.00000000000E+00  0.00000000000E+00  0.16140204679E+04  0.16140204679E+04  0.50400001928E-02 0. -1.
        1   -1    0    0  501    0  0.00000000000E+00  0.00000000000E+00 -0.18026885737E+04  0.18026885737E+04  0.50400001928E-02 0.  1.
    10030    2    1    2    0    0  0.00000000000E+00  0.00000000000E+00 -0.18866810578E+03  0.34167090417E+04  0.34114960093E+04 0.  0.
        1    1    3    3  502    0  0.89245353346E+03 -0.11035706265E+04 -0.10419483658E+04  0.17606810711E+04  0.50400001928E-02 0.  1.
       -1    1    3    3    0  502 -0.89245353346E+03  0.11035706265E+04  0.85328026006E+03  0.16560279706E+04  0.50400001928E-02 0. -1.
</event>
<event>
 5   0  0.4109937E-07  0.3373247E+04  0.7818609E-02  0.8144504E-01
       -1   -1    0    0    0  501  0.00000000000E+00  0.00000000000E+00  0.18969271573E+04  0.18969271573E+04  0.50400001928E-02 0. -1.
        1   -1    0    0  501    0  0.00000000000E+00  0.00000000000E+00 -0.14996352316E+04  0.14996352316E+04  0.50400001928E-02 0.  1.
    10030    2    1    2    0    0  0.00000000000E+00  0.00000000000E+00  0.39729192569E+03  0.33965623888E+04  0.33732469798E+04 0.  0.
        5    1    3    3  502    0  0.47471725349E+03  0.96069507675E+03  0.15101018715E+04  0.18516806565E+04  0.46999998093E+01 0. -1.
       -5    1    3    3    0  502 -0.47471725349E+03 -0.96069507675E+03 -0.11128099459E+04  0.15448817323E+04  0.46999998093E+01 0.  1.
</event>
<event>
 5   0  0.1269497E-06  0.3395486E+04  0.7818609E-02  0.8139015E-01
       -2   -1    0    0    0  501  0.00000000000E+00  0.00000000000E+00  0.11582276171E+04  0.11582276171E+04  0.25500000920E-02 0.  1.
        2   -1    0    0  501    0  0.00000000000E+00  0.00000000000E+00 -0.24885708897E+04  0.24885708897E+04  0.25500000920E-02 0. -1.
    10030    2    1    2    0    0  0.00000000000E+00  0.00000000000E+00 -0.13303432726E+04  0.36467985068E+04  0.33954861399E+04 0.  0.
        5    1    3    3  502    0 -0.13183932563E+03  0.22143641394E+03  0.11370904143E+04  0.11659384176E+04  0.46999998093E+01 0.  1.
       -5    1    3    3    0  502  0.13183932563E+03 -0.22143641394E+03 -0.24674336869E+04  0.24808600892E+04  0.46999998093E+01 0. -1.
</event>
<event>
 5   0  0.1268230E-06  0.3158283E+04  0.7818609E-02  0.8199922E-01
        2   -1    0    0  501    0  0.00000000000E+00  0.00000000000E+00  0.76128845505E+03  0.76128845505E+03  0.25500000920E-02 0. -1.
       -2   -1    0    0    0  501  0.00000000000E+00  0.00000000000E+00 -0.32756143248E+04  0.32756143248E+04  0.25500000920E-02 0.  1.
    10030    2    1    2    0    0  0.00000000000E+00  0.00000000000E+00 -0.25143258697E+04  0.40369027798E+04  0.31582826781E+04 0.  0.
        2    1    3    3  502    0  0.90507821177E+03  0.12506944256E+04 -0.16816398192E+04  0.22828306107E+04  0.25500000920E-02 0. -1.
       -2    1    3    3    0  502 -0.90507821177E+03 -0.12506944256E+04 -0.83268605058E+03  0.17540721691E+04  0.25500000920E-02 0.  1.
</event>
<event>
 5   0  0.1268230E-06  0.3404498E+04  0.7818609E-02  0.8136803E-01
        2   -1    0    0  501    0  0.00000000000E+00  0.00000000000E+00  0.23248533877E+04  0.23248533877E+04  0.25500000920E-02 0.  1.
       -2   -1    0    0    0  501  0.00000000000E+00  0.00000000000E+00 -0.12463806360E+04  0.12463806360E+04  0.25500000920E-02 0. -1.
    10030    2    1    2    0    0  0.00000000000E+00  0.00000000000E+00  0.10784727516E+04  0.35712340237E+04  0.34044983443E+04 0.  0.
        2    1    3    3  502    0  0.15721508239E+04  0.59664130760E+03  0.26167752032E+03  0.17017973404E+04  0.25500000920E-02 0. -1.
       -2    1    3    3    0  502 -0.15721508239E+04 -0.59664130760E+03  0.81679523132E+03  0.18694366833E+04  0.25500000920E-02 0.  1.
</event>
<event>
 5   0  0.1269497E-06  0.3371070E+04  0.7818609E-02  0.8145043E-01
       -2   -1    0    0    0  501  0.00000000000E+00  0.00000000000E+00  0.15647841877E+04  0.15647841877E+04  0.25500000920E-02 0. -1.
        2   -1    0    0  501    0  0.00000000000E+00  0.00000000000E+00 -0.18156037007E+04  0.18156037007E+04  0.25500000920E-02 0.  1.
    10030    2    1    2    0    0  0.00000000000E+00  0.00000000000E+00 -0.25081951292E+03  0.33803878884E+04  0.33710698373E+04 0.  0.
        5    1    3    3  502    0 -0.11888581196E+04 -0.28360915291E+02 -0.13232063182E+04  0.17790685823E+04  0.46999998093E+01 0.  1.
       -5    1    3    3    0  502  0.11888581196E+04  0.28360915291E+02  0.10723868053E+04  0.16013193061E+04  0.46999998093E+01 0. -1.
</event>
<event>
 5   0  0.1300176E-06  0.3418458E+04  0.7818609E-02  0.8133391E-01
        2   -1    0    0  501    0  0.00000000000E+00  0.00000000000E+00  0.11941160797E+04  0.11941160797E+04  0.25500000920E-02 0. -1.
       -2   -1    0    0    0  501  0.00000000000E+00  0.00000000000E+00 -0.24465498967E+04  0.24465498967E+04  0.25500000920E-02 0.  1.
    10030    2    1    2    0    0  0.00000000000E+00  0.00000000000E+00 -0.12524338170E+04  0.36406659764E+04  0.34184584663E+04 0.  0.
        1    1    3    3  502    0  0.81306241770E+03  0.60406831701E+03  0.84004621252E+03  0.13159204634E+04  0.50400001928E-02 0. -1.
       -1    1    3    3    0  502 -0.81306241770E+03 -0.60406831701E+03 -0.20924800295E+04  0.23247455131E+04  0.50400001928E-02 0.  1.
</event>
<event>
 5   0  0.1268230E-06  0.3387136E+04  0.7818609E-02  0.8141071E-01
        2   -1    0    0  501    0  0.00000000000E+00  0.00000000000E+00  0.17135454759E+04  0.17135454760E+04  0.25500000920E-02 0.  1.
       -2   -1    0    0    0  501  0.00000000000E+00  0.00000000000E+00 -0.16738232294E+04  0.16738232294E+04  0.25500000920E-02 0. -1.
    10030    2    1    2    0    0  0.00000000000E+00  0.00000000000E+00  0.39722246571E+02  0.33873687053E+04  0.33871357943E+04 0.  0.
        2    1    3    3  502    0 -0.80708915546E+02  0.15406829461E+04  0.71844645239E+03  0.17018763687E+04  0.25500000920E-02 0.  1.
       -2    1    3    3    0  502  0.80708915546E+02 -0.15406829461E+04 -0.67872420582E+03  0.16854923366E+04  0.25500000920E-02 0. -1.
</event>
<event>
 5   0  0.1300176E-06  0.3428899E+04  0.7818609E-02  0.8130850E-01
        2   -1    0    0  501    0  0.00000000000E+00  0.00000000000E+00  0.10463475663E+04  0.10463475663E+04  0.25500000920E-02 0.  1.
       -2   -1    0    0    0  501  0.00000000000E+00  0.00000000000E+00 -0.28091408282E+04  0.28091408282E+04  0.25500000920E-02 0. -1.
    10030    2    1    2    0    0  0.00000000000E+00  0.00000000000E+00 -0.17627932619E+04  0.38554883946E+04  0.34288993389E+04 0.  0.
        1    1    3    3  502    0  0.35965870782E+03 -0.84498198983E+03  0.74647117711E+03  0.11834560269E+04  0.50400001928E-02 0.  1.
       -1    1    3    3    0  502 -0.35965870782E+03  0.84498198983E+03 -0.25092644390E+04  0.26720323677E+04  0.50400001928E-02 0. -1.
</event>
<event>
 5   0  0.4289684E-07  0.3463950E+04  0.7818609E-02  0.8122387E-01
        1   -1    0    0  501    0  0.00000000000E+00  0.00000000000E+00  0.26599704925E+04  0.26599704925E+04  0.50400001928E-02 0. -1.
       -1   -1    0    0    0  501  0.00000000000E+00  0.00000000000E+00 -0.11277335006E+04  0.11277335006E+04  0.50400001928E-02 0.  1.
    10030    2    1    2    0    0  0.00000000000E+00  0.00000000000E+00  0.15322369918E+04  0.37877039931E+04  0.34639502508E+04 0.  0.
        4    1    3    3  502    0 -0.11361826700E+04  0.73305701028E+03 -0.41737736326E+03  0.14150933242E+04  0.12699999809E+01 0.  1.
       -4    1    3    3    0  502  0.11361826700E+04 -0.73305701028E+03  0.19496143551E+04  0.23726106689E+04  0.12699999809E+01 0. -1.
</event>
<event>
 5   0  0.4272633E-07  0.3455421E+04  0.7818609E-02  0.8124437E-01
        1   -1    0    0  501    0  0.00000000000E+00  0.00000000000E+00  0.30641418419E+04  0.30641418419E+04  0.50400001928E-02 0.  1.
       -1   -1    0    0    0  501  0.00000000000E+00  0.00000000000E+00 -0.97416605446E+03  0.97416605448E+03  0.50400001928E-02 0. -1.
    10030    2    1    2    0    0  0.00000000000E+00  0.00000000000E+00  0.20899757874E+04  0.40383078964E+04  0.34554206508E+04 0.  0.
        1    1    3    3  502    0 -0.13547467562E+04 -0.10456835638E+04  0.76795692094E+03  0.18757800301E+04  0.50400001928E-02 0. -1.
       -1    1    3    3    0  502  0.13547467562E+04  0.10456835638E+04  0.13220188665E+04  0.21625278662E+04  0.50400001928E-02 0.  1.
</event>
<event>
 5   0  0.4289684E-07  0.3247448E+04  0.7818609E-02  0.8176397E-01
       -1   -1    0    0    0  501  0.00000000000E+00  0.00000000000E+00  0.13500496962E+04  0.13500496962E+04  0.50400001928E-02 0.  1.
        1   -1    0    0  501    0  0.00000000000E+00  0.00000000000E+00 -0.19528763971E+04  0.19528763971E+04  0.50400001928E-02 0. -1.
    10030    2    1    2    0    0  0.00000000000E+00  0.00000000000E+00 -0.60282670086E+03  0.33029260933E+04  0.32474483439E+04 0.  0.
        4    1    3    3  502    0  0.51465281733E+03  0.10122648048E+04 -0.14818135689E+04  0.18669013427E+04  0.12699999809E+01 0. -1.
       -4    1    3    3    0  502 -0.51465281733E+03 -0.10122648048E+04  0.87898686802E+03  0.14360247506E+04  0.12699999809E+01 0.  1.
</event>
<event>
 5   0  0.1277635E-06  0.3364604E+04  0.7818609E-02  0.8146649E-01
       -2   -1    0    0    0  501  0.00000000000E+00  0.00000000000E+00  0.11005264660E+04  0.11005264660E+04  0.25500000920E-02 0. -1.
        2   -1    0    0  501    0  0.00000000000E+00  0.00000000000E+00 -0.25716236430E+04  0.25716236430E+04  0.25500000920E-02 0.  1.
    10030    2    1    2    0    0  0.00000000000E+00  0.00000000000E+00 -0.14710971770E+04  0.36721501091E+04  0.33646039171E+04 0.  0.
        4    1    3    3  502    0  0.15185265101E+04 -0.67863502285E+03 -0.10109422507E+04  0.19464002937E+04  0.12699999809E+01 0.  1.
       -4    1    3    3    0  502 -0.15185265101E+04  0.67863502285E+03 -0.46015492633E+03  0.17257498154E+04  0.12699999809E+01 0. -1.
</event>
<event>
 5   0  0.4109937E-07  0.3427137E+04  0.7818609E-02  0.8131278E-01
       -1   -1    0    0    0  501  0.00000000000E+00  0.00000000000E+00  0.24032949138E+04  0.24032949138E+04  0.50400001928E-02 0. -1.
        1   -1    0    0  501    0  0.00000000000E+00  0.00000000000E+00 -0.12217880350E+04  0.12217880350E+04  0.50400001928E-02 0.  1.
    10030    2    1    2    0    0  0.00000000000E+00  0.00000000000E+00  0.11815068788E+04  0.36250829488E+04  0.34271369802E+04 0.  0.
        5    1    3    3  502    0  0.32794770318E+03 -0.14498506174E+04  0.14924441644E+04  0.21064254515E+04  0.46999998093E+01 0. -1.
       -5    1    3    3    0  502 -0.32794770318E+03  0.14498506174E+04 -0.31093728564E+03  0.15186574974E+04  0.46999998093E+01 0.  1.
</event>
<event>
 5   0  0.4125758E-07  0.3336954E+04  0.7818609E-02  0.8153556E-01
       -1   -1    0    0    0  501  0.00000000000E+00  0.00000000000E+00  0.20781673031E+04  0.20781673031E+04  0.50400001928E-02 0. -1.
        1   -1    0    0  501    0  0.00000000000E+00  0.00000000000E+00 -0.13395528553E+04  0.13395528554E+04  0.50400001928E-02 0.  1.
    10030    2    1    2    0    0  0.00000000000E+00  0.00000000000E+00  0.73861444773E+03  0.34177201584E+04  0.33369536675E+04 0.  0.
        2    1    3    3  502    0  0.98851692999E+03 -0.85565140378E+03 -0.69236763654E+03  0.14794181254E+04  0.25500000920E-02 0.  1.
       -2    1    3    3    0  502 -0.98851692999E+03  0.85565140378E+03  0.14309820843E+04  0.19383020330E+04  0.25500000920E-02 0. -1.
</event>
<event>
 5   0  0.4289684E-07  0.3474817E+04  0.7818609E-02  0.8119784E-01
       -1   -1    0    0    0  501  0.00000000000E+00  0.00000000000E+00  0.16229395298E+04  0.16229395298E+04  0.50400001928E-02 0.  1.
        1   -1    0    0  501    0  0.00000000000E+00  0.00000000000E+00 -0.18599511756E+04  0.18599511757E+04  0.50400001928E-02 0. -1.
    10030    2    1    2    0    0  0.00000000000E+00  0.00000000000E+00 -0.23701164586E+03  0.34828907054E+04  0.34748169946E+04 0.  0.
        4    1    3    3  502    0 -0.29893365847E+03  0.15247305333E+04  0.66074647625E+03  0.16884170249E+04  0.12699999809E+01 0.  1.
       -4    1    3    3    0  502  0.29893365847E+03 -0.15247305333E+04 -0.89775812211E+03  0.17944736805E+04  0.12699999809E+01 0. -1.
</event>
<event>
 5   0  0.4289684E-07  0.3371496E+04  0.7818609E-02  0.8144938E-01
       -1   -1    0    0    0  501  0.00000000000E+00  0.00000000000E+00  0.13725300559E+04  0.13725300559E+04  0.50400001928E-02 0. -1.
        1   -1    0    0  501    0  0.00000000000E+00  0.00000000000E+00 -0.20704435873E+04  0.20704435873E+04  0.50400001928E-02 0.  1.
    10030    2    1    2    0    0  0.00000000000E+00  0.00000000000E+00 -0.69791353145E+03  0.34429736432E+04  0.33714958417E+04 0.  0.
        4    1    3    3  502    0 -0.38902533491E+03 -0.98673749275E+03  0.98907048376E+03  0.14502598476E+04  0.12699999809E+01 0. -1.
       -4    1    3    3    0  502  0.38902533491E+03  0.98673749275E+03 -0.16869840152E+04  0.19927137956E+04  0.12699999809E+01 0.  1.
</event>
<event>
 5   0  0.1256208E-06  0.3390185E+04  0.7818609E-02  0.8140319E-01
        2   -1    0    0  501    0  0.00000000000E+00  0.00000000000E+00  0.26946590353E+04  0.26946590353E+04  0.25500000920E-02 0. -1.
       -2   -1    0    0    0  501  0.00000000000E+00  0.00000000000E+00 -0.10663088201E+04  0.10663088201E+04  0.25500000920E-02 0.  1.
    10030    2    1    2    0    0  0.00000000000E+00  0.00000000000E+00  0.16283502153E+04  0.37609678554E+04  0.33901850666E+04 0.  0.
        3    1    3    3  502    0 -0.12567795200E+04 -0.89339347297E+03  0.15952311233E+04  0.22186502668E+04  0.10100000352E+00 0. -1.
       -3    1    3    3    0  502  0.12567795200E+04  0.89339347297E+03  0.33119091931E+02  0.15423175885E+04  0.10100000352E+00 0.  1.
</event>
<event>
 5   0  0.4125758E-07  0.3392335E+04  0.7818609E-02  0.8139790E-01
        1   -1    0    0  501    0  0.00000000000E+00  0.00000000000E+00  0.24673608003E+04  0.24673608003E+04  0.50400001928E-02 0.  1.
       -1   -1    0    0    0  501  0.00000000000E+00  0.00000000000E+00 -0.11660165881E+04  0.11660165881E+04  0.50400001928E-02 0. -1.
    10030    2    1    2    0    0  0.00000000000E+00  0.00000000000E+00  0.13013442122E+04  0.36333773883E+04  0.33923346662E+04 0.  0.
        2    1    3    3  502    0 -0.23752221885E+02 -0.15375179657E+04  0.14173994291E+04  0.20913026573E+04  0.25500000920E-02 0.  1.
       -2    1    3    3    0  502  0.23752221885E+02  0.15375179657E+04 -0.11605521685E+03  0.15420747311E+04  0.25500000920E-02 0. -1.
</event>
<event>
 5   0  0.1256208E-06  0.3392463E+04  0.7818609E-02  0.8139759E-01
       -2   -1    0    0    0  501  0.00000000000E+00  0.00000000000E+00  0.16692911975E+04  0.16692911975E+04  0.25500000920E-02 0. -1.
        2   -1    0    0  501    0  0.00000000000E+00  0.00000000000E+00 -0.17236069886E+04  0.17236069886E+04  0.25500000920E-02 0.  1.
    10030    2    1    2    0    0  0.00000000000E+00  0.00000000000E+00 -0.54315791069E+02  0.33928981861E+04  0.33924633965E+04 0.  0.
        3    1    3    3  502    0 -0.11407050742E+04  0.10981839399E+04 -0.63550054179E+03  0.17061878504E+04  0.10100000352E+00 0.  1.
       -3    1    3    3    0  502  0.11407050742E+04 -0.10981839399E+04  0.58118475072E+03  0.16867103357E+04  0.10100000352E+00 0. -1.
</event>
<event>
 5   0  0.4060750E-07  0.3419758E+04  0.7818609E-02  0.8133074E-01
       -3   -1    0    0    0  501  0.00000000000E+00  0.00000000000E+00  0.14434312968E+04  0.14434313004E+04  0.10100000352E+00 0. -1.
        3   -1    0    0  501    0  0.00000000000E+00  0.00000000000E+00 -0.20255111170E+04  0.20255111195E+04  0.10100000352E+00 0.  1.
    10030    2    1    2    0    0  0.00000000000E+00  0.00000000000E+00 -0.58207982012E+03  0.34689424198E+04  0.34197579732E+04 0.  0.
        2    1    3    3  502    0  0.57513188193E+03 -0.17278938175E+02  0.13422767506E+04  0.14604047790E+04  0.25500000920E-02 0. -1.
       -2    1    3    3    0  502 -0.57513188193E+03  0.17278938175E+02 -0.19243565707E+04  0.20085376408E+04  0.25500000920E-02 0.  1.
</event>
<event>
 5   0  0.1256208E-06  0.3382495E+04  0.7818609E-02  0.8142216E-01
       -2   -1    0    0    0  501  0.00000000000E+00  0.00000000000E+00  0.10260686312E+04  0.10260686312E+04  0.25500000920E-02 0.  1.
        2   -1    0    0  501    0  0.00000000000E+00  0.00000000000E+00 -0.27876475927E+04  0.27876475927E+04  0.25500000920E-02 0. -1.
    10030    2    1    2    0    0  0.00000000000E+00  0.00000000000E+00 -0.17615789615E+04  0.38137162239E+04  0.33824947892E+04 0.  0.
        3    1    3    3  502    0 -0.57583472875E+03  0.15783940104E+04 -0.66273104642E+03  0.18061355810E+04  0.10100000352E+00 0.  1.
       -3    1    3    3    0  502  0.57583472875E+03 -0.15783940104E+04 -0.10988479151E+04  0.20075806429E+04  0.10100000352E+00 0. -1.
</event>
<event>
 5   0  0.4464951E-07  0.3393513E+04  0.7818609E-02  0.8139500E-01
       -1   -1    0    0    0  501  0.00000000000E+00  0.00000000000E+00  0.13294046834E+04  0.13294046834E+04  0.50400001928E-02 0.  1.
        1   -1    0    0  501    0  0.00000000000E+00  0.00000000000E+00 -0.21656176297E+04  0.21656176297E+04  0.50400001928E-02 0. -1.
    10030    2    1    2    0    0  0.00000000000E+00  0.00000000000E+00 -0.83621294633E+03  0.34950223132E+04  0.33935127638E+04 0.  0.
        3    1    3    3  502    0  0.10384802976E+04 -0.16767915890E+03 -0.17892545154E+04  0.20755696471E+04  0.10100000352E+00 0. -1.
       -3    1    3    3    0  502 -0.10384802976E+04  0.16767915890E+03  0.95304156904E+03  0.14194526661E+04  0.10100000352E+00 0.  1.
</event>
<event>
 5   0  0.4109937E-07  0.3379888E+04  0.7818609E-02  0.8142860E-01
        1   -1    0    0  501    0  0.00000000000E+00  0.00000000000E+00  0.20175769631E+04  0.20175769631E+04  0.50400001928E-02 0.  1.
       -1   -1    0    0    0  501  0.00000000000E+00  0.00000000000E+00 -0.14155148881E+04  0.14155148881E+04  0.50400001928E-02 0. -1.
    10030    2    1    2    0    0  0.00000000000E+00  0.00000000000E+00  0.60206207496E+03  0.34330918512E+04  0.33798877077E+04 0.  0.
        5    1    3    3  502    0 -0.70689633609E+03  0.40940464653E+03 -0.12016393358E+04  0.14530222909E+04  0.46999998093E+01 0. -1.
       -5    1    3    3    0  502  0.70689633609E+03 -0.40940464653E+03  0.18037014107E+04  0.19800695603E+04  0.46999998093E+01 0.  1.
</event>
<event>
 5   0  0.1269497E-06  0.3387557E+04  0.7818609E-02  0.8140967E-01
       -2   -1    0    0    0  501  0.00000000000E+00  0.00000000000E+00  0.13770903002E+04  0.13770903002E+04  0.25500000920E-02 0. -1.
        2   -1    0    0  501    0  0.00000000000E+00  0.00000000000E+00 -0.20832957738E+04  0.20832957739E+04  0.25500000920E-02 0.  1.
    10030    2    1    2    0    0  0.00000000000E+00  0.00000000000E+00 -0.70620547367E+03  0.34603860740E+04  0.33875574697E+04 0.  0.
        5    1    3    3  502    0 -0.85523682963E+02 -0.14462928780E+04 -0.12493403130E+04  0.19130997614E+04  0.46999998093E+01 0.  1.
       -5    1    3    3    0  502  0.85523682963E+02  0.14462928780E+04  0.54313483937E+03  0.15472863126E+04  0.46999998093E+01 0. -1.
</event>
<event>
 5   0  0.4464951E-07  0.3513171E+04  0.7818609E-02  0.8110676E-01
       -1   -1    0    0    0  501  0.00000000000E+00  0.00000000000E+00  0.13991037808E+04  0.13991037808E+04  0.50400001928E-02 0.  1.
        1   -1    0    0  501    0  0.00000000000E+00  0.00000000000E+00 -0.22054071141E+04  0.22054071141E+04  0.50400001928E-02 0. -1.
    10030    2    1    2    0    0  0.00000000000E+00  0.00000000000E+00 -0.80630333331E+03  0.36045108948E+04  0.35131714626E+04 0.  0.
        3    1    3    3  502    0  0.10890018646E+04 -0.12947130570E+04  0.81774276676E+02  0.16937809786E+04  0.10100000352E+00 0.  1.
       -3    1    3    3    0  502 -0.10890018646E+04  0.12947130570E+04 -0.88807760999E+03  0.19107299162E+04  0.10100000352E+00 0. -1.
</event>
<event>
 5   0  0.4125758E-07  0.3391982E+04  0.7818609E-02  0.8139877E-01
       -1   -1    0    0    0  501  0.00000000000E+00  0.00000000000E+00  0.92320019936E+03  0.92320019937E+03  0.50400001928E-02 0.  1.
        1   -1    0    0  501    0  0.00000000000E+00  0.00000000000E+00 -0.31156686658E+04  0.31156686658E+04  0.50400001928E-02 0. -1.
    10030    2    1    2    0    0  0.00000000000E+00  0.00000000000E+00 -0.21924684664E+04  0.40388688651E+04  0.33919822720E+04 0.  0.
        2    1    3    3  502    0 -0.13073905896E+04 -0.37530010541E+03  0.11001226891E+03  0.13646329258E+04  0.25500000920E-02 0.  1.
       -2    1    3    3    0  502  0.13073905896E+04  0.37530010541E+03 -0.23024807353E+04  0.26742359393E+04  0.25500000920E-02 0. -1.
</event>
<event>
 5   0  0.1268230E-06  0.3381721E+04  0.7818609E-02  0.8142407E-01
       -2   -1    0    0    0  501  0.00000000000E+00  0.00000000000E+00  0.20990434500E+04  0.20990434500E+04  0.25500000920E-02 0.  1.
        2   -1    0    0  501    0  0.00000000000E+00  0.00000000000E+00 -0.13620531780E+04  0.13620531780E+04  0.25500000920E-02 0. -1.
    10030    2    1    2    0    0  0.00000000000E+00  0.00000000000E+00  0.73699027203E+03  0.34610966281E+04  0.33817207466E+04 0.  0.
        2    1    3    3  502    0 -0.86066498740E+03  0.49593482191E+03 -0.10319472150E+04  0.14323444497E+04  0.25500000920E-02 0. -1.
       -2    1    3    3    0  502  0.86066498740E+03 -0.49593482191E+03  0.17689374870E+04  0.20287521783E+04  0.25500000920E-02 0.  1.
</event>
<event>
 5   0  0.1268230E-06  0.3396563E+04  0.7818609E-02  0.8138750E-01
        2   -1    0    0  501    0  0.00000000000E+00  0.00000000000E+00  0.19329676451E+04  0.19329676451E+04  0.25500000920E-02 0. -1.
       -2   -1    0    0    0  501  0.00000000000E+00  0.00000000000E+00 -0.14920889974E+04  0.14920889974E+04  0.25500000920E-02 0.  1.
    10030    2    1    2    0    0  0.00000000000E+00  0.00000000000E+00  0.44087864771E+03  0.34250566425E+04  0.33965628247E+04 0.  0.
        2    1    3    3  502    0 -0.73512009412E+03 -0.83285344127E+03  0.15157829571E+04  0.18792669796E+04  0.25500000920E-02 0. -1.
       -2    1    3    3    0  502  0.73512009412E+03  0.83285344127E+03 -0.10749043094E+04  0.15457896629E+04  0.25500000920E-02 0.  1.
</event>
<event>
 5   0  0.1277635E-06  0.3407192E+04  0.7818609E-02  0.8136143E-01
        2   -1    0    0  501    0  0.00000000000E+00  0.00000000000E+00  0.24900485057E+04  0.24900485057E+04  0.25500000920E-02 0. -1.
       -2   -1    0    0    0  501  0.00000000000E+00  0.00000000000E+00 -0.11655353741E+04  0.11655353741E+04  0.25500000920E-02 0.  1.
    10030    2    1    2    0    0  0.00000000000E+00  0.00000000000E+00  0.13245131316E+04  0.36555838799E+04  0.34071921676E+04 0.  0.
        4    1    3    3  502    0  0.26734097152E+03  0.16686612508E+04  0.43130471273E+03  0.17441120758E+04  0.12699999809E+01 0.  1.
       -4    1    3    3    0  502 -0.26734097152E+03 -0.16686612508E+04  0.89320841891E+03  0.19114718040E+04  0.12699999809E+01 0. -1.
</event>
<event>
 5   0  0.1300176E-06  0.3396585E+04  0.7818609E-02  0.8138745E-01
       -2   -1    0    0    0  501  0.00000000000E+00  0.00000000000E+00  0.17883530627E+04  0.17883530627E+04  0.25500000920E-02 0.  1.
        2   -1    0    0  501    0  0.00000000000E+00  0.00000000000E+00 -0.16127672587E+04  0.16127672587E+04  0.25500000920E-02 0. -1.
    10030    2    1    2    0    0  0.00000000000E+00  0.00000000000E+00  0.17558580399E+03  0.34011203214E+04  0.33965849122E+04 0.  0.
        1    1    3    3  502    0  0.44113625415E+03 -0.55092332110E+03  0.16345495129E+04  0.17804128202E+04  0.50400001928E-02 0.  1.
       -1    1    3    3    0  502 -0.44113625415E+03  0.55092332110E+03 -0.14589637089E+04  0.16207075012E+04  0.50400001928E-02 0. -1.
</event>
<event>
 5   0  0.4125758E-07  0.3323226E+04  0.7818609E-02  0.8157010E-01
        1   -1    0    0  501    0  0.00000000000E+00  0.00000000000E+00  0.15255275052E+04  0.15255275052E+04  0.50400001928E-02 0.  1.
       -1   -1    0    0    0  501  0.00000000000E+00  0.00000000000E+00 -0.18098383568E+04  0.18098383569E+04  0.50400001928E-02 0. -1.
    10030    2    1    2    0    0  0.00000000000E+00  0.00000000000E+00 -0.28431085162E+03  0.33353658621E+04  0.33232262598E+04 0.  0.
        2    1    3    3  502    0 -0.47244715518E+03 -0.58623601056E+03  0.13444979469E+04  0.15409586963E+04  0.25500000920E-02 0.  1.
       -2    1    3    3    0  502  0.47244715518E+03  0.58623601056E+03 -0.16288087985E+04  0.17944071658E+04  0.25500000920E-02 0. -1.
</event>
<event>
 5   0  0.1277635E-06  0.3369241E+04  0.7818609E-02  0.8145497E-01
        2   -1    0    0  501    0  0.00000000000E+00  0.00000000000E+00  0.14967464090E+04  0.14967464090E+04  0.25500000920E-02 0.  1.
       -2   -1    0    0    0  501  0.00000000000E+00  0.00000000000E+00 -0.18960772804E+04  0.18960772804E+04  0.25500000920E-02 0. -1.
    10030    2    1    2    0    0  0.00000000000E+00  0.00000000000E+00 -0.39933087136E+03  0.33928236894E+04  0.33692413750E+04 0.  0.
        4    1    3    3  502    0  0.20732927944E+02  0.11430394538E+04 -0.14456520775E+04  0.18430628284E+04  0.12699999809E+01 0. -1.
       -4    1    3    3    0  502 -0.20732927944E+02 -0.11430394538E+04  0.10463212061E+04  0.15497608611E+04  0.12699999809E+01 0.  1.
</event>
<event>
 5   0  0.1256208E-06  0.3427595E+04  0.7818609E-02  0.8131167E-01
        2   -1    0    0  501    0  0.00000000000E+00  0.00000000000E+00  0.18228212917E+04  0.18228212917E+04  0.25500000920E-02 0. -1.
       -2   -1    0    0    0  501  0.00000000000E+00  0.00000000000E+00 -0.16112947908E+04  0.16112947908E+04  0.25500000920E-02 0.  1.
    10030    2    1    2    0    0  0.00000000000E+00  0.00000000000E+00  0.21152650083E+03  0.34341160825E+04  0.34275953389E+04 0.  0.
        3    1    3    3  502    0 -0.56373929673E+03  0.15053554582E+04 -0.48967823574E+03  0.16803814552E+04  0.10100000352E+00 0. -1.
       -3    1    3    3    0  502  0.56373929673E+03 -0.15053554582E+04  0.70120473657E+03  0.17537346273E+04  0.10100000352E+00 0.  1.
</event>
<event>
 5   0  0.4464951E-07  0.3412689E+04  0.7818609E-02  0.8134799E-01
        1   -1    0    0  501    0  0.00000000000E+00  0.00000000000E+00  0.18937933839E+04  0.18937933839E+04  0.50400001928E-02 0.  1.
       -1   -1    0    0    0  501  0.00000000000E+00  0.00000000000E+00 -0.15374492371E+04  0.15374492371E+04  0.50400001928E-02 0. -1.
    10030    2    1    2    0    0  0.00000000000E+00  0.00000000000E+00  0.35634414681E+03  0.34312426210E+04  0.34126887894E+04 0.  0.
        3    1    3    3  502    0  0.10768724683E+04 -0.11787256661E+04  0.78357746974E+03  0.17784943549E+04  0.10100000352E+00 0.  1.
       -3    1    3    3    0  502 -0.10768724683E+04  0.11787256661E+04 -0.42723332293E+03  0.16527482662E+04  0.10100000352E+00 0. -1.
</event>
<event>
 5   0  0.1269497E-06  0.3372947E+04  0.7818609E-02  0.8144578E-01
        2   -1    0    0  501    0  0.00000000000E+00  0.00000000000E+00  0.11079163710E+04  0.11079163710E+04  0.25500000920E-02 0. -1.
       -2   -1    0    0    0  501  0.00000000000E+00  0.00000000000E+00 -0.25671554778E+04  0.25671554778E+04  0.25500000920E-02 0.  1.
    10030    2    1    2    0    0  0.00000000000E+00  0.00000000000E+00 -0.14592391067E+04  0.36750718488E+04  0.33729474237E+04 0.  0.
        5    1    3    3  502    0  0.62853120881E+03  0.12297477481E+04  0.32498365424E+03  0.14187908478E+04  0.46999998093E+01 0. -1.
       -5    1    3    3    0  502 -0.62853120881E+03 -0.12297477481E+04 -0.17842227610E+04  0.22562810009E+04  0.46999998093E+01 0.  1.
</event>
<event>
 5   0  0.4289684E-07  0.2879960E+04  0.7818609E-02  0.8278865E-01
        1   -1    0    0  501    0  0.00000000000E+00  0.00000000000E+00  0.12527247870E+04  0.12527247870E+04  0.50400001928E-02 0.  1.
       -1   -1    0    0    0  501  0.00000000000E+00  0.00000000000E+00 -0.16552259640E+04  0.16552259640E+04  0.50400001928E-02 0. -1.
    10030    2    1    2    0    0  0.00000000000E+00  0.00000000000E+00 -0.40250117707E+03  0.29079507510E+04  0.28799601339E+04 0.  0.
        4    1    3    3  502    0 -0.17990360588E+03 -0.12126997699E+02  0.12412802859E+04  0.12543088665E+04  0.12699999809E+01 0.  1.
       -4    1    3    3    0  502  0.17990360588E+03  0.12126997699E+02 -0.16437814630E+04  0.16536418845E+04  0.12699999809E+01 0. -1.
</event>
<event>
 5   0  0.1300176E-06  0.3452408E+04  0.7818609E-02  0.8125162E-01
        2   -1    0    0  501    0  0.00000000000E+00  0.00000000000E+00  0.23459101158E+04  0.23459101158E+04  0.25500000920E-02 0.  1.
       -2   -1    0    0    0  501  0.00000000000E+00  0.00000000000E+00 -0.12702020319E+04  0.12702020319E+04  0.25500000920E-02 0. -1.
    10030    2    1    2    0    0  0.00000000000E+00  0.00000000000E+00  0.10757080840E+04  0.36161121477E+04  0.34524077371E+04 0.  0.
        1    1    3    3  502    0  0.99961446380E+03 -0.11558733032E+04 -0.30302560375E+03  0.15579142100E+04  0.50400001928E-02 0. -1.
       -1    1    3    3    0  502 -0.99961446380E+03  0.11558733032E+04  0.13787336877E+04  0.20581979377E+04  0.50400001928E-02 0.  1.
</event>
<event>
 5   0  0.1268230E-06  0.3501561E+04  0.7818609E-02  0.8113420E-01
        2   -1    0    0  501    0  0.00000000000E+00  0.00000000000E+00  0.20635329179E+04  0.20635329179E+04  0.25500000920E-02 0. -1.
       -2   -1    0    0    0  501  0.00000000000E+00  0.00000000000E+00 -0.14854295801E+04  0.14854295801E+04  0.25500000920E-02 0.  1.
    10030    2    1    2    0    0  0.00000000000E+00  0.00000000000E+00  0.57810333777E+03  0.35489624980E+04  0.35015612722E+04 0.  0.
        2    1    3    3  502    0 -0.19740835089E+03  0.14219928260E+04 -0.72661128382E+03  0.16090362370E+04  0.25500000920E-02 0.  1.
       -2    1    3    3    0  502  0.19740835089E+03 -0.14219928260E+04  0.13047146216E+04  0.19399262610E+04  0.25500000920E-02 0. -1.
</event>
<event>
 5   0  0.4109937E-07  0.3462749E+04  0.7818609E-02  0.8122675E-01
       -1   -1    0    0    0  501  0.00000000000E+00  0.00000000000E+00  0.15331359750E+04  0.15331359750E+04  0.50400001928E-02 0.  1.
        1   -1    0    0  501    0  0.00000000000E+00  0.00000000000E+00 -0.19552459136E+04  0.19552459136E+04  0.50400001928E-02 0. -1.
    10030    2    1    2    0    0  0.00000000000E+00  0.00000000000E+00 -0.42210993856E+03  0.34883818887E+04  0.34627491103E+04 0.  0.
        5    1    3    3  502    0 -0.90960212283E+03  0.89414649685E+03 -0.13905170693E+04  0.18869111769E+04  0.46999998093E+01 0. -1.
       -5    1    3    3    0  502  0.90960212283E+03 -0.89414649685E+03  0.96840713071E+03  0.16014707117E+04  0.46999998093E+01 0.  1.
</event>
<event>
 5   0  0.1277635E-06  0.3402628E+04  0.7818609E-02  0.8137262E-01
        2   -1    0    0  501    0  0.00000000000E+00  0.00000000000E+00  0.19189835568E+04  0.19189835568E+04  0.25500000920E-02 0.  1.
       -2   -1    0    0    0  501  0.00000000000E+00  0.00000000000E+00 -0.15083342469E+04  0.15083342469E+04  0.25500000920E-02 0. -1.
    10030    2    1    2    0    0  0.00000000000E+00  0.00000000000E+00  0.41064930990E+03  0.34273178036E+04  0.34026275834E+04 0.  0.
        4    1    3    3  502    0  0.75654202310E+02 -0.89446090313E+03 -0.12503899497E+04  0.15392402362E+04  0.12699999809E+01 0. -1.
       -4    1    3    3    0  502 -0.75654202310E+02  0.89446090313E+03  0.16610392596E+04  0.18880775674E+04  0.12699999809E+01 0.  1.
</event>
<event>
 5   0  0.1269497E-06  0.3430878E+04  0.7818609E-02  0.8130369E-01
        2   -1    0    0  501    0  0.00000000000E+00  0.00000000000E+00  0.25594562377E+04  0.25594562377E+04  0.25500000920E-02 0. -1.
       -2   -1    0    0    0  501  0.00000000000E+00  0.00000000000E+00 -0.11497481771E+04  0.11497481771E+04  0.25500000920E-02 0.  1.
    10030    2    1    2    0    0  0.00000000000E+00  0.00000000000E+00  0.14097080606E+04  0.37092044148E+04  0.34308775226E+04 0.  0.
        5    1    3    3  502    0  0.14321344257E+04 -0.64790531642E+03  0.14475459616E+04  0.21368672662E+04  0.46999998093E+01 0. -1.
       -5    1    3    3    0  502 -0.14321344257E+04  0.64790531642E+03 -0.37837901046E+02  0.15723371487E+04  0.46999998093E+01 0.  1.
</event>
<event>
 5   0  0.4289684E-07  0.3410156E+04  0.7818609E-02  0.8135418E-01
        1   -1    0    0  501    0  0.00000000000E+00  0.00000000000E+00  0.17960774064E+04  0.17960774064E+04  0.50400001928E-02 0. -1.
       -1   -1    0    0    0  501  0.00000000000E+00  0.00000000000E+00 -0.16186895178E+04  0.16186895178E+04  0.50400001928E-02 0.  1.
    10030    2    1    2    0    0  0.00000000000E+00  0.00000000000E+00  0.17738788865E+03  0.34147669242E+04  0.34101564017E+04 0.  0.
        4    1    3    3  502    0 -0.11621465054E+04 -0.11343684115E+04  0.60892870305E+03  0.17344082481E+04  0.12699999809E+01 0. -1.
       -4    1    3    3    0  502  0.11621465054E+04  0.11343684115E+04 -0.43154081440E+03  0.16803586761E+04  0.12699999809E+01 0.  1.
</event>
<event>
 5   0  0.1256208E-06  0.3688857E+04  0.7818609E-02  0.8070436E-01
        2   -1    0    0  501    0  0.00000000000E+00  0.00000000000E+00  0.20345726714E+04  0.20345726714E+04  0.25500000920E-02 0.  1.
       -2   -1    0    0    0  501  0.00000000000E+00  0.00000000000E+00 -0.16720542800E+04  0.16720542800E+04  0.25500000920E-02 0. -1.
    10030    2    1    2    0    0  0.00000000000E+00  0.00000000000E+00  0.36251839139E+03  0.37066269514E+04  0.36888567027E+04 0.  0.
        3    1    3    3  502    0  0.17451179451E+04 -0.34900709615E+02 -0.41765002933E+03  0.17947384932E+04  0.10100000352E+00 0.  1.
       -3    1    3    3    0  502 -0.17451179451E+04  0.34900709615E+02  0.78016842072E+03  0.19118884582E+04  0.10100000352E+00 0. -1.
</event>
<event>
 5   0  0.4060750E-07  0.3403548E+04  0.7818609E-02  0.8137036E-01
       -3   -1    0    0    0  501  0.00000000000E+00  0.00000000000E+00  0.85453753196E+03  0.85453753793E+03  0.10100000352E+00 0.  1.
        3   -1    0    0  501    0  0.00000000000E+00  0.00000000000E+00 -0.33890080883E+04  0.33890080899E+04  0.10100000352E+00 0. -1.
    10030    2    1    2    0    0  0.00000000000E+00  0.00000000000E+00 -0.25344705564E+04  0.42435456278E+04  0.34035479274E+04 0.  0.
        1    1    3    3  502    0  0.30474738453E+03 -0.10113830104E+04 -0.29308000151E+04  0.31153419219E+04  0.50400001928E-02 0. -1.
       -1    1    3    3    0  502 -0.30474738453E+03  0.10113830104E+04  0.39632945868E+03  0.11282037059E+04  0.50400001928E-02 0.  1.
</event>
<event>
 5   0  0.4464951E-07  0.3157273E+04  0.7818609E-02  0.8200193E-01
        1   -1    0    0  501    0  0.00000000000E+00  0.00000000000E+00  0.13734188314E+04  0.13734188314E+04  0.50400001928E-02 0.  1.
       -1   -1    0    0    0  501  0.00000000000E+00  0.00000000000E+00 -0.18145180118E+04  0.18145180118E+04  0.50400001928E-02 0. -1.
    10030    2    1    2    0    0  0.00000000000E+00  0.00000000000E+00 -0.44109918042E+03  0.31879368433E+04  0.31572730053E+04 0.  0.
        3    1    3    3  502    0  0.80213686518E+03 -0.81146977093E+02 -0.15909654744E+04  0.17835861440E+04  0.10100000352E+00 0. -1.
       -3    1    3    3    0  502 -0.80213686518E+03  0.81146977093E+02  0.11498662939E+04  0.14043506993E+04  0.10100000352E+00 0.  1.
</event>
<event>
 5   0  0.4464951E-07  0.3413075E+04  0.7818609E-02  0.8134705E-01
       -1   -1    0    0    0  501  0.00000000000E+00  0.00000000000E+00  0.32704549905E+04  0.32704549905E+04  0.50400001928E-02 0.  1.
        1   -1    0    0  501    0  0.00000000000E+00  0.00000000000E+00 -0.89047864841E+03  0.89047864842E+03  0.50400001928E-02 0. -1.
    10030    2    1    2    0    0  0.00000000000E+00  0.00000000000E+00  0.23799763421E+04  0.41609336389E+04  0.34130750590E+04 0.  0.
        3    1    3    3  502    0 -0.54307459969E+03  0.67729467386E+03  0.29811394489E+04  0.31049719032E+04  0.10100000352E+00 0.  1.
       -3    1    3    3    0  502  0.54307459969E+03 -0.67729467386E+03 -0.60116310679E+03  0.10559617357E+04  0.10100000352E+00 0. -1.
</event>
<event>
 5   0  0.4272633E-07  0.3306549E+04  0.7818609E-02  0.8161231E-01
       -1   -1    0    0    0  501  0.00000000000E+00  0.00000000000E+00  0.12763947538E+04  0.12763947538E+04  0.50400001928E-02 0.  1.
        1   -1    0    0  501    0  0.00000000000E+00  0.00000000000E+00 -0.21414348446E+04  0.21414348446E+04  0.50400001928E-02 0. -1.
    10030    2    1    2    0    0  0.00000000000E+00  0.00000000000E+00 -0.86504009081E+03  0.34178295983E+04  0.33065487755E+04 0.  0.
        1    1    3    3  502    0 -0.12652785111E+04  0.22067822607E+03 -0.15085578437E+04  0.19812560052E+04  0.50400001928E-02 0. -1.
       -1    1    3    3    0  502  0.12652785111E+04 -0.22067822607E+03  0.64351775291E+03  0.14365735931E+04  0.50400001928E-02 0.  1.
</event>
<event>
 5   0  0.1256208E-06  0.3199741E+04  0.7818609E-02  0.8188886E-01
        2   -1    0    0  501    0  0.00000000000E+00  0.00000000000E+00  0.21424484594E+04  0.21424484594E+04  0.25500000920E-02 0. -1.
       -2   -1    0    0    0  501  0.00000000000E+00  0.00000000000E+00 -0.11947008541E+04  0.11947008541E+04  0.25500000920E-02 0.  1.
    10030    2    1    2    0    0  0.00000000000E+00  0.00000000000E+00  0.94774760531E+03  0.33371493135E+04  0.31997406171E+04 0.  0.
        3    1    3    3  502    0  0.10052618857E+04 -0.12440923865E+04  0.51100712682E+03  0.16791204896E+04  0.10100000352E+00 0. -1.
       -3    1    3    3    0  502 -0.10052618857E+04  0.12440923865E+04  0.43674047848E+03  0.16580288238E+04  0.10100000352E+00 0.  1.
</event>
<event>
 5   0  0.1256208E-06  0.3427377E+04  0.7818609E-02  0.8131220E-01
        2   -1    0    0  501    0  0.00000000000E+00  0.00000000000E+00  0.20372923216E+04  0.20372923216E+04  0.25500000920E-02 0.  1.
       -2   -1    0    0    0  501  0.00000000000E+00  0.00000000000E+00 -0.14414862346E+04  0.14414862346E+04  0.25500000920E-02 0. -1.
    10030    2    1    2    0    0  0.00000000000E+00  0.00000000000E+00  0.59580608701E+03  0.34787785562E+04  0.34273773282E+04 0.  0.
        3    1    3    3  502    0 -0.31919268075E+03 -0.16715295137E+04  0.92798381208E+02  0.17042612571E+04  0.10100000352E+00 0. -1.
       -3    1    3    3    0  502  0.31919268075E+03  0.16715295137E+04  0.50300770580E+03  0.17745172991E+04  0.10100000352E+00 0.  1.
</event>
<event>
 5   0  0.1269497E-06  0.3349524E+04  0.7818609E-02  0.8150407E-01
       -2   -1    0    0    0  501  0.00000000000E+00  0.00000000000E+00  0.16779857710E+04  0.16779857710E+04  0.25500000920E-02 0. -1.
        2   -1    0    0  501    0  0.00000000000E+00  0.00000000000E+00 -0.16715439930E+04  0.16715439930E+04  0.25500000920E-02 0.  1.
    10030    2    1    2    0    0  0.00000000000E+00  0.00000000000E+00  0.64417780420E+01  0.33495297640E+04  0.33495235696E+04 0.  0.
        5    1    3    3  502    0  0.30819672549E+03 -0.85719314584E+03 -0.14021427436E+04  0.16720621024E+04  0.46999998093E+01 0.  1.
       -5    1    3    3    0  502 -0.30819672549E+03  0.85719314584E+03  0.14085845217E+04  0.16774676616E+04  0.46999998093E+01 0. -1.
</event>
<event>
 5   0  0.4125758E-07  0.3407186E+04  0.7818609E-02  0.8136145E-01
       -1   -1    0    0    0  501  0.00000000000E+00  0.00000000000E+00  0.15932570005E+04  0.15932570005E+04  0.50400001928E-02 0.  1.
        1   -1    0    0  501    0  0.00000000000E+00  0.00000000000E+00 -0.18215695165E+04  0.18215695165E+04  0.50400001928E-02 0. -1.
    10030    2    1    2    0    0  0.00000000000E+00  0.00000000000E+00 -0.22831251600E+03  0.34148265171E+04  0.34071855742E+04 0.  0.
        2    1    3    3  502    0 -0.15567177983E+04  0.64078996664E+03  0.14766952472E+03  0.16899078002E+04  0.25500000920E-02 0.  1.
       -2    1    3    3    0  502  0.15567177983E+04 -0.64078996664E+03 -0.37598204071E+03  0.17249187168E+04  0.25500000920E-02 0. -1.
</event>
<event>
 5   0  0.4289684E-07  0.3386999E+04  0.7818609E-02  0.8141105E-01
        1   -1    0    0  501    0  0.00000000000E+00  0.00000000000E+00  0.15684565851E+04  0.15684565851E+04  0.50400001928E-02 0.  1.
       -1   -1    0    0    0  501  0.00000000000E+00  0.00000000000E+00 -0.18285112868E+04  0.18285112868E+04  0.50400001928E-02 0. -1.
    10030    2    1    2    0    0  0.00000000000E+00  0.00000000000E+00 -0.26005470170E+03  0.33969678719E+04  0.33869990072E+04 0.  0.
        4    1    3    3  502    0  0.35702295896E+03 -0.13195518599E+04 -0.11325976867E+04  0.17752356567E+04  0.12699999809E+01 0. -1.
       -4    1    3    3    0  502 -0.35702295896E+03  0.13195518599E+04  0.87254298498E+03  0.16217322152E+04  0.12699999809E+01 0.  1.
</event>
<event>
 5   0  0.1268230E-06  0.3427923E+04  0.7818609E-02  0.8131087E-01
       -2   -1    0    0    0  501  0.00000000000E+00  0.00000000000E+00  0.14649918320E+04  0.14649918320E+04  0.25500000920E-02 0.  1.
        2   -1    0    0  501    0  0.00000000000E+00  0.00000000000E+00 -0.20052423008E+04  0.20052423008E+04  0.25500000920E-02 0. -1.
    10030    2    1    2    0    0  0.00000000000E+00  0.00000000000E+00 -0.54025046875E+03  0.34702341328E+04  0.34279227482E+04 0.  0.
        2    1    3    3  502    0  0.36807938626E+03  0.11327105245E+04  0.97762539536E+03  0.15408656595E+04  0.25500000920E-02 0.  1.
       -2    1    3    3    0  502 -0.36807938626E+03 -0.11327105245E+04 -0.15178758641E+04  0.19293684733E+04  0.25500000920E-02 0. -1.
</event>
<event>
 5   0  0.1256208E-06  0.3003861E+04  0.7818609E-02  0.8242629E-01
       -2   -1    0    0    0  501  0.00000000000E+00  0.00000000000E+00  0.15889744898E+04  0.15889744898E+04  0.25500000920E-02 0. -1.
        2   -1    0    0  501    0  0.00000000000E+00  0.00000000000E+00 -0.14196547581E+04  0.14196547581E+04  0.25500000920E-02 0.  1.
    10030    2    1    2    0    0  0.00000000000E+00  0.00000000000E+00  0.16931973169E+03  0.30086292479E+04  0.30038609788E+04 0.  0.
        3    1    3    3  502    0  0.10240652763E+04  0.64774840471E+02 -0.10138444045E+04  0.14424929660E+04  0.10100000352E+00 0.  1.
       -3    1    3    3    0  502 -0.10240652763E+04 -0.64774840471E+02  0.11831641362E+04  0.15661362819E+04  0.10100000352E+00 0. -1.
</event>
<event>
 5   0  0.4272633E-07  0.3414140E+04  0.7818609E-02  0.8134445E-01
        1   -1    0    0  501    0  0.00000000000E+00  0.00000000000E+00  0.24310115635E+04  0.24310115635E+04  0.50400001928E-02 0.  1.
       -1   -1    0    0    0  501  0.00000000000E+00  0.00000000000E+00 -0.11987142499E+04  0.11987142499E+04  0.50400001928E-02 0. -1.
    10030    2    1    2    0    0  0.00000000000E+00  0.00000000000E+00  0.12322973136E+04  0.36297258134E+04  0.34141401276E+04 0.  0.
        1    1    3    3  502    0 -0.13507625550E+04  0.27171322130E+03  0.16876071278E+04  0.21786246516E+04  0.50400001928E-02 0.  1.
       -1    1    3    3    0  502  0.13507625550E+04 -0.27171322130E+03 -0.45530981418E+03  0.14511011617E+04  0.50400001928E-02 0. -1.
</event>
<event>
 5   0  0.1269497E-06  0.3525685E+04  0.7818609E-02  0.8107730E-01
       -2   -1    0    0    0  501  0.00000000000E+00  0.00000000000E+00  0.12496392423E+04  0.12496392423E+04  0.25500000920E-02 0.  1.
        2   -1    0    0  501    0  0.00000000000E+00  0.00000000000E+00 -0.24868088156E+04  0.24868088156E+04  0.25500000920E-02 0. -1.
    10030    2    1    2    0    0  0.00000000000E+00  0.00000000000E+00 -0.12371695733E+04  0.37364480580E+04  0.35256851160E+04 0.  0.
        5    1    3    3  502    0 -0.32521271319E+03 -0.16340739348E+04 -0.12288841212E+04  0.20702993036E+04  0.46999998093E+01 0. -1.
       -5    1    3    3    0  502  0.32521271319E+03  0.16340739348E+04 -0.82854521309E+01  0.16661487544E+04  0.46999998093E+01 0.  1.
</event>
<event>
 5   0  0.4289684E-07  0.3385345E+04  0.7818609E-02  0.8141513E-01
       -1   -1    0    0    0  501  0.00000000000E+00  0.00000000000E+00  0.10420409827E+04  0.10420409828E+04  0.50400001928E-02 0. -1.
        1   -1    0    0  501    0  0.00000000000E+00  0.00000000000E+00 -0.27495462290E+04  0.27495462290E+04  0.50400001928E-02 0.  1.
    10030    2    1    2    0    0  0.00000000000E+00  0.00000000000E+00 -0.17075052462E+04  0.37915872117E+04  0.33853448005E+04 0.  0.
        4    1    3    3  502    0 -0.11694716318E+02 -0.36562182323E+03 -0.27047448936E+04  0.27293703736E+04  0.12699999809E+01 0.  1.
       -4    1    3    3    0  502  0.11694716318E+02  0.36562182323E+03  0.99723964737E+03  0.10622168381E+04  0.12699999809E+01 0. -1.
</event>
<event>
 5   0  0.4109937E-07  0.3405210E+04  0.7818609E-02  0.8136629E-01
        1   -1    0    0  501    0  0.00000000000E+00  0.00000000000E+00  0.16122945045E+04  0.16122945045E+04  0.50400001928E-02 0.  1.
       -1   -1    0    0    0  501  0.00000000000E+00  0.00000000000E+00 -0.17979741703E+04  0.17979741703E+04  0.50400001928E-02 0. -1.
    10030    2    1    2    0    0  0.00000000000E+00  0.00000000000E+00 -0.18567966579E+03  0.34102686748E+04  0.34052100517E+04 0.  0.
        5    1    3    3  502    0  0.98850000536E+03 -0.42624755672E+03  0.12282189010E+04  0.16332063553E+04  0.46999998093E+01 0.  1.
       -5    1    3    3    0  502 -0.98850000536E+03  0.42624755672E+03 -0.14138985668E+04  0.17770623195E+04  0.46999998093E+01 0. -1.
</event>
<event>
 5   0  0.1268230E-06  0.3361650E+04  0.7818609E-02  0.8147383E-01
        2   -1    0    0  501    0  0.00000000000E+00  0.00000000000E+00  0.12389415700E+04  0.12389415700E+04  0.25500000920E-02 0.  1.
       -2   -1    0    0    0  501  0.00000000000E+00  0.00000000000E+00 -0.22803114320E+04  0.22803114320E+04  0.25500000920E-02 0. -1.
    10030    2    1    2    0    0  0.00000000000E+00  0.00000000000E+00 -0.10413698621E+04  0.35192530020E+04  0.33616499673E+04 0.  0.
        2    1    3    3  502    0 -0.98179404317E+03 -0.10491762250E+04 -0.14336256197E+04  0.20297715910E+04  0.25500000920E-02 0. -1.
       -2    1    3    3    0  502  0.98179404317E+03  0.10491762250E+04  0.39225575762E+03  0.14894814110E+04  0.25500000920E-02 0.  1.
</event>
<event>
 5   0  0.4272633E-07  0.3403256E+04  0.7818609E-02  0.8137108E-01
        1   -1    0    0  501    0  0.00000000000E+00  0.00000000000E+00  0.11991071595E+04  0.11991071595E+04  0.50400001928E-02 0. -1.
       -1   -1    0    0    0  501  0.00000000000E+00  0.00000000000E+00 -0.24147446132E+04  0.24147446132E+04  0.50400001928E-02 0.  1.
    10030    2    1    2    0    0  0.00000000000E+00  0.00000000000E+00 -0.12156374537E+04  0.36138517728E+04  0.34032558259E+04 0.  0.
        1    1    3    3  502    0 -0.14817431013E+04 -0.82363648595E+03 -0.45176244735E+03  0.17544312435E+04  0.50400001928E-02 0. -1.
       -1    1    3    3    0  502  0.14817431013E+04  0.82363648595E+03 -0.76387500634E+03  0.18594205293E+04  0.50400001928E-02 0.  1.
</event>
<event>
 5   0  0.4125758E-07  0.3459491E+04  0.7818609E-02  0.8123458E-01
        1   -1    0    0  501    0  0.00000000000E+00  0.00000000000E+00  0.18143419643E+04  0.18143419643E+04  0.50400001928E-02 0.  1.
       -1   -1    0    0    0  501  0.00000000000E+00  0.00000000000E+00 -0.16490931091E+04  0.16490931091E+04  0.50400001928E-02 0. -1.
    10030    2    1    2    0    0  0.00000000000E+00  0.00000000000E+00  0.16524885525E+03  0.34634350734E+04  0.34594906162E+04 0.  0.
        2    1    3    3  502    0  0.11088335295E+04 -0.63719592658E+03 -0.10833873404E+04  0.16760842981E+04  0.25500000920E-02 0. -1.
       -2    1    3    3    0  502 -0.11088335295E+04  0.63719592658E+03  0.12486361956E+04  0.17873507753E+04  0.25500000920E-02 0.  1.
</event>
<event>
 5   0  0.1269497E-06  0.3391917E+04  0.7818609E-02  0.8139893E-01
       -2   -1    0    0    0  501  0.00000000000E+00  0.00000000000E+00  0.11104990759E+04  0.11104990759E+04  0.25500000920E-02 0. -1.
        2   -1    0    0  501    0  0.00000000000E+00  0.00000000000E+00 -0.25900750841E+04  0.25900750841E+04  0.25500000920E-02 0.  1.
    10030    2    1    2    0    0  0.00000000000E+00  0.00000000000E+00 -0.14795760082E+04  0.37005741599E+04  0.33919174443E+04 0.  0.
        5    1    3    3  502    0 -0.11223704242E+04  0.12689892056E+04 -0.82572735592E+03  0.18846476407E+04  0.46999998093E+01 0. -1.
       -5    1    3    3    0  502  0.11223704242E+04 -0.12689892056E+04 -0.65384865229E+03  0.18159265193E+04  0.46999998093E+01 0.  1.
</event>
<event>
 5   0  0.1277635E-06  0.3413288E+04  0.7818609E-02  0.8134653E-01
        2   -1    0    0  501    0  0.00000000000E+00  0.00000000000E+00  0.99719664761E+03  0.99719664761E+03  0.25500000920E-02 0. -1.
       -2   -1    0    0    0  501  0.00000000000E+00  0.00000000000E+00 -0.29208212111E+04  0.29208212111E+04  0.25500000920E-02 0.  1.
    10030    2    1    2    0    0  0.00000000000E+00  0.00000000000E+00 -0.19236245635E+04  0.39180178588E+04  0.34132876351E+04 0.  0.
        4    1    3    3  502    0  0.72198677404E+03  0.26603381668E+03  0.78679779396E+03  0.11004959223E+04  0.12699999809E+01 0. -1.
       -4    1    3    3    0  502 -0.72198677404E+03 -0.26603381668E+03 -0.27104223575E+04  0.28175219365E+04  0.12699999809E+01 0.  1.
</event>
<event>
 5   0  0.4125758E-07  0.3340063E+04  0.7818609E-02  0.8152776E-01
        1   -1    0    0  501    0  0.00000000000E+00  0.00000000000E+00  0.96605284666E+03  0.96605284668E+03  0.50400001928E-02 0.  1.
       -1   -1    0    0    0  501  0.00000000000E+00  0.00000000000E+00 -0.28870103815E+04  0.28870103815E+04  0.50400001928E-02 0. -1.
    10030    2    1    2    0    0  0.00000000000E+00  0.00000000000E+00 -0.19209575348E+04  0.38530632281E+04  0.33400626326E+04 0.  0.
        2    1    3    3  502    0 -0.11365510471E+04 -0.10313670171E+04 -0.17200443987E+04  0.23052155952E+04  0.25500000920E-02 0. -1.
       -2    1    3    3    0  502  0.11365510471E+04  0.10313670171E+04 -0.20091313607E+03  0.15478476330E+04  0.25500000920E-02 0.  1.
</event>
<event>
 5   0  0.4109937E-07  0.3424094E+04  0.7818609E-02  0.8132018E-01
       -1   -1    0    0    0  501  0.00000000000E+00  0.00000000000E+00  0.13191003312E+04  0.13191003312E+04  0.50400001928E-02 0.  1.
        1   -1    0    0  501    0  0.00000000000E+00  0.00000000000E+00 -0.22220480870E+04  0.22220480870E+04  0.50400001928E-02 0. -1.
    10030    2    1    2    0    0  0.00000000000E+00  0.00000000000E+00 -0.90294775579E+03  0.35411484182E+04  0.34240936713E+04 0.  0.
        5    1    3    3  502    0  0.15641520427E+04 -0.63685444815E+03 -0.16093015220E+03  0.16964892587E+04  0.46999998093E+01 0.  1.
       -5    1    3    3    0  502 -0.15641520427E+04  0.63685444815E+03 -0.74201760359E+03  0.18446591595E+04  0.46999998093E+01 0. -1.
</event>
<event>
 5   0  0.4125758E-07  0.2910428E+04  0.7818609E-02  0.8269782E-01
       -1   -1    0    0    0  501  0.00000000000E+00  0.00000000000E+00  0.10684424158E+04  0.10684424159E+04  0.50400001928E-02 0. -1.
        1   -1    0    0  501    0  0.00000000000E+00  0.00000000000E+00 -0.19819948906E+04  0.19819948906E+04  0.50400001928E-02 0.  1.
    10030    2    1    2    0    0  0.00000000000E+00  0.00000000000E+00 -0.91355247474E+03  0.30504373064E+04  0.29104277412E+04 0.  0.
        2    1    3    3  502    0 -0.10756637003E+04  0.50770575162E+02  0.56909291817E+03  0.12179888328E+04  0.25500000920E-02 0. -1.
       -2    1    3    3    0  502  0.10756637003E+04 -0.50770575162E+02 -0.14826453929E+04  0.18324484736E+04  0.25500000920E-02 0.  1.
</event>
<event>
 5   0  0.1256208E-06  0.3389430E+04  0.7818609E-02  0.8140505E-01
        2   -1    0    0  501    0  0.00000000000E+00  0.00000000000E+00  0.22702571244E+04  0.22702571244E+04  0.25500000920E-02 0. -1.
       -2   -1    0    0    0  501  0.00000000000E+00  0.00000000000E+00 -0.12650808385E+04  0.12650808385E+04  0.25500000920E-02 0.  1.
    10030    2    1    2    0    0  0.00000000000E+00  0.00000000000E+00  0.10051762860E+04  0.35353379629E+04  0.33894299146E+04 0.  0.
        3    1    3    3  502    0  0.12315764978E+04  0.63673373723E+03  0.15191443420E+04  0.20566988268E+04  0.10100000352E+00 0. -1.
       -3    1    3    3    0  502 -0.12315764978E+04 -0.63673373723E+03 -0.51396805600E+03  0.14786391361E+04  0.10100000352E+00 0.  1.
</event>
<event>
 5   0  0.4060750E-07  0.3391536E+04  0.7818609E-02  0.8139987E-01
       -3   -1    0    0    0  501  0.00000000000E+00  0.00000000000E+00  0.21283737813E+04  0.21283737837E+04  0.10100000352E+00 0.  1.
        3   -1    0    0  501    0  0.00000000000E+00  0.00000000000E+00 -0.13510918992E+04  0.13510919030E+04  0.10100000352E+00 0. -1.
    10030    2    1    2    0    0  0.00000000000E+00  0.00000000000E+00  0.77728188203E+03  0.34794656867E+04  0.33915356906E+04 0.  0.
        3    1    3    3  502    0 -0.13683657589E+04 -0.22935391183E+03  0.13889062047E+04  0.19631832627E+04  0.10100000352E+00 0.  1.
       -3    1    3    3    0  502  0.13683657589E+04  0.22935391183E+03 -0.61162432272E+03  0.15162824240E+04  0.10100000352E+00 0. -1.
</event>
<event>
 5   0  0.4289684E-07  0.3387382E+04  0.7818609E-02  0.8141010E-01
        1   -1    0    0  501    0  0.00000000000E+00  0.00000000000E+00  0.17886326319E+04  0.17886326319E+04  0.50400001928E-02 0. -1.
       -1   -1    0    0    0  501  0.00000000000E+00  0.00000000000E+00 -0.16037885643E+04  0.16037885643E+04  0.50400001928E-02 0.  1.
    10030    2    1    2    0    0  0.00000000000E+00  0.00000000000E+00  0.18484406763E+03  0.33924211962E+04  0.33873816205E+04 0.  0.
        4    1    3    3  502    0  0.87359205524E+03 -0.41098805177E+03 -0.13012346916E+04  0.16202739254E+04  0.12699999809E+01 0.  1.
       -4    1    3    3    0  502 -0.87359205524E+03  0.41098805177E+03  0.14860787593E+04  0.17721472708E+04  0.12699999809E+01 0. -1.
</event>
<event>
 5   0  0.4464951E-07  0.3386503E+04  0.7818609E-02  0.8141227E-01
        1   -1    0    0  501    0  0.00000000000E+00  0.00000000000E+00  0.23574142826E+04  0.23574142826E+04  0.50400001928E-02 0. -1.
       -1   -1    0    0    0  501  0.00000000000E+00  0.00000000000E+00 -0.12162053651E+04  0.12162053651E+04  0.50400001928E-02 0.  1.
    10030    2    1    2    0    0  0.00000000000E+00  0.00000000000E+00  0.11412089175E+04  0.35736196477E+04  0.33865025606E+04 0.  0.
        3    1    3    3  502    0  0.76609792476E+03 -0.95963215264E+03 -0.65970560263E+03  0.13939194349E+04  0.10100000352E+00 0.  1.
       -3    1    3    3    0  502 -0.76609792476E+03  0.95963215264E+03  0.18009145201E+04  0.21797002128E+04  0.10100000352E+00 0. -1.
</event>
<event>
 5   0  0.1300176E-06  0.3382504E+04  0.7818609E-02  0.8142214E-01
        2   -1    0    0  501    0  0.00000000000E+00  0.00000000000E+00  0.13520327235E+04  0.13520327235E+04  0.25500000920E-02 0.  1.
       -2   -1    0    0    0  501  0.00000000000E+00  0.00000000000E+00 -0.21155798752E+04  0.21155798752E+04  0.25500000920E-02 0. -1.
    10030    2    1    2    0    0  0.00000000000E+00  0.00000000000E+00 -0.76354715176E+03  0.34676125987E+04  0.33825039367E+04 0.  0.
        1    1    3    3  502    0  0.15184314903E+04  0.22476138496E+03  0.34614977235E+03  0.15735220163E+04  0.50400001928E-02 0.  1.
       -1    1    3    3    0  502 -0.15184314903E+04 -0.22476138496E+03 -0.11096969241E+04  0.18940905824E+04  0.50400001928E-02 0. -1.
</event>
<event>
 5   0  0.4272633E-07  0.3474369E+04  0.7818609E-02  0.8119891E-01
       -1   -1    0    0    0  501  0.00000000000E+00  0.00000000000E+00  0.10693781426E+04  0.10693781426E+04  0.50400001928E-02 0.  1.
        1   -1    0    0  501    0  0.00000000000E+00  0.00000000000E+00 -0.28220224787E+04  0.28220224787E+04  0.50400001928E-02 0. -1.
    10030    2    1    2    0    0  0.00000000000E+00  0.00000000000E+00 -0.17526443361E+04  0.38914006213E+04  0.34743685220E+04 0.  0.
        1    1    3    3  502    0 -0.16177947855E+04  0.53527586730E+03 -0.12545361633E+04  0.21160437631E+04  0.50400001928E-02 0. -1.
       -1    1    3    3    0  502  0.16177947855E+04 -0.53527586730E+03 -0.49810817272E+03  0.17753568582E+04  0.50400001928E-02 0.  1.
</event>
<event>
 5   0  0.1256208E-06  0.3358921E+04  0.7818609E-02  0.8148063E-01
        2   -1    0    0  501    0  0.00000000000E+00  0.00000000000E+00  0.12724836432E+04  0.12724836432E+04  0.25500000920E-02 0.  1.
       -2   -1    0    0    0  501  0.00000000000E+00  0.00000000000E+00 -0.22165996290E+04  0.22165996290E+04  0.25500000920E-02 0. -1.
    10030    2    1    2    0    0  0.00000000000E+00  0.00000000000E+00 -0.94411598578E+03  0.34890832721E+04  0.33589205238E+04 0.  0.
        3    1    3    3  502    0 -0.14733557623E+03 -0.13664877887E+04  0.53053356142E+03  0.14732489670E+04  0.10100000352E+00 0.  1.
       -3    1    3    3    0  502  0.14733557623E+03  0.13664877887E+04 -0.14746495472E+04  0.20158343052E+04  0.10100000352E+00 0. -1.
</event>
<event>
 5   0  0.1256208E-06  0.2790510E+04  0.7818609E-02  0.8306221E-01
        2   -1    0    0  501    0  0.00000000000E+00  0.00000000000E+00  0.14898273170E+04  0.14898273170E+04  0.25500000920E-02 0. -1.
       -2   -1    0    0    0  501  0.00000000000E+00  0.00000000000E+00 -0.13066863655E+04  0.13066863655E+04  0.25500000920E-02 0.  1.
    10030    2    1    2    0    0  0.00000000000E+00  0.00000000000E+00  0.18314095148E+03  0.27965136824E+04  0.27905103777E+04 0.  0.
        3    1    3    3  502    0 -0.10834663318E+04 -0.76077480075E+03  0.53303996687E+03  0.14271682473E+04  0.10100000352E+00 0. -1.
       -3    1    3    3    0  502  0.10834663318E+04  0.76077480075E+03 -0.34989901540E+03  0.13693454352E+04  0.10100000352E+00 0.  1.
</event>
<event>
 5   0  0.1277635E-06  0.3387950E+04  0.7818609E-02  0.8140870E-01
       -2   -1    0    0    0  501  0.00000000000E+00  0.00000000000E+00  0.13351927414E+04  0.13351927415E+04  0.25500000920E-02 0. -1.
        2   -1    0    0  501    0  0.00000000000E+00  0.00000000000E+00 -0.21491668419E+04  0.21491668419E+04  0.25500000920E-02 0.  1.
    10030    2    1    2    0    0  0.00000000000E+00  0.00000000000E+00 -0.81397410044E+03  0.34843595833E+04  0.33879503936E+04 0.  0.
        4    1    3    3  502    0 -0.10050597914E+04 -0.11710772388E+04  0.31144945511E+03  0.15743473122E+04  0.12699999809E+01 0. -1.
       -4    1    3    3    0  502  0.10050597914E+04  0.11710772388E+04 -0.11254235556E+04  0.19100122711E+04  0.12699999809E+01 0.  1.
</event>
<event>
 5   0  0.4109937E-07  0.3420376E+04  0.7818609E-02  0.8132924E-01
       -1   -1    0    0    0  501  0.00000000000E+00  0.00000000000E+00  0.13914848800E+04  0.13914848801E+04  0.50400001928E-02 0.  1.
        1   -1    0    0  501    0  0.00000000000E+00  0.00000000000E+00 -0.21018857808E+04  0.21018857808E+04  0.50400001928E-02 0. -1.
    10030    2    1    2    0    0  0.00000000000E+00  0.00000000000E+00 -0.71040090073E+03  0.34933706608E+04  0.34203755838E+04 0.  0.
        5    1    3    3  502    0 -0.10244284764E+04  0.12996709748E+04 -0.79582587041E+03  0.18362895338E+04  0.46999998093E+01 0.  1.
       -5    1    3    3    0  502  0.10244284764E+04 -0.12996709748E+04  0.85424969685E+02  0.16570811270E+04  0.46999998093E+01 0. -1.
</event>
<event>
 5   0  0.1277635E-06  0.3367530E+04  0.7818609E-02  0.8145922E-01
        2   -1    0    0  501    0  0.00000000000E+00  0.00000000000E+00  0.23323613906E+04  0.23323613906E+04  0.25500000920E-02 0.  1.
       -2   -1    0    0    0  501  0.00000000000E+00  0.00000000000E+00 -0.12155343135E+04  0.12155343135E+04  0.25500000920E-02 0. -1.
    10030    2    1    2    0    0  0.00000000000E+00  0.00000000000E+00  0.11168270772E+04  0.35478957041E+04  0.33675304315E+04 0.  0.
        4    1    3    3  502    0 -0.10570918735E+03  0.16318462692E+04  0.98110916525E+03  0.19070064199E+04  0.12699999809E+01 0. -1.
       -4    1    3    3    0  502  0.10570918735E+03 -0.16318462692E+04  0.13571791191E+03  0.16408892842E+04  0.12699999809E+01 0.  1.
</event>
<event>
 5   0  0.4109937E-07  0.3400287E+04  0.7818609E-02  0.8137836E-01
        1   -1    0    0  501    0  0.00000000000E+00  0.00000000000E+00  0.25049594116E+04  0.25049594116E+04  0.50400001928E-02 0.  1.
       -1   -1    0    0    0  501  0.00000000000E+00  0.00000000000E+00 -0.11539061466E+04  0.11539061466E+04  0.50400001928E-02 0. -1.
    10030    2    1    2    0    0  0.00000000000E+00  0.00000000000E+00  0.13510532650E+04  0.36588655582E+04  0.34002870832E+04 0.  0.
        5    1    3    3  502    0  0.14368978700E+04  0.65976393706E+03  0.13479495623E+04  0.20777280991E+04  0.46999998093E+01 0. -1.
       -5    1    3    3    0  502 -0.14368978700E+04 -0.65976393706E+03  0.31037027488E+01  0.15811374591E+04  0.46999998093E+01 0.  1.
</event>
<event>
 5   0  0.1300176E-06  0.3427890E+04  0.7818609E-02  0.8131095E-01
        2   -1    0    0  501    0  0.00000000000E+00  0.00000000000E+00  0.18165692245E+04  0.18165692245E+04  0.25500000920E-02 0. -1.
       -2   -1    0    0    0  501  0.00000000000E+00  0.00000000000E+00 -0.16171183334E+04  0.16171183334E+04  0.25500000920E-02 0.  1.
    10030    2    1    2    0    0  0.00000000000E+00  0.00000000000E+00  0.19945089114E+03  0.34336875579E+04  0.34278899614E+04 0.  0.
        1    1    3    3  502    0  0.47242968158E+03 -0.66456868214E+03  0.16098447877E+04  0.18045613256E+04  0.50400001928E-02 0. -1.
       -1    1    3    3    0  502 -0.47242968158E+03  0.66456868214E+03 -0.14103938966E+04  0.16291262323E+04  0.50400001928E-02 0.  1.
</event>
<event>
 5   0  0.4125758E-07  0.3445713E+04  0.7818609E-02  0.8126777E-01
        1   -1    0    0  501    0  0.00000000000E+00  0.00000000000E+00  0.16394945484E+04  0.16394945484E+04  0.50400001928E-02 0.  1.
       -1   -1    0    0    0  501  0.00000000000E+00  0.00000000000E+00 -0.18104571707E+04  0.18104571707E+04  0.50400001928E-02 0. -1.
    10030    2    1    2    0    0  0.00000000000E+00  0.00000000000E+00 -0.17096262238E+03  0.34499517191E+04  0.34457130823E+04 0.  0.
        2    1    3    3  502    0  0.27563495414E+03  0.32702501091E+03  0.15854978709E+04  0.16421703579E+04  0.25500000920E-02 0.  1.
       -2    1    3    3    0  502 -0.27563495414E+03 -0.32702501091E+03 -0.17564604932E+04  0.18077813612E+04  0.25500000920E-02 0. -1.
</event>
<event>
 5   0  0.1269497E-06  0.3373069E+04  0.7818609E-02  0.8144548E-01
        2   -1    0    0  501    0  0.00000000000E+00  0.00000000000E+00  0.28259008340E+04  0.28259008340E+04  0.25500000920E-02 0.  1.
       -2   -1    0    0    0  501  0.00000000000E+00  0.00000000000E+00 -0.10065460270E+04  0.10065460270E+04  0.25500000920E-02 0. -1.
    10030    2    1    2    0    0  0.00000000000E+00  0.00000000000E+00  0.18193548070E+04  0.38324468609E+04  0.33730693779E+04 0.  0.
        5    1    3    3  502    0  0.70408511942E+03  0.72241652026E+03 -0.62596855613E+03  0.11872153164E+04  0.46999998093E+01 0. -1.
       -5    1    3    3    0  502 -0.70408511942E+03 -0.72241652026E+03  0.24453233631E+04  0.26452315446E+04  0.46999998093E+01 0.  1.
</event>
<event>
 5   0  0.4464951E-07  0.2996381E+04  0.7818609E-02  0.8244765E-01
        1   -1    0    0  501    0  0.00000000000E+00  0.00000000000E+00  0.14754900433E+04  0.14754900433E+04  0.50400001928E-02 0. -1.
       -1   -1    0    0    0  501  0.00000000000E+00  0.00000000000E+00 -0.15212402191E+04  0.15212402191E+04  0.50400001928E-02 0.  1.
    10030    2    1    2    0    0  0.00000000000E+00  0.00000000000E+00 -0.45750175807E+02  0.29967302624E+04  0.29963810150E+04 0.  0.
        3    1    3    3  502    0 -0.11490519002E+04  0.40079474055E+03  0.85107920874E+03  0.14850227349E+04  0.10100000352E+00 0. -1.
       -3    1    3    3    0  502  0.11490519002E+04 -0.40079474055E+03 -0.89682938454E+03  0.15117075275E+04  0.10100000352E+00 0.  1.
</event>
<event>
 5   0  0.4464951E-07  0.3369474E+04  0.7818609E-02  0.8145439E-01
        1   -1    0    0  501    0  0.00000000000E+00  0.00000000000E+00  0.11887584351E+04  0.11887584351E+04  0.50400001928E-02 0. -1.
       -1   -1    0    0    0  501  0.00000000000E+00  0.00000000000E+00 -0.23876497829E+04  0.23876497829E+04  0.50400001928E-02 0.  1.
    10030    2    1    2    0    0  0.00000000000E+00  0.00000000000E+00 -0.11988913478E+04  0.35764082179E+04  0.33694740357E+04 0.  0.
        3    1    3    3  502    0 -0.52941781800E+03 -0.27643403843E+03  0.10726238963E+04  0.12276893079E+04  0.10100000352E+00 0. -1.
       -3    1    3    3    0  502  0.52941781800E+03  0.27643403843E+03 -0.22715152441E+04  0.23487189100E+04  0.10100000352E+00 0.  1.
</event>
<event>
 5   0  0.4464951E-07  0.3402227E+04  0.7818609E-02  0.8137360E-01
       -1   -1    0    0    0  501  0.00000000000E+00  0.00000000000E+00  0.12089623579E+04  0.12089623579E+04  0.50400001928E-02 0.  1.
        1   -1    0    0  501    0  0.00000000000E+00  0.00000000000E+00 -0.23936115753E+04  0.23936115753E+04  0.50400001928E-02 0. -1.
    10030    2    1    2    0    0  0.00000000000E+00  0.00000000000E+00 -0.11846492174E+04  0.36025739333E+04  0.34022265028E+04 0.  0.
        3    1    3    3  502    0  0.16866810609E+04  0.15918581669E+03 -0.42981679211E+03  0.17478488523E+04  0.10100000352E+00 0.  1.
       -3    1    3    3    0  502 -0.16866810609E+04 -0.15918581669E+03 -0.75483242526E+03  0.18547250810E+04  0.10100000352E+00 0. -1.
</event>
<event>
 5   0  0.4125758E-07  0.3426469E+04  0.7818609E-02  0.8131440E-01
        1   -1    0    0  501    0  0.00000000000E+00  0.00000000000E+00  0.18693381577E+04  0.18693381577E+04  0.50400001928E-02 0.  1.
       -1   -1    0    0    0  501  0.00000000000E+00  0.00000000000E+00 -0.15701670011E+04  0.15701670011E+04  0.50400001928E-02 0. -1.
    10030    2    1    2    0    0  0.00000000000E+00  0.00000000000E+00  0.29917115660E+03  0.34395051588E+04  0.34264693719E+04 0.  0.
        2    1    3    3  502    0  0.39228183193E+03 -0.15069011169E+04  0.86682269324E+03  0.17821384888E+04  0.25500000920E-02 0.  1.
       -2    1    3    3    0  502 -0.39228183193E+03  0.15069011169E+04 -0.56765153665E+03  0.16573666700E+04  0.25500000920E-02 0. -1.
</event>
<event>
 5   0  0.4109937E-07  0.3402279E+04  0.7818609E-02  0.8137347E-01
        1   -1    0    0  501    0  0.00000000000E+00  0.00000000000E+00  0.19616350786E+04  0.19616350787E+04  0.50400001928E-02 0.  1.
       -1   -1    0    0    0  501  0.00000000000E+00  0.00000000000E+00 -0.14752366219E+04  0.14752366219E+04  0.50400001928E-02 0. -1.
    10030    2    1    2    0    0  0.00000000000E+00  0.00000000000E+00  0.48639845679E+03  0.34368717005E+04  0.34022791812E+04 0.  0.
        5    1    3    3  502    0 -0.18281349164E+03  0.12508048475E+04  0.13931586482E+04  0.18811822475E+04  0.46999998093E+01 0. -1.
       -5    1    3    3    0  502  0.18281349164E+03 -0.12508048475E+04 -0.90676019145E+03  0.15556894530E+04  0.46999998093E+01 0.  1.
</event>
<event>
 5   0  0.1269497E-06  0.3219336E+04  0.7818609E-02  0.8183729E-01
       -2   -1    0    0    0  501  0.00000000000E+00  0.00000000000E+00  0.19393440305E+04  0.19393440305E+04  0.25500000920E-02 0. -1.
        2   -1    0    0  501    0  0.00000000000E+00  0.00000000000E+00 -0.13360348107E+04  0.13360348107E+04  0.25500000920E-02 0.  1.
    10030    2    1    2    0    0  0.00000000000E+00  0.00000000000E+00  0.60330921984E+03  0.32753788412E+04  0.32193360400E+04 0.  0.
        5    1    3    3  502    0 -0.11042386040E+04 -0.24084686762E+03 -0.86444738942E+03  0.14228989730E+04  0.46999998093E+01 0.  1.
       -5    1    3    3    0  502  0.11042386040E+04  0.24084686762E+03  0.14677566093E+04  0.18524798682E+04  0.46999998093E+01 0. -1.
</event>
<event>
 5   0  0.4060750E-07  0.3395875E+04  0.7818609E-02  0.8138920E-01
        3   -1    0    0  501    0  0.00000000000E+00  0.00000000000E+00  0.19839120882E+04  0.19839120908E+04  0.10100000352E+00 0. -1.
       -3   -1    0    0    0  501  0.00000000000E+00  0.00000000000E+00 -0.14531850223E+04  0.14531850258E+04  0.10100000352E+00 0.  1.
    10030    2    1    2    0    0  0.00000000000E+00  0.00000000000E+00  0.53072706597E+03  0.34370971166E+04  0.33958747577E+04 0.  0.
        3    1    3    3  502    0  0.13737769002E+04 -0.48889391255E+03  0.11458145346E+04  0.18545002527E+04  0.10100000352E+00 0. -1.
       -3    1    3    3    0  502 -0.13737769002E+04  0.48889391255E+03 -0.61508746865E+03  0.15825968639E+04  0.10100000352E+00 0.  1.
</event>
<event>
 5   0  0.1300176E-06  0.3120986E+04  0.7818609E-02  0.8210002E-01
        2   -1    0    0  501    0  0.00000000000E+00  0.00000000000E+00  0.25715651988E+04  0.25715651988E+04  0.25500000920E-02 0.  1.
       -2   -1    0    0    0  501  0.00000000000E+00  0.00000000000E+00 -0.94694782567E+03  0.94694782568E+03  0.25500000920E-02 0. -1.
    10030    2    1    2    0    0  0.00000000000E+00  0.00000000000E+00  0.16246173732E+04  0.35185130245E+04  0.31209857889E+04 0.  0.
        1    1    3    3  502    0 -0.26642678933E+03 -0.69282467262E+03  0.23597884283E+04  0.24737806466E+04  0.50400001928E-02 0.  1.
       -1    1    3    3    0  502  0.26642678933E+03  0.69282467262E+03 -0.73517105516E+03  0.10447323779E+04  0.50400001928E-02 0. -1.
</event>
<event>
 5   0  0.4272633E-07  0.3440044E+04  0.7818609E-02  0.8128148E-01
        1   -1    0    0  501    0  0.00000000000E+00  0.00000000000E+00  0.18896593512E+04  0.18896593512E+04  0.50400001928E-02 0. -1.
       -1   -1    0    0    0  501  0.00000000000E+00  0.00000000000E+00 -0.15656134715E+04  0.15656134715E+04  0.50400001928E-02 0.  1.
    10030    2    1    2    0    0  0.00000000000E+00  0.00000000000E+00  0.32404587975E+03  0.34552728227E+04  0.34400442653E+04 0.  0.
        1    1    3    3  502    0 -0.24852038862E+03  0.44448390489E+03 -0.14881583070E+04  0.15728774498E+04  0.50400001928E-02 0.  1.
       -1    1    3    3    0  502  0.24852038862E+03 -0.44448390489E+03  0.18122041868E+04  0.18823953729E+04  0.50400001928E-02 0. -1.
</event>
<event>
 5   0  0.1277635E-06  0.3446858E+04  0.7818609E-02  0.8126501E-01
        2   -1    0    0  501    0  0.00000000000E+00  0.00000000000E+00  0.14846815895E+04  0.14846815895E+04  0.25500000920E-02 0.  1.
       -2   -1    0    0    0  501  0.00000000000E+00  0.00000000000E+00 -0.20005684487E+04  0.20005684487E+04  0.25500000920E-02 0. -1.
    10030    2    1    2    0    0  0.00000000000E+00  0.00000000000E+00 -0.51588685923E+03  0.34852500381E+04  0.34468577831E+04 0.  0.
        4    1    3    3  502    0  0.13878602946E+04  0.93928097748E+03  0.14878133069E+03  0.16824216027E+04  0.12699999809E+01 0.  1.
       -4    1    3    3    0  502 -0.13878602946E+04 -0.93928097748E+03 -0.66466818992E+03  0.18028284354E+04  0.12699999809E+01 0. -1.
</event>
<event>
 5   0  0.1256208E-06  0.3370942E+04  0.7818609E-02  0.8145075E-01
       -2   -1    0    0    0  501  0.00000000000E+00  0.00000000000E+00  0.20069092463E+04  0.20069092464E+04  0.25500000920E-02 0.  1.
        2   -1    0    0  501    0  0.00000000000E+00  0.00000000000E+00 -0.14155164633E+04  0.14155164633E+04  0.25500000920E-02 0. -1.
    10030    2    1    2    0    0  0.00000000000E+00  0.00000000000E+00  0.59139278302E+03  0.34224257097E+04  0.33709423481E+04 0.  0.
        3    1    3    3  502    0  0.79974074559E+01  0.16667702967E+04  0.41622726419E+02  0.16673091022E+04  0.10100000352E+00 0.  1.
       -3    1    3    3    0  502 -0.79974074559E+01 -0.16667702967E+04  0.54977005660E+03  0.17551166075E+04  0.10100000352E+00 0. -1.
</event>
<event>
 5   0  0.4464951E-07  0.3408716E+04  0.7818609E-02  0.8135771E-01
        1   -1    0    0  501    0  0.00000000000E+00  0.00000000000E+00  0.16124910967E+04  0.16124910967E+04  0.50400001928E-02 0.  1.
       -1   -1    0    0    0  501  0.00000000000E+00  0.00000000000E+00 -0.18014582899E+04  0.18014582899E+04  0.50400001928E-02 0. -1.
    10030    2    1    2    0    0  0.00000000000E+00  0.00000000000E+00 -0.18896719323E+03  0.34139493866E+04  0.34087155666E+04 0.  0.
        3    1    3    3  502    0  0.12004430229E+04  0.80887021063E+03 -0.99558777230E+03  0.17568521541E+04  0.10100000352E+00 0. -1.
       -3    1    3    3    0  502 -0.12004430229E+04 -0.80887021063E+03  0.80662057907E+03  0.16570972324E+04  0.10100000352E+00 0.  1.
</event>
<event>
 5   0  0.4109937E-07  0.3455504E+04  0.7818609E-02  0.8124417E-01
        1   -1    0    0  501    0  0.00000000000E+00  0.00000000000E+00  0.13548252454E+04  0.13548252454E+04  0.50400001928E-02 0.  1.
       -1   -1    0    0    0  501  0.00000000000E+00  0.00000000000E+00 -0.22033300632E+04  0.22033300632E+04  0.50400001928E-02 0. -1.
    10030    2    1    2    0    0  0.00000000000E+00  0.00000000000E+00 -0.84850481784E+03  0.35581553086E+04  0.34555041274E+04 0.  0.
        5    1    3    3  502    0 -0.58533481471E+03  0.15060226922E+04  0.20579331981E+03  0.16288321507E+04  0.46999998093E+01 0.  1.
       -5    1    3    3    0  502  0.58533481471E+03 -0.15060226922E+04 -0.10542981377E+04  0.19293231579E+04  0.46999998093E+01 0. -1.
</event>
<event>
 5   0  0.4289684E-07  0.3400517E+04  0.7818609E-02  0.8137779E-01
        1   -1    0    0  501    0  0.00000000000E+00  0.00000000000E+00  0.21189628188E+04  0.21189628188E+04  0.50400001928E-02 0.  1.
       -1   -1    0    0    0  501  0.00000000000E+00  0.00000000000E+00 -0.13642896889E+04  0.13642896889E+04  0.50400001928E-02 0. -1.
    10030    2    1    2    0    0  0.00000000000E+00  0.00000000000E+00  0.75467312991E+03  0.34832525076E+04  0.34005170929E+04 0.  0.
        4    1    3    3  502    0  0.13561990216E+04 -0.63868410404E+03 -0.44448298491E+03  0.15635728022E+04  0.12699999809E+01 0. -1.
       -4    1    3    3    0  502 -0.13561990216E+04  0.63868410404E+03  0.11991561148E+04  0.19196797055E+04  0.12699999809E+01 0.  1.
</event>
<event>
 5   0  0.1269497E-06  0.3398409E+04  0.7818609E-02  0.8138297E-01
       -2   -1    0    0    0  501  0.00000000000E+00  0.00000000000E+00  0.12554348025E+04  0.12554348025E+04  0.25500000920E-02 0. -1.
        2   -1    0    0  501    0  0.00000000000E+00  0.00000000000E+00 -0.22998379406E+04  0.22998379406E+04  0.25500000920E-02 0.  1.
    10030    2    1    2    0    0  0.00000000000E+00  0.00000000000E+00 -0.10444031381E+04  0.35552727431E+04  0.33984093872E+04 0.  0.
        5    1    3    3  502    0 -0.87613673901E+03  0.11789794022E+04 -0.14158350419E+04  0.20401517032E+04  0.46999998093E+01 0.  1.
       -5    1    3    3    0  502  0.87613673901E+03 -0.11789794022E+04  0.37143190389E+03  0.15151210399E+04  0.46999998093E+01 0. -1.
</event>
<event>
 5   0  0.1268230E-06  0.3298079E+04  0.7818609E-02  0.8163384E-01
        2   -1    0    0  501    0  0.00000000000E+00  0.00000000000E+00  0.23680376132E+04  0.23680376132E+04  0.25500000920E-02 0. -1.
       -2   -1    0    0    0  501  0.00000000000E+00  0.00000000000E+00 -0.11483483075E+04  0.11483483075E+04  0.25500000920E-02 0.  1.
    10030    2    1    2    0    0  0.00000000000E+00  0.00000000000E+00  0.12196893058E+04  0.35163859207E+04  0.32980794321E+04 0.  0.
        2    1    3    3  502    0  0.40387896479E+03  0.15400070073E+04  0.10679254391E+04  0.19170822998E+04  0.25500000920E-02 0. -1.
       -2    1    3    3    0  502 -0.40387896479E+03 -0.15400070073E+04  0.15176386669E+03  0.15993036209E+04  0.25500000920E-02 0.  1.
</event>
<event>
 5   0  0.1256208E-06  0.3375253E+04  0.7818609E-02  0.8144007E-01
        2   -1    0    0  501    0  0.00000000000E+00  0.00000000000E+00  0.23248389630E+04  0.23248389630E+04  0.25500000920E-02 0.  1.
       -2   -1    0    0    0  501  0.00000000000E+00  0.00000000000E+00 -0.12250669382E+04  0.12250669382E+04  0.25500000920E-02 0. -1.
    10030    2    1    2    0    0  0.00000000000E+00  0.00000000000E+00  0.10997720248E+04  0.35499059012E+04  0.33752530869E+04 0.  0.
        3    1    3    3  502    0  0.81125281980E+03 -0.77251936756E+02  0.21041874837E+04  0.22564804400E+04  0.10100000352E+00 0.  1.
       -3    1    3    3    0  502 -0.81125281980E+03  0.77251936756E+02 -0.10044154589E+04  0.12934254612E+04  0.10100000352E+00 0. -1.
</event>
<event>
 5   0  0.1268230E-06  0.3418991E+04  0.7818609E-02  0.8133261E-01
       -2   -1    0    0    0  501  0.00000000000E+00  0.00000000000E+00  0.28372938828E+04  0.28372938828E+04  0.25500000920E-02 0. -1.
        2   -1    0    0  501    0  0.00000000000E+00  0.00000000000E+00 -0.10299867588E+04  0.10299867588E+04  0.25500000920E-02 0.  1.
    10030    2    1    2    0    0  0.00000000000E+00  0.00000000000E+00  0.18073071240E+04  0.38672806416E+04  0.34189911554E+04 0.  0.
        2    1    3    3  502    0 -0.11289339745E+04  0.68791366915E+03 -0.32227011067E+03  0.13607259677E+04  0.25500000920E-02 0.  1.
       -2    1    3    3    0  502  0.11289339745E+04 -0.68791366915E+03  0.21295772347E+04  0.25065546739E+04  0.25500000920E-02 0. -1.
</event>
<event>
 5   0  0.1256208E-06  0.3374803E+04  0.7818609E-02  0.8144118E-01
        2   -1    0    0  501    0  0.00000000000E+00  0.00000000000E+00  0.16269445626E+04  0.16269445626E+04  0.25500000920E-02 0. -1.
       -2   -1    0    0    0  501  0.00000000000E+00  0.00000000000E+00 -0.17501051010E+04  0.17501051010E+04  0.25500000920E-02 0.  1.
    10030    2    1    2    0    0  0.00000000000E+00  0.00000000000E+00 -0.12316053843E+03  0.33770496636E+04  0.33748030924E+04 0.  0.
        3    1    3    3  502    0  0.11274129731E+04  0.29739213668E+03 -0.12821552925E+04  0.17330390356E+04  0.10100000352E+00 0.  1.
       -3    1    3    3    0  502 -0.11274129731E+04 -0.29739213668E+03  0.11589947541E+04  0.16440106280E+04  0.10100000352E+00 0. -1.
</event>
<event>
 5   0  0.1269497E-06  0.3352780E+04  0.7818609E-02  0.8149594E-01
       -2   -1    0    0    0  501  0.00000000000E+00  0.00000000000E+00  0.14347359736E+04  0.14347359736E+04  0.25500000920E-02 0. -1.
        2   -1    0    0  501    0  0.00000000000E+00  0.00000000000E+00 -0.19587460557E+04  0.19587460557E+04  0.25500000920E-02 0.  1.
    10030    2    1    2    0    0  0.00000000000E+00  0.00000000000E+00 -0.52401008209E+03  0.33934820294E+04  0.33527799984E+04 0.  0.
        5    1    3    3  502    0  0.22343660442E+03 -0.15383366909E+04  0.37319444578E+03  0.15986556462E+04  0.46999998093E+01 0. -1.
       -5    1    3    3    0  502 -0.22343660442E+03  0.15383366909E+04 -0.89720452787E+03  0.17948263832E+04  0.46999998093E+01 0.  1.
</event>
<event>
 5   0  0.1277635E-06  0.3404234E+04  0.7818609E-02  0.8136868E-01
       -2   -1    0    0    0  501  0.00000000000E+00  0.00000000000E+00  0.17820294277E+04  0.17820294277E+04  0.25500000920E-02 0. -1.
        2   -1    0    0  501    0  0.00000000000E+00  0.00000000000E+00 -0.16257881068E+04  0.16257881068E+04  0.25500000920E-02 0.  1.
    10030    2    1    2    0    0  0.00000000000E+00  0.00000000000E+00  0.15624132090E+03  0.34078175344E+04  0.34042339811E+04 0.  0.
        4    1    3    3  502    0 -0.83991226415E+03  0.10222053364E+04  0.11501561336E+04  0.17530593560E+04  0.12699999809E+01 0. -1.
       -4    1    3    3    0  502  0.83991226415E+03 -0.10222053364E+04 -0.99391481267E+03  0.16547581784E+04  0.12699999809E+01 0.  1.
</event>
<event>
 5   0  0.1277635E-06  0.3362074E+04  0.7818609E-02  0.8147278E-01
       -2   -1    0    0    0  501  0.00000000000E+00  0.00000000000E+00  0.14134219089E+04  0.14134219089E+04  0.25500000920E-02 0.  1.
        2   -1    0    0  501    0  0.00000000000E+00  0.00000000000E+00 -0.19993216023E+04  0.19993216023E+04  0.25500000920E-02 0. -1.
    10030    2    1    2    0    0  0.00000000000E+00  0.00000000000E+00 -0.58589969340E+03  0.34127435111E+04  0.33620737383E+04 0.  0.
        4    1    3    3  502    0  0.11416955827E+04 -0.82098952265E+03 -0.12279127417E+04  0.18668861545E+04  0.12699999809E+01 0. -1.
       -4    1    3    3    0  502 -0.11416955827E+04  0.82098952265E+03  0.64201304827E+03  0.15458573566E+04  0.12699999809E+01 0.  1.
</event>
<event>
 5   0  0.4272633E-07  0.3387125E+04  0.7818609E-02  0.8141073E-01
       -1   -1    0    0    0  501  0.00000000000E+00  0.00000000000E+00  0.11424540187E+04  0.11424540187E+04  0.50400001928E-02 0. -1.
        1   -1    0    0  501    0  0.00000000000E+00  0.00000000000E+00 -0.25105208432E+04  0.25105208432E+04  0.50400001928E-02 0.  1.
    10030    2    1    2    0    0  0.00000000000E+00  0.00000000000E+00 -0.13680668244E+04  0.36529748619E+04  0.33871254045E+04 0.  0.
        1    1    3    3  502    0  0.51928019366E+03  0.13988121070E+04 -0.15480548793E+04  0.21500700313E+04  0.50400001928E-02 0.  1.
       -1    1    3    3    0  502 -0.51928019366E+03 -0.13988121070E+04  0.17998805483E+03  0.15029048306E+04  0.50400001928E-02 0. -1.
</event>
<event>
 5   0  0.1268230E-06  0.3469130E+04  0.7818609E-02  0.8121145E-01
       -2   -1    0    0    0  501  0.00000000000E+00  0.00000000000E+00  0.20924730319E+04  0.20924730319E+04  0.25500000920E-02 0.  1.
        2   -1    0    0  501    0  0.00000000000E+00  0.00000000000E+00 -0.14378754358E+04  0.14378754358E+04  0.25500000920E-02 0. -1.
    10030    2    1    2    0    0  0.00000000000E+00  0.00000000000E+00  0.65459759615E+03  0.35303484677E+04  0.34691299040E+04 0.  0.
        2    1    3    3  502    0  0.13068644800E+04  0.10832575901E+04 -0.35893859755E+02  0.16978310118E+04  0.25500000920E-02 0. -1.
       -2    1    3    3    0  502 -0.13068644800E+04 -0.10832575901E+04  0.69049145590E+03  0.18325174559E+04  0.25500000920E-02 0.  1.
</event>
<event>
 5   0  0.4109937E-07  0.3388316E+04  0.7818609E-02  0.8140780E-01
        1   -1    0    0  501    0  0.00000000000E+00  0.00000000000E+00  0.20609703462E+04  0.20609703462E+04  0.50400001928E-02 0. -1.
       -1   -1    0    0    0  501  0.00000000000E+00  0.00000000000E+00 -0.13926309510E+04  0.13926309510E+04  0.50400001928E-02 0.  1.
    10030    2    1    2    0    0  0.00000000000E+00  0.00000000000E+00  0.66833939514E+03  0.34536012972E+04  0.33883158609E+04 0.  0.
        5    1    3    3  502    0 -0.55892584383E+03 -0.82729617444E+03  0.17292386690E+04  0.19967737788E+04  0.46999998093E+01 0. -1.
       -5    1    3    3    0  502  0.55892584383E+03  0.82729617444E+03 -0.10608992739E+04  0.14568275184E+04  0.46999998093E+01 0.  1.
</event>
<event>
 5   0  0.4272633E-07  0.3350879E+04  0.7818609E-02  0.8150069E-01
        1   -1    0    0  501    0  0.00000000000E+00  0.00000000000E+00  0.22612228804E+04  0.22612228804E+04  0.50400001928E-02 0. -1.
       -1   -1    0    0    0  501  0.00000000000E+00  0.00000000000E+00 -0.12414066708E+04  0.12414066708E+04  0.50400001928E-02 0.  1.
    10030    2    1    2    0    0  0.00000000000E+00  0.00000000000E+00  0.10198162096E+04  0.35026295511E+04  0.33508787909E+04 0.  0.
        1    1    3    3  502    0 -0.12007413136E+04  0.87855721212E+03  0.13151553952E+04  0.19857684132E+04  0.50400001928E-02 0. -1.
       -1    1    3    3    0  502  0.12007413136E+04 -0.87855721212E+03 -0.29533918562E+03  0.15168611380E+04  0.50400001928E-02 0.  1.
</event>
<event>
 5   0  0.4109937E-07  0.3383387E+04  0.7818609E-02  0.8141996E-01
        1   -1    0    0  501    0  0.00000000000E+00  0.00000000000E+00  0.21166095881E+04  0.21166095881E+04  0.50400001928E-02 0.  1.
       -1   -1    0    0    0  501  0.00000000000E+00  0.00000000000E+00 -0.13520803028E+04  0.13520803028E+04  0.50400001928E-02 0. -1.
    10030    2    1    2    0    0  0.00000000000E+00  0.00000000000E+00  0.76452928529E+03  0.34686898910E+04  0.33833865478E+04 0.  0.
        5    1    3    3  502    0  0.98717075113E+03 -0.11605920670E+04 -0.37133552715E+03  0.15682449431E+04  0.46999998093E+01 0. -1.
       -5    1    3    3    0  502 -0.98717075113E+03  0.11605920670E+04  0.11358648124E+04  0.19004449479E+04  0.46999998093E+01 0.  1.
</event>
<event>
 5   0  0.1300176E-06  0.3292171E+04  0.7818609E-02  0.8164890E-01
        2   -1    0    0  501    0  0.00000000000E+00  0.00000000000E+00  0.16949332789E+04  0.16949332789E+04  0.25500000920E-02 0.  1.
       -2   -1    0    0    0  501  0.00000000000E+00  0.00000000000E+00 -0.15986453220E+04  0.15986453220E+04  0.25500000920E-02 0. -1.
    10030    2    1    2    0    0  0.00000000000E+00  0.00000000000E+00  0.96287956902E+02  0.32935786009E+04  0.32921708081E+04 0.  0.
        1    1    3    3  502    0 -0.10243253353E+04 -0.76812786710E+03 -0.98686806484E+03  0.16165306648E+04  0.50400001928E-02 0. -1.
       -1    1    3    3    0  502  0.10243253353E+04  0.76812786710E+03  0.10831560217E+04  0.16770479362E+04  0.50400001928E-02 0.  1.
</event>
<event>
 5   0  0.1256208E-06  0.3517139E+04  0.7818609E-02  0.8109740E-01
       -2   -1    0    0    0  501  0.00000000000E+00  0.00000000000E+00  0.17912860703E+04  0.17912860703E+04  0.25500000920E-02 0. -1.
        2   -1    0    0  501    0  0.00000000000E+00  0.00000000000E+00 -0.17264508391E+04  0.17264508391E+04  0.25500000920E-02 0.  1.
    10030    2    1    2    0    0  0.00000000000E+00  0.00000000000E+00  0.64835231217E+02  0.35177369094E+04  0.35171393713E+04 0.  0.
        3    1    3    3  502    0  0.27564098354E+02  0.12141885111E+04  0.13044645796E+04  0.17823134880E+04  0.10100000352E+00 0. -1.
       -3    1    3    3    0  502 -0.27564098354E+02 -0.12141885111E+04 -0.12396293484E+04  0.17354234214E+04  0.10100000352E+00 0.  1.
</event>
<event>
 5   0  0.1269497E-06  0.3389650E+04  0.7818609E-02  0.8140451E-01
       -2   -1    0    0    0  501  0.00000000000E+00  0.00000000000E+00  0.16592177335E+04  0.16592177335E+04  0.25500000920E-02 0. -1.
        2   -1    0    0  501    0  0.00000000000E+00  0.00000000000E+00 -0.17311968218E+04  0.17311968218E+04  0.25500000920E-02 0.  1.
    10030    2    1    2    0    0  0.00000000000E+00  0.00000000000E+00 -0.71979088301E+02  0.33904145552E+04  0.33896504049E+04 0.  0.
        5    1    3    3  502    0  0.15327184708E+04 -0.72329187564E+03 -0.41763939614E+02  0.16953298690E+04  0.46999998093E+01 0. -1.
       -5    1    3    3    0  502 -0.15327184708E+04  0.72329187564E+03 -0.30215148687E+02  0.16950846862E+04  0.46999998093E+01 0.  1.
</event>
<event>
 5   0  0.4109937E-07  0.3409676E+04  0.7818609E-02  0.8135536E-01
        1   -1    0    0  501    0  0.00000000000E+00  0.00000000000E+00  0.16543811097E+04  0.16543811097E+04  0.50400001928E-02 0. -1.
       -1   -1    0    0    0  501  0.00000000000E+00  0.00000000000E+00 -0.17568337851E+04  0.17568337851E+04  0.50400001928E-02 0.  1.
    10030    2    1    2    0    0  0.00000000000E+00  0.00000000000E+00 -0.10245267538E+03  0.34112148948E+04  0.34096760121E+04 0.  0.
        5    1    3    3  502    0 -0.54723332675E+03 -0.12994851604E+04  0.90749867982E+03  0.16768130307E+04  0.46999998093E+01 0. -1.
       -5    1    3    3    0  502  0.54723332675E+03  0.12994851604E+04 -0.10099513552E+04  0.17344018640E+04  0.46999998093E+01 0.  1.
</event>
<event>
 5   0  0.1256208E-06  0.3425876E+04  0.7818609E-02  0.8131584E-01
       -2   -1    0    0    0  501  0.00000000000E+00  0.00000000000E+00  0.12108662221E+04  0.12108662221E+04  0.25500000920E-02 0.  1.
        2   -1    0    0  501    0  0.00000000000E+00  0.00000000000E+00 -0.24231886148E+04  0.24231886148E+04  0.25500000920E-02 0. -1.
    10030    2    1    2    0    0  0.00000000000E+00  0.00000000000E+00 -0.12123223927E+04  0.36340548369E+04  0.34258763804E+04 0.  0.
        3    1    3    3  502    0 -0.16559429180E+04  0.26900889250E+03 -0.97307678233E+03  0.19394306295E+04  0.10100000352E+00 0.  1.
       -3    1    3    3    0  502  0.16559429180E+04 -0.26900889250E+03 -0.23924561032E+03  0.16946242074E+04  0.10100000352E+00 0. -1.
</event>
<event>
 5   0  0.1277635E-06  0.3376662E+04  0.7818609E-02  0.8143658E-01
       -2   -1    0    0    0  501  0.00000000000E+00  0.00000000000E+00  0.13896795152E+04  0.13896795152E+04  0.25500000920E-02 0. -1.
        2   -1    0    0  501    0  0.00000000000E+00  0.00000000000E+00 -0.20511643832E+04  0.20511643832E+04  0.25500000920E-02 0.  1.
    10030    2    1    2    0    0  0.00000000000E+00  0.00000000000E+00 -0.66148486808E+03  0.34408438984E+04  0.33766617394E+04 0.  0.
        4    1    3    3  502    0 -0.11557250373E+04  0.81475711268E+03  0.60924994064E+03  0.15397131608E+04  0.12699999809E+01 0. -1.
       -4    1    3    3    0  502  0.11557250373E+04 -0.81475711268E+03 -0.12707348087E+04  0.19011307376E+04  0.12699999809E+01 0.  1.
</event>
<event>
 5   0  0.1269497E-06  0.3385837E+04  0.7818609E-02  0.8141391E-01
        2   -1    0    0  501    0  0.00000000000E+00  0.00000000000E+00  0.16499548525E+04  0.16499548525E+04  0.25500000920E-02 0. -1.
       -2   -1    0    0    0  501  0.00000000000E+00  0.00000000000E+00 -0.17370004988E+04  0.17370004988E+04  0.25500000920E-02 0.  1.
    10030    2    1    2    0    0  0.00000000000E+00  0.00000000000E+00 -0.87045646271E+02  0.33869553513E+04  0.33858366185E+04 0.  0.
        5    1    3    3  502    0  0.28714283260E+03 -0.57563839240E+03  0.15229255367E+04  0.16532195394E+04  0.46999998093E+01 0. -1.
       -5    1    3    3    0  502 -0.28714283260E+03  0.57563839240E+03 -0.16099711830E+04  0.17337358118E+04  0.46999998093E+01 0.  1.
</event>
<event>
 5   0  0.4109937E-07  0.3395512E+04  0.7818609E-02  0.8139009E-01
        1   -1    0    0  501    0  0.00000000000E+00  0.00000000000E+00  0.21726088371E+04  0.21726088371E+04  0.50400001928E-02 0.  1.
       -1   -1    0    0    0  501  0.00000000000E+00  0.00000000000E+00 -0.13266888980E+04  0.13266888980E+04  0.50400001928E-02 0. -1.
    10030    2    1    2    0    0  0.00000000000E+00  0.00000000000E+00  0.84591993906E+03  0.34992977351E+04  0.33955123465E+04 0.  0.
        5    1    3    3  502    0  0.73187316842E+03 -0.15238711036E+04  0.58437579888E+03  0.17886695165E+04  0.46999998093E+01 0.  1.
       -5    1    3    3    0  502 -0.73187316842E+03  0.15238711036E+04  0.26154414017E+03  0.17106282186E+04  0.46999998093E+01 0. -1.
</event>
<event>
 5   0  0.1256208E-06  0.3379138E+04  0.7818609E-02  0.8143046E-01
       -2   -1    0    0    0  501  0.00000000000E+00  0.00000000000E+00  0.19943953146E+04  0.19943953146E+04  0.25500000920E-02 0.  1.
        2   -1    0    0  501    0  0.00000000000E+00  0.00000000000E+00 -0.14313329871E+04  0.14313329871E+04  0.25500000920E-02 0. -1.
    10030    2    1    2    0    0  0.00000000000E+00  0.00000000000E+00  0.56306232751E+03  0.34257283017E+04  0.33791382352E+04 0.  0.
        3    1    3    3  502    0 -0.10400472246E+04  0.85092847497E+03  0.13197933132E+04  0.18835158345E+04  0.10100000352E+00 0.  1.
       -3    1    3    3    0  502  0.10400472246E+04 -0.85092847497E+03 -0.75673098573E+03  0.15422124672E+04  0.10100000352E+00 0. -1.
</event>
<event>
 5   0  0.1300176E-06  0.3399179E+04  0.7818609E-02  0.8138108E-01
        2   -1    0    0  501    0  0.00000000000E+00  0.00000000000E+00  0.25100249876E+04  0.25100249876E+04  0.25500000920E-02 0. -1.
       -2   -1    0    0    0  501  0.00000000000E+00  0.00000000000E+00 -0.11508269653E+04  0.11508269653E+04  0.25500000920E-02 0.  1.
    10030    2    1    2    0    0  0.00000000000E+00  0.00000000000E+00  0.13591980223E+04  0.36608519530E+04  0.33991789829E+04 0.  0.
        1    1    3    3  502    0  0.53727026389E+02 -0.15413477545E+04 -0.89492991550E+02  0.15448781470E+04  0.50400001928E-02 0.  1.
       -1    1    3    3    0  502 -0.53727026389E+02  0.15413477545E+04  0.14486910138E+04  0.21159738059E+04  0.50400001928E-02 0. -1.
</event>
<event>
 5   0  0.1277635E-06  0.3391815E+04  0.7818609E-02  0.8139918E-01
       -2   -1    0    0    0  501  0.00000000000E+00  0.00000000000E+00  0.15052608487E+04  0.15052608487E+04  0.25500000920E-02 0.  1.
        2   -1    0    0  501    0  0.00000000000E+00  0.00000000000E+00 -0.19107004082E+04  0.19107004082E+04  0.25500000920E-02 0. -1.
    10030    2    1    2    0    0  0.00000000000E+00  0.00000000000E+00 -0.40543955952E+03  0.34159612570E+04  0.33918151590E+04 0.  0.
        4    1    3    3  502    0 -0.47754246563E+03 -0.60804393882E+03  0.13174416506E+04  0.15275530609E+04  0.12699999809E+01 0.  1.
       -4    1    3    3    0  502  0.47754246563E+03  0.60804393882E+03 -0.17228812101E+04  0.18884081961E+04  0.12699999809E+01 0. -1.
</event>
<event>
 5   0  0.1300176E-06  0.3416207E+04  0.7818609E-02  0.8133940E-01
        2   -1    0    0  501    0  0.00000000000E+00  0.00000000000E+00  0.25594604032E+04  0.25594604033E+04  0.25500000920E-02 0.  1.
       -2   -1    0    0    0  501  0.00000000000E+00  0.00000000000E+00 -0.11399346160E+04  0.11399346160E+04  0.25500000920E-02 0. -1.
    10030    2    1    2    0    0  0.00000000000E+00  0.00000000000E+00  0.14195257872E+04  0.36993950193E+04  0.34162069680E+04 0.  0.
        1    1    3    3  502    0 -0.11598625893E+04 -0.40345987976E+03  0.19954277243E+04  0.23430307091E+04  0.50400001928E-02 0.  1.
       -1    1    3    3    0  502  0.11598625893E+04  0.40345987976E+03 -0.57590193709E+03  0.13563643102E+04  0.50400001928E-02 0. -1.
</event>
<event>
 5   0  0.1256208E-06  0.3399833E+04  0.7818609E-02  0.8137947E-01
       -2   -1    0    0    0  501  0.00000000000E+00  0.00000000000E+00  0.17813622881E+04  0.17813622881E+04  0.25500000920E-02 0. -1.
        2   -1    0    0  501    0  0.00000000000E+00  0.00000000000E+00 -0.16221940808E+04  0.16221940808E+04  0.25500000920E-02 0.  1.
    10030    2    1    2    0    0  0.00000000000E+00  0.00000000000E+00  0.15916820736E+03  0.34035563689E+04  0.33998325603E+04 0.  0.
        3    1    3    3  502    0  0.14715454640E+04  0.34535697828E+03  0.85825211926E+03  0.17381927987E+04  0.10100000352E+00 0. -1.
       -3    1    3    3    0  502 -0.14715454640E+04 -0.34535697828E+03 -0.69908391191E+03  0.16653635702E+04  0.10100000352E+00 0.  1.
</event>
<event>
 5   0  0.1268230E-06  0.3408245E+04  0.7818609E-02  0.8135886E-01
       -2   -1    0    0    0  501  0.00000000000E+00  0.00000000000E+00  0.15727457654E+04  0.15727457654E+04  0.25500000920E-02 0. -1.
        2   -1    0    0  501    0  0.00000000000E+00  0.00000000000E+00 -0.18464732613E+04  0.18464732613E+04  0.25500000920E-02 0.  1.
    10030    2    1    2    0    0  0.00000000000E+00  0.00000000000E+00 -0.27372749589E+03  0.34192190267E+04  0.34082447111E+04 0.  0.
        2    1    3    3  502    0  0.14888104440E+04  0.58146921130E+03 -0.72984227907E+03  0.17570807421E+04  0.25500000920E-02 0.  1.
       -2    1    3    3    0  502 -0.14888104440E+04 -0.58146921130E+03  0.45611478317E+03  0.16621382846E+04  0.25500000920E-02 0. -1.
</event>
<event>
 5   0  0.1300176E-06  0.3407257E+04  0.7818609E-02  0.8136128E-01
       -2   -1    0    0    0  501  0.00000000000E+00  0.00000000000E+00  0.13851772060E+04  0.13851772060E+04  0.25500000920E-02 0.  1.
        2   -1    0    0  501    0  0.00000000000E+00  0.00000000000E+00 -0.20952913439E+04  0.20952913439E+04  0.25500000920E-02 0. -1.
    10030    2    1    2    0    0  0.00000000000E+00  0.00000000000E+00 -0.71011413792E+03  0.34804685498E+04  0.34072568494E+04 0.  0.
        1    1    3    3  502    0 -0.38939344784E+03  0.16407074361E+04 -0.60275799956E+03  0.17907722787E+04  0.50400001928E-02 0.  1.
       -1    1    3    3    0  502  0.38939344784E+03 -0.16407074361E+04 -0.10735613836E+03  0.16896962711E+04  0.50400001928E-02 0. -1.
</event>
<event>
 5   0  0.1268230E-06  0.3393972E+04  0.7818609E-02  0.8139387E-01
       -2   -1    0    0    0  501  0.00000000000E+00  0.00000000000E+00  0.12501044875E+04  0.12501044875E+04  0.25500000920E-02 0.  1.
        2   -1    0    0  501    0  0.00000000000E+00  0.00000000000E+00 -0.23036164522E+04  0.23036164522E+04  0.25500000920E-02 0. -1.
    10030    2    1    2    0    0  0.00000000000E+00  0.00000000000E+00 -0.10535119647E+04  0.35537209397E+04  0.33939718704E+04 0.  0.
        2    1    3    3  502    0  0.25245271310E+03  0.16557902814E+04 -0.24117789723E+03  0.16921999310E+04  0.25500000920E-02 0.  1.
       -2    1    3    3    0  502 -0.25245271310E+03 -0.16557902814E+04 -0.81233406743E+03  0.18615210086E+04  0.25500000920E-02 0. -1.
</event>
<event>
 5   0  0.4272633E-07  0.3404650E+04  0.7818609E-02  0.8136766E-01
       -1   -1    0    0    0  501  0.00000000000E+00  0.00000000000E+00  0.15667588881E+04  0.15667588881E+04  0.50400001928E-02 0. -1.
        1   -1    0    0  501    0  0.00000000000E+00  0.00000000000E+00 -0.18496211093E+04  0.18496211093E+04  0.50400001928E-02 0.  1.
    10030    2    1    2    0    0  0.00000000000E+00  0.00000000000E+00 -0.28286222122E+03  0.34163799975E+04  0.34046499454E+04 0.  0.
        1    1    3    3  502    0 -0.11296954976E+04  0.12692938752E+04 -0.24470047261E+03  0.17167402774E+04  0.50400001928E-02 0.  1.
       -1    1    3    3    0  502  0.11296954976E+04 -0.12692938752E+04 -0.38161748603E+02  0.16996397200E+04  0.50400001928E-02 0. -1.
</event>
<event>
 5   0  0.4125758E-07  0.3466243E+04  0.7818609E-02  0.8121837E-01
        1   -1    0    0  501    0  0.00000000000E+00  0.00000000000E+00  0.20556755487E+04  0.20556755487E+04  0.50400001928E-02 0. -1.
       -1   -1    0    0    0  501  0.00000000000E+00  0.00000000000E+00 -0.14611790292E+04  0.14611790292E+04  0.50400001928E-02 0.  1.
    10030    2    1    2    0    0  0.00000000000E+00  0.00000000000E+00  0.59449651946E+03  0.35168545779E+04  0.34662429243E+04 0.  0.
        2    1    3    3  502    0  0.58496902609E+03 -0.42743576205E+03  0.18946637903E+04  0.20284577812E+04  0.25500000920E-02 0. -1.
       -2    1    3    3    0  502 -0.58496902609E+03  0.42743576205E+03 -0.13001672708E+04  0.14883967966E+04  0.25500000920E-02 0.  1.
</event>
<event>
 5   0  0.4289684E-07  0.3400518E+04  0.7818609E-02  0.8137779E-01
       -1   -1    0    0    0  501  0.00000000000E+00  0.00000000000E+00  0.92256885561E+03  0.92256885563E+03  0.50400001928E-02 0. -1.
        1   -1    0    0  501    0  0.00000000000E+00  0.00000000000E+00 -0.31335113122E+04  0.31335113122E+04  0.50400001928E-02 0.  1.
    10030    2    1    2    0    0  0.00000000000E+00  0.00000000000E+00 -0.22109424566E+04  0.40560801678E+04  0.34005175755E+04 0.  0.
        4    1    3    3  502    0 -0.73992536970E+03  0.30115577477E+03  0.68477433245E+03  0.10521890765E+04  0.12699999809E+01 0. -1.
       -4    1    3    3    0  502  0.73992536970E+03 -0.30115577477E+03 -0.28957167890E+04  0.30038910913E+04  0.12699999809E+01 0.  1.
</event>
<event>
 5   0  0.4060750E-07  0.3397199E+04  0.7818609E-02  0.8138594E-01
       -3   -1    0    0    0  501  0.00000000000E+00  0.00000000000E+00  0.22430300193E+04  0.22430300216E+04  0.10100000352E+00 0.  1.
        3   -1    0    0  501    0  0.00000000000E+00  0.00000000000E+00 -0.12863139154E+04  0.12863139193E+04  0.10100000352E+00 0. -1.
    10030    2    1    2    0    0  0.00000000000E+00  0.00000000000E+00  0.95671610393E+03  0.35293439409E+04  0.33971992803E+04 0.  0.
        4    1    3    3  502    0  0.35328269650E+03 -0.14302260320E+03 -0.12413164804E+04  0.12985115888E+04  0.12699999809E+01 0. -1.
       -4    1    3    3    0  502 -0.35328269650E+03  0.14302260320E+03  0.21980325844E+04  0.22308323522E+04  0.12699999809E+01 0.  1.
</event>
<event>
 5   0  0.1256208E-06  0.3425964E+04  0.7818609E-02  0.8131563E-01
       -2   -1    0    0    0  501  0.00000000000E+00  0.00000000000E+00  0.14046257350E+04  0.14046257350E+04  0.25500000920E-02 0.  1.
        2   -1    0    0  501    0  0.00000000000E+00  0.00000000000E+00 -0.20890312899E+04  0.20890312899E+04  0.25500000920E-02 0. -1.
    10030    2    1    2    0    0  0.00000000000E+00  0.00000000000E+00 -0.68440555496E+03  0.34936570249E+04  0.34259638708E+04 0.  0.
        3    1    3    3  502    0 -0.91356651667E+03 -0.47300278476E+03 -0.17389268833E+04  0.20204460227E+04  0.10100000352E+00 0. -1.
       -3    1    3    3    0  502  0.91356651667E+03  0.47300278476E+03  0.10545213284E+04  0.14732110022E+04  0.10100000352E+00 0.  1.
</event>
<event>
 5   0  0.1256208E-06  0.3440486E+04  0.7818609E-02  0.8128041E-01
       -2   -1    0    0    0  501  0.00000000000E+00  0.00000000000E+00  0.21827279800E+04  0.21827279800E+04  0.25500000920E-02 0. -1.
        2   -1    0    0  501    0  0.00000000000E+00  0.00000000000E+00 -0.13557510299E+04  0.13557510299E+04  0.25500000920E-02 0.  1.
    10030    2    1    2    0    0  0.00000000000E+00  0.00000000000E+00  0.82697695015E+03  0.35384790099E+04  0.34404858418E+04 0.  0.
        3    1    3    3  502    0 -0.86307121665E+03  0.13423568174E+04 -0.24700378474E+03  0.16148760417E+04  0.10100000352E+00 0.  1.
       -3    1    3    3    0  502  0.86307121665E+03 -0.13423568174E+04  0.10739807349E+04  0.19236029682E+04  0.10100000352E+00 0. -1.
</event>
<event>
 5   0  0.4464951E-07  0.3376639E+04  0.7818609E-02  0.8143664E-01
        1   -1    0    0  501    0  0.00000000000E+00  0.00000000000E+00  0.13042187633E+04  0.13042187633E+04  0.50400001928E-02 0. -1.
       -1   -1    0    0    0  501  0.00000000000E+00  0.00000000000E+00 -0.21855398311E+04  0.21855398311E+04  0.50400001928E-02 0.  1.
    10030    2    1    2    0    0  0.00000000000E+00  0.00000000000E+00 -0.88132106778E+03  0.34897585944E+04  0.33766385982E+04 0.  0.
        3    1    3    3  502    0 -0.99727608754E+02 -0.15394663735E+04 -0.11495846111E+04  0.19239145249E+04  0.10100000352E+00 0.  1.
       -3    1    3    3    0  502  0.99727608754E+02  0.15394663735E+04  0.26826354327E+03  0.15658440695E+04  0.10100000352E+00 0. -1.
</event>
<event>
 5   0  0.4289684E-07  0.3420635E+04  0.7818609E-02  0.8132860E-01
        1   -1    0    0  501    0  0.00000000000E+00  0.00000000000E+00  0.24168640954E+04  0.24168640954E+04  0.50400001928E-02 0.  1.
       -1   -1    0    0    0  501  0.00000000000E+00  0.00000000000E+00 -0.12103230882E+04  0.12103230882E+04  0.50400001928E-02 0. -1.
    10030    2    1    2    0    0  0.00000000000E+00  0.00000000000E+00  0.12065410072E+04  0.36271871835E+04  0.34206352717E+04 0.  0.
        4    1    3    3  502    0  0.32742209993E+03 -0.98470845525E+03 -0.83835619699E+03  0.13340534844E+04  0.12699999809E+01 0. -1.
       -4    1    3    3    0  502 -0.32742209993E+03  0.98470845525E+03  0.20448972042E+04  0.22931336991E+04  0.12699999809E+01 0.  1.
</event>
<event>
 5   0  0.4060750E-07  0.3442454E+04  0.7818609E-02  0.8127565E-01
        3   -1    0    0  501    0  0.00000000000E+00  0.00000000000E+00  0.13220129641E+04  0.13220129679E+04  0.10100000352E+00 0. -1.
       -3   -1    0    0    0  501  0.00000000000E+00  0.00000000000E+00 -0.22409939878E+04  0.22409939901E+04  0.10100000352E+00 0.  1.
    10030    2    1    2    0    0  0.00000000000E+00  0.00000000000E+00 -0.91898102378E+03  0.35630069580E+04  0.34424544239E+04 0.  0.
        2    1    3    3  502    0  0.59762066238E+03  0.14212842917E+04 -0.12514146711E+04  0.19857588406E+04  0.25500000920E-02 0.  1.
       -2    1    3    3    0  502 -0.59762066238E+03 -0.14212842917E+04  0.33243364728E+03  0.15772481174E+04  0.25500000920E-02 0. -1.
</event>
<event>
 5   0  0.1277635E-06  0.3381072E+04  0.7818609E-02  0.8142567E-01
       -2   -1    0    0    0  501  0.00000000000E+00  0.00000000000E+00  0.14076089501E+04  0.14076089501E+04  0.25500000920E-02 0. -1.
        2   -1    0    0  501    0  0.00000000000E+00  0.00000000000E+00 -0.20303313544E+04  0.20303313544E+04  0.25500000920E-02 0.  1.
    10030    2    1    2    0    0  0.00000000000E+00  0.00000000000E+00 -0.62272240433E+03  0.34379403045E+04  0.33810723661E+04 0.  0.
        4    1    3    3  502    0 -0.69966585743E+03 -0.11108722654E+04  0.77160716232E+03  0.15228094851E+04  0.12699999809E+01 0. -1.
       -4    1    3    3    0  502  0.69966585743E+03  0.11108722654E+04 -0.13943295667E+04  0.19151308194E+04  0.12699999809E+01 0.  1.
</event>
<event>
 5   0  0.1277635E-06  0.3306769E+04  0.7818609E-02  0.8161175E-01
        2   -1    0    0  501    0  0.00000000000E+00  0.00000000000E+00  0.24587487779E+04  0.24587487779E+04  0.25500000920E-02 0. -1.
       -2   -1    0    0    0  501  0.00000000000E+00  0.00000000000E+00 -0.11118174090E+04  0.11118174090E+04  0.25500000920E-02 0.  1.
    10030    2    1    2    0    0  0.00000000000E+00  0.00000000000E+00  0.13469313689E+04  0.35705661869E+04  0.33067686315E+04 0.  0.
        4    1    3    3  502    0  0.14787020389E+04 -0.25894605436E+03 -0.74675285153E+02  0.15030604745E+04  0.12699999809E+01 0.  1.
       -4    1    3    3    0  502 -0.14787020389E+04  0.25894605436E+03  0.14216066541E+04  0.20675057124E+04  0.12699999809E+01 0. -1.
</event>
<event>
 5   0  0.1256208E-06  0.3401227E+04  0.7818609E-02  0.8137605E-01
        2   -1    0    0  501    0  0.00000000000E+00  0.00000000000E+00  0.19971794471E+04  0.19971794471E+04  0.25500000920E-02 0. -1.
       -2   -1    0    0    0  501  0.00000000000E+00  0.00000000000E+00 -0.14480857017E+04  0.14480857017E+04  0.25500000920E-02 0.  1.
    10030    2    1    2    0    0  0.00000000000E+00  0.00000000000E+00  0.54909374543E+03  0.34452651487E+04  0.34012274261E+04 0.  0.
        3    1    3    3  502    0 -0.56416735705E+03 -0.17086600383E+03 -0.13412893393E+04  0.14651065149E+04  0.10100000352E+00 0.  1.
       -3    1    3    3    0  502  0.56416735705E+03  0.17086600383E+03  0.18903830847E+04  0.19801586339E+04  0.10100000352E+00 0. -1.
</event>
<event>
 5   0  0.4272633E-07  0.3387068E+04  0.7818609E-02  0.8141088E-01
       -1   -1    0    0    0  501  0.00000000000E+00  0.00000000000E+00  0.13971901489E+04  0.13971901489E+04  0.50400001928E-02 0.  1.
        1   -1    0    0  501    0  0.00000000000E+00  0.00000000000E+00 -0.20527325677E+04  0.20527325677E+04  0.50400001928E-02 0. -1.
    10030    2    1    2    0    0  0.00000000000E+00  0.00000000000E+00 -0.65554241875E+03  0.34499227166E+04  0.33870681847E+04 0.  0.
        1    1    3    3  502    0 -0.12809469825E+04 -0.11005577569E+04 -0.45663046618E+03  0.17494467500E+04  0.50400001928E-02 0.  1.
       -1    1    3    3    0  502  0.12809469825E+04  0.11005577569E+04 -0.19891195257E+03  0.17004759667E+04  0.50400001928E-02 0. -1.
</event>
<event>
 5   0  0.1277635E-06  0.3359455E+04  0.7818609E-02  0.8147930E-01
       -2   -1    0    0    0  501  0.00000000000E+00  0.00000000000E+00  0.14500258563E+04  0.14500258563E+04  0.25500000920E-02 0.  1.
        2   -1    0    0  501    0  0.00000000000E+00  0.00000000000E+00 -0.19458166070E+04  0.19458166070E+04  0.25500000920E-02 0. -1.
    10030    2    1    2    0    0  0.00000000000E+00  0.00000000000E+00 -0.49579075067E+03  0.33958424633E+04  0.33594549509E+04 0.  0.
        4    1    3    3  502    0  0.15030037688E+04  0.16990816243E+03  0.49049163139E+03  0.15901172177E+04  0.12699999809E+01 0.  1.
       -4    1    3    3    0  502 -0.15030037688E+04 -0.16990816243E+03 -0.98628238205E+03  0.18057252456E+04  0.12699999809E+01 0. -1.
</event>
<event>
 5   0  0.4289684E-07  0.3417970E+04  0.7818609E-02  0.8133510E-01
        1   -1    0    0  501    0  0.00000000000E+00  0.00000000000E+00  0.19030586131E+04  0.19030586131E+04  0.50400001928E-02 0. -1.
       -1   -1    0    0    0  501  0.00000000000E+00  0.00000000000E+00 -0.15347026999E+04  0.15347026999E+04  0.50400001928E-02 0.  1.
    10030    2    1    2    0    0  0.00000000000E+00  0.00000000000E+00  0.36835591324E+03  0.34377613130E+04  0.34179696848E+04 0.  0.
        4    1    3    3  502    0 -0.98683712576E+02  0.16903541261E+04 -0.48662061802E+02  0.16939318629E+04  0.12699999809E+01 0. -1.
       -4    1    3    3    0  502  0.98683712576E+02 -0.16903541261E+04  0.41701797504E+03  0.17438294502E+04  0.12699999809E+01 0.  1.
</event>
<event>
 5   0  0.1300176E-06  0.3400421E+04  0.7818609E-02  0.8137803E-01
       -2   -1    0    0    0  501  0.00000000000E+00  0.00000000000E+00  0.15513236813E+04  0.15513236813E+04  0.25500000920E-02 0. -1.
        2   -1    0    0  501    0  0.00000000000E+00  0.00000000000E+00 -0.18633863856E+04  0.18633863856E+04  0.25500000920E-02 0.  1.
    10030    2    1    2    0    0  0.00000000000E+00  0.00000000000E+00 -0.31206270426E+03  0.34147100668E+04  0.34004208136E+04 0.  0.
        1    1    3    3  502    0 -0.75091484156E+03  0.71546106403E+03 -0.15088962677E+04  0.18309903277E+04  0.50400001928E-02 0.  1.
       -1    1    3    3    0  502  0.75091484156E+03 -0.71546106403E+03  0.11968335635E+04  0.15837197391E+04  0.50400001928E-02 0. -1.
</event>
<event>
 5   0  0.1269497E-06  0.3382496E+04  0.7818609E-02  0.8142216E-01
       -2   -1    0    0    0  501  0.00000000000E+00  0.00000000000E+00  0.13022376363E+04  0.13022376363E+04  0.25500000920E-02 0.  1.
        2   -1    0    0  501    0  0.00000000000E+00  0.00000000000E+00 -0.21964658857E+04  0.21964658857E+04  0.25500000920E-02 0. -1.
    10030    2    1    2    0    0  0.00000000000E+00  0.00000000000E+00 -0.89422824944E+03  0.34987035220E+04  0.33824964409E+04 0.  0.
        5    1    3    3  502    0 -0.90814903823E+02 -0.10658832624E+04 -0.18020581251E+04  0.20956598131E+04  0.46999998093E+01 0.  1.
       -5    1    3    3    0  502  0.90814903823E+02  0.10658832624E+04  0.90782987571E+03  0.14030437089E+04  0.46999998093E+01 0. -1.
</event>
<event>
 5   0  0.4272633E-07  0.3329740E+04  0.7818609E-02  0.8155369E-01
        1   -1    0    0  501    0  0.00000000000E+00  0.00000000000E+00  0.11491089869E+04  0.11491089869E+04  0.50400001928E-02 0.  1.
       -1   -1    0    0    0  501  0.00000000000E+00  0.00000000000E+00 -0.24121235316E+04  0.24121235316E+04  0.50400001928E-02 0. -1.
    10030    2    1    2    0    0  0.00000000000E+00  0.00000000000E+00 -0.12630145447E+04  0.35612325185E+04  0.33297404269E+04 0.  0.
        1    1    3    3  502    0  0.22016837275E+03 -0.21245253505E+03 -0.23817974126E+04  0.24013681740E+04  0.50400001928E-02 0. -1.
       -1    1    3    3    0  502 -0.22016837275E+03  0.21245253505E+03  0.11187828679E+04  0.11598643445E+04  0.50400001928E-02 0.  1.
</event>
<event>
 5   0  0.4272633E-07  0.3441339E+04  0.7818609E-02  0.8127834E-01
        1   -1    0    0  501    0  0.00000000000E+00  0.00000000000E+00  0.25397249063E+04  0.25397249063E+04  0.50400001928E-02 0. -1.
       -1   -1    0    0    0  501  0.00000000000E+00  0.00000000000E+00 -0.11657572465E+04  0.11657572465E+04  0.50400001928E-02 0.  1.
    10030    2    1    2    0    0  0.00000000000E+00  0.00000000000E+00  0.13739676599E+04  0.37054821528E+04  0.34413385265E+04 0.  0.
        1    1    3    3  502    0  0.31930533130E+03 -0.74531557000E+03 -0.94715147377E+03  0.12468147849E+04  0.50400001928E-02 0.  1.
       -1    1    3    3    0  502 -0.31930533130E+03  0.74531557000E+03  0.23211191337E+04  0.24586673679E+04  0.50400001928E-02 0. -1.
</event>
<event>
 5   0  0.4289684E-07  0.3369219E+04  0.7818609E-02  0.8145503E-01
       -1   -1    0    0    0  501  0.00000000000E+00  0.00000000000E+00  0.11229539946E+04  0.11229539946E+04  0.50400001928E-02 0. -1.
        1   -1    0    0  501    0  0.00000000000E+00  0.00000000000E+00 -0.25271813710E+04  0.25271813711E+04  0.50400001928E-02 0.  1.
    10030    2    1    2    0    0  0.00000000000E+00  0.00000000000E+00 -0.14042273764E+04  0.36501353657E+04  0.33692185538E+04 0.  0.
        4    1    3    3  502    0  0.32479599075E+03 -0.72961654919E+03 -0.23090491583E+04  0.24432646956E+04  0.12699999809E+01 0.  1.
       -4    1    3    3    0  502 -0.32479599075E+03  0.72961654919E+03  0.90482178186E+03  0.12068706701E+04  0.12699999809E+01 0. -1.
</event>
<event>
 5   0  0.1277635E-06  0.3439886E+04  0.7818609E-02  0.8128186E-01
       -2   -1    0    0    0  501  0.00000000000E+00  0.00000000000E+00  0.95190433069E+03  0.95190433069E+03  0.25500000920E-02 0.  1.
        2   -1    0    0  501    0  0.00000000000E+00  0.00000000000E+00 -0.31076690659E+04  0.31076690659E+04  0.25500000920E-02 0. -1.
    10030    2    1    2    0    0  0.00000000000E+00  0.00000000000E+00 -0.21557647352E+04  0.40595733966E+04  0.34398858366E+04 0.  0.
        4    1    3    3  502    0 -0.10303139541E+03 -0.58384784258E+03 -0.29832666671E+04  0.30416073697E+04  0.12699999809E+01 0. -1.
       -4    1    3    3    0  502  0.10303139541E+03  0.58384784258E+03  0.82750193186E+03  0.10179660269E+04  0.12699999809E+01 0.  1.
</event>
<event>
 5   0  0.4272633E-07  0.3395298E+04  0.7818609E-02  0.8139061E-01
        1   -1    0    0  501    0  0.00000000000E+00  0.00000000000E+00  0.16996248795E+04  0.16996248795E+04  0.50400001928E-02 0. -1.
       -1   -1    0    0    0  501  0.00000000000E+00  0.00000000000E+00 -0.16956750942E+04  0.16956750942E+04  0.50400001928E-02 0.  1.
    10030    2    1    2    0    0  0.00000000000E+00  0.00000000000E+00  0.39497852938E+01  0.33952999737E+04  0.33952976763E+04 0.  0.
        1    1    3    3  502    0  0.42321116967E+00  0.15577486202E+04 -0.67288157434E+03  0.16968649198E+04  0.50400001928E-02 0.  1.
       -1    1    3    3    0  502 -0.42321116967E+00 -0.15577486202E+04  0.67683135964E+03  0.16984350539E+04  0.50400001928E-02 0. -1.
</event>
<event>
 5   0  0.1300176E-06  0.3408368E+04  0.7818609E-02  0.8135856E-01
        2   -1    0    0  501    0  0.00000000000E+00  0.00000000000E+00  0.19969994833E+04  0.19969994833E+04  0.25500000920E-02 0. -1.
       -2   -1    0    0    0  501  0.00000000000E+00  0.00000000000E+00 -0.14543033982E+04  0.14543033982E+04  0.25500000920E-02 0.  1.
    10030    2    1    2    0    0  0.00000000000E+00  0.00000000000E+00  0.54269608507E+03  0.34513028816E+04  0.34083680170E+04 0.  0.
        1    1    3    3  502    0  0.11062301325E+04 -0.58516354047E+03 -0.89997827644E+03  0.15414676037E+04  0.50400001928E-02 0.  1.
       -1    1    3    3    0  502 -0.11062301325E+04  0.58516354047E+03  0.14426743615E+04  0.19098352779E+04  0.50400001928E-02 0. -1.
</event>
<event>
 5   0  0.4060750E-07  0.3390586E+04  0.7818609E-02  0.8140221E-01
       -3   -1    0    0    0  501  0.00000000000E+00  0.00000000000E+00  0.11430618983E+04  0.11430619028E+04  0.10100000352E+00 0. -1.
        3   -1    0    0  501    0  0.00000000000E+00  0.00000000000E+00 -0.25143160205E+04  0.25143160225E+04  0.10100000352E+00 0.  1.
    10030    2    1    2    0    0  0.00000000000E+00  0.00000000000E+00 -0.13712541222E+04  0.36573779253E+04  0.33905862946E+04 0.  0.
        4    1    3    3  502    0  0.64309511421E+03 -0.10427113827E+04  0.57841567941E+03  0.13547636933E+04  0.12699999809E+01 0. -1.
       -4    1    3    3    0  502 -0.64309511421E+03  0.10427113827E+04 -0.19496698016E+04  0.23026142320E+04  0.12699999809E+01 0.  1.
</event>
<event>
 5   0  0.1256208E-06  0.3431380E+04  0.7818609E-02  0.8130247E-01
       -2   -1    0    0    0  501  0.00000000000E+00  0.00000000000E+00  0.14701710563E+04  0.14701710563E+04  0.25500000920E-02 0.  1.
        2   -1    0    0  501    0  0.00000000000E+00  0.00000000000E+00 -0.20022104057E+04  0.20022104057E+04  0.25500000920E-02 0. -1.
    10030    2    1    2    0    0  0.00000000000E+00  0.00000000000E+00 -0.53203934944E+03  0.34723814620E+04  0.34313797732E+04 0.  0.
        3    1    3    3  502    0 -0.39052735677E+03  0.16410505610E+04 -0.58286351532E+03  0.17847376411E+04  0.10100000352E+00 0. -1.
       -3    1    3    3    0  502  0.39052735677E+03 -0.16410505610E+04  0.50824165887E+02  0.16876438209E+04  0.10100000352E+00 0.  1.
</event>
<event>
 5   0  0.4272633E-07  0.3378636E+04  0.7818609E-02  0.8143170E-01
        1   -1    0    0  501    0  0.00000000000E+00  0.00000000000E+00  0.10732017101E+04  0.10732017101E+04  0.50400001928E-02 0.  1.
       -1   -1    0    0    0  501  0.00000000000E+00  0.00000000000E+00 -0.26591415911E+04  0.26591415911E+04  0.50400001928E-02 0. -1.
    10030    2    1    2    0    0  0.00000000000E+00  0.00000000000E+00 -0.15859398810E+04  0.37323433012E+04  0.33786359987E+04 0.  0.
        1    1    3    3  502    0  0.98364645856E+03 -0.33777843673E+02 -0.23096943787E+04  0.25106551777E+04  0.50400001928E-02 0. -1.
       -1    1    3    3    0  502 -0.98364645856E+03  0.33777843673E+02  0.72375449771E+03  0.12216881235E+04  0.50400001928E-02 0.  1.
</event>
<event>
 5   0  0.4060750E-07  0.3383482E+04  0.7818609E-02  0.8141972E-01
       -3   -1    0    0    0  501  0.00000000000E+00  0.00000000000E+00  0.20359610374E+04  0.20359610399E+04  0.10100000352E+00 0. -1.
        3   -1    0    0  501    0  0.00000000000E+00  0.00000000000E+00 -0.14057183404E+04  0.14057183440E+04  0.10100000352E+00 0.  1.
    10030    2    1    2    0    0  0.00000000000E+00  0.00000000000E+00  0.63024269707E+03  0.34416793839E+04  0.33834821005E+04 0.  0.
        1    1    3    3  502    0  0.11291639659E+03  0.13306422150E+04 -0.74131312854E+03  0.15273846836E+04  0.50400001928E-02 0. -1.
       -1    1    3    3    0  502 -0.11291639659E+03 -0.13306422150E+04  0.13715558256E+04  0.19142947004E+04  0.50400001928E-02 0.  1.
</event>
<event>
 5   0  0.1269497E-06  0.3382584E+04  0.7818609E-02  0.8142194E-01
       -2   -1    0    0    0  501  0.00000000000E+00  0.00000000000E+00  0.21317957890E+04  0.21317957890E+04  0.25500000920E-02 0.  1.
        2   -1    0    0  501    0  0.00000000000E+00  0.00000000000E+00 -0.13418116798E+04  0.13418116798E+04  0.25500000920E-02 0. -1.
    10030    2    1    2    0    0  0.00000000000E+00  0.00000000000E+00  0.78998410914E+03  0.34736074688E+04  0.33825839169E+04 0.  0.
        5    1    3    3  502    0  0.50766318263E+03  0.53205514806E+03 -0.11690291054E+04  0.13811067036E+04  0.46999998093E+01 0. -1.
       -5    1    3    3    0  502 -0.50766318263E+03 -0.53205514806E+03  0.19590132145E+04  0.20925007652E+04  0.46999998093E+01 0.  1.
</event>
<event>
 5   0  0.4272633E-07  0.3384404E+04  0.7818609E-02  0.8141745E-01
       -1   -1    0    0    0  501  0.00000000000E+00  0.00000000000E+00  0.18995162238E+04  0.18995162238E+04  0.50400001928E-02 0. -1.
        1   -1    0    0  501    0  0.00000000000E+00  0.00000000000E+00 -0.15075140776E+04  0.15075140776E+04  0.50400001928E-02 0.  1.
    10030    2    1    2    0    0  0.00000000000E+00  0.00000000000E+00  0.39200214622E+03  0.34070303013E+04  0.33844039049E+04 0.  0.
        1    1    3    3  502    0  0.11971007279E+04  0.65079581877E+03  0.12061848055E+04  0.18197437005E+04  0.50400001928E-02 0. -1.
       -1    1    3    3    0  502 -0.11971007279E+04 -0.65079581877E+03 -0.81418265927E+03  0.15872866008E+04  0.50400001928E-02 0.  1.
</event>
<event>
 5   0  0.4109937E-07  0.3601996E+04  0.7818609E-02  0.8090035E-01
        1   -1    0    0  501    0  0.00000000000E+00  0.00000000000E+00  0.25880321389E+04  0.25880321389E+04  0.50400001928E-02 0. -1.
       -1   -1    0    0    0  501  0.00000000000E+00  0.00000000000E+00 -0.12533050733E+04  0.12533050733E+04  0.50400001928E-02 0.  1.
    10030    2    1    2    0    0  0.00000000000E+00  0.00000000000E+00  0.13347270656E+04  0.38413372122E+04  0.36019960076E+04 0.  0.
        5    1    3    3  502    0  0.13032128441E+04  0.10012309068E+04 -0.11830071642E+03  0.16476784259E+04  0.46999998093E+01 0.  1.
       -5    1    3    3    0  502 -0.13032128441E+04 -0.10012309068E+04  0.14530277820E+04  0.21936587863E+04  0.46999998093E+01 0. -1.
</event>
<event>
 5   0  0.4464951E-07  0.3377337E+04  0.7818609E-02  0.8143491E-01
        1   -1    0    0  501    0  0.00000000000E+00  0.00000000000E+00  0.87445860824E+03  0.87445860826E+03  0.50400001928E-02 0. -1.
       -1   -1    0    0    0  501  0.00000000000E+00  0.00000000000E+00 -0.32609899459E+04  0.32609899459E+04  0.50400001928E-02 0.  1.
    10030    2    1    2    0    0  0.00000000000E+00  0.00000000000E+00 -0.23865313377E+04  0.41354485542E+04  0.33773366605E+04 0.  0.
        3    1    3    3  502    0  0.82268193216E+03 -0.96481660442E+03 -0.25589338956E+04  0.28558395147E+04  0.10100000352E+00 0.  1.
       -3    1    3    3    0  502 -0.82268193216E+03  0.96481660442E+03  0.17240255792E+03  0.12796090395E+04  0.10100000352E+00 0. -1.
</event>
<event>
 5   0  0.1277635E-06  0.3441370E+04  0.7818609E-02  0.8127827E-01
       -2   -1    0    0    0  501  0.00000000000E+00  0.00000000000E+00  0.21080243705E+04  0.21080243705E+04  0.25500000920E-02 0. -1.
        2   -1    0    0  501    0  0.00000000000E+00  0.00000000000E+00 -0.14045176745E+04  0.14045176745E+04  0.25500000920E-02 0.  1.
    10030    2    1    2    0    0  0.00000000000E+00  0.00000000000E+00  0.70350669595E+03  0.35125420450E+04  0.34413703589E+04 0.  0.
        4    1    3    3  502    0  0.80623460048E+03  0.32216193581E+03  0.18680587855E+04  0.20599630537E+04  0.12699999809E+01 0. -1.
       -4    1    3    3    0  502 -0.80623460048E+03 -0.32216193581E+03 -0.11645520895E+04  0.14525789913E+04  0.12699999809E+01 0.  1.
</event>
<event>
 5   0  0.4125758E-07  0.3389868E+04  0.7818609E-02  0.8140397E-01
        1   -1    0    0  501    0  0.00000000000E+00  0.00000000000E+00  0.17585604136E+04  0.17585604136E+04  0.50400001928E-02 0. -1.
       -1   -1    0    0    0  501  0.00000000000E+00  0.00000000000E+00 -0.16336099070E+04  0.16336099070E+04  0.50400001928E-02 0.  1.
    10030    2    1    2    0    0  0.00000000000E+00  0.00000000000E+00  0.12495050660E+03  0.33921703206E+04  0.33898682651E+04 0.  0.
        2    1    3    3  502    0  0.16921605245E+04 -0.95218164599E+02  0.80597610958E+02  0.16967526969E+04  0.25500000920E-02 0.  1.
       -2    1    3    3    0  502 -0.16921605245E+04  0.95218164599E+02  0.44352895641E+02  0.16954176237E+04  0.25500000920E-02 0. -1.
</event>
<event>
 5   0  0.1300176E-06  0.3395111E+04  0.7818609E-02  0.8139107E-01
       -2   -1    0    0    0  501  0.00000000000E+00  0.00000000000E+00  0.27021233834E+04  0.27021233834E+04  0.25500000920E-02 0.  1.
        2   -1    0    0  501    0  0.00000000000E+00  0.00000000000E+00 -0.10664557988E+04  0.10664557988E+04  0.25500000920E-02 0. -1.
    10030    2    1    2    0    0  0.00000000000E+00  0.00000000000E+00  0.16356675846E+04  0.37685791822E+04  0.33951112802E+04 0.  0.
        1    1    3    3  502    0 -0.10758893514E+04  0.30109064136E+03 -0.60084286825E+03  0.12685446871E+04  0.50400001928E-02 0. -1.
       -1    1    3    3    0  502  0.10758893514E+04 -0.30109064136E+03  0.22365104529E+04  0.25000344951E+04  0.50400001928E-02 0.  1.
</event>
<event>
 5   0  0.1277635E-06  0.3139402E+04  0.7818609E-02  0.8205007E-01
        2   -1    0    0  501    0  0.00000000000E+00  0.00000000000E+00  0.16189307402E+04  0.16189307402E+04  0.25500000920E-02 0. -1.
       -2   -1    0    0    0  501  0.00000000000E+00  0.00000000000E+00 -0.15219686268E+04  0.15219686268E+04  0.25500000920E-02 0.  1.
    10030    2    1    2    0    0  0.00000000000E+00  0.00000000000E+00  0.96962113338E+02  0.31408993670E+04  0.31394023607E+04 0.  0.
        4    1    3    3  502    0  0.40640864489E+03 -0.35661179230E+03  0.15228255785E+04  0.16159638958E+04  0.12699999809E+01 0. -1.
       -4    1    3    3    0  502 -0.40640864489E+03  0.35661179230E+03 -0.14258634652E+04  0.15249354712E+04  0.12699999809E+01 0.  1.
</event>
<event>
 5   0  0.1277635E-06  0.3424408E+04  0.7818609E-02  0.8131942E-01
        2   -1    0    0  501    0  0.00000000000E+00  0.00000000000E+00  0.22831413668E+04  0.22831413668E+04  0.25500000920E-02 0. -1.
       -2   -1    0    0    0  501  0.00000000000E+00  0.00000000000E+00 -0.12840391208E+04  0.12840391208E+04  0.25500000920E-02 0.  1.
    10030    2    1    2    0    0  0.00000000000E+00  0.00000000000E+00  0.99910224599E+03  0.35671804877E+04  0.34244081728E+04 0.  0.
        4    1    3    3  502    0  0.45705987637E+03 -0.10716802824E+04  0.18065489742E+04  0.21496565231E+04  0.12699999809E+01 0. -1.
       -4    1    3    3    0  502 -0.45705987637E+03  0.10716802824E+04 -0.80744672826E+03  0.14175239645E+04  0.12699999809E+01 0.  1.
</event>
<event>
 5   0  0.1268230E-06  0.3398943E+04  0.7818609E-02  0.8138166E-01
        2   -1    0    0  501    0  0.00000000000E+00  0.00000000000E+00  0.25046621350E+04  0.25046621350E+04  0.25500000920E-02 0.  1.
       -2   -1    0    0    0  501  0.00000000000E+00  0.00000000000E+00 -0.11531308220E+04  0.11531308220E+04  0.25500000920E-02 0. -1.
    10030    2    1    2    0    0  0.00000000000E+00  0.00000000000E+00  0.13515313130E+04  0.36577929570E+04  0.33989428395E+04 0.  0.
        2    1    3    3  502    0  0.30925128321E+03 -0.14626764362E+04  0.15454864629E+04  0.21502528038E+04  0.25500000920E-02 0.  1.
       -2    1    3    3    0  502 -0.30925128321E+03  0.14626764362E+04 -0.19395514989E+03  0.15075401532E+04  0.25500000920E-02 0. -1.
</event>
<event>
 5   0  0.1256208E-06  0.3102643E+04  0.7818609E-02  0.8215013E-01
        2   -1    0    0  501    0  0.00000000000E+00  0.00000000000E+00  0.14808021048E+04  0.14808021048E+04  0.25500000920E-02 0.  1.
       -2   -1    0    0    0  501  0.00000000000E+00  0.00000000000E+00 -0.16251990617E+04  0.16251990617E+04  0.25500000920E-02 0. -1.
    10030    2    1    2    0    0  0.00000000000E+00  0.00000000000E+00 -0.14439695684E+03  0.31060011665E+04  0.31026428678E+04 0.  0.
        3    1    3    3  502    0 -0.44593625099E+02  0.65822412798E+03  0.13333691912E+04  0.14876562118E+04  0.10100000352E+00 0.  1.
       -3    1    3    3    0  502  0.44593625099E+02 -0.65822412798E+03 -0.14777661481E+04  0.16183449548E+04  0.10100000352E+00 0. -1.
</event>
<event>
 5   0  0.4464951E-07  0.3415563E+04  0.7818609E-02  0.8134097E-01
       -1   -1    0    0    0  501  0.00000000000E+00  0.00000000000E+00  0.16476592572E+04  0.16476592572E+04  0.50400001928E-02 0. -1.
        1   -1    0    0  501    0  0.00000000000E+00  0.00000000000E+00 -0.17700980268E+04  0.17700980268E+04  0.50400001928E-02 0.  1.
    10030    2    1    2    0    0  0.00000000000E+00  0.00000000000E+00 -0.12243876960E+03  0.34177572840E+04  0.34155634382E+04 0.  0.
        3    1    3    3  502    0 -0.99953727850E+03 -0.13801966514E+04  0.50659505108E+02  0.17048706589E+04  0.10100000352E+00 0.  1.
       -3    1    3    3    0  502  0.99953727850E+03  0.13801966514E+04 -0.17309827471E+03  0.17128866252E+04  0.10100000352E+00 0. -1.
</event>
<event>
 5   0  0.4289684E-07  0.3458035E+04  0.7818609E-02  0.8123808E-01
        1   -1    0    0  501    0  0.00000000000E+00  0.00000000000E+00  0.17628048432E+04  0.17628048432E+04  0.50400001928E-02 0.  1.
       -1   -1    0    0    0  501  0.00000000000E+00  0.00000000000E+00 -0.16958774593E+04  0.16958774593E+04  0.50400001928E-02 0. -1.
    10030    2    1    2    0    0  0.00000000000E+00  0.00000000000E+00  0.66927383881E+02  0.34586823025E+04  0.34580347013E+04 0.  0.
        4    1    3    3  502    0  0.36502087066E+03 -0.15659625847E+04  0.66920866651E+03  0.17416431623E+04  0.12699999809E+01 0. -1.
       -4    1    3    3    0  502 -0.36502087066E+03  0.15659625847E+04 -0.60228128263E+03  0.17170391402E+04  0.12699999809E+01 0.  1.
</event>
<event>
 5   0  0.1256208E-06  0.3395630E+04  0.7818609E-02  0.8138980E-01
       -2   -1    0    0    0  501  0.00000000000E+00  0.00000000000E+00  0.15771522866E+04  0.15771522866E+04  0.25500000920E-02 0.  1.
        2   -1    0    0  501    0  0.00000000000E+00  0.00000000000E+00 -0.18277090971E+04  0.18277090971E+04  0.25500000920E-02 0. -1.
    10030    2    1    2    0    0  0.00000000000E+00  0.00000000000E+00 -0.25055681047E+03  0.34048613837E+04  0.33956298866E+04 0.  0.
        3    1    3    3  502    0  0.34335519512E+03  0.35181868198E+03  0.15042262023E+04  0.15825187685E+04  0.10100000352E+00 0.  1.
       -3    1    3    3    0  502 -0.34335519512E+03 -0.35181868198E+03 -0.17547830127E+04  0.18223426151E+04  0.10100000352E+00 0. -1.
</event>
<event>
 5   0  0.1268230E-06  0.3398914E+04  0.7818609E-02  0.8138173E-01
        2   -1    0    0  501    0  0.00000000000E+00  0.00000000000E+00  0.20115158363E+04  0.20115158363E+04  0.25500000920E-02 0.  1.
       -2   -1    0    0    0  501  0.00000000000E+00  0.00000000000E+00 -0.14358095031E+04  0.14358095031E+04  0.25500000920E-02 0. -1.
    10030    2    1    2    0    0  0.00000000000E+00  0.00000000000E+00  0.57570633319E+03  0.34473253393E+04  0.33989136813E+04 0.  0.
        2    1    3    3  502    0  0.79975550966E+02 -0.14069340560E+04 -0.67556798607E+03  0.15627704983E+04  0.25500000920E-02 0. -1.
       -2    1    3    3    0  502 -0.79975550966E+02  0.14069340560E+04  0.12512743193E+04  0.18845548410E+04  0.25500000920E-02 0.  1.
</event>
<event>
 5   0  0.4272633E-07  0.3380358E+04  0.7818609E-02  0.8142744E-01
       -1   -1    0    0    0  501  0.00000000000E+00  0.00000000000E+00  0.27011410605E+04  0.27011410605E+04  0.50400001928E-02 0. -1.
        1   -1    0    0  501    0  0.00000000000E+00  0.00000000000E+00 -0.10575920652E+04  0.10575920652E+04  0.50400001928E-02 0.  1.
    10030    2    1    2    0    0  0.00000000000E+00  0.00000000000E+00  0.16435489954E+04  0.37587331257E+04  0.33803581778E+04 0.  0.
        1    1    3    3  502    0  0.25433681502E+01 -0.16237706693E+04  0.30015127129E+03  0.16512808486E+04  0.50400001928E-02 0. -1.
       -1    1    3    3    0  502 -0.25433681502E+01  0.16237706693E+04  0.13433977241E+04  0.21074522771E+04  0.50400001928E-02 0.  1.
</event>
<event>
 5   0  0.1300176E-06  0.3410999E+04  0.7818609E-02  0.8135212E-01
       -2   -1    0    0    0  501  0.00000000000E+00  0.00000000000E+00  0.21079582258E+04  0.21079582258E+04  0.25500000920E-02 0. -1.
        2   -1    0    0  501    0  0.00000000000E+00  0.00000000000E+00 -0.13798799643E+04  0.13798799643E+04  0.25500000920E-02 0.  1.
    10030    2    1    2    0    0  0.00000000000E+00  0.00000000000E+00  0.72807826152E+03  0.34878381902E+04  0.34109994556E+04 0.  0.
        1    1    3    3  502    0 -0.11965904005E+04  0.77057868482E+03  0.13249473084E+04  0.19445064840E+04  0.50400001928E-02 0. -1.
       -1    1    3    3    0  502  0.11965904005E+04 -0.77057868482E+03 -0.59686904691E+03  0.15433317062E+04  0.50400001928E-02 0.  1.
</event>
<event>
 5   0  0.4125758E-07  0.3406260E+04  0.7818609E-02  0.8136372E-01
        1   -1    0    0  501    0  0.00000000000E+00  0.00000000000E+00  0.18110166779E+04  0.18110166779E+04  0.50400001928E-02 0.  1.
       -1   -1    0    0    0  501  0.00000000000E+00  0.00000000000E+00 -0.16016699812E+04  0.16016699812E+04  0.50400001928E-02 0. -1.
    10030    2    1    2    0    0  0.00000000000E+00  0.00000000000E+00  0.20934669674E+03  0.34126866591E+04  0.34062595605E+04 0.  0.
        2    1    3    3  502    0  0.35918637879E+03 -0.87892470617E+03  0.15212462469E+04  0.17932410986E+04  0.25500000920E-02 0.  1.
       -2    1    3    3    0  502 -0.35918637879E+03  0.87892470617E+03 -0.13118995502E+04  0.16194455605E+04  0.25500000920E-02 0. -1.
</event>
<event>
 5   0  0.1269497E-06  0.3351731E+04  0.7818609E-02  0.8149856E-01
       -2   -1    0    0    0  501  0.00000000000E+00  0.00000000000E+00  0.13227297002E+04  0.13227297002E+04  0.25500000920E-02 0.  1.
        2   -1    0    0  501    0  0.00000000000E+00  0.00000000000E+00 -0.21232803451E+04  0.21232803451E+04  0.25500000920E-02 0. -1.
    10030    2    1    2    0    0  0.00000000000E+00  0.00000000000E+00 -0.80055064482E+03  0.34460100453E+04  0.33517314775E+04 0.  0.
        5    1    3    3  502    0 -0.54573551819E+03 -0.10006717485E+04 -0.16633813536E+04  0.20164401359E+04  0.46999998093E+01 0. -1.
       -5    1    3    3    0  502  0.54573551819E+03  0.10006717485E+04  0.86283070874E+03  0.14295699095E+04  0.46999998093E+01 0.  1.
</event>
<event>
 5   0  0.4125758E-07  0.3428579E+04  0.7818609E-02  0.8130928E-01
        1   -1    0    0  501    0  0.00000000000E+00  0.00000000000E+00  0.22341860172E+04  0.22341860172E+04  0.50400001928E-02 0. -1.
       -1   -1    0    0    0  501  0.00000000000E+00  0.00000000000E+00 -0.13153732803E+04  0.13153732803E+04  0.50400001928E-02 0.  1.
    10030    2    1    2    0    0  0.00000000000E+00  0.00000000000E+00  0.91881273694E+03  0.35495592975E+04  0.34285790586E+04 0.  0.
        2    1    3    3  502    0 -0.11792791758E+04 -0.12331179726E+04  0.63111806910E+03  0.18192276730E+04  0.25500000920E-02 0. -1.
       -2    1    3    3    0  502  0.11792791758E+04  0.12331179726E+04  0.28769466784E+03  0.17303316245E+04  0.25500000920E-02 0.  1.
</event>
<event>
 5   0  0.4464951E-07  0.3424404E+04  0.7818609E-02  0.8131943E-01
        1   -1    0    0  501    0  0.00000000000E+00  0.00000000000E+00  0.16390770315E+04  0.16390770316E+04  0.50400001928E-02 0.  1.
       -1   -1    0    0    0  501  0.00000000000E+00  0.00000000000E+00 -0.17885888752E+04  0.17885888752E+04  0.50400001928E-02 0. -1.
    10030    2    1    2    0    0  0.00000000000E+00  0.00000000000E+00 -0.14951184366E+03  0.34276659068E+04  0.34244035651E+04 0.  0.
        3    1    3    3  502    0  0.39175831822E+02  0.14555034293E+04 -0.97650815619E+03  0.17531666115E+04  0.10100000352E+00 0. -1.
       -3    1    3    3    0  502 -0.39175831822E+02 -0.14555034293E+04  0.82699631253E+03  0.16744992952E+04  0.10100000352E+00 0.  1.
</event>
<event>
 5   0  0.4109937E-07  0.3388677E+04  0.7818609E-02  0.8140691E-01
        1   -1    0    0  501    0  0.00000000000E+00  0.00000000000E+00  0.20882878701E+04  0.20882878701E+04  0.50400001928E-02 0.  1.
       -1   -1    0    0    0  501  0.00000000000E+00  0.00000000000E+00 -0.13747063297E+04  0.13747063297E+04  0.50400001928E-02 0. -1.
    10030    2    1    2    0    0  0.00000000000E+00  0.00000000000E+00  0.71358154035E+03  0.34629941998E+04  0.33886767644E+04 0.  0.
        5    1    3    3  502    0  0.11941673255E+04 -0.29043884216E+03  0.15487191621E+04  0.19771048165E+04  0.46999998093E+01 0.  1.
       -5    1    3    3    0  502 -0.11941673255E+04  0.29043884216E+03 -0.83513762171E+03  0.14858893834E+04  0.46999998093E+01 0. -1.
</event>
<event>
 5   0  0.1300176E-06  0.3149567E+04  0.7818609E-02  0.8202265E-01
        2   -1    0    0  501    0  0.00000000000E+00  0.00000000000E+00  0.10065236747E+04  0.10065236747E+04  0.25500000920E-02 0. -1.
       -2   -1    0    0    0  501  0.00000000000E+00  0.00000000000E+00 -0.24638690671E+04  0.24638690671E+04  0.25500000920E-02 0.  1.
    10030    2    1    2    0    0  0.00000000000E+00  0.00000000000E+00 -0.14573453925E+04  0.34703927418E+04  0.31495666669E+04 0.  0.
        1    1    3    3  502    0 -0.47651047783E+03 -0.12876642212E+04  0.12112143251E+03  0.13783366002E+04  0.50400001928E-02 0. -1.
       -1    1    3    3    0  502  0.47651047783E+03  0.12876642212E+04 -0.15784668250E+04  0.20920561416E+04  0.50400001928E-02 0.  1.
</event>
<event>
 5   0  0.4464951E-07  0.3424596E+04  0.7818609E-02  0.8131896E-01
        1   -1    0    0  501    0  0.00000000000E+00  0.00000000000E+00  0.18811674077E+04  0.18811674077E+04  0.50400001928E-02 0.  1.
       -1   -1    0    0    0  501  0.00000000000E+00  0.00000000000E+00 -0.15585875985E+04  0.15585875985E+04  0.50400001928E-02 0. -1.
    10030    2    1    2    0    0  0.00000000000E+00  0.00000000000E+00  0.32257980921E+03  0.34397550062E+04  0.34245958549E+04 0.  0.
        3    1    3    3  502    0  0.90735743714E+03 -0.89154948372E+03  0.13125775260E+04  0.18278451172E+04  0.10100000352E+00 0.  1.
       -3    1    3    3    0  502 -0.90735743714E+03  0.89154948372E+03 -0.98999771680E+03  0.16119098890E+04  0.10100000352E+00 0. -1.
</event>
<event>
 5   0  0.1268230E-06  0.3307255E+04  0.7818609E-02  0.8161052E-01
        2   -1    0    0  501    0  0.00000000000E+00  0.00000000000E+00  0.31232764948E+04  0.31232764948E+04  0.25500000920E-02 0. -1.
       -2   -1    0    0    0  501  0.00000000000E+00  0.00000000000E+00 -0.87551794015E+03  0.87551794015E+03  0.25500000920E-02 0.  1.
    10030    2    1    2    0    0  0.00000000000E+00  0.00000000000E+00  0.22477585547E+04  0.39987944350E+04  0.33072554200E+04 0.  0.
        2    1    3    3  502    0 -0.74880763571E+03 -0.51228255030E+03 -0.54771211173E+03  0.10597805641E+04  0.25500000920E-02 0.  1.
       -2    1    3    3    0  502  0.74880763571E+03  0.51228255030E+03  0.27954706664E+04  0.29390138709E+04  0.25500000920E-02 0. -1.
</event>
<event>
 5   0  0.4289684E-07  0.3394131E+04  0.7818609E-02  0.8139348E-01
        1   -1    0    0  501    0  0.00000000000E+00  0.00000000000E+00  0.21737111222E+04  0.21737111222E+04  0.50400001928E-02 0.  1.
       -1   -1    0    0    0  501  0.00000000000E+00  0.00000000000E+00 -0.13249376857E+04  0.13249376857E+04  0.50400001928E-02 0. -1.
    10030    2    1    2    0    0  0.00000000000E+00  0.00000000000E+00  0.84877343647E+03  0.34986488079E+04  0.33941312783E+04 0.  0.
        4    1    3    3  502    0  0.81383434337E+03  0.14376691014E+04  0.24083776384E+02  0.16522107689E+04  0.12699999809E+01 0. -1.
       -4    1    3    3    0  502 -0.81383434337E+03 -0.14376691014E+04  0.82468966009E+03  0.18464380390E+04  0.12699999809E+01 0.  1.
</event>
<event>
 5   0  0.4109937E-07  0.3387861E+04  0.7818609E-02  0.8140892E-01
       -1   -1    0    0    0  501  0.00000000000E+00  0.00000000000E+00  0.22258790118E+04  0.22258790118E+04  0.50400001928E-02 0.  1.
        1   -1    0    0  501    0  0.00000000000E+00  0.00000000000E+00 -0.12891088095E+04  0.12891088095E+04  0.50400001928E-02 0. -1.
    10030    2    1    2    0    0  0.00000000000E+00  0.00000000000E+00  0.93677020234E+03  0.35149878214E+04  0.33878608254E+04 0.  0.
        5    1    3    3  502    0  0.26875487259E+03 -0.15705914217E+04 -0.12798070501E+03  0.15985580209E+04  0.46999998093E+01 0. -1.
       -5    1    3    3    0  502 -0.26875487259E+03  0.15705914217E+04  0.10647509073E+04  0.19164298004E+04  0.46999998093E+01 0.  1.
</event>
<event>
 5   0  0.1269497E-06  0.3413928E+04  0.7818609E-02  0.8134496E-01
        2   -1    0    0  501    0  0.00000000000E+00  0.00000000000E+00  0.13692180127E+04  0.13692180127E+04  0.25500000920E-02 0.  1.
       -2   -1    0    0    0  501  0.00000000000E+00  0.00000000000E+00 -0.21280216765E+04  0.21280216765E+04  0.25500000920E-02 0. -1.
    10030    2    1    2    0    0  0.00000000000E+00  0.00000000000E+00 -0.75880366376E+03  0.34972396892E+04  0.34139277150E+04 0.  0.
        5    1    3    3  502    0 -0.27321031274E+03 -0.63521433485E+03 -0.19781155703E+04  0.20954962242E+04  0.46999998093E+01 0. -1.
       -5    1    3    3    0  502  0.27321031274E+03  0.63521433485E+03  0.12193119065E+04  0.14017434650E+04  0.46999998093E+01 0.  1.
</event>
<event>
 5   0  0.4109937E-07  0.3395456E+04  0.7818609E-02  0.8139023E-01
       -1   -1    0    0    0  501  0.00000000000E+00  0.00000000000E+00  0.11538991911E+04  0.11538991911E+04  0.50400001928E-02 0.  1.
        1   -1    0    0  501    0  0.00000000000E+00  0.00000000000E+00 -0.24978611203E+04  0.24978611203E+04  0.50400001928E-02 0. -1.
    10030    2    1    2    0    0  0.00000000000E+00  0.00000000000E+00 -0.13439619292E+04  0.36517603115E+04  0.33954557434E+04 0.  0.
        5    1    3    3  502    0 -0.97744769855E+03 -0.52916990889E+03 -0.20521395009E+04  0.23338216335E+04  0.46999998093E+01 0. -1.
       -5    1    3    3    0  502  0.97744769855E+03  0.52916990889E+03  0.70817757170E+03  0.13179386780E+04  0.46999998093E+01 0.  1.
</event>
<event>
 5   0  0.4125758E-07  0.3376352E+04  0.7818609E-02  0.8143735E-01
       -1   -1    0    0    0  501  0.00000000000E+00  0.00000000000E+00  0.20934209677E+04  0.20934209677E+04  0.50400001928E-02 0. -1.
        1   -1    0    0  501    0  0.00000000000E+00  0.00000000000E+00 -0.13613782470E+04  0.13613782470E+04  0.50400001928E-02 0.  1.
    10030    2    1    2    0    0  0.00000000000E+00  0.00000000000E+00  0.73204272066E+03  0.34547992147E+04  0.33763517396E+04 0.  0.
        2    1    3    3  502    0  0.68191865954E+03 -0.12601066254E+02  0.19461702371E+04  0.20622197839E+04  0.25500000920E-02 0. -1.
       -2    1    3    3    0  502 -0.68191865954E+03  0.12601066254E+02 -0.12141275165E+04  0.13925794309E+04  0.25500000920E-02 0.  1.
</event>
<event>
 5   0  0.1300176E-06  0.3365197E+04  0.7818609E-02  0.8146501E-01
       -2   -1    0    0    0  501  0.00000000000E+00  0.00000000000E+00  0.23743168886E+04  0.23743168886E+04  0.25500000920E-02 0. -1.
        2   -1    0    0  501    0  0.00000000000E+00  0.00000000000E+00 -0.11924008374E+04  0.11924008375E+04  0.25500000920E-02 0.  1.
    10030    2    1    2    0    0  0.00000000000E+00  0.00000000000E+00  0.11819160511E+04  0.35667177260E+04  0.33651968420E+04 0.  0.
        1    1    3    3  502    0 -0.13775677383E+04 -0.58022617691E+03 -0.22782000680E+03  0.15120374485E+04  0.50400001928E-02 0.  1.
       -1    1    3    3    0  502  0.13775677383E+04  0.58022617691E+03  0.14097360579E+04  0.20546802776E+04  0.50400001928E-02 0. -1.
</event>
<event>
 5   0  0.4289684E-07  0.3325400E+04  0.7818609E-02  0.8156462E-01
       -1   -1    0    0    0  501  0.00000000000E+00  0.00000000000E+00  0.16607690703E+04  0.16607690703E+04  0.50400001928E-02 0.  1.
        1   -1    0    0  501    0  0.00000000000E+00  0.00000000000E+00 -0.16646329586E+04  0.16646329586E+04  0.50400001928E-02 0. -1.
    10030    2    1    2    0    0  0.00000000000E+00  0.00000000000E+00 -0.38638883280E+01  0.33254020289E+04  0.33253997842E+04 0.  0.
        4    1    3    3  502    0 -0.37565353708E+03  0.71535596146E+03  0.14512447270E+04  0.16610125232E+04  0.12699999809E+01 0.  1.
       -4    1    3    3    0  502  0.37565353708E+03 -0.71535596146E+03 -0.14551086154E+04  0.16643895058E+04  0.12699999809E+01 0. -1.
</event>
<event>
 5   0  0.1300176E-06  0.3392361E+04  0.7818609E-02  0.8139784E-01
        2   -1    0    0  501    0  0.00000000000E+00  0.00000000000E+00  0.16362893736E+04  0.16362893736E+04  0.25500000920E-02 0. -1.
       -2   -1    0    0    0  501  0.00000000000E+00  0.00000000000E+00 -0.17582641408E+04  0.17582641409E+04  0.25500000920E-02 0.  1.
    10030    2    1    2    0    0  0.00000000000E+00  0.00000000000E+00 -0.12197476723E+03  0.33945535145E+04  0.33923613780E+04 0.  0.
        1    1    3    3  502    0 -0.10189933711E+04 -0.90498218403E+03 -0.10714362704E+04  0.17335847038E+04  0.50400001928E-02 0.  1.
       -1    1    3    3    0  502  0.10189933711E+04  0.90498218403E+03  0.94946150317E+03  0.16609688106E+04  0.50400001928E-02 0. -1.
</event>
<event>
 5   0  0.1300176E-06  0.2923078E+04  0.7818609E-02  0.8266044E-01
        2   -1    0    0  501    0  0.00000000000E+00  0.00000000000E+00  0.23566197900E+04  0.23566197900E+04  0.25500000920E-02 0. -1.
       -2   -1    0    0    0  501  0.00000000000E+00  0.00000000000E+00 -0.90642358191E+03  0.90642358191E+03  0.25500000920E-02 0.  1.
    10030    2    1    2    0    0  0.00000000000E+00  0.00000000000E+00  0.14501962081E+04  0.32630433720E+04  0.29230776598E+04 0.  0.
        1    1    3    3  502    0 -0.46362843110E+02 -0.11392858938E+04 -0.29555661847E+03  0.11779115314E+04  0.50400001928E-02 0.  1.
       -1    1    3    3    0  502  0.46362843110E+02  0.11392858938E+04  0.17457528266E+04  0.20851318406E+04  0.50400001928E-02 0. -1.
</event>
<event>
 5   0  0.4289684E-07  0.3117726E+04  0.7818609E-02  0.8210890E-01
        1   -1    0    0  501    0  0.00000000000E+00  0.00000000000E+00  0.18075222720E+04  0.18075222720E+04  0.50400001928E-02 0.  1.
       -1   -1    0    0    0  501  0.00000000000E+00  0.00000000000E+00 -0.13444115067E+04  0.13444115067E+04  0.50400001928E-02 0. -1.
    10030    2    1    2    0    0  0.00000000000E+00  0.00000000000E+00  0.46311076525E+03  0.31519337787E+04  0.31177259284E+04 0.  0.
        4    1    3    3  502    0 -0.83865913838E+03 -0.12700928780E+04 -0.10913928732E+03  0.15259089312E+04  0.12699999809E+01 0. -1.
       -4    1    3    3    0  502  0.83865913838E+03  0.12700928780E+04  0.57225005256E+03  0.16260248475E+04  0.12699999809E+01 0.  1.
</event>
<event>
 5   0  0.4109937E-07  0.3422455E+04  0.7818609E-02  0.8132417E-01
       -1   -1    0    0    0  501  0.00000000000E+00  0.00000000000E+00  0.20448375254E+04  0.20448375254E+04  0.50400001928E-02 0.  1.
        1   -1    0    0  501    0  0.00000000000E+00  0.00000000000E+00 -0.14320447980E+04  0.14320447980E+04  0.50400001928E-02 0. -1.
    10030    2    1    2    0    0  0.00000000000E+00  0.00000000000E+00  0.61279272735E+03  0.34768823234E+04  0.34224546402E+04 0.  0.
        5    1    3    3  502    0 -0.69073799140E+03 -0.90219367378E+03 -0.99348509713E+03  0.15093399637E+04  0.46999998093E+01 0. -1.
       -5    1    3    3    0  502  0.69073799140E+03  0.90219367378E+03  0.16062778245E+04  0.19675423597E+04  0.46999998093E+01 0.  1.
</event>
<event>
 5   0  0.1277635E-06  0.3329447E+04  0.7818609E-02  0.8155443E-01
        2   -1    0    0  501    0  0.00000000000E+00  0.00000000000E+00  0.14975566438E+04  0.14975566438E+04  0.25500000920E-02 0.  1.
       -2   -1    0    0    0  501  0.00000000000E+00  0.00000000000E+00 -0.18505503676E+04  0.18505503676E+04  0.25500000920E-02 0. -1.
    10030    2    1    2    0    0  0.00000000000E+00  0.00000000000E+00 -0.35299372379E+03  0.33481070114E+04  0.33294467995E+04 0.  0.
        4    1    3    3  502    0 -0.26642930637E+03  0.15792246464E+04 -0.63331960647E+03  0.17222167099E+04  0.12699999809E+01 0. -1.
       -4    1    3    3    0  502  0.26642930637E+03 -0.15792246464E+04  0.28032588269E+03  0.16258903015E+04  0.12699999809E+01 0.  1.
</event>
<event>
 5   0  0.4289684E-07  0.3312532E+04  0.7818609E-02  0.8159714E-01
        1   -1    0    0  501    0  0.00000000000E+00  0.00000000000E+00  0.13554006692E+04  0.13554006692E+04  0.50400001928E-02 0. -1.
       -1   -1    0    0    0  501  0.00000000000E+00  0.00000000000E+00 -0.20239158924E+04  0.20239158924E+04  0.50400001928E-02 0.  1.
    10030    2    1    2    0    0  0.00000000000E+00  0.00000000000E+00 -0.66851522314E+03  0.33793165616E+04  0.33125319349E+04 0.  0.
        4    1    3    3  502    0  0.58528090882E+03 -0.10675471971E+04  0.81132690500E+03  0.14630323715E+04  0.12699999809E+01 0.  1.
       -4    1    3    3    0  502 -0.58528090882E+03  0.10675471971E+04 -0.14798421281E+04  0.19162841901E+04  0.12699999809E+01 0. -1.
</event>
<event>
 5   0  0.4272633E-07  0.3366520E+04  0.7818609E-02  0.8146173E-01
       -1   -1    0    0    0  501  0.00000000000E+00  0.00000000000E+00  0.30808191589E+04  0.30808191589E+04  0.50400001928E-02 0.  1.
        1   -1    0    0  501    0  0.00000000000E+00  0.00000000000E+00 -0.91967880747E+03  0.91967880748E+03  0.50400001928E-02 0. -1.
    10030    2    1    2    0    0  0.00000000000E+00  0.00000000000E+00  0.21611403514E+04  0.40004979663E+04  0.33665199183E+04 0.  0.
        1    1    3    3  502    0 -0.11310729125E+02 -0.66815339422E+03 -0.75529817612E+03  0.10084801563E+04  0.50400001928E-02 0. -1.
       -1    1    3    3    0  502  0.11310729125E+02  0.66815339422E+03  0.29164385275E+04  0.29920178100E+04  0.50400001928E-02 0.  1.
</event>
<event>
 5   0  0.4109937E-07  0.3385292E+04  0.7818609E-02  0.8141526E-01
        1   -1    0    0  501    0  0.00000000000E+00  0.00000000000E+00  0.25130016573E+04  0.25130016573E+04  0.50400001928E-02 0. -1.
       -1   -1    0    0    0  501  0.00000000000E+00  0.00000000000E+00 -0.11400908433E+04  0.11400908434E+04  0.50400001928E-02 0.  1.
    10030    2    1    2    0    0  0.00000000000E+00  0.00000000000E+00  0.13729108140E+04  0.36530925007E+04  0.33852918213E+04 0.  0.
        5    1    3    3  502    0 -0.15187959824E+04 -0.74343238816E+03  0.60573749617E+03  0.17962107216E+04  0.46999998093E+01 0.  1.
       -5    1    3    3    0  502  0.15187959824E+04  0.74343238816E+03  0.76717331779E+03  0.18568817791E+04  0.46999998093E+01 0. -1.
</event>
<event>
 5   0  0.1277635E-06  0.3412517E+04  0.7818609E-02  0.8134841E-01
       -2   -1    0    0    0  501  0.00000000000E+00  0.00000000000E+00  0.12690959997E+04  0.12690959997E+04  0.25500000920E-02 0.  1.
        2   -1    0    0  501    0  0.00000000000E+00  0.00000000000E+00 -0.22940089583E+04  0.22940089583E+04  0.25500000920E-02 0. -1.
    10030    2    1    2    0    0  0.00000000000E+00  0.00000000000E+00 -0.10249129587E+04  0.35631049580E+04  0.34125167207E+04 0.  0.
        4    1    3    3  502    0 -0.14639238277E+04  0.71943455963E+03 -0.10352060411E+04  0.19319193097E+04  0.12699999809E+01 0. -1.
       -4    1    3    3    0  502  0.14639238277E+04 -0.71943455963E+03  0.10293082470E+02  0.16311856483E+04  0.12699999809E+01 0.  1.
</event>
<event>
 5   0  0.1268230E-06  0.3376468E+04  0.7818609E-02  0.8143706E-01
        2   -1    0    0  501    0  0.00000000000E+00  0.00000000000E+00  0.16382707542E+04  0.16382707542E+04  0.25500000920E-02 0. -1.
       -2   -1    0    0    0  501  0.00000000000E+00  0.00000000000E+00 -0.17397214440E+04  0.17397214440E+04  0.25500000920E-02 0.  1.
    10030    2    1    2    0    0  0.00000000000E+00  0.00000000000E+00 -0.10145068975E+03  0.33779921982E+04  0.33764684285E+04 0.  0.
        2    1    3    3  502    0  0.19664187031E+02 -0.16222002520E+04 -0.51807042644E+03  0.17030317979E+04  0.25500000920E-02 0.  1.
       -2    1    3    3    0  502 -0.19664187031E+02  0.16222002520E+04  0.41661973669E+03  0.16749604004E+04  0.25500000920E-02 0. -1.
</event>
<event>
 5   0  0.4109937E-07  0.3400071E+04  0.7818609E-02  0.8137889E-01
        1   -1    0    0  501    0  0.00000000000E+00  0.00000000000E+00  0.18540818801E+04  0.18540818801E+04  0.50400001928E-02 0. -1.
       -1   -1    0    0    0  501  0.00000000000E+00  0.00000000000E+00 -0.15587884542E+04  0.15587884542E+04  0.50400001928E-02 0.  1.
    10030    2    1    2    0    0  0.00000000000E+00  0.00000000000E+00  0.29529342595E+03  0.34128703343E+04  0.34000714274E+04 0.  0.
        5    1    3    3  502    0  0.21342829385E+03 -0.52236818727E+02 -0.15444686003E+04  0.15600274578E+04  0.46999998093E+01 0.  1.
       -5    1    3    3    0  502 -0.21342829385E+03  0.52236818727E+02  0.18397620262E+04  0.18528428765E+04  0.46999998093E+01 0. -1.
</event>
<event>
 5   0  0.4272633E-07  0.3438125E+04  0.7818609E-02  0.8128612E-01
       -1   -1    0    0    0  501  0.00000000000E+00  0.00000000000E+00  0.14923151397E+04  0.14923151397E+04  0.50400001928E-02 0.  1.
        1   -1    0    0  501    0  0.00000000000E+00  0.00000000000E+00 -0.19802626146E+04  0.19802626146E+04  0.50400001928E-02 0. -1.
    10030    2    1    2    0    0  0.00000000000E+00  0.00000000000E+00 -0.48794747498E+03  0.34725777543E+04  0.34381250008E+04 0.  0.
        1    1    3    3  502    0 -0.30774695698E+03 -0.54746698467E+03 -0.18602429592E+04  0.19633981146E+04  0.50400001928E-02 0. -1.
       -1    1    3    3    0  502  0.30774695698E+03  0.54746698467E+03  0.13722954843E+04  0.15091796397E+04  0.50400001928E-02 0.  1.
</event>
<event>
 5   0  0.1256208E-06  0.3160797E+04  0.7818609E-02  0.8199248E-01
       -2   -1    0    0    0  501  0.00000000000E+00  0.00000000000E+00  0.93923823266E+03  0.93923823266E+03  0.25500000920E-02 0. -1.
        2   -1    0    0  501    0  0.00000000000E+00  0.00000000000E+00 -0.26592389141E+04  0.26592389141E+04  0.25500000920E-02 0.  1.
    10030    2    1    2    0    0  0.00000000000E+00  0.00000000000E+00 -0.17200006814E+04  0.35984771467E+04  0.31607966451E+04 0.  0.
        3    1    3    3  502    0 -0.12962850582E+04  0.14867728588E+03  0.15521949594E+03  0.13139836337E+04  0.10100000352E+00 0. -1.
       -3    1    3    3    0  502  0.12962850582E+04 -0.14867728588E+03 -0.18752201773E+04  0.22844935131E+04  0.10100000352E+00 0.  1.
</event>
<event>
 5   0  0.1277635E-06  0.3086281E+04  0.7818609E-02  0.8219513E-01
        2   -1    0    0  501    0  0.00000000000E+00  0.00000000000E+00  0.16401813296E+04  0.16401813296E+04  0.25500000920E-02 0. -1.
       -2   -1    0    0    0  501  0.00000000000E+00  0.00000000000E+00 -0.14518407977E+04  0.14518407977E+04  0.25500000920E-02 0.  1.
    10030    2    1    2    0    0  0.00000000000E+00  0.00000000000E+00  0.18834053190E+03  0.30920221273E+04  0.30862807195E+04 0.  0.
        4    1    3    3  502    0  0.24940935787E+03 -0.95556589466E+03 -0.10937713425E+04  0.14736514410E+04  0.12699999809E+01 0.  1.
       -4    1    3    3    0  502 -0.24940935787E+03  0.95556589466E+03  0.12821118744E+04  0.16183706863E+04  0.12699999809E+01 0. -1.
</event>
<event>
 5   0  0.1277635E-06  0.3393011E+04  0.7818609E-02  0.8139624E-01
       -2   -1    0    0    0  501  0.00000000000E+00  0.00000000000E+00  0.15886438637E+04  0.15886438637E+04  0.25500000920E-02 0. -1.
        2   -1    0    0  501    0  0.00000000000E+00  0.00000000000E+00 -0.18116908033E+04  0.18116908033E+04  0.25500000920E-02 0.  1.
    10030    2    1    2    0    0  0.00000000000E+00  0.00000000000E+00 -0.22304693958E+03  0.34003346670E+04  0.33930113337E+04 0.  0.
        4    1    3    3  502    0  0.66623247221E+03 -0.53602891898E+03  0.13568820857E+04  0.16038464130E+04  0.12699999809E+01 0. -1.
       -4    1    3    3    0  502 -0.66623247221E+03  0.53602891898E+03 -0.15799290253E+04  0.17964882540E+04  0.12699999809E+01 0.  1.
</event>
<event>
 5   0  0.4464951E-07  0.3363167E+04  0.7818609E-02  0.8147006E-01
       -1   -1    0    0    0  501  0.00000000000E+00  0.00000000000E+00  0.19067162095E+04  0.19067162096E+04  0.50400001928E-02 0.  1.
        1   -1    0    0  501    0  0.00000000000E+00  0.00000000000E+00 -0.14830331420E+04  0.14830331420E+04  0.50400001928E-02 0. -1.
    10030    2    1    2    0    0  0.00000000000E+00  0.00000000000E+00  0.42368306758E+03  0.33897493515E+04  0.33631671568E+04 0.  0.
        3    1    3    3  502    0  0.10827506736E+04  0.69749592001E+03 -0.87784838802E+03  0.15586748802E+04  0.10100000352E+00 0. -1.
       -3    1    3    3    0  502 -0.10827506736E+04 -0.69749592001E+03  0.13015314556E+04  0.18310744714E+04  0.10100000352E+00 0.  1.
</event>
<event>
 5   0  0.4109937E-07  0.3395050E+04  0.7818609E-02  0.8139122E-01
        1   -1    0    0  501    0  0.00000000000E+00  0.00000000000E+00  0.24835132917E+04  0.24835132917E+04  0.50400001928E-02 0.  1.
       -1   -1    0    0    0  501  0.00000000000E+00  0.00000000000E+00 -0.11602878731E+04  0.11602878731E+04  0.50400001928E-02 0. -1.
    10030    2    1    2    0    0  0.00000000000E+00  0.00000000000E+00  0.13232254187E+04  0.36438011648E+04  0.33950495461E+04 0.  0.
        5    1    3    3  502    0 -0.13291653695E+03 -0.11364878247E+04  0.20073981654E+04  0.23106148242E+04  0.46999998093E+01 0.  1.
       -5    1    3    3    0  502  0.13291653695E+03  0.11364878247E+04 -0.68417274676E+03  0.13331863406E+04  0.46999998093E+01 0. -1.
</event>
<event>
 5   0  0.4464951E-07  0.3340511E+04  0.7818609E-02  0.8152663E-01
       -1   -1    0    0    0  501  0.00000000000E+00  0.00000000000E+00  0.29802771690E+04  0.29802771690E+04  0.50400001928E-02 0.  1.
        1   -1    0    0  501    0  0.00000000000E+00  0.00000000000E+00 -0.93607181079E+03  0.93607181081E+03  0.50400001928E-02 0. -1.
    10030    2    1    2    0    0  0.00000000000E+00  0.00000000000E+00  0.20442053582E+04  0.39163489798E+04  0.33405110066E+04 0.  0.
        3    1    3    3  502    0 -0.57989623278E+03  0.15579569493E+04  0.83217730537E+03  0.18590396915E+04  0.10100000352E+00 0.  1.
       -3    1    3    3    0  502  0.57989623278E+03 -0.15579569493E+04  0.12120280528E+04  0.20573092883E+04  0.10100000352E+00 0. -1.
</event>
<event>
 5   0  0.4125758E-07  0.3402625E+04  0.7818609E-02  0.8137262E-01
       -1   -1    0    0    0  501  0.00000000000E+00  0.00000000000E+00  0.15429676805E+04  0.15429676806E+04  0.50400001928E-02 0. -1.
        1   -1    0    0  501    0  0.00000000000E+00  0.00000000000E+00 -0.18759069656E+04  0.18759069656E+04  0.50400001928E-02 0.  1.
    10030    2    1    2    0    0  0.00000000000E+00  0.00000000000E+00 -0.33293928503E+03  0.34188746461E+04  0.34026247631E+04 0.  0.
        2    1    3    3  502    0  0.15882695216E+04  0.44418246019E+03 -0.58627556569E+03  0.17503191624E+04  0.25500000920E-02 0. -1.
       -2    1    3    3    0  502 -0.15882695216E+04 -0.44418246019E+03  0.25333628066E+03  0.16685554838E+04  0.25500000920E-02 0.  1.
</event>
<event>
 5   0  0.1256208E-06  0.3286390E+04  0.7818609E-02  0.8166367E-01
       -2   -1    0    0    0  501  0.00000000000E+00  0.00000000000E+00  0.99972029157E+03  0.99972029157E+03  0.25500000920E-02 0. -1.
        2   -1    0    0  501    0  0.00000000000E+00  0.00000000000E+00 -0.27008451617E+04  0.27008451617E+04  0.25500000920E-02 0.  1.
    10030    2    1    2    0    0  0.00000000000E+00  0.00000000000E+00 -0.17011248702E+04  0.37005654533E+04  0.32863899419E+04 0.  0.
        3    1    3    3  502    0  0.91127060218E+03 -0.12570942050E+04 -0.14563084573E+04  0.21287400696E+04  0.10100000352E+00 0. -1.
       -3    1    3    3    0  502 -0.91127060218E+03  0.12570942050E+04 -0.24481641285E+03  0.15718253837E+04  0.10100000352E+00 0.  1.
</event>
<event>
 5   0  0.1256208E-06  0.3411402E+04  0.7818609E-02  0.8135114E-01
       -2   -1    0    0    0  501  0.00000000000E+00  0.00000000000E+00  0.12115383603E+04  0.12115383603E+04  0.25500000920E-02 0. -1.
        2   -1    0    0  501    0  0.00000000000E+00  0.00000000000E+00 -0.24014227287E+04  0.24014227287E+04  0.25500000920E-02 0.  1.
    10030    2    1    2    0    0  0.00000000000E+00  0.00000000000E+00 -0.11898843684E+04  0.36129610890E+04  0.34114019143E+04 0.  0.
        3    1    3    3  502    0  0.15364932276E+04 -0.66042193935E+03 -0.23979804063E+03  0.16895181819E+04  0.10100000352E+00 0.  1.
       -3    1    3    3    0  502 -0.15364932276E+04  0.66042193935E+03 -0.95008632778E+03  0.19234429071E+04  0.10100000352E+00 0. -1.
</event>
<event>
 5   0  0.4109937E-07  0.3454173E+04  0.7818609E-02  0.8124737E-01
       -1   -1    0    0    0  501  0.00000000000E+00  0.00000000000E+00  0.12686808064E+04  0.12686808064E+04  0.50400001928E-02 0.  1.
        1   -1    0    0  501    0  0.00000000000E+00  0.00000000000E+00 -0.23511256263E+04  0.23511256263E+04  0.50400001928E-02 0. -1.
    10030    2    1    2    0    0  0.00000000000E+00  0.00000000000E+00 -0.10824448199E+04  0.36198064327E+04  0.34541731024E+04 0.  0.
        5    1    3    3  502    0  0.12326185242E+04  0.24583475879E+03  0.70006857113E+03  0.14387151383E+04  0.46999998093E+01 0.  1.
       -5    1    3    3    0  502 -0.12326185242E+04 -0.24583475879E+03 -0.17825133911E+04  0.21810912943E+04  0.46999998093E+01 0. -1.
</event>
<event>
 5   0  0.1268230E-06  0.3374073E+04  0.7818609E-02  0.8144299E-01
       -2   -1    0    0    0  501  0.00000000000E+00  0.00000000000E+00  0.10900128269E+04  0.10900128269E+04  0.25500000920E-02 0.  1.
        2   -1    0    0  501    0  0.00000000000E+00  0.00000000000E+00 -0.26110628107E+04  0.26110628107E+04  0.25500000920E-02 0. -1.
    10030    2    1    2    0    0  0.00000000000E+00  0.00000000000E+00 -0.15210499838E+04  0.37010756376E+04  0.33740728834E+04 0.  0.
        2    1    3    3  502    0 -0.56197892526E+03  0.14926451507E+04 -0.13636116412E+04  0.20983914236E+04  0.25500000920E-02 0.  1.
       -2    1    3    3    0  502  0.56197892526E+03 -0.14926451507E+04 -0.15743834255E+03  0.16026842141E+04  0.25500000920E-02 0. -1.
</event>
<event>
 5   0  0.1300176E-06  0.3387580E+04  0.7818609E-02  0.8140961E-01
       -2   -1    0    0    0  501  0.00000000000E+00  0.00000000000E+00  0.32316476994E+04  0.32316476994E+04  0.25500000920E-02 0.  1.
        2   -1    0    0  501    0  0.00000000000E+00  0.00000000000E+00 -0.88775913626E+03  0.88775913626E+03  0.25500000920E-02 0. -1.
    10030    2    1    2    0    0  0.00000000000E+00  0.00000000000E+00  0.23438885632E+04  0.41194068357E+04  0.33875801218E+04 0.  0.
        1    1    3    3  502    0  0.12942970703E+04 -0.32437542428E+03  0.24406456715E+04  0.27815779004E+04  0.50400001928E-02 0.  1.
       -1    1    3    3    0  502 -0.12942970703E+04  0.32437542428E+03 -0.96757108297E+02  0.13378289353E+04  0.50400001928E-02 0. -1.
</event>
<event>
 5   0  0.1277635E-06  0.3467312E+04  0.7818609E-02  0.8121581E-01
       -2   -1    0    0    0  501  0.00000000000E+00  0.00000000000E+00  0.12189417873E+04  0.12189417873E+04  0.25500000920E-02 0. -1.
        2   -1    0    0  501    0  0.00000000000E+00  0.00000000000E+00 -0.24657145434E+04  0.24657145434E+04  0.25500000920E-02 0.  1.
    10030    2    1    2    0    0  0.00000000000E+00  0.00000000000E+00 -0.12467727561E+04  0.36846563307E+04  0.34673116343E+04 0.  0.
        4    1    3    3  502    0 -0.16084817551E+04  0.64654941017E+03 -0.64243136214E+03  0.18487723938E+04  0.12699999809E+01 0.  1.
       -4    1    3    3    0  502  0.16084817551E+04 -0.64654941017E+03 -0.60434139398E+03  0.18358839368E+04  0.12699999809E+01 0. -1.
</event>
<event>
 5   0  0.4109937E-07  0.3290622E+04  0.7818609E-02  0.8165286E-01
       -1   -1    0    0    0  501  0.00000000000E+00  0.00000000000E+00  0.12719256724E+04  0.12719256724E+04  0.50400001928E-02 0. -1.
        1   -1    0    0  501    0  0.00000000000E+00  0.00000000000E+00 -0.21283070577E+04  0.21283070577E+04  0.50400001928E-02 0.  1.
    10030    2    1    2    0    0  0.00000000000E+00  0.00000000000E+00 -0.85638138532E+03  0.34002327301E+04  0.32906220600E+04 0.  0.
        5    1    3    3  502    0 -0.75978699511E+03  0.14437638598E+04 -0.20827295888E+03  0.16447279642E+04  0.46999998093E+01 0. -1.
       -5    1    3    3    0  502  0.75978699511E+03 -0.14437638598E+04 -0.64810842643E+03  0.17555047659E+04  0.46999998093E+01 0.  1.
</event>
<event>
 5   0  0.1300176E-06  0.3406685E+04  0.7818609E-02  0.8136268E-01
       -2   -1    0    0    0  501  0.00000000000E+00  0.00000000000E+00  0.18716133840E+04  0.18716133840E+04  0.25500000920E-02 0. -1.
        2   -1    0    0  501    0  0.00000000000E+00  0.00000000000E+00 -0.15502004947E+04  0.15502004947E+04  0.25500000920E-02 0.  1.
    10030    2    1    2    0    0  0.00000000000E+00  0.00000000000E+00  0.32141288922E+03  0.34218138787E+04  0.34066851887E+04 0.  0.
        1    1    3    3  502    0 -0.85911860762E+02 -0.15820123045E+03  0.18620311033E+04  0.18707133150E+04  0.50400001928E-02 0. -1.
       -1    1    3    3    0  502  0.85911860762E+02  0.15820123045E+03 -0.15406182141E+04  0.15511005637E+04  0.50400001928E-02 0.  1.
</event>
<event>
 5   0  0.1256208E-06  0.3416319E+04  0.7818609E-02  0.8133913E-01
        2   -1    0    0  501    0  0.00000000000E+00  0.00000000000E+00  0.22174606165E+04  0.22174606165E+04  0.25500000920E-02 0.  1.
       -2   -1    0    0    0  501  0.00000000000E+00  0.00000000000E+00 -0.13158330778E+04  0.13158330778E+04  0.25500000920E-02 0. -1.
    10030    2    1    2    0    0  0.00000000000E+00  0.00000000000E+00  0.90162753872E+03  0.35332936943E+04  0.34163185026E+04 0.  0.
        3    1    3    3  502    0 -0.43267428593E+03  0.15585337002E+04 -0.11714669650E+03  0.16217144296E+04  0.10100000352E+00 0. -1.
       -3    1    3    3    0  502  0.43267428593E+03 -0.15585337002E+04  0.10187742352E+04  0.19115792647E+04  0.10100000352E+00 0.  1.
</event>
<event>
 5   0  0.4289684E-07  0.3413853E+04  0.7818609E-02  0.8134515E-01
        1   -1    0    0  501    0  0.00000000000E+00  0.00000000000E+00  0.17117436061E+04  0.17117436061E+04  0.50400001928E-02 0. -1.
       -1   -1    0    0    0  501  0.00000000000E+00  0.00000000000E+00 -0.17021234313E+04  0.17021234313E+04  0.50400001928E-02 0.  1.
    10030    2    1    2    0    0  0.00000000000E+00  0.00000000000E+00  0.96201748001E+01  0.34138670374E+04  0.34138534827E+04 0.  0.
        4    1    3    3  502    0  0.95909555494E+03 -0.38518848727E+03  0.13632568060E+04  0.17107615808E+04  0.12699999809E+01 0. -1.
       -4    1    3    3    0  502 -0.95909555494E+03  0.38518848727E+03 -0.13536366312E+04  0.17031054566E+04  0.12699999809E+01 0.  1.
</event>
<event>
 5   0  0.1269497E-06  0.2770126E+04  0.7818609E-02  0.8312604E-01
        2   -1    0    0  501    0  0.00000000000E+00  0.00000000000E+00  0.17255458342E+04  0.17255458342E+04  0.25500000920E-02 0.  1.
       -2   -1    0    0    0  501  0.00000000000E+00  0.00000000000E+00 -0.11117636030E+04  0.11117636030E+04  0.25500000920E-02 0. -1.
    10030    2    1    2    0    0  0.00000000000E+00  0.00000000000E+00  0.61378223117E+03  0.28373094372E+04  0.27701256677E+04 0.  0.
        5    1    3    3  502    0  0.42225356196E+03 -0.28032709552E+03  0.16271431049E+04  0.17042588198E+04  0.46999998093E+01 0.  1.
       -5    1    3    3    0  502 -0.42225356196E+03  0.28032709552E+03 -0.10133608737E+04  0.11330506174E+04  0.46999998093E+01 0. -1.
</event>
<event>
 5   0  0.1268230E-06  0.3343889E+04  0.7818609E-02  0.8151817E-01
       -2   -1    0    0    0  501  0.00000000000E+00  0.00000000000E+00  0.17939684384E+04  0.17939684384E+04  0.25500000920E-02 0. -1.
        2   -1    0    0  501    0  0.00000000000E+00  0.00000000000E+00 -0.15582205770E+04  0.15582205770E+04  0.25500000920E-02 0.  1.
    10030    2    1    2    0    0  0.00000000000E+00  0.00000000000E+00  0.23574786142E+03  0.33521890153E+04  0.33438890742E+04 0.  0.
        2    1    3    3  502    0  0.46953827919E+03  0.15547427357E+04  0.51598350689E+03  0.17040921775E+04  0.25500000920E-02 0. -1.
       -2    1    3    3    0  502 -0.46953827919E+03 -0.15547427357E+04 -0.28023564546E+03  0.16480968379E+04  0.25500000920E-02 0.  1.
</event>
<event>
 5   0  0.1268230E-06  0.3370848E+04  0.7818609E-02  0.8145098E-01
       -2   -1    0    0    0  501  0.00000000000E+00  0.00000000000E+00  0.18089249814E+04  0.18089249814E+04  0.25500000920E-02 0. -1.
        2   -1    0    0  501    0  0.00000000000E+00  0.00000000000E+00 -0.15703548023E+04  0.15703548023E+04  0.25500000920E-02 0.  1.
    10030    2    1    2    0    0  0.00000000000E+00  0.00000000000E+00  0.23857017910E+03  0.33792797836E+04  0.33708479832E+04 0.  0.
        2    1    3    3  502    0  0.15590358482E+04  0.59458519317E+03 -0.11906939980E+03  0.16728125567E+04  0.25500000920E-02 0.  1.
       -2    1    3    3    0  502 -0.15590358482E+04 -0.59458519317E+03  0.35763957890E+03  0.17064672269E+04  0.25500000920E-02 0. -1.
</event>
<event>
 5   0  0.4464951E-07  0.3406033E+04  0.7818609E-02  0.8136427E-01
       -1   -1    0    0    0  501  0.00000000000E+00  0.00000000000E+00  0.12294891362E+04  0.12294891362E+04  0.50400001928E-02 0.  1.
        1   -1    0    0  501    0  0.00000000000E+00  0.00000000000E+00 -0.23589185093E+04  0.23589185093E+04  0.50400001928E-02 0. -1.
    10030    2    1    2    0    0  0.00000000000E+00  0.00000000000E+00 -0.11294293732E+04  0.35884076455E+04  0.34060326953E+04 0.  0.
        3    1    3    3  502    0  0.30927128379E+03 -0.78703224407E+03 -0.21221075422E+04  0.22843837049E+04  0.10100000352E+00 0. -1.
       -3    1    3    3    0  502 -0.30927128379E+03  0.78703224407E+03  0.99267816905E+03  0.13040239406E+04  0.10100000352E+00 0.  1.
</event>
<event>
 5   0  0.4125758E-07  0.3056319E+04  0.7818609E-02  0.8227829E-01
       -1   -1    0    0    0  501  0.00000000000E+00  0.00000000000E+00  0.10015441290E+04  0.10015441290E+04  0.50400001928E-02 0. -1.
        1   -1    0    0  501    0  0.00000000000E+00  0.00000000000E+00 -0.23316713607E+04  0.23316713607E+04  0.50400001928E-02 0.  1.
    10030    2    1    2    0    0  0.00000000000E+00  0.00000000000E+00 -0.13301272317E+04  0.33332154897E+04  0.30563191993E+04 0.  0.
        2    1    3    3  502    0  0.31629843218E+03 -0.99164319214E+03  0.55517409930E+03  0.11796691058E+04  0.25500000920E-02 0. -1.
       -2    1    3    3    0  502 -0.31629843218E+03  0.99164319214E+03 -0.18853013310E+04  0.21535463838E+04  0.25500000920E-02 0.  1.
</event>
<event>
 5   0  0.1300176E-06  0.3422846E+04  0.7818609E-02  0.8132322E-01
        2   -1    0    0  501    0  0.00000000000E+00  0.00000000000E+00  0.13014522609E+04  0.13014522609E+04  0.25500000920E-02 0.  1.
       -2   -1    0    0    0  501  0.00000000000E+00  0.00000000000E+00 -0.22505389578E+04  0.22505389578E+04  0.25500000920E-02 0. -1.
    10030    2    1    2    0    0  0.00000000000E+00  0.00000000000E+00 -0.94908669695E+03  0.35519912187E+04  0.34228461927E+04 0.  0.
        1    1    3    3  502    0  0.10793989022E+03 -0.16939230229E+04 -0.24732356668E+03  0.17152828263E+04  0.50400001928E-02 0.  1.
       -1    1    3    3    0  502 -0.10793989022E+03  0.16939230229E+04 -0.70176313027E+03  0.18367083924E+04  0.50400001928E-02 0. -1.
</event>
<event>
 5   0  0.4125758E-07  0.3364381E+04  0.7818609E-02  0.8146704E-01
       -1   -1    0    0    0  501  0.00000000000E+00  0.00000000000E+00  0.14885025497E+04  0.14885025497E+04  0.50400001928E-02 0.  1.
        1   -1    0    0  501    0  0.00000000000E+00  0.00000000000E+00 -0.19010819124E+04  0.19010819124E+04  0.50400001928E-02 0. -1.
    10030    2    1    2    0    0  0.00000000000E+00  0.00000000000E+00 -0.41257936270E+03  0.33895844620E+04  0.33643812350E+04 0.  0.
        2    1    3    3  502    0  0.13482027049E+04 -0.10518121497E+03 -0.12143104997E+04  0.18174882699E+04  0.25500000920E-02 0. -1.
       -2    1    3    3    0  502 -0.13482027049E+04  0.10518121497E+03  0.80173113701E+03  0.15720961922E+04  0.25500000920E-02 0.  1.
</event>
<event>
 5   0  0.4109937E-07  0.3539670E+04  0.7818609E-02  0.8104453E-01
       -1   -1    0    0    0  501  0.00000000000E+00  0.00000000000E+00  0.12305306975E+04  0.12305306975E+04  0.50400001928E-02 0. -1.
        1   -1    0    0  501    0  0.00000000000E+00  0.00000000000E+00 -0.25454996936E+04  0.25454996936E+04  0.50400001928E-02 0.  1.
    10030    2    1    2    0    0  0.00000000000E+00  0.00000000000E+00 -0.13149689960E+04  0.37760303911E+04  0.35396697662E+04 0.  0.
        5    1    3    3  502    0  0.96854479664E+03 -0.13656086627E+04 -0.12696750950E+04  0.21012051255E+04  0.46999998093E+01 0.  1.
       -5    1    3    3    0  502 -0.96854479664E+03  0.13656086627E+04 -0.45293901086E+02  0.16748252656E+04  0.46999998093E+01 0. -1.
</event>
<event>
 5   0  0.1269497E-06  0.3334065E+04  0.7818609E-02  0.8154281E-01
        2   -1    0    0  501    0  0.00000000000E+00  0.00000000000E+00  0.19252143733E+04  0.19252143733E+04  0.25500000920E-02 0. -1.
       -2   -1    0    0    0  501  0.00000000000E+00  0.00000000000E+00 -0.14434744860E+04  0.14434744860E+04  0.25500000920E-02 0.  1.
    10030    2    1    2    0    0  0.00000000000E+00  0.00000000000E+00  0.48173988733E+03  0.33686888593E+04  0.33340652830E+04 0.  0.
        5    1    3    3  502    0 -0.14948215477E+04 -0.27592765915E+03  0.93233658189E+03  0.17832277265E+04  0.46999998093E+01 0.  1.
       -5    1    3    3    0  502  0.14948215477E+04  0.27592765915E+03 -0.45059669457E+03  0.15854611328E+04  0.46999998093E+01 0. -1.
</event>
<event>
 5   0  0.4125758E-07  0.3387740E+04  0.7818609E-02  0.8140922E-01
       -1   -1    0    0    0  501  0.00000000000E+00  0.00000000000E+00  0.14657870475E+04  0.14657870475E+04  0.50400001928E-02 0. -1.
        1   -1    0    0  501    0  0.00000000000E+00  0.00000000000E+00 -0.19574434494E+04  0.19574434494E+04  0.50400001928E-02 0.  1.
    10030    2    1    2    0    0  0.00000000000E+00  0.00000000000E+00 -0.49165640189E+03  0.34232304970E+04  0.33877398096E+04 0.  0.
        2    1    3    3  502    0 -0.30904730498E+03  0.10377116279E+04  0.10704463656E+04  0.15225672665E+04  0.25500000920E-02 0. -1.
       -2    1    3    3    0  502  0.30904730498E+03 -0.10377116279E+04 -0.15621027675E+04  0.19006632304E+04  0.25500000920E-02 0.  1.
</event>
<event>
 5   0  0.4464951E-07  0.3351249E+04  0.7818609E-02  0.8149976E-01
       -1   -1    0    0    0  501  0.00000000000E+00  0.00000000000E+00  0.27205084450E+04  0.27205084450E+04  0.50400001928E-02 0. -1.
        1   -1    0    0  501    0  0.00000000000E+00  0.00000000000E+00 -0.10320562707E+04  0.10320562707E+04  0.50400001928E-02 0.  1.
    10030    2    1    2    0    0  0.00000000000E+00  0.00000000000E+00  0.16884521742E+04  0.37525647157E+04  0.33512492001E+04 0.  0.
        3    1    3    3  502    0  0.16749623181E+04  0.21128554641E+02  0.79708194829E+03  0.18550700325E+04  0.10100000352E+00 0. -1.
       -3    1    3    3    0  502 -0.16749623181E+04 -0.21128554641E+02  0.89137022593E+03  0.18974946832E+04  0.10100000352E+00 0.  1.
</event>
<event>
 5   0  0.4109937E-07  0.3414745E+04  0.7818609E-02  0.8134297E-01
        1   -1    0    0  501    0  0.00000000000E+00  0.00000000000E+00  0.19191133886E+04  0.19191133886E+04  0.50400001928E-02 0. -1.
       -1   -1    0    0    0  501  0.00000000000E+00  0.00000000000E+00 -0.15189936032E+04  0.15189936032E+04  0.50400001928E-02 0.  1.
    10030    2    1    2    0    0  0.00000000000E+00  0.00000000000E+00  0.40011978543E+03  0.34381069918E+04  0.34147450629E+04 0.  0.
        5    1    3    3  502    0 -0.33055053041E+03  0.60472141808E+03 -0.13727242316E+04  0.15360161303E+04  0.46999998093E+01 0.  1.
       -5    1    3    3    0  502  0.33055053041E+03 -0.60472141808E+03  0.17728440170E+04  0.19020908615E+04  0.46999998093E+01 0. -1.
</event>
<event>
 5   0  0.1268230E-06  0.3370603E+04  0.7818609E-02  0.8145159E-01
        2   -1    0    0  501    0  0.00000000000E+00  0.00000000000E+00  0.22565957049E+04  0.22565957049E+04  0.25500000920E-02 0.  1.
       -2   -1    0    0    0  501  0.00000000000E+00  0.00000000000E+00 -0.12586396749E+04  0.12586396749E+04  0.25500000920E-02 0. -1.
    10030    2    1    2    0    0  0.00000000000E+00  0.00000000000E+00  0.99795603002E+03  0.35152353798E+04  0.33706028448E+04 0.  0.
        2    1    3    3  502    0  0.11546524130E+04  0.66901728161E+03  0.15724331478E+04  0.20623657102E+04  0.25500000920E-02 0.  1.
       -2    1    3    3    0  502 -0.11546524130E+04 -0.66901728161E+03 -0.57447711782E+03  0.14528696696E+04  0.25500000920E-02 0. -1.
</event>
<event>
 5   0  0.1256208E-06  0.3439525E+04  0.7818609E-02  0.8128273E-01
       -2   -1    0    0    0  501  0.00000000000E+00  0.00000000000E+00  0.15745926020E+04  0.15745926020E+04  0.25500000920E-02 0. -1.
        2   -1    0    0  501    0  0.00000000000E+00  0.00000000000E+00 -0.18783159018E+04  0.18783159018E+04  0.25500000920E-02 0.  1.
    10030    2    1    2    0    0  0.00000000000E+00  0.00000000000E+00 -0.30372329972E+03  0.34529085038E+04  0.34395245737E+04 0.  0.
        3    1    3    3  502    0 -0.53818560693E+03  0.13536019537E+04 -0.10695853282E+04  0.18071786799E+04  0.10100000352E+00 0.  1.
       -3    1    3    3    0  502  0.53818560693E+03 -0.13536019537E+04  0.76586202849E+03  0.16457298239E+04  0.10100000352E+00 0. -1.
</event>
<event>
 5   0  0.4464951E-07  0.3368275E+04  0.7818609E-02  0.8145737E-01
       -1   -1    0    0    0  501  0.00000000000E+00  0.00000000000E+00  0.15245328597E+04  0.15245328597E+04  0.50400001928E-02 0.  1.
        1   -1    0    0  501    0  0.00000000000E+00  0.00000000000E+00 -0.18604510930E+04  0.18604510930E+04  0.50400001928E-02 0. -1.
    10030    2    1    2    0    0  0.00000000000E+00  0.00000000000E+00 -0.33591823337E+03  0.33849839527E+04  0.33682748256E+04 0.  0.
        3    1    3    3  502    0 -0.13218507831E+04 -0.10423433131E+04 -0.11721367576E+03  0.16874561123E+04  0.10100000352E+00 0. -1.
       -3    1    3    3    0  502  0.13218507831E+04  0.10423433131E+04 -0.21870455761E+03  0.16975278404E+04  0.10100000352E+00 0.  1.
</event>
<event>
 5   0  0.1300176E-06  0.3097216E+04  0.7818609E-02  0.8216502E-01
        2   -1    0    0  501    0  0.00000000000E+00  0.00000000000E+00  0.16510812007E+04  0.16510812007E+04  0.25500000920E-02 0.  1.
       -2   -1    0    0    0  501  0.00000000000E+00  0.00000000000E+00 -0.14524945405E+04  0.14524945405E+04  0.25500000920E-02 0. -1.
    10030    2    1    2    0    0  0.00000000000E+00  0.00000000000E+00  0.19858666027E+03  0.31035757412E+04  0.30972158013E+04 0.  0.
        1    1    3    3  502    0  0.79492943142E+03  0.11570757259E+04 -0.55584534028E+03  0.15098679011E+04  0.50400001928E-02 0. -1.
       -1    1    3    3    0  502 -0.79492943142E+03 -0.11570757259E+04  0.75443200055E+03  0.15937078402E+04  0.50400001928E-02 0.  1.
</event>
<event>
 5   0  0.1300176E-06  0.3407134E+04  0.7818609E-02  0.8136158E-01
       -2   -1    0    0    0  501  0.00000000000E+00  0.00000000000E+00  0.15927624639E+04  0.15927624639E+04  0.25500000920E-02 0. -1.
        2   -1    0    0  501    0  0.00000000000E+00  0.00000000000E+00 -0.18220797497E+04  0.18220797497E+04  0.25500000920E-02 0.  1.
    10030    2    1    2    0    0  0.00000000000E+00  0.00000000000E+00 -0.22931728583E+03  0.34148422136E+04  0.34071338287E+04 0.  0.
        1    1    3    3  502    0  0.57220883142E+03 -0.79920936415E+03  0.12798848715E+04  0.16137731683E+04  0.50400001928E-02 0.  1.
       -1    1    3    3    0  502 -0.57220883142E+03  0.79920936415E+03 -0.15092021573E+04  0.18010690453E+04  0.50400001928E-02 0. -1.
</event>
<event>
 5   0  0.1269497E-06  0.3378665E+04  0.7818609E-02  0.8143163E-01
        2   -1    0    0  501    0  0.00000000000E+00  0.00000000000E+00  0.11349561926E+04  0.11349561926E+04  0.25500000920E-02 0.  1.
       -2   -1    0    0    0  501  0.00000000000E+00  0.00000000000E+00 -0.25144970309E+04  0.25144970309E+04  0.25500000920E-02 0. -1.
    10030    2    1    2    0    0  0.00000000000E+00  0.00000000000E+00 -0.13795408383E+04  0.36494532235E+04  0.33786648111E+04 0.  0.
        5    1    3    3  502    0  0.83026675746E+03 -0.14254265716E+04 -0.29638630565E+03  0.16760222946E+04  0.46999998093E+01 0.  1.
       -5    1    3    3    0  502 -0.83026675746E+03  0.14254265716E+04 -0.10831545327E+04  0.19734309289E+04  0.46999998093E+01 0. -1.
</event>
<event>
 5   0  0.1256208E-06  0.3379423E+04  0.7818609E-02  0.8142975E-01
        2   -1    0    0  501    0  0.00000000000E+00  0.00000000000E+00  0.23302405691E+04  0.23302405691E+04  0.25500000920E-02 0. -1.
       -2   -1    0    0    0  501  0.00000000000E+00  0.00000000000E+00 -0.12252487070E+04  0.12252487070E+04  0.25500000920E-02 0.  1.
    10030    2    1    2    0    0  0.00000000000E+00  0.00000000000E+00  0.11049918621E+04  0.35554892761E+04  0.33794225805E+04 0.  0.
        3    1    3    3  502    0  0.12859846727E+04  0.69238722982E+03  0.14464510578E+04  0.20555722627E+04  0.10100000352E+00 0. -1.
       -3    1    3    3    0  502 -0.12859846727E+04 -0.69238722982E+03 -0.34145919569E+03  0.14999170134E+04  0.10100000352E+00 0.  1.
</event>
<event>
 5   0  0.4272633E-07  0.3397886E+04  0.7818609E-02  0.8138425E-01
       -1   -1    0    0    0  501  0.00000000000E+00  0.00000000000E+00  0.18102021323E+04  0.18102021323E+04  0.50400001928E-02 0.  1.
        1   -1    0    0  501    0  0.00000000000E+00  0.00000000000E+00 -0.15945218903E+04  0.15945218903E+04  0.50400001928E-02 0. -1.
    10030    2    1    2    0    0  0.00000000000E+00  0.00000000000E+00  0.21568024202E+03  0.34047240227E+04  0.33978857697E+04 0.  0.
        1    1    3    3  502    0 -0.68226117327E+03  0.81059064775E+03  0.14386203980E+04  0.17866634144E+04  0.50400001928E-02 0.  1.
       -1    1    3    3    0  502  0.68226117327E+03 -0.81059064775E+03 -0.12229401560E+04  0.16180606083E+04  0.50400001928E-02 0. -1.
</event>
<event>
 5   0  0.4272633E-07  0.3396092E+04  0.7818609E-02  0.8138866E-01
       -1   -1    0    0    0  501  0.00000000000E+00  0.00000000000E+00  0.14115718504E+04  0.14115718504E+04  0.50400001928E-02 0.  1.
        1   -1    0    0  501    0  0.00000000000E+00  0.00000000000E+00 -0.20426588915E+04  0.20426588916E+04  0.50400001928E-02 0. -1.
    10030    2    1    2    0    0  0.00000000000E+00  0.00000000000E+00 -0.63108704113E+03  0.34542307420E+04  0.33960917487E+04 0.  0.
        1    1    3    3  502    0 -0.47911097704E+03  0.14603581404E+04  0.41873395025E+03  0.15929630717E+04  0.50400001928E-02 0.  1.
       -1    1    3    3    0  502  0.47911097704E+03 -0.14603581404E+04 -0.10498209914E+04  0.18612676703E+04  0.50400001928E-02 0. -1.
</event>
<event>
 5   0  0.4464951E-07  0.3403153E+04  0.7818609E-02  0.8137133E-01
        1   -1    0    0  501    0  0.00000000000E+00  0.00000000000E+00  0.31240360786E+04  0.31240360786E+04  0.50400001928E-02 0. -1.
       -1   -1    0    0    0  501  0.00000000000E+00  0.00000000000E+00 -0.92680175606E+03  0.92680175607E+03  0.50400001928E-02 0.  1.
    10030    2    1    2    0    0  0.00000000000E+00  0.00000000000E+00  0.21972343225E+04  0.40508378347E+04  0.34031527287E+04 0.  0.
        3    1    3    3  502    0  0.15412916273E+04 -0.95252684738E+01  0.24052047411E+03  0.15599745895E+04  0.10100000352E+00 0. -1.
       -3    1    3    3    0  502 -0.15412916273E+04  0.95252684738E+01  0.19567138484E+04  0.24908632451E+04  0.10100000352E+00 0.  1.
</event>
<event>
 5   0  0.1269497E-06  0.3388324E+04  0.7818609E-02  0.8140778E-01
        2   -1    0    0  501    0  0.00000000000E+00  0.00000000000E+00  0.15104014416E+04  0.15104014416E+04  0.25500000920E-02 0.  1.
       -2   -1    0    0    0  501  0.00000000000E+00  0.00000000000E+00 -0.19002794888E+04  0.19002794888E+04  0.25500000920E-02 0. -1.
    10030    2    1    2    0    0  0.00000000000E+00  0.00000000000E+00 -0.38987804720E+03  0.34106809305E+04  0.33883239984E+04 0.  0.
        5    1    3    3  502    0 -0.37017889916E+03 -0.53259194373E+03  0.13804679832E+04  0.15252542538E+04  0.46999998093E+01 0.  1.
       -5    1    3    3    0  502  0.37017889916E+03  0.53259194373E+03 -0.17703460304E+04  0.18854266767E+04  0.46999998093E+01 0. -1.
</event>
<event>
 5   0  0.1300176E-06  0.3398102E+04  0.7818609E-02  0.8138372E-01
        2   -1    0    0  501    0  0.00000000000E+00  0.00000000000E+00  0.23268878217E+04  0.23268878217E+04  0.25500000920E-02 0.  1.
       -2   -1    0    0    0  501  0.00000000000E+00  0.00000000000E+00 -0.12406162643E+04  0.12406162643E+04  0.25500000920E-02 0. -1.
    10030    2    1    2    0    0  0.00000000000E+00  0.00000000000E+00  0.10862715574E+04  0.35675040860E+04  0.33981023392E+04 0.  0.
        1    1    3    3  502    0 -0.16842374505E+04 -0.13099803008E+03  0.35254037474E+03  0.17257175289E+04  0.50400001928E-02 0. -1.
       -1    1    3    3    0  502  0.16842374505E+04  0.13099803008E+03  0.73373118263E+03  0.18417865571E+04  0.50400001928E-02 0.  1.
</event>
<event>
 5   0  0.4109937E-07  0.3383044E+04  0.7818609E-02  0.8142080E-01
        1   -1    0    0  501    0  0.00000000000E+00  0.00000000000E+00  0.13634667073E+04  0.13634667073E+04  0.50400001928E-02 0. -1.
       -1   -1    0    0    0  501  0.00000000000E+00  0.00000000000E+00 -0.20985087605E+04  0.20985087606E+04  0.50400001928E-02 0.  1.
    10030    2    1    2    0    0  0.00000000000E+00  0.00000000000E+00 -0.73504205328E+03  0.34619754678E+04  0.33830440907E+04 0.  0.
        5    1    3    3  502    0 -0.12004112078E+03  0.90376699495E+03  0.10905090939E+04  0.14214207068E+04  0.46999998093E+01 0. -1.
       -5    1    3    3    0  502  0.12004112078E+03 -0.90376699495E+03 -0.18255511472E+04  0.20405547610E+04  0.46999998093E+01 0.  1.
</event>
<event>
 5   0  0.4109937E-07  0.3550827E+04  0.7818609E-02  0.8101849E-01
       -1   -1    0    0    0  501  0.00000000000E+00  0.00000000000E+00  0.11051853225E+04  0.11051853225E+04  0.50400001928E-02 0.  1.
        1   -1    0    0  501    0  0.00000000000E+00  0.00000000000E+00 -0.28520940080E+04  0.28520940080E+04  0.50400001928E-02 0. -1.
    10030    2    1    2    0    0  0.00000000000E+00  0.00000000000E+00 -0.17469086855E+04  0.39572793306E+04  0.35508266283E+04 0.  0.
        5    1    3    3  502    0  0.10980211655E+04  0.13951369967E+04 -0.86949421424E+03  0.19768914988E+04  0.46999998093E+01 0.  1.
       -5    1    3    3    0  502 -0.10980211655E+04 -0.13951369967E+04 -0.87741447127E+03  0.19803878317E+04  0.46999998093E+01 0. -1.
</event>
<event>
 5   0  0.1300176E-06  0.3368584E+04  0.7818609E-02  0.8145660E-01
        2   -1    0    0  501    0  0.00000000000E+00  0.00000000000E+00  0.21617520324E+04  0.21617520324E+04  0.25500000920E-02 0.  1.
       -2   -1    0    0    0  501  0.00000000000E+00  0.00000000000E+00 -0.13122875205E+04  0.13122875205E+04  0.25500000920E-02 0. -1.
    10030    2    1    2    0    0  0.00000000000E+00  0.00000000000E+00  0.84946451190E+03  0.34740395529E+04  0.33685843997E+04 0.  0.
        1    1    3    3  502    0  0.39567576050E+03 -0.42473477660E+03 -0.12058661655E+04  0.13383094362E+04  0.50400001928E-02 0. -1.
       -1    1    3    3    0  502 -0.39567576050E+03  0.42473477660E+03  0.20553306774E+04  0.21357301167E+04  0.50400001928E-02 0.  1.
</event>
<event>
 5   0  0.4464951E-07  0.3439058E+04  0.7818609E-02  0.8128386E-01
       -1   -1    0    0    0  501  0.00000000000E+00  0.00000000000E+00  0.16619265526E+04  0.16619265526E+04  0.50400001928E-02 0.  1.
        1   -1    0    0  501    0  0.00000000000E+00  0.00000000000E+00 -0.17791281600E+04  0.17791281600E+04  0.50400001928E-02 0. -1.
    10030    2    1    2    0    0  0.00000000000E+00  0.00000000000E+00 -0.11720160735E+03  0.34410547126E+04  0.34390582022E+04 0.  0.
        3    1    3    3  502    0  0.15558961832E+04  0.40826551874E+03  0.54944158663E+03  0.16998175590E+04  0.10100000352E+00 0.  1.
       -3    1    3    3    0  502 -0.15558961832E+04 -0.40826551874E+03 -0.66664319398E+03  0.17412371536E+04  0.10100000352E+00 0. -1.
</event>
<event>
 5   0  0.4125758E-07  0.3395738E+04  0.7818609E-02  0.8138953E-01
       -1   -1    0    0    0  501  0.00000000000E+00  0.00000000000E+00  0.17795385149E+04  0.17795385149E+04  0.50400001928E-02 0. -1.
        1   -1    0    0  501    0  0.00000000000E+00  0.00000000000E+00 -0.16199479621E+04  0.16199479621E+04  0.50400001928E-02 0.  1.
    10030    2    1    2    0    0  0.00000000000E+00  0.00000000000E+00  0.15959055280E+03  0.33994864769E+04  0.33957383825E+04 0.  0.
        2    1    3    3  502    0  0.14587786916E+04  0.29951170309E+03 -0.73659073149E+03  0.16614175986E+04  0.25500000920E-02 0.  1.
       -2    1    3    3    0  502 -0.14587786916E+04 -0.29951170309E+03  0.89618128429E+03  0.17380688783E+04  0.25500000920E-02 0. -1.
</event>
<event>
 5   0  0.4289684E-07  0.3225827E+04  0.7818609E-02  0.8182029E-01
        1   -1    0    0  501    0  0.00000000000E+00  0.00000000000E+00  0.11660214487E+04  0.11660214487E+04  0.50400001928E-02 0.  1.
       -1   -1    0    0    0  501  0.00000000000E+00  0.00000000000E+00 -0.22310830978E+04  0.22310830978E+04  0.50400001928E-02 0. -1.
    10030    2    1    2    0    0  0.00000000000E+00  0.00000000000E+00 -0.10650616491E+04  0.33971045466E+04  0.32258274882E+04 0.  0.
        4    1    3    3  502    0 -0.40963713742E+02 -0.57903710553E+03  0.10522037714E+04  0.12017056149E+04  0.12699999809E+01 0.  1.
       -4    1    3    3    0  502  0.40963713742E+02  0.57903710553E+03 -0.21172654205E+04  0.21953989317E+04  0.12699999809E+01 0. -1.
</event>
<event>
 5   0  0.4289684E-07  0.3378590E+04  0.7818609E-02  0.8143181E-01
       -1   -1    0    0    0  501  0.00000000000E+00  0.00000000000E+00  0.15924688785E+04  0.15924688785E+04  0.50400001928E-02 0.  1.
        1   -1    0    0  501    0  0.00000000000E+00  0.00000000000E+00 -0.17920088324E+04  0.17920088324E+04  0.50400001928E-02 0. -1.
    10030    2    1    2    0    0  0.00000000000E+00  0.00000000000E+00 -0.19953995393E+03  0.33844777109E+04  0.33785904136E+04 0.  0.
        4    1    3    3  502    0 -0.18626187499E+03  0.16589470722E+04  0.15936555551E+03  0.16769609022E+04  0.12699999809E+01 0. -1.
       -4    1    3    3    0  502  0.18626187499E+03 -0.16589470722E+04 -0.35890550944E+03  0.17075168087E+04  0.12699999809E+01 0.  1.
</event>
<event>
 5   0  0.4272633E-07  0.3087596E+04  0.7818609E-02  0.8219150E-01
        1   -1    0    0  501    0  0.00000000000E+00  0.00000000000E+00  0.10887756097E+04  0.10887756097E+04  0.50400001928E-02 0.  1.
       -1   -1    0    0    0  501  0.00000000000E+00  0.00000000000E+00 -0.21889844207E+04  0.21889844207E+04  0.50400001928E-02 0. -1.
    10030    2    1    2    0    0  0.00000000000E+00  0.00000000000E+00 -0.11002088110E+04  0.32777600304E+04  0.30875963773E+04 0.  0.
        1    1    3    3  502    0  0.79122512545E+03  0.99194166318E+03  0.38344719360E+03  0.13255252591E+04  0.50400001928E-02 0.  1.
       -1    1    3    3    0  502 -0.79122512545E+03 -0.99194166318E+03 -0.14836560046E+04  0.19522347713E+04  0.50400001928E-02 0. -1.
</event>
<event>
 5   0  0.4464951E-07  0.3385421E+04  0.7818609E-02  0.8141494E-01
        1   -1    0    0  501    0  0.00000000000E+00  0.00000000000E+00  0.17892553264E+04  0.17892553264E+04  0.50400001928E-02 0.  1.
       -1   -1    0    0    0  501  0.00000000000E+00  0.00000000000E+00 -0.16013752618E+04  0.16013752618E+04  0.50400001928E-02 0. -1.
    10030    2    1    2    0    0  0.00000000000E+00  0.00000000000E+00  0.18788006460E+03  0.33906305882E+04  0.33854212244E+04 0.  0.
        3    1    3    3  502    0  0.11756063651E+04  0.34334403958E+03 -0.10763329430E+04  0.16304686656E+04  0.10100000352E+00 0. -1.
       -3    1    3    3    0  502 -0.11756063651E+04 -0.34334403958E+03  0.12642130076E+04  0.17601619226E+04  0.10100000352E+00 0.  1.
</event>
<event>
 5   0  0.4289684E-07  0.3402517E+04  0.7818609E-02  0.8137289E-01
       -1   -1    0    0    0  501  0.00000000000E+00  0.00000000000E+00  0.12900303938E+04  0.12900303938E+04  0.50400001928E-02 0.  1.
        1   -1    0    0  501    0  0.00000000000E+00  0.00000000000E+00 -0.22435758447E+04  0.22435758447E+04  0.50400001928E-02 0. -1.
    10030    2    1    2    0    0  0.00000000000E+00  0.00000000000E+00 -0.95354545093E+03  0.35336062385E+04  0.34025173213E+04 0.  0.
        4    1    3    3  502    0 -0.14264481739E+04  0.88809770511E+03 -0.20042403528E+03  0.16922302838E+04  0.12699999809E+01 0.  1.
       -4    1    3    3    0  502  0.14264481739E+04 -0.88809770511E+03 -0.75312141566E+03  0.18413759546E+04  0.12699999809E+01 0. -1.
</event>
<event>
 5   0  0.1269497E-06  0.3385874E+04  0.7818609E-02  0.8141382E-01
       -2   -1    0    0    0  501  0.00000000000E+00  0.00000000000E+00  0.10199802607E+04  0.10199802607E+04  0.25500000920E-02 0.  1.
        2   -1    0    0  501    0  0.00000000000E+00  0.00000000000E+00 -0.28098932075E+04  0.28098932075E+04  0.25500000920E-02 0. -1.
    10030    2    1    2    0    0  0.00000000000E+00  0.00000000000E+00 -0.17899129469E+04  0.38298734682E+04  0.33858739529E+04 0.  0.
        5    1    3    3  502    0  0.11943186157E+04  0.11804011518E+04 -0.11382675573E+04  0.20286495402E+04  0.46999998093E+01 0.  1.
       -5    1    3    3    0  502 -0.11943186157E+04 -0.11804011518E+04 -0.65164538951E+03  0.18012239280E+04  0.46999998093E+01 0. -1.
</event>
<event>
 5   0  0.4125758E-07  0.3395579E+04  0.7818609E-02  0.8138992E-01
        1   -1    0    0  501    0  0.00000000000E+00  0.00000000000E+00  0.23788346170E+04  0.23788346170E+04  0.50400001928E-02 0.  1.
       -1   -1    0    0    0  501  0.00000000000E+00  0.00000000000E+00 -0.12117232094E+04  0.12117232094E+04  0.50400001928E-02 0. -1.
    10030    2    1    2    0    0  0.00000000000E+00  0.00000000000E+00  0.11671114076E+04  0.35905578265E+04  0.33955789591E+04 0.  0.
        2    1    3    3  502    0 -0.11677751111E+04  0.10639488375E+04  0.12412031904E+04  0.20090473361E+04  0.25500000920E-02 0.  1.
       -2    1    3    3    0  502  0.11677751111E+04 -0.10639488375E+04 -0.74091782804E+02  0.15815104904E+04  0.25500000920E-02 0. -1.
</event>
<event>
 5   0  0.4464951E-07  0.3405775E+04  0.7818609E-02  0.8136490E-01
       -1   -1    0    0    0  501  0.00000000000E+00  0.00000000000E+00  0.15267045557E+04  0.15267045557E+04  0.50400001928E-02 0.  1.
        1   -1    0    0  501    0  0.00000000000E+00  0.00000000000E+00 -0.18994019927E+04  0.18994019927E+04  0.50400001928E-02 0. -1.
    10030    2    1    2    0    0  0.00000000000E+00  0.00000000000E+00 -0.37269743698E+03  0.34261065483E+04  0.34057749046E+04 0.  0.
        3    1    3    3  502    0  0.19256370479E+03 -0.11127544176E+04  0.10958277085E+04  0.15735760392E+04  0.10100000352E+00 0.  1.
       -3    1    3    3    0  502 -0.19256370479E+03  0.11127544176E+04 -0.14685251454E+04  0.18525305091E+04  0.10100000352E+00 0. -1.
</event>
<event>
 5   0  0.4125758E-07  0.3392634E+04  0.7818609E-02  0.8139717E-01
       -1   -1    0    0    0  501  0.00000000000E+00  0.00000000000E+00  0.18893004674E+04  0.18893004674E+04  0.50400001928E-02 0. -1.
        1   -1    0    0  501    0  0.00000000000E+00  0.00000000000E+00 -0.15230455525E+04  0.15230455525E+04  0.50400001928E-02 0.  1.
    10030    2    1    2    0    0  0.00000000000E+00  0.00000000000E+00  0.36625491489E+03  0.34123460199E+04  0.33926335930E+04 0.  0.
        2    1    3    3  502    0  0.92224496103E+03  0.24638708831E+03  0.15935046821E+04  0.18575520282E+04  0.25500000920E-02 0. -1.
       -2    1    3    3    0  502 -0.92224496103E+03 -0.24638708831E+03 -0.12272497672E+04  0.15547939917E+04  0.25500000920E-02 0.  1.
</event>
<event>
 5   0  0.1300176E-06  0.3193953E+04  0.7818609E-02  0.8190416E-01
       -2   -1    0    0    0  501  0.00000000000E+00  0.00000000000E+00  0.30829671916E+04  0.30829671916E+04  0.25500000920E-02 0. -1.
        2   -1    0    0  501    0  0.00000000000E+00  0.00000000000E+00 -0.82723357715E+03  0.82723357716E+03  0.25500000920E-02 0.  1.
    10030    2    1    2    0    0  0.00000000000E+00  0.00000000000E+00  0.22557336144E+04  0.39102007687E+04  0.31939530229E+04 0.  0.
        1    1    3    3  502    0 -0.33820088368E+03  0.77255967495E+03  0.27881182888E+04  0.29128734751E+04  0.50400001928E-02 0. -1.
       -1    1    3    3    0  502  0.33820088368E+03 -0.77255967495E+03 -0.53238467444E+03  0.99732729366E+03  0.50400001928E-02 0.  1.
</event>
<event>
 5   0  0.4272633E-07  0.3389387E+04  0.7818609E-02  0.8140516E-01
        1   -1    0    0  501    0  0.00000000000E+00  0.00000000000E+00  0.21441036538E+04  0.21441036539E+04  0.50400001928E-02 0.  1.
       -1   -1    0    0    0  501  0.00000000000E+00  0.00000000000E+00 -0.13394808166E+04  0.13394808166E+04  0.50400001928E-02 0. -1.
    10030    2    1    2    0    0  0.00000000000E+00  0.00000000000E+00  0.80462283721E+03  0.34835844705E+04  0.33893867960E+04 0.  0.
        1    1    3    3  502    0  0.68540666857E+03  0.20538049521E+03  0.19812428224E+04  0.21064867838E+04  0.50400001928E-02 0.  1.
       -1    1    3    3    0  502 -0.68540666857E+03 -0.20538049521E+03 -0.11766199852E+04  0.13770976867E+04  0.50400001928E-02 0. -1.
</event>
<event>
 5   0  0.1268230E-06  0.3420557E+04  0.7818609E-02  0.8132879E-01
        2   -1    0    0  501    0  0.00000000000E+00  0.00000000000E+00  0.23452117491E+04  0.23452117491E+04  0.25500000920E-02 0. -1.
       -2   -1    0    0    0  501  0.00000000000E+00  0.00000000000E+00 -0.12472448361E+04  0.12472448361E+04  0.25500000920E-02 0.  1.
    10030    2    1    2    0    0  0.00000000000E+00  0.00000000000E+00  0.10979669130E+04  0.35924565852E+04  0.34205574070E+04 0.  0.
        2    1    3    3  502    0  0.14546469112E+04  0.82355790265E+03  0.92883314833E+03  0.19123222199E+04  0.25500000920E-02 0.  1.
       -2    1    3    3    0  502 -0.14546469112E+04 -0.82355790265E+03  0.16913376468E+03  0.16801343653E+04  0.25500000920E-02 0. -1.
</event>
<event>
 5   0  0.4060750E-07  0.3399358E+04  0.7818609E-02  0.8138064E-01
       -3   -1    0    0    0  501  0.00000000000E+00  0.00000000000E+00  0.16760476969E+04  0.16760476999E+04  0.10100000352E+00 0.  1.
        3   -1    0    0  501    0  0.00000000000E+00  0.00000000000E+00 -0.17236431631E+04  0.17236431661E+04  0.10100000352E+00 0. -1.
    10030    2    1    2    0    0  0.00000000000E+00  0.00000000000E+00 -0.47595466231E+02  0.33996908660E+04  0.33993576829E+04 0.  0.
        5    1    3    3  502    0  0.14312687907E+04 -0.88903559960E+03 -0.24736253725E+03  0.17029753267E+04  0.46999998093E+01 0.  1.
       -5    1    3    3    0  502 -0.14312687907E+04  0.88903559960E+03  0.19976707102E+03  0.16967155393E+04  0.46999998093E+01 0. -1.
</event>
<event>
 5   0  0.4272633E-07  0.3444941E+04  0.7818609E-02  0.8126964E-01
        1   -1    0    0  501    0  0.00000000000E+00  0.00000000000E+00  0.10503524991E+04  0.10503524991E+04  0.50400001928E-02 0.  1.
       -1   -1    0    0    0  501  0.00000000000E+00  0.00000000000E+00 -0.28246754704E+04  0.28246754704E+04  0.50400001928E-02 0. -1.
    10030    2    1    2    0    0  0.00000000000E+00  0.00000000000E+00 -0.17743229714E+04  0.38750279695E+04  0.34449411835E+04 0.  0.
        1    1    3    3  502    0 -0.11263488451E+03  0.32934748175E+03 -0.27847030271E+04  0.28063726285E+04  0.50400001928E-02 0. -1.
       -1    1    3    3    0  502  0.11263488451E+03 -0.32934748175E+03  0.10103800557E+04  0.10686553410E+04  0.50400001928E-02 0.  1.
</event>
<event>
 5   0  0.4464951E-07  0.3103314E+04  0.7818609E-02  0.8214829E-01
        1   -1    0    0  501    0  0.00000000000E+00  0.00000000000E+00  0.18760647765E+04  0.18760647765E+04  0.50400001928E-02 0. -1.
       -1   -1    0    0    0  501  0.00000000000E+00  0.00000000000E+00 -0.12833453957E+04  0.12833453957E+04  0.50400001928E-02 0.  1.
    10030    2    1    2    0    0  0.00000000000E+00  0.00000000000E+00  0.59271938087E+03  0.31594101722E+04  0.31033137727E+04 0.  0.
        3    1    3    3  502    0 -0.40796088561E+03  0.89580048939E+03 -0.92480084998E+03  0.13506099449E+04  0.10100000352E+00 0.  1.
       -3    1    3    3    0  502  0.40796088561E+03 -0.89580048939E+03  0.15175202308E+04  0.18088002273E+04  0.10100000352E+00 0. -1.
</event>
<event>
 5   0  0.1256208E-06  0.3390740E+04  0.7818609E-02  0.8140183E-01
        2   -1    0    0  501    0  0.00000000000E+00  0.00000000000E+00  0.16558332475E+04  0.16558332475E+04  0.25500000920E-02 0.  1.
       -2   -1    0    0    0  501  0.00000000000E+00  0.00000000000E+00 -0.17358506940E+04  0.17358506940E+04  0.25500000920E-02 0. -1.
    10030    2    1    2    0    0  0.00000000000E+00  0.00000000000E+00 -0.80017446539E+02  0.33916839415E+04  0.33907399144E+04 0.  0.
        3    1    3    3  502    0 -0.12508025208E+04  0.11067178316E+04 -0.33154823153E+03  0.17027200430E+04  0.10100000352E+00 0. -1.
       -3    1    3    3    0  502  0.12508025208E+04 -0.11067178316E+04  0.25153078499E+03  0.16889638986E+04  0.10100000352E+00 0.  1.
</event>
<event>
 5   0  0.1277635E-06  0.3369961E+04  0.7818609E-02  0.8145318E-01
        2   -1    0    0  501    0  0.00000000000E+00  0.00000000000E+00  0.25612573257E+04  0.25612573257E+04  0.25500000920E-02 0.  1.
       -2   -1    0    0    0  501  0.00000000000E+00  0.00000000000E+00 -0.11085021039E+04  0.11085021039E+04  0.25500000920E-02 0. -1.
    10030    2    1    2    0    0  0.00000000000E+00  0.00000000000E+00  0.14527552218E+04  0.36697594296E+04  0.33699609102E+04 0.  0.
        4    1    3    3  502    0 -0.39825507023E+03 -0.17687419441E+03  0.24988338021E+04  0.25365455968E+04  0.12699999809E+01 0.  1.
       -4    1    3    3    0  502  0.39825507023E+03  0.17687419441E+03 -0.10460785803E+04  0.11332138327E+04  0.12699999809E+01 0. -1.
</event>
<event>
 5   0  0.4272633E-07  0.3378881E+04  0.7818609E-02  0.8143109E-01
       -1   -1    0    0    0  501  0.00000000000E+00  0.00000000000E+00  0.13528853640E+04  0.13528853640E+04  0.50400001928E-02 0. -1.
        1   -1    0    0  501    0  0.00000000000E+00  0.00000000000E+00 -0.21097197312E+04  0.21097197312E+04  0.50400001928E-02 0.  1.
    10030    2    1    2    0    0  0.00000000000E+00  0.00000000000E+00 -0.75683436717E+03  0.34626050953E+04  0.33788808482E+04 0.  0.
        1    1    3    3  502    0 -0.13583725164E+04  0.10858976274E+03 -0.14017813792E+04  0.19549830344E+04  0.50400001928E-02 0.  1.
       -1    1    3    3    0  502  0.13583725164E+04 -0.10858976274E+03  0.64494701202E+03  0.15076220608E+04  0.50400001928E-02 0. -1.
</event>
<event>
 5   0  0.4109937E-07  0.3453453E+04  0.7818609E-02  0.8124911E-01
        1   -1    0    0  501    0  0.00000000000E+00  0.00000000000E+00  0.19928764657E+04  0.19928764657E+04  0.50400001928E-02 0. -1.
       -1   -1    0    0    0  501  0.00000000000E+00  0.00000000000E+00 -0.14961206639E+04  0.14961206639E+04  0.50400001928E-02 0.  1.
    10030    2    1    2    0    0  0.00000000000E+00  0.00000000000E+00  0.49675580181E+03  0.34889971296E+04  0.34534525686E+04 0.  0.
        5    1    3    3  502    0  0.16938133355E+04 -0.25782499045E+03  0.31496013702E+02  0.17136193947E+04  0.46999998093E+01 0. -1.
       -5    1    3    3    0  502 -0.16938133355E+04  0.25782499045E+03  0.46525978810E+03  0.17753777349E+04  0.46999998093E+01 0.  1.
</event>
<event>
 5   0  0.1256208E-06  0.3386859E+04  0.7818609E-02  0.8141139E-01
       -2   -1    0    0    0  501  0.00000000000E+00  0.00000000000E+00  0.16017910524E+04  0.16017910524E+04  0.25500000920E-02 0. -1.
        2   -1    0    0  501    0  0.00000000000E+00  0.00000000000E+00 -0.17903106502E+04  0.17903106502E+04  0.25500000920E-02 0.  1.
    10030    2    1    2    0    0  0.00000000000E+00  0.00000000000E+00 -0.18851959774E+03  0.33921017026E+04  0.33868590644E+04 0.  0.
        3    1    3    3  502    0 -0.88685707163E+03 -0.10357046360E+03  0.13468772885E+04  0.16159581513E+04  0.10100000352E+00 0. -1.
       -3    1    3    3    0  502  0.88685707163E+03  0.10357046360E+03 -0.15353968862E+04  0.17761435513E+04  0.10100000352E+00 0.  1.
</event>
<event>
 5   0  0.4289684E-07  0.3408785E+04  0.7818609E-02  0.8135754E-01
        1   -1    0    0  501    0  0.00000000000E+00  0.00000000000E+00  0.14214931219E+04  0.14214931219E+04  0.50400001928E-02 0.  1.
       -1   -1    0    0    0  501  0.00000000000E+00  0.00000000000E+00 -0.20435930317E+04  0.20435930317E+04  0.50400001928E-02 0. -1.
    10030    2    1    2    0    0  0.00000000000E+00  0.00000000000E+00 -0.62209990976E+03  0.34650861537E+04  0.34087847915E+04 0.  0.
        4    1    3    3  502    0  0.34475056966E+03  0.88444072582E+03 -0.17500092801E+04  0.19908848400E+04  0.12699999809E+01 0. -1.
       -4    1    3    3    0  502 -0.34475056966E+03 -0.88444072582E+03  0.11279093703E+04  0.14742013137E+04  0.12699999809E+01 0.  1.
</event>
<event>
 5   0  0.1256208E-06  0.3305654E+04  0.7818609E-02  0.8161458E-01
        2   -1    0    0  501    0  0.00000000000E+00  0.00000000000E+00  0.11650270993E+04  0.11650270993E+04  0.25500000920E-02 0.  1.
       -2   -1    0    0    0  501  0.00000000000E+00  0.00000000000E+00 -0.23448699133E+04  0.23448699133E+04  0.25500000920E-02 0. -1.
    10030    2    1    2    0    0  0.00000000000E+00  0.00000000000E+00 -0.11798428139E+04  0.35098970126E+04  0.33056539404E+04 0.  0.
        3    1    3    3  502    0 -0.99844542071E+03  0.23894118162E+03 -0.19652727677E+04  0.22172693134E+04  0.10100000352E+00 0. -1.
       -3    1    3    3    0  502  0.99844542071E+03 -0.23894118162E+03  0.78542995375E+03  0.12926276992E+04  0.10100000352E+00 0.  1.
</event>
<event>
 5   0  0.4060750E-07  0.3221258E+04  0.7818609E-02  0.8183225E-01
       -3   -1    0    0    0  501  0.00000000000E+00  0.00000000000E+00  0.13558343028E+04  0.13558343065E+04  0.10100000352E+00 0.  1.
        3   -1    0    0  501    0  0.00000000000E+00  0.00000000000E+00 -0.19133064785E+04  0.19133064811E+04  0.10100000352E+00 0. -1.
    10030    2    1    2    0    0  0.00000000000E+00  0.00000000000E+00 -0.55747217569E+03  0.32691407877E+04  0.32212584905E+04 0.  0.
        1    1    3    3  502    0  0.18491044685E+03 -0.38145107307E+03 -0.18556766950E+04  0.19034791281E+04  0.50400001928E-02 0. -1.
       -1    1    3    3    0  502 -0.18491044685E+03  0.38145107307E+03  0.12982045193E+04  0.13656616596E+04  0.50400001928E-02 0.  1.
</event>
<event>
 5   0  0.4125758E-07  0.3467434E+04  0.7818609E-02  0.8121551E-01
        1   -1    0    0  501    0  0.00000000000E+00  0.00000000000E+00  0.24397826603E+04  0.24397826603E+04  0.50400001928E-02 0. -1.
       -1   -1    0    0    0  501  0.00000000000E+00  0.00000000000E+00 -0.12319846505E+04  0.12319846505E+04  0.50400001928E-02 0.  1.
    10030    2    1    2    0    0  0.00000000000E+00  0.00000000000E+00  0.12077980098E+04  0.36717673108E+04  0.34674340877E+04 0.  0.
        2    1    3    3  502    0 -0.13055316247E+04 -0.90237099615E+03 -0.13514601917E+03  0.15927808023E+04  0.25500000920E-02 0.  1.
       -2    1    3    3    0  502  0.13055316247E+04  0.90237099615E+03  0.13429440290E+04  0.20789865085E+04  0.25500000920E-02 0. -1.
</event>
<event>
 5   0  0.1269497E-06  0.3368338E+04  0.7818609E-02  0.8145721E-01
       -2   -1    0    0    0  501  0.00000000000E+00  0.00000000000E+00  0.24319473927E+04  0.24319473927E+04  0.25500000920E-02 0. -1.
        2   -1    0    0  501    0  0.00000000000E+00  0.00000000000E+00 -0.11663184587E+04  0.11663184587E+04  0.25500000920E-02 0.  1.
    10030    2    1    2    0    0  0.00000000000E+00  0.00000000000E+00  0.12656289340E+04  0.35982658514E+04  0.33683379490E+04 0.  0.
        5    1    3    3  502    0  0.10929295181E+04  0.12588826654E+04  0.37749650174E+03  0.17093291654E+04  0.46999998093E+01 0.  1.
       -5    1    3    3    0  502 -0.10929295181E+04 -0.12588826654E+04  0.88813243228E+03  0.18889366861E+04  0.46999998093E+01 0. -1.
</event>
<event>
 5   0  0.4272633E-07  0.3356196E+04  0.7818609E-02  0.8148742E-01
       -1   -1    0    0    0  501  0.00000000000E+00  0.00000000000E+00  0.17306882959E+04  0.17306882959E+04  0.50400001928E-02 0. -1.
        1   -1    0    0  501    0  0.00000000000E+00  0.00000000000E+00 -0.16271057229E+04  0.16271057230E+04  0.50400001928E-02 0.  1.
    10030    2    1    2    0    0  0.00000000000E+00  0.00000000000E+00  0.10358257291E+03  0.33577940188E+04  0.33561959602E+04 0.  0.
        1    1    3    3  502    0 -0.15612023732E+04 -0.37915307046E+03 -0.43310734412E+03  0.16639386625E+04  0.50400001928E-02 0.  1.
       -1    1    3    3    0  502  0.15612023732E+04  0.37915307046E+03  0.53668991703E+03  0.16938553563E+04  0.50400001928E-02 0. -1.
</event>
<event>
 5   0  0.4272633E-07  0.3043896E+04  0.7818609E-02  0.8231306E-01
        1   -1    0    0  501    0  0.00000000000E+00  0.00000000000E+00  0.24469759893E+04  0.24469759893E+04  0.50400001928E-02 0.  1.
       -1   -1    0    0    0  501  0.00000000000E+00  0.00000000000E+00 -0.94660733129E+03  0.94660733130E+03  0.50400001928E-02 0. -1.
    10030    2    1    2    0    0  0.00000000000E+00  0.00000000000E+00  0.15003686580E+04  0.33935833206E+04  0.30438958004E+04 0.  0.
        1    1    3    3  502    0  0.84594024521E+03 -0.49544290634E+03 -0.54770582160E+03  0.11229693847E+04  0.50400001928E-02 0. -1.
       -1    1    3    3    0  502 -0.84594024521E+03  0.49544290634E+03  0.20480744796E+04  0.22706139359E+04  0.50400001928E-02 0.  1.
</event>
<event>
 5   0  0.1256208E-06  0.3418320E+04  0.7818609E-02  0.8133425E-01
        2   -1    0    0  501    0  0.00000000000E+00  0.00000000000E+00  0.21965808955E+04  0.21965808955E+04  0.25500000920E-02 0.  1.
       -2   -1    0    0    0  501  0.00000000000E+00  0.00000000000E+00 -0.13298973250E+04  0.13298973250E+04  0.25500000920E-02 0. -1.
    10030    2    1    2    0    0  0.00000000000E+00  0.00000000000E+00  0.86668357042E+03  0.35264782205E+04  0.34183195036E+04 0.  0.
        3    1    3    3  502    0 -0.16167486062E+04 -0.41923369281E+03  0.80757882182E+03  0.18552133323E+04  0.10100000352E+00 0. -1.
       -3    1    3    3    0  502  0.16167486062E+04  0.41923369281E+03  0.59104748601E+02  0.16712648881E+04  0.10100000352E+00 0.  1.
</event>
<event>
 5   0  0.4289684E-07  0.3365877E+04  0.7818609E-02  0.8146332E-01
       -1   -1    0    0    0  501  0.00000000000E+00  0.00000000000E+00  0.25190678456E+04  0.25190678456E+04  0.50400001928E-02 0. -1.
        1   -1    0    0  501    0  0.00000000000E+00  0.00000000000E+00 -0.11243370736E+04  0.11243370736E+04  0.50400001928E-02 0.  1.
    10030    2    1    2    0    0  0.00000000000E+00  0.00000000000E+00  0.13947307720E+04  0.36434049192E+04  0.33658766286E+04 0.  0.
        4    1    3    3  502    0 -0.21824479240E+03 -0.12618959397E+04  0.18793072590E+04  0.22741612825E+04  0.12699999809E+01 0. -1.
       -4    1    3    3    0  502  0.21824479240E+03  0.12618959397E+04 -0.48457648702E+03  0.13692436367E+04  0.12699999809E+01 0.  1.
</event>
<event>
 5   0  0.4272633E-07  0.3346562E+04  0.7818609E-02  0.8151148E-01
       -1   -1    0    0    0  501  0.00000000000E+00  0.00000000000E+00  0.17284091278E+04  0.17284091278E+04  0.50400001928E-02 0. -1.
        1   -1    0    0  501    0  0.00000000000E+00  0.00000000000E+00 -0.16199114261E+04  0.16199114261E+04  0.50400001928E-02 0.  1.
    10030    2    1    2    0    0  0.00000000000E+00  0.00000000000E+00  0.10849770177E+03  0.33483205539E+04  0.33465622332E+04 0.  0.
        1    1    3    3  502    0  0.62448252177E+03 -0.15335413223E+04  0.29550266187E+03  0.16819777734E+04  0.50400001928E-02 0.  1.
       -1    1    3    3    0  502 -0.62448252177E+03  0.15335413223E+04 -0.18700496010E+03  0.16663427805E+04  0.50400001928E-02 0. -1.
</event>
<event>
 5   0  0.1269497E-06  0.3385387E+04  0.7818609E-02  0.8141502E-01
        2   -1    0    0  501    0  0.00000000000E+00  0.00000000000E+00  0.14845016004E+04  0.14845016004E+04  0.25500000920E-02 0.  1.
       -2   -1    0    0    0  501  0.00000000000E+00  0.00000000000E+00 -0.19300826932E+04  0.19300826932E+04  0.25500000920E-02 0. -1.
    10030    2    1    2    0    0  0.00000000000E+00  0.00000000000E+00 -0.44558109280E+03  0.34145842937E+04  0.33853867413E+04 0.  0.
        5    1    3    3  502    0 -0.29515598626E+03  0.14397190945E+04  0.62426234157E+03  0.15967572416E+04  0.46999998093E+01 0.  1.
       -5    1    3    3    0  502  0.29515598626E+03 -0.14397190945E+04 -0.10698434344E+04  0.18178270521E+04  0.46999998093E+01 0. -1.
</event>
<event>
 5   0  0.4109937E-07  0.3383164E+04  0.7818609E-02  0.8142051E-01
        1   -1    0    0  501    0  0.00000000000E+00  0.00000000000E+00  0.10029267406E+04  0.10029267406E+04  0.50400001928E-02 0.  1.
       -1   -1    0    0    0  501  0.00000000000E+00  0.00000000000E+00 -0.28530999786E+04  0.28530999786E+04  0.50400001928E-02 0. -1.
    10030    2    1    2    0    0  0.00000000000E+00  0.00000000000E+00 -0.18501732380E+04  0.38560267193E+04  0.33831643544E+04 0.  0.
        5    1    3    3  502    0 -0.57354204070E+03 -0.10434809469E+04  0.44435703378E+03  0.12709359632E+04  0.46999998093E+01 0.  1.
       -5    1    3    3    0  502  0.57354204070E+03  0.10434809469E+04 -0.22945302718E+04  0.25850907561E+04  0.46999998093E+01 0. -1.
</event>
<event>
 5   0  0.1256208E-06  0.3433223E+04  0.7818609E-02  0.8129800E-01
       -2   -1    0    0    0  501  0.00000000000E+00  0.00000000000E+00  0.16270618696E+04  0.16270618696E+04  0.25500000920E-02 0.  1.
        2   -1    0    0  501    0  0.00000000000E+00  0.00000000000E+00 -0.18110893646E+04  0.18110893647E+04  0.25500000920E-02 0. -1.
    10030    2    1    2    0    0  0.00000000000E+00  0.00000000000E+00 -0.18402749502E+03  0.34381512343E+04  0.34332226538E+04 0.  0.
        3    1    3    3  502    0 -0.13757218578E+04  0.10064094824E+04  0.11146199190E+03  0.17081845515E+04  0.10100000352E+00 0.  1.
       -3    1    3    3    0  502  0.13757218578E+04 -0.10064094824E+04 -0.29548948692E+03  0.17299666827E+04  0.10100000352E+00 0. -1.
</event>
<event>
 5   0  0.4125758E-07  0.3401553E+04  0.7818609E-02  0.8137525E-01
        1   -1    0    0  501    0  0.00000000000E+00  0.00000000000E+00  0.16456989480E+04  0.16456989480E+04  0.50400001928E-02 0.  1.
       -1   -1    0    0    0  501  0.00000000000E+00  0.00000000000E+00 -0.17576969297E+04  0.17576969297E+04  0.50400001928E-02 0. -1.
    10030    2    1    2    0    0  0.00000000000E+00  0.00000000000E+00 -0.11199798178E+03  0.34033958777E+04  0.34015525797E+04 0.  0.
        2    1    3    3  502    0 -0.29157693848E+03  0.85293333840E+03  0.13870473169E+04  0.16542105821E+04  0.25500000920E-02 0.  1.
       -2    1    3    3    0  502  0.29157693848E+03 -0.85293333840E+03 -0.14990452987E+04  0.17491852956E+04  0.25500000920E-02 0. -1.
</event>
<event>
 5   0  0.4289684E-07  0.3384555E+04  0.7818609E-02  0.8141707E-01
        1   -1    0    0  501    0  0.00000000000E+00  0.00000000000E+00  0.22193002564E+04  0.22193002564E+04  0.50400001928E-02 0.  1.
       -1   -1    0    0    0  501  0.00000000000E+00  0.00000000000E+00 -0.12904082907E+04  0.12904082907E+04  0.50400001928E-02 0. -1.
    10030    2    1    2    0    0  0.00000000000E+00  0.00000000000E+00  0.92889196568E+03  0.35097085471E+04  0.33845551852E+04 0.  0.
        4    1    3    3  502    0 -0.11760599396E+04  0.55276724808E+03 -0.65967487579E+03  0.14573404430E+04  0.12699999809E+01 0. -1.
       -4    1    3    3    0  502  0.11760599396E+04 -0.55276724808E+03  0.15885668415E+04  0.20523681041E+04  0.12699999809E+01 0.  1.
</event>
<event>
 5   0  0.4272633E-07  0.3436525E+04  0.7818609E-02  0.8129000E-01
        1   -1    0    0  501    0  0.00000000000E+00  0.00000000000E+00  0.21517916453E+04  0.21517916453E+04  0.50400001928E-02 0.  1.
       -1   -1    0    0    0  501  0.00000000000E+00  0.00000000000E+00 -0.13720778789E+04  0.13720778789E+04  0.50400001928E-02 0. -1.
    10030    2    1    2    0    0  0.00000000000E+00  0.00000000000E+00  0.77971376645E+03  0.35238695242E+04  0.34365248240E+04 0.  0.
        1    1    3    3  502    0  0.11774339397E+04 -0.41195634654E+03 -0.82185710943E+03  0.14938232232E+04  0.50400001928E-02 0. -1.
       -1    1    3    3    0  502 -0.11774339397E+04  0.41195634654E+03  0.16015708759E+04  0.20300463010E+04  0.50400001928E-02 0.  1.
</event>
<event>
 5   0  0.4289684E-07  0.3403098E+04  0.7818609E-02  0.8137146E-01
        1   -1    0    0  501    0  0.00000000000E+00  0.00000000000E+00  0.31914109208E+04  0.31914109208E+04  0.50400001928E-02 0.  1.
       -1   -1    0    0    0  501  0.00000000000E+00  0.00000000000E+00 -0.90720670731E+03  0.90720670732E+03  0.50400001928E-02 0. -1.
    10030    2    1    2    0    0  0.00000000000E+00  0.00000000000E+00  0.22842042135E+04  0.40986176281E+04  0.34030982314E+04 0.  0.
        4    1    3    3  502    0 -0.10062131661E+04 -0.51911481296E+03  0.26718629300E+04  0.29018611708E+04  0.12699999809E+01 0.  1.
       -4    1    3    3    0  502  0.10062131661E+04  0.51911481296E+03 -0.38765871657E+03  0.11967564573E+04  0.12699999809E+01 0. -1.
</event>
<event>
 5   0  0.1268230E-06  0.3377715E+04  0.7818609E-02  0.8143397E-01
       -2   -1    0    0    0  501  0.00000000000E+00  0.00000000000E+00  0.11258601583E+04  0.11258601583E+04  0.25500000920E-02 0. -1.
        2   -1    0    0  501    0  0.00000000000E+00  0.00000000000E+00 -0.25333878460E+04  0.25333878460E+04  0.25500000920E-02 0.  1.
    10030    2    1    2    0    0  0.00000000000E+00  0.00000000000E+00 -0.14075276877E+04  0.36592480043E+04  0.33777154654E+04 0.  0.
        2    1    3    3  502    0  0.47610589154E+03 -0.12635369403E+04  0.39520275543E+03  0.14069071176E+04  0.25500000920E-02 0. -1.
       -2    1    3    3    0  502 -0.47610589154E+03  0.12635369403E+04 -0.18027304431E+04  0.22523408867E+04  0.25500000920E-02 0.  1.
</event>
<event>
 5   0  0.1300176E-06  0.3393802E+04  0.7818609E-02  0.8139429E-01
        2   -1    0    0  501    0  0.00000000000E+00  0.00000000000E+00  0.20928214415E+04  0.20928214415E+04  0.25500000920E-02 0.  1.
       -2   -1    0    0    0  501  0.00000000000E+00  0.00000000000E+00 -0.13758810300E+04  0.13758810300E+04  0.25500000920E-02 0. -1.
    10030    2    1    2    0    0  0.00000000000E+00  0.00000000000E+00  0.71694041144E+03  0.34687024715E+04  0.33938021866E+04 0.  0.
        1    1    3    3  502    0  0.25632430156E+03 -0.16424292893E+04  0.10070033655E+02  0.16623409769E+04  0.50400001928E-02 0.  1.
       -1    1    3    3    0  502 -0.25632430156E+03  0.16424292893E+04  0.70687037778E+03  0.18063614945E+04  0.50400001928E-02 0. -1.
</event>
<event>
 5   0  0.1256208E-06  0.3366705E+04  0.7818609E-02  0.8146127E-01
       -2   -1    0    0    0  501  0.00000000000E+00  0.00000000000E+00  0.12462429216E+04  0.12462429216E+04  0.25500000920E-02 0. -1.
        2   -1    0    0  501    0  0.00000000000E+00  0.00000000000E+00 -0.22737743311E+04  0.22737743311E+04  0.25500000920E-02 0.  1.
    10030    2    1    2    0    0  0.00000000000E+00  0.00000000000E+00 -0.10275314095E+04  0.35200172527E+04  0.33667047185E+04 0.  0.
        3    1    3    3  502    0 -0.15284146592E+04 -0.69121169912E+03 -0.36645920866E+03  0.17170082543E+04  0.10100000352E+00 0.  1.
       -3    1    3    3    0  502  0.15284146592E+04  0.69121169912E+03 -0.66107220085E+03  0.18030089984E+04  0.10100000352E+00 0. -1.
</event>
<event>
 5   0  0.1300176E-06  0.3378430E+04  0.7818609E-02  0.8143221E-01
       -2   -1    0    0    0  501  0.00000000000E+00  0.00000000000E+00  0.12405206545E+04  0.12405206545E+04  0.25500000920E-02 0.  1.
        2   -1    0    0  501    0  0.00000000000E+00  0.00000000000E+00 -0.23002014859E+04  0.23002014859E+04  0.25500000920E-02 0. -1.
    10030    2    1    2    0    0  0.00000000000E+00  0.00000000000E+00 -0.10596808314E+04  0.35407221404E+04  0.33784300808E+04 0.  0.
        1    1    3    3  502    0 -0.90463629444E+03 -0.42422813870E+03 -0.19572936041E+04  0.21975747067E+04  0.50400001928E-02 0. -1.
       -1    1    3    3    0  502  0.90463629444E+03  0.42422813870E+03  0.89761277268E+03  0.13431474337E+04  0.50400001928E-02 0.  1.
</event>
<event>
 5   0  0.1277635E-06  0.3387405E+04  0.7818609E-02  0.8141004E-01
        2   -1    0    0  501    0  0.00000000000E+00  0.00000000000E+00  0.18277092622E+04  0.18277092622E+04  0.25500000920E-02 0. -1.
       -2   -1    0    0    0  501  0.00000000000E+00  0.00000000000E+00 -0.15695211111E+04  0.15695211111E+04  0.25500000920E-02 0.  1.
    10030    2    1    2    0    0  0.00000000000E+00  0.00000000000E+00  0.25818815106E+03  0.33972303733E+04  0.33874050670E+04 0.  0.
        4    1    3    3  502    0  0.83318965259E+03 -0.66297115977E+03  0.14500671042E+04  0.17990086091E+04  0.12699999809E+01 0. -1.
       -4    1    3    3    0  502 -0.83318965259E+03  0.66297115977E+03 -0.11918789532E+04  0.15982217643E+04  0.12699999809E+01 0.  1.
</event>
<event>
 5   0  0.4464951E-07  0.3324889E+04  0.7818609E-02  0.8156591E-01
        1   -1    0    0  501    0  0.00000000000E+00  0.00000000000E+00  0.26385445401E+04  0.26385445401E+04  0.50400001928E-02 0. -1.
       -1   -1    0    0    0  501  0.00000000000E+00  0.00000000000E+00 -0.10474416478E+04  0.10474416478E+04  0.50400001928E-02 0.  1.
    10030    2    1    2    0    0  0.00000000000E+00  0.00000000000E+00  0.15911028923E+04  0.36859861880E+04  0.33248888348E+04 0.  0.
        3    1    3    3  502    0  0.29602964542E+03  0.97350032617E+03  0.22530120274E+04  0.24721245199E+04  0.10100000352E+00 0. -1.
       -3    1    3    3    0  502 -0.29602964542E+03 -0.97350032617E+03 -0.66190913506E+03  0.12138616681E+04  0.10100000352E+00 0.  1.
</event>
<event>
 5   0  0.4272633E-07  0.3386546E+04  0.7818609E-02  0.8141216E-01
        1   -1    0    0  501    0  0.00000000000E+00  0.00000000000E+00  0.25185552898E+04  0.25185552898E+04  0.50400001928E-02 0.  1.
       -1   -1    0    0    0  501  0.00000000000E+00  0.00000000000E+00 -0.11384201207E+04  0.11384201207E+04  0.50400001928E-02 0. -1.
    10030    2    1    2    0    0  0.00000000000E+00  0.00000000000E+00  0.13801351691E+04  0.36569754106E+04  0.33865463334E+04 0.  0.
        1    1    3    3  502    0 -0.90321222000E+03  0.13865250115E+04  0.30232618805E+03  0.16821548816E+04  0.50400001928E-02 0.  1.
       -1    1    3    3    0  502  0.90321222000E+03 -0.13865250115E+04  0.10778089811E+04  0.19748205289E+04  0.50400001928E-02 0. -1.
</event>
<event>
 5   0  0.4060750E-07  0.3406537E+04  0.7818609E-02  0.8136304E-01
       -3   -1    0    0    0  501  0.00000000000E+00  0.00000000000E+00  0.18247604904E+04  0.18247604932E+04  0.10100000352E+00 0.  1.
        3   -1    0    0  501    0  0.00000000000E+00  0.00000000000E+00 -0.15898649896E+04  0.15898649928E+04  0.10100000352E+00 0. -1.
    10030    2    1    2    0    0  0.00000000000E+00  0.00000000000E+00  0.23489550083E+03  0.34146254859E+04  0.34065365568E+04 0.  0.
        5    1    3    3  502    0 -0.38925491569E+03 -0.13313823581E+02  0.17795177512E+04  0.18216481999E+04  0.46999998093E+01 0.  1.
       -5    1    3    3    0  502  0.38925491569E+03  0.13313823581E+02 -0.15446222504E+04  0.15929772860E+04  0.46999998093E+01 0. -1.
</event>
<event>
 5   0  0.4272633E-07  0.3407301E+04  0.7818609E-02  0.8136117E-01
       -1   -1    0    0    0  501  0.00000000000E+00  0.00000000000E+00  0.16603251439E+04  0.16603251439E+04  0.50400001928E-02 0. -1.
        1   -1    0    0  501    0  0.00000000000E+00  0.00000000000E+00 -0.17481064553E+04  0.17481064553E+04  0.50400001928E-02 0.  1.
    10030    2    1    2    0    0  0.00000000000E+00  0.00000000000E+00 -0.87781311370E+02  0.34084315992E+04  0.34073010445E+04 0.  0.
        1    1    3    3  502    0  0.97276552162E+03 -0.16141030342E+03  0.13458503619E+04  0.16684241795E+04  0.50400001928E-02 0. -1.
       -1    1    3    3    0  502 -0.97276552162E+03  0.16141030342E+03 -0.14336316733E+04  0.17400074197E+04  0.50400001928E-02 0.  1.
</event>
<event>
 5   0  0.4289684E-07  0.3452457E+04  0.7818609E-02  0.8125150E-01
        1   -1    0    0  501    0  0.00000000000E+00  0.00000000000E+00  0.19812835271E+04  0.19812835271E+04  0.50400001928E-02 0.  1.
       -1   -1    0    0    0  501  0.00000000000E+00  0.00000000000E+00 -0.15040068920E+04  0.15040068920E+04  0.50400001928E-02 0. -1.
    10030    2    1    2    0    0  0.00000000000E+00  0.00000000000E+00  0.47727663508E+03  0.34852904191E+04  0.34524565630E+04 0.  0.
        4    1    3    3  502    0  0.58315108256E+03 -0.12429800417E+04  0.12949150824E+04  0.18872920422E+04  0.12699999809E+01 0.  1.
       -4    1    3    3    0  502 -0.58315108256E+03  0.12429800417E+04 -0.81763844727E+03  0.15979983769E+04  0.12699999809E+01 0. -1.
</event>
<event>
 5   0  0.4464951E-07  0.3340973E+04  0.7818609E-02  0.8152547E-01
       -1   -1    0    0    0  501  0.00000000000E+00  0.00000000000E+00  0.11207474727E+04  0.11207474727E+04  0.50400001928E-02 0. -1.
        1   -1    0    0  501    0  0.00000000000E+00  0.00000000000E+00 -0.24898786705E+04  0.24898786705E+04  0.50400001928E-02 0.  1.
    10030    2    1    2    0    0  0.00000000000E+00  0.00000000000E+00 -0.13691311978E+04  0.36106261432E+04  0.33409730483E+04 0.  0.
        3    1    3    3  502    0 -0.41091112694E+03  0.47231052971E+03  0.98917622016E+03  0.11706386272E+04  0.10100000352E+00 0. -1.
       -3    1    3    3    0  502  0.41091112694E+03 -0.47231052971E+03 -0.23583074180E+04  0.24399875161E+04  0.10100000352E+00 0.  1.
</event>
<event>
 5   0  0.1277635E-06  0.3401687E+04  0.7818609E-02  0.8137492E-01
       -2   -1    0    0    0  501  0.00000000000E+00  0.00000000000E+00  0.10857933125E+04  0.10857933125E+04  0.25500000920E-02 0.  1.
        2   -1    0    0  501    0  0.00000000000E+00  0.00000000000E+00 -0.26642903997E+04  0.26642903998E+04  0.25500000920E-02 0. -1.
    10030    2    1    2    0    0  0.00000000000E+00  0.00000000000E+00 -0.15784970872E+04  0.37500837123E+04  0.34016870513E+04 0.  0.
        4    1    3    3  502    0 -0.39063530621E+03  0.62187367889E+03  0.90200138631E+03  0.11631555909E+04  0.12699999809E+01 0.  1.
       -4    1    3    3    0  502  0.39063530621E+03 -0.62187367889E+03 -0.24804984735E+04  0.25869281213E+04  0.12699999809E+01 0. -1.
</event>
<event>
 5   0  0.4125758E-07  0.3539069E+04  0.7818609E-02  0.8104593E-01
       -1   -1    0    0    0  501  0.00000000000E+00  0.00000000000E+00  0.27371453014E+04  0.27371453014E+04  0.50400001928E-02 0. -1.
        1   -1    0    0  501    0  0.00000000000E+00  0.00000000000E+00 -0.11439847753E+04  0.11439847753E+04  0.50400001928E-02 0.  1.
    10030    2    1    2    0    0  0.00000000000E+00  0.00000000000E+00  0.15931605260E+04  0.38811300767E+04  0.35390691164E+04 0.  0.
        2    1    3    3  502    0  0.44690956187E+03  0.27070394009E+03 -0.10574584031E+04  0.11795028842E+04  0.25500000920E-02 0.  1.
       -2    1    3    3    0  502 -0.44690956187E+03 -0.27070394009E+03  0.26506189291E+04  0.27016271925E+04  0.25500000920E-02 0. -1.
</event>
<event>
 5   0  0.4464951E-07  0.3172355E+04  0.7818609E-02  0.8196157E-01
        1   -1    0    0  501    0  0.00000000000E+00  0.00000000000E+00  0.18753691989E+04  0.18753691989E+04  0.50400001928E-02 0.  1.
       -1   -1    0    0    0  501  0.00000000000E+00  0.00000000000E+00 -0.13415805486E+04  0.13415805486E+04  0.50400001928E-02 0. -1.
    10030    2    1    2    0    0  0.00000000000E+00  0.00000000000E+00  0.53378865027E+03  0.32169497475E+04  0.31723548595E+04 0.  0.
        3    1    3    3  502    0  0.13264291595E+03 -0.10822475347E+04  0.14350888091E+04  0.18023134494E+04  0.10100000352E+00 0.  1.
       -3    1    3    3    0  502 -0.13264291595E+03  0.10822475347E+04 -0.90130015881E+03  0.14146362981E+04  0.10100000352E+00 0. -1.
</event>
<event>
 5   0  0.1269497E-06  0.3427010E+04  0.7818609E-02  0.8131309E-01
        2   -1    0    0  501    0  0.00000000000E+00  0.00000000000E+00  0.10322611436E+04  0.10322611436E+04  0.25500000920E-02 0.  1.
       -2   -1    0    0    0  501  0.00000000000E+00  0.00000000000E+00 -0.28443379072E+04  0.28443379072E+04  0.25500000920E-02 0. -1.
    10030    2    1    2    0    0  0.00000000000E+00  0.00000000000E+00 -0.18120767637E+04  0.38765990508E+04  0.34270100676E+04 0.  0.
        5    1    3    3  502    0 -0.12615357475E+04 -0.27518640419E+03 -0.21802610825E+04  0.25339219556E+04  0.46999998093E+01 0. -1.
       -5    1    3    3    0  502  0.12615357475E+04  0.27518640419E+03  0.36818431888E+03  0.13426770952E+04  0.46999998093E+01 0.  1.
</event>
<event>
 5   0  0.4125758E-07  0.3280978E+04  0.7818609E-02  0.8167752E-01
        1   -1    0    0  501    0  0.00000000000E+00  0.00000000000E+00  0.26541293532E+04  0.26541293532E+04  0.50400001928E-02 0.  1.
       -1   -1    0    0    0  501  0.00000000000E+00  0.00000000000E+00 -0.10139689654E+04  0.10139689654E+04  0.50400001928E-02 0. -1.
    10030    2    1    2    0    0  0.00000000000E+00  0.00000000000E+00  0.16401603878E+04  0.36680983186E+04  0.32809783871E+04 0.  0.
        2    1    3    3  502    0  0.49395054758E+03  0.94226344026E+03  0.22161605348E+04  0.24582951512E+04  0.25500000920E-02 0.  1.
       -2    1    3    3    0  502 -0.49395054758E+03 -0.94226344026E+03 -0.57600014705E+03  0.12098031673E+04  0.25500000920E-02 0. -1.
</event>
<event>
 5   0  0.4109937E-07  0.3382933E+04  0.7818609E-02  0.8142108E-01
       -1   -1    0    0    0  501  0.00000000000E+00  0.00000000000E+00  0.10886730560E+04  0.10886730560E+04  0.50400001928E-02 0. -1.
        1   -1    0    0  501    0  0.00000000000E+00  0.00000000000E+00 -0.26280237465E+04  0.26280237465E+04  0.50400001928E-02 0.  1.
    10030    2    1    2    0    0  0.00000000000E+00  0.00000000000E+00 -0.15393506904E+04  0.37166968025E+04  0.33829328361E+04 0.  0.
        5    1    3    3  502    0 -0.73651924825E+03 -0.14076140634E+04 -0.14076547209E+04  0.21225814137E+04  0.46999998093E+01 0.  1.
       -5    1    3    3    0  502  0.73651924825E+03  0.14076140634E+04 -0.13169596955E+03  0.15941153888E+04  0.46999998093E+01 0. -1.
</event>
<event>
 5   0  0.4109937E-07  0.3499520E+04  0.7818609E-02  0.8113904E-01
       -1   -1    0    0    0  501  0.00000000000E+00  0.00000000000E+00  0.99488673391E+03  0.99488673392E+03  0.50400001928E-02 0. -1.
        1   -1    0    0  501    0  0.00000000000E+00  0.00000000000E+00 -0.30773953415E+04  0.30773953415E+04  0.50400001928E-02 0.  1.
    10030    2    1    2    0    0  0.00000000000E+00  0.00000000000E+00 -0.20825086076E+04  0.40722820754E+04  0.34995198529E+04 0.  0.
        5    1    3    3  502    0 -0.13096256691E+04 -0.55545224394E+03  0.14431299163E+03  0.14298583559E+04  0.46999998093E+01 0. -1.
       -5    1    3    3    0  502  0.13096256691E+04  0.55545224394E+03 -0.22268215992E+04  0.26424237195E+04  0.46999998093E+01 0.  1.
</event>
<event>
 5   0  0.1268230E-06  0.3390003E+04  0.7818609E-02  0.8140364E-01
        2   -1    0    0  501    0  0.00000000000E+00  0.00000000000E+00  0.21358856977E+04  0.21358856977E+04  0.25500000920E-02 0.  1.
       -2   -1    0    0    0  501  0.00000000000E+00  0.00000000000E+00 -0.13451233489E+04  0.13451233489E+04  0.25500000920E-02 0. -1.
    10030    2    1    2    0    0  0.00000000000E+00  0.00000000000E+00  0.79076234876E+03  0.34810090466E+04  0.33900027861E+04 0.  0.
        2    1    3    3  502    0  0.15683014943E+03  0.64326181910E+03 -0.12068427411E+04  0.13765358206E+04  0.25500000920E-02 0. -1.
       -2    1    3    3    0  502 -0.15683014943E+03 -0.64326181910E+03  0.19976050899E+04  0.21044732259E+04  0.25500000920E-02 0.  1.
</event>
<event>
 5   0  0.1268230E-06  0.3436911E+04  0.7818609E-02  0.8128906E-01
        2   -1    0    0  501    0  0.00000000000E+00  0.00000000000E+00  0.30611249277E+04  0.30611249277E+04  0.25500000920E-02 0.  1.
       -2   -1    0    0    0  501  0.00000000000E+00  0.00000000000E+00 -0.96470735625E+03  0.96470735625E+03  0.25500000920E-02 0. -1.
    10030    2    1    2    0    0  0.00000000000E+00  0.00000000000E+00  0.20964175715E+04  0.40258322840E+04  0.34369112506E+04 0.  0.
        2    1    3    3  502    0  0.11559358219E+04 -0.49780937113E+03  0.24187845035E+04  0.27266316708E+04  0.25500000920E-02 0.  1.
       -2    1    3    3    0  502 -0.11559358219E+04  0.49780937113E+03 -0.32236693197E+03  0.12992006131E+04  0.25500000920E-02 0. -1.
</event>
<event>
 5   0  0.1269497E-06  0.3379564E+04  0.7818609E-02  0.8142940E-01
       -2   -1    0    0    0  501  0.00000000000E+00  0.00000000000E+00  0.13825044766E+04  0.13825044766E+04  0.25500000920E-02 0. -1.
        2   -1    0    0  501    0  0.00000000000E+00  0.00000000000E+00 -0.20653549362E+04  0.20653549362E+04  0.25500000920E-02 0.  1.
    10030    2    1    2    0    0  0.00000000000E+00  0.00000000000E+00 -0.68285045960E+03  0.34478594128E+04  0.33795635488E+04 0.  0.
        5    1    3    3  502    0 -0.39505620325E+03  0.14402175462E+04  0.46514902588E+03  0.15641872299E+04  0.46999998093E+01 0. -1.
       -5    1    3    3    0  502  0.39505620325E+03 -0.14402175462E+04 -0.11479994855E+04  0.18836721829E+04  0.46999998093E+01 0.  1.
</event>
<event>
 5   0  0.1277635E-06  0.3285958E+04  0.7818609E-02  0.8166478E-01
       -2   -1    0    0    0  501  0.00000000000E+00  0.00000000000E+00  0.12149562852E+04  0.12149562852E+04  0.25500000920E-02 0.  1.
        2   -1    0    0  501    0  0.00000000000E+00  0.00000000000E+00 -0.22217914663E+04  0.22217914663E+04  0.25500000920E-02 0. -1.
    10030    2    1    2    0    0  0.00000000000E+00  0.00000000000E+00 -0.10068351810E+04  0.34367477515E+04  0.32859577029E+04 0.  0.
        4    1    3    3  502    0 -0.15822307622E+04 -0.42530085784E+03 -0.37513984670E+03  0.16807934204E+04  0.12699999809E+01 0.  1.
       -4    1    3    3    0  502  0.15822307622E+04  0.42530085784E+03 -0.63169533435E+03  0.17559543311E+04  0.12699999809E+01 0. -1.
</event>
<event>
 5   0  0.4272633E-07  0.3412973E+04  0.7818609E-02  0.8134730E-01
        1   -1    0    0  501    0  0.00000000000E+00  0.00000000000E+00  0.21150356720E+04  0.21150356720E+04  0.50400001928E-02 0. -1.
       -1   -1    0    0    0  501  0.00000000000E+00  0.00000000000E+00 -0.13768544231E+04  0.13768544231E+04  0.50400001928E-02 0.  1.
    10030    2    1    2    0    0  0.00000000000E+00  0.00000000000E+00  0.73818124890E+03  0.34918900952E+04  0.34129730266E+04 0.  0.
        1    1    3    3  502    0 -0.16913804995E+04 -0.21467968098E+03  0.29502289798E+03  0.17302872218E+04  0.50400001928E-02 0.  1.
       -1    1    3    3    0  502  0.16913804995E+04  0.21467968098E+03  0.44315835092E+03  0.17616028734E+04  0.50400001928E-02 0. -1.
</event>
<event>
 5   0  0.1277635E-06  0.3316514E+04  0.7818609E-02  0.8158706E-01
        2   -1    0    0  501    0  0.00000000000E+00  0.00000000000E+00  0.20676385415E+04  0.20676385415E+04  0.25500000920E-02 0. -1.
       -2   -1    0    0    0  501  0.00000000000E+00  0.00000000000E+00 -0.13299305302E+04  0.13299305302E+04  0.25500000920E-02 0.  1.
    10030    2    1    2    0    0  0.00000000000E+00  0.00000000000E+00  0.73770801127E+03  0.33975690717E+04  0.33165136042E+04 0.  0.
        4    1    3    3  502    0 -0.11427146301E+04 -0.11517920331E+04  0.17854508931E+02  0.16225726516E+04  0.12699999809E+01 0.  1.
       -4    1    3    3    0  502  0.11427146301E+04  0.11517920331E+04  0.71985350234E+03  0.17749964200E+04  0.12699999809E+01 0. -1.
</event>
<event>
 5   0  0.4289684E-07  0.3409305E+04  0.7818609E-02  0.8135626E-01
        1   -1    0    0  501    0  0.00000000000E+00  0.00000000000E+00  0.17689818307E+04  0.17689818307E+04  0.50400001928E-02 0. -1.
       -1   -1    0    0    0  501  0.00000000000E+00  0.00000000000E+00 -0.16426626549E+04  0.16426626549E+04  0.50400001928E-02 0.  1.
    10030    2    1    2    0    0  0.00000000000E+00  0.00000000000E+00  0.12631917585E+03  0.34116444856E+04  0.34093051435E+04 0.  0.
        4    1    3    3  502    0 -0.48830435609E+03 -0.31759866805E+03  0.16662977749E+04  0.17651798621E+04  0.12699999809E+01 0. -1.
       -4    1    3    3    0  502  0.48830435609E+03  0.31759866805E+03 -0.15399785990E+04  0.16464646235E+04  0.12699999809E+01 0.  1.
</event>
<event>
 5   0  0.1300176E-06  0.3339010E+04  0.7818609E-02  0.8153040E-01
       -2   -1    0    0    0  501  0.00000000000E+00  0.00000000000E+00  0.20839323227E+04  0.20839323227E+04  0.25500000920E-02 0. -1.
        2   -1    0    0  501    0  0.00000000000E+00  0.00000000000E+00 -0.13374941170E+04  0.13374941170E+04  0.25500000920E-02 0.  1.
    10030    2    1    2    0    0  0.00000000000E+00  0.00000000000E+00  0.74643820575E+03  0.34214264397E+04  0.33390101658E+04 0.  0.
        1    1    3    3  502    0 -0.11036532025E+04 -0.30955548715E+03 -0.87056701714E+03  0.14393616371E+04  0.50400001928E-02 0.  1.
       -1    1    3    3    0  502  0.11036532025E+04  0.30955548715E+03  0.16170052229E+04  0.19820648026E+04  0.50400001928E-02 0. -1.
</event>
<event>
 5   0  0.4464951E-07  0.3438166E+04  0.7818609E-02  0.8128602E-01
       -1   -1    0    0    0  501  0.00000000000E+00  0.00000000000E+00  0.25855318441E+04  0.25855318441E+04  0.50400001928E-02 0.  1.
        1   -1    0    0  501    0  0.00000000000E+00  0.00000000000E+00 -0.11429935846E+04  0.11429935846E+04  0.50400001928E-02 0. -1.
    10030    2    1    2    0    0  0.00000000000E+00  0.00000000000E+00  0.14425382595E+04  0.37285254287E+04  0.34381659707E+04 0.  0.
        3    1    3    3  502    0 -0.10739427977E+04  0.10496824476E+04 -0.18608721604E+03  0.15132134138E+04  0.10100000352E+00 0. -1.
       -3    1    3    3    0  502  0.10739427977E+04 -0.10496824476E+04  0.16286254755E+04  0.22153120149E+04  0.10100000352E+00 0.  1.
</event>
<event>
 5   0  0.1256208E-06  0.3580417E+04  0.7818609E-02  0.8094992E-01
        2   -1    0    0  501    0  0.00000000000E+00  0.00000000000E+00  0.15688738014E+04  0.15688738014E+04  0.25500000920E-02 0.  1.
       -2   -1    0    0    0  501  0.00000000000E+00  0.00000000000E+00 -0.20427682504E+04  0.20427682504E+04  0.25500000920E-02 0. -1.
    10030    2    1    2    0    0  0.00000000000E+00  0.00000000000E+00 -0.47389444896E+03  0.36116420518E+04  0.35804165067E+04 0.  0.
        3    1    3    3  502    0  0.26935593659E+03  0.12143395930E+03 -0.20180034837E+04  0.20395187906E+04  0.10100000352E+00 0. -1.
       -3    1    3    3    0  502 -0.26935593659E+03 -0.12143395930E+03  0.15441090347E+04  0.15721232612E+04  0.10100000352E+00 0.  1.
</event>
<event>
 5   0  0.4109937E-07  0.3480881E+04  0.7818609E-02  0.8118336E-01
       -1   -1    0    0    0  501  0.00000000000E+00  0.00000000000E+00  0.14150325907E+04  0.14150325907E+04  0.50400001928E-02 0.  1.
        1   -1    0    0  501    0  0.00000000000E+00  0.00000000000E+00 -0.21406803569E+04  0.21406803569E+04  0.50400001928E-02 0. -1.
    10030    2    1    2    0    0  0.00000000000E+00  0.00000000000E+00 -0.72564776625E+03  0.35557129476E+04  0.34808806192E+04 0.  0.
        5    1    3    3  502    0 -0.85288271237E+03  0.14608447065E+04  0.55409680261E+02  0.16925036190E+04  0.46999998093E+01 0. -1.
       -5    1    3    3    0  502  0.85288271237E+03 -0.14608447065E+04 -0.78105744651E+03  0.18632093286E+04  0.46999998093E+01 0.  1.
</event>
<event>
 5   0  0.1300176E-06  0.3392620E+04  0.7818609E-02  0.8139720E-01
        2   -1    0    0  501    0  0.00000000000E+00  0.00000000000E+00  0.17328254179E+04  0.17328254179E+04  0.25500000920E-02 0. -1.
       -2   -1    0    0    0  501  0.00000000000E+00  0.00000000000E+00 -0.16605643520E+04  0.16605643520E+04  0.25500000920E-02 0.  1.
    10030    2    1    2    0    0  0.00000000000E+00  0.00000000000E+00  0.72261065900E+02  0.33933897698E+04  0.33926202953E+04 0.  0.
        1    1    3    3  502    0  0.17436685161E+03  0.16400868917E+02 -0.16514970414E+04  0.16607574372E+04  0.50400001928E-02 0.  1.
       -1    1    3    3    0  502 -0.17436685161E+03 -0.16400868917E+02  0.17237581073E+04  0.17326323326E+04  0.50400001928E-02 0. -1.
</event>
<event>
 5   0  0.1256208E-06  0.3400499E+04  0.7818609E-02  0.8137784E-01
       -2   -1    0    0    0  501  0.00000000000E+00  0.00000000000E+00  0.14827502741E+04  0.14827502741E+04  0.25500000920E-02 0. -1.
        2   -1    0    0  501    0  0.00000000000E+00  0.00000000000E+00 -0.19496526932E+04  0.19496526932E+04  0.25500000920E-02 0.  1.
    10030    2    1    2    0    0  0.00000000000E+00  0.00000000000E+00 -0.46690241909E+03  0.34324029674E+04  0.34004988254E+04 0.  0.
        3    1    3    3  502    0  0.85798138773E+03 -0.49604513572E+03 -0.16279539800E+04  0.19058927068E+04  0.10100000352E+00 0.  1.
       -3    1    3    3    0  502 -0.85798138773E+03  0.49604513572E+03  0.11610515610E+04  0.15265102606E+04  0.10100000352E+00 0. -1.
</event>
<event>
 5   0  0.4060750E-07  0.3388034E+04  0.7818609E-02  0.8140849E-01
        3   -1    0    0  501    0  0.00000000000E+00  0.00000000000E+00  0.13619672773E+04  0.13619672811E+04  0.10100000352E+00 0. -1.
       -3   -1    0    0    0  501  0.00000000000E+00  0.00000000000E+00 -0.21070208139E+04  0.21070208163E+04  0.10100000352E+00 0.  1.
    10030    2    1    2    0    0  0.00000000000E+00  0.00000000000E+00 -0.74505353655E+03  0.34689880973E+04  0.33880338911E+04 0.  0.
        5    1    3    3  502    0  0.39652226978E+03 -0.16191547763E+04 -0.64031653330E+02  0.16682368665E+04  0.46999998093E+01 0. -1.
       -5    1    3    3    0  502 -0.39652226978E+03  0.16191547763E+04 -0.68102188322E+03  0.18007512309E+04  0.46999998093E+01 0.  1.
</event>
<event>
 5   0  0.4289684E-07  0.3398372E+04  0.7818609E-02  0.8138306E-01
       -1   -1    0    0    0  501  0.00000000000E+00  0.00000000000E+00  0.12016124465E+04  0.12016124465E+04  0.50400001928E-02 0. -1.
        1   -1    0    0  501    0  0.00000000000E+00  0.00000000000E+00 -0.24027986191E+04  0.24027986191E+04  0.50400001928E-02 0.  1.
    10030    2    1    2    0    0  0.00000000000E+00  0.00000000000E+00 -0.12011861726E+04  0.36044110656E+04  0.33983718025E+04 0.  0.
        4    1    3    3  502    0  0.84686907160E+03  0.10737045232E+04  0.46911955793E+03  0.14457189907E+04  0.12699999809E+01 0. -1.
       -4    1    3    3    0  502 -0.84686907160E+03 -0.10737045232E+04 -0.16703057305E+04  0.21586920748E+04  0.12699999809E+01 0.  1.
</event>
<event>
 5   0  0.4125758E-07  0.3396572E+04  0.7818609E-02  0.8138748E-01
       -1   -1    0    0    0  501  0.00000000000E+00  0.00000000000E+00  0.12008672586E+04  0.12008672586E+04  0.50400001928E-02 0. -1.
        1   -1    0    0  501    0  0.00000000000E+00  0.00000000000E+00 -0.24017443379E+04  0.24017443379E+04  0.50400001928E-02 0.  1.
    10030    2    1    2    0    0  0.00000000000E+00  0.00000000000E+00 -0.12008770793E+04  0.36026115965E+04  0.33965724718E+04 0.  0.
        2    1    3    3  502    0 -0.31009925895E+03 -0.58469779959E+02 -0.23703748739E+04  0.23912877929E+04  0.25500000920E-02 0.  1.
       -2    1    3    3    0  502  0.31009925895E+03  0.58469779959E+02  0.11694977946E+04  0.12113238036E+04  0.25500000920E-02 0. -1.
</event>
<event>
 5   0  0.1277635E-06  0.3403038E+04  0.7818609E-02  0.8137161E-01
       -2   -1    0    0    0  501  0.00000000000E+00  0.00000000000E+00  0.20264560141E+04  0.20264560141E+04  0.25500000920E-02 0. -1.
        2   -1    0    0  501    0  0.00000000000E+00  0.00000000000E+00 -0.14286848284E+04  0.14286848284E+04  0.25500000920E-02 0.  1.
    10030    2    1    2    0    0  0.00000000000E+00  0.00000000000E+00  0.59777118562E+03  0.34551408425E+04  0.34030380326E+04 0.  0.
        4    1    3    3  502    0  0.11281135517E+04 -0.12737794521E+04  0.29550721095E+03  0.17269859301E+04  0.12699999809E+01 0. -1.
       -4    1    3    3    0  502 -0.11281135517E+04  0.12737794521E+04  0.30226397468E+03  0.17281549124E+04  0.12699999809E+01 0.  1.
</event>
<event>
 5   0  0.1300176E-06  0.3427037E+04  0.7818609E-02  0.8131302E-01
       -2   -1    0    0    0  501  0.00000000000E+00  0.00000000000E+00  0.11436391882E+04  0.11436391882E+04  0.25500000920E-02 0. -1.
        2   -1    0    0  501    0  0.00000000000E+00  0.00000000000E+00 -0.25673701867E+04  0.25673701867E+04  0.25500000920E-02 0.  1.
    10030    2    1    2    0    0  0.00000000000E+00  0.00000000000E+00 -0.14237309985E+04  0.37110093748E+04  0.34270367118E+04 0.  0.
        1    1    3    3  502    0 -0.74397190432E+03  0.95935004471E+03  0.59759169188E+03  0.13531306415E+04  0.50400001928E-02 0. -1.
       -1    1    3    3    0  502  0.74397190432E+03 -0.95935004471E+03 -0.20213226903E+04  0.23578787334E+04  0.50400001928E-02 0.  1.
</event>
<event>
 5   0  0.4272633E-07  0.3408735E+04  0.7818609E-02  0.8135766E-01
       -1   -1    0    0    0  501  0.00000000000E+00  0.00000000000E+00  0.15071637174E+04  0.15071637174E+04  0.50400001928E-02 0.  1.
        1   -1    0    0  501    0  0.00000000000E+00  0.00000000000E+00 -0.19273739674E+04  0.19273739675E+04  0.50400001928E-02 0. -1.
    10030    2    1    2    0    0  0.00000000000E+00  0.00000000000E+00 -0.42021025004E+03  0.34345376849E+04  0.34087347293E+04 0.  0.
        1    1    3    3  502    0 -0.81651426459E+03  0.52789413419E+03  0.12003125882E+04  0.15447064674E+04  0.50400001928E-02 0.  1.
       -1    1    3    3    0  502  0.81651426459E+03 -0.52789413419E+03 -0.16205228382E+04  0.18898312174E+04  0.50400001928E-02 0. -1.
</event>
<event>
 5   0  0.1269497E-06  0.3411492E+04  0.7818609E-02  0.8135092E-01
       -2   -1    0    0    0  501  0.00000000000E+00  0.00000000000E+00  0.26284982135E+04  0.26284982135E+04  0.25500000920E-02 0.  1.
        2   -1    0    0  501    0  0.00000000000E+00  0.00000000000E+00 -0.11069320916E+04  0.11069320916E+04  0.25500000920E-02 0. -1.
    10030    2    1    2    0    0  0.00000000000E+00  0.00000000000E+00  0.15215661219E+04  0.37354303050E+04  0.34114917706E+04 0.  0.
        5    1    3    3  502    0  0.59136066647E+03  0.15831152898E+04  0.10142491470E+04  0.19709603955E+04  0.46999998093E+01 0. -1.
       -5    1    3    3    0  502 -0.59136066647E+03 -0.15831152898E+04  0.50731697493E+03  0.17644699095E+04  0.46999998093E+01 0.  1.
</event>
<event>
 5   0  0.4289684E-07  0.3406512E+04  0.7818609E-02  0.8136310E-01
        1   -1    0    0  501    0  0.00000000000E+00  0.00000000000E+00  0.16033978073E+04  0.16033978073E+04  0.50400001928E-02 0.  1.
       -1   -1    0    0    0  501  0.00000000000E+00  0.00000000000E+00 -0.18093334274E+04  0.18093334274E+04  0.50400001928E-02 0. -1.
    10030    2    1    2    0    0  0.00000000000E+00  0.00000000000E+00 -0.20593562012E+03  0.34127312347E+04  0.34065121460E+04 0.  0.
        4    1    3    3  502    0 -0.93637207230E+03 -0.34837459023E+02 -0.15279123386E+04  0.17923515374E+04  0.12699999809E+01 0. -1.
       -4    1    3    3    0  502  0.93637207230E+03  0.34837459023E+02  0.13219767185E+04  0.16203796973E+04  0.12699999809E+01 0.  1.
</event>
<event>
 5   0  0.4109937E-07  0.3352308E+04  0.7818609E-02  0.8149712E-01
        1   -1    0    0  501    0  0.00000000000E+00  0.00000000000E+00  0.16770887255E+04  0.16770887255E+04  0.50400001928E-02 0. -1.
       -1   -1    0    0    0  501  0.00000000000E+00  0.00000000000E+00 -0.16752194143E+04  0.16752194143E+04  0.50400001928E-02 0.  1.
    10030    2    1    2    0    0  0.00000000000E+00  0.00000000000E+00  0.18693112133E+01  0.33523081398E+04  0.33523076186E+04 0.  0.
        5    1    3    3  502    0 -0.98512766214E+02  0.45931063464E+03 -0.16080399505E+04  0.16752568748E+04  0.46999998093E+01 0.  1.
       -5    1    3    3    0  502  0.98512766214E+02 -0.45931063464E+03  0.16099092617E+04  0.16770512649E+04  0.46999998093E+01 0. -1.
</event>
<event>
 5   0  0.4125758E-07  0.3267357E+04  0.7818609E-02  0.8171251E-01
        1   -1    0    0  501    0  0.00000000000E+00  0.00000000000E+00  0.21297206906E+04  0.21297206906E+04  0.50400001928E-02 0.  1.
       -1   -1    0    0    0  501  0.00000000000E+00  0.00000000000E+00 -0.12531718216E+04  0.12531718216E+04  0.50400001928E-02 0. -1.
    10030    2    1    2    0    0  0.00000000000E+00  0.00000000000E+00  0.87654886902E+03  0.33828925122E+04  0.32673573159E+04 0.  0.
        2    1    3    3  502    0 -0.84851817165E+03 -0.66564962315E+03 -0.83224126963E+03  0.13622400814E+04  0.25500000920E-02 0. -1.
       -2    1    3    3    0  502  0.84851817165E+03  0.66564962315E+03  0.17087901387E+04  0.20206524309E+04  0.25500000920E-02 0.  1.
</event>
<event>
 5   0  0.1277635E-06  0.3405960E+04  0.7818609E-02  0.8136445E-01
       -2   -1    0    0    0  501  0.00000000000E+00  0.00000000000E+00  0.12055540053E+04  0.12055540053E+04  0.25500000920E-02 0.  1.
        2   -1    0    0  501    0  0.00000000000E+00  0.00000000000E+00 -0.24056496141E+04  0.24056496141E+04  0.25500000920E-02 0. -1.
    10030    2    1    2    0    0  0.00000000000E+00  0.00000000000E+00 -0.12000956088E+04  0.36112036195E+04  0.34059597929E+04 0.  0.
        4    1    3    3  502    0  0.10610348034E+04  0.56782904893E+03 -0.18776126159E+04  0.22301693727E+04  0.12699999809E+01 0. -1.
       -4    1    3    3    0  502 -0.10610348034E+04 -0.56782904893E+03  0.67751700712E+03  0.13810342467E+04  0.12699999809E+01 0.  1.
</event>
<event>
 5   0  0.4272633E-07  0.3382577E+04  0.7818609E-02  0.8142196E-01
       -1   -1    0    0    0  501  0.00000000000E+00  0.00000000000E+00  0.12694012902E+04  0.12694012902E+04  0.50400001928E-02 0.  1.
        1   -1    0    0  501    0  0.00000000000E+00  0.00000000000E+00 -0.22533902763E+04  0.22533902763E+04  0.50400001928E-02 0. -1.
    10030    2    1    2    0    0  0.00000000000E+00  0.00000000000E+00 -0.98398898608E+03  0.35227915665E+04  0.33825768427E+04 0.  0.
        1    1    3    3  502    0 -0.66723907243E+03 -0.12960700321E+04  0.40113854120E+03  0.15119251427E+04  0.50400001928E-02 0.  1.
       -1    1    3    3    0  502  0.66723907243E+03  0.12960700321E+04 -0.13851275273E+04  0.20108664239E+04  0.50400001928E-02 0. -1.
</event>
<event>
 5   0  0.4464951E-07  0.3385506E+04  0.7818609E-02  0.8141473E-01
       -1   -1    0    0    0  501  0.00000000000E+00  0.00000000000E+00  0.14958330284E+04  0.14958330284E+04  0.50400001928E-02 0.  1.
        1   -1    0    0  501    0  0.00000000000E+00  0.00000000000E+00 -0.19155961603E+04  0.19155961603E+04  0.50400001928E-02 0. -1.
    10030    2    1    2    0    0  0.00000000000E+00  0.00000000000E+00 -0.41976313191E+03  0.34114291888E+04  0.33855055786E+04 0.  0.
        3    1    3    3  502    0  0.67061177015E+03 -0.13396260291E+04  0.58424820441E+03  0.16080000058E+04  0.10100000352E+00 0.  1.
       -3    1    3    3    0  502 -0.67061177015E+03  0.13396260291E+04 -0.10040113363E+04  0.18034291829E+04  0.10100000352E+00 0. -1.
</event>
<event>
 5   0  0.1268230E-06  0.3388685E+04  0.7818609E-02  0.8140689E-01
       -2   -1    0    0    0  501  0.00000000000E+00  0.00000000000E+00  0.17360211629E+04  0.17360211629E+04  0.25500000920E-02 0.  1.
        2   -1    0    0  501    0  0.00000000000E+00  0.00000000000E+00 -0.16536646743E+04  0.16536646743E+04  0.25500000920E-02 0. -1.
    10030    2    1    2    0    0  0.00000000000E+00  0.00000000000E+00  0.82356488593E+02  0.33896858373E+04  0.33886852147E+04 0.  0.
        2    1    3    3  502    0  0.57696956501E+03  0.37782317491E+03  0.15892633024E+04  0.17324555045E+04  0.25500000920E-02 0.  1.
       -2    1    3    3    0  502 -0.57696956501E+03 -0.37782317491E+03 -0.15069068138E+04  0.16572303328E+04  0.25500000920E-02 0. -1.
</event>
<event>
 5   0  0.1277635E-06  0.3386719E+04  0.7818609E-02  0.8141174E-01
       -2   -1    0    0    0  501  0.00000000000E+00  0.00000000000E+00  0.16986838290E+04  0.16986838290E+04  0.25500000920E-02 0. -1.
        2   -1    0    0  501    0  0.00000000000E+00  0.00000000000E+00 -0.16880519745E+04  0.16880519745E+04  0.25500000920E-02 0.  1.
    10030    2    1    2    0    0  0.00000000000E+00  0.00000000000E+00  0.10631854500E+02  0.33867358034E+04  0.33867191153E+04 0.  0.
        4    1    3    3  502    0 -0.10555938666E+04  0.94854804191E+03 -0.91850850973E+03  0.16904677738E+04  0.12699999809E+01 0.  1.
       -4    1    3    3    0  502  0.10555938666E+04 -0.94854804191E+03  0.92914036423E+03  0.16962680296E+04  0.12699999809E+01 0. -1.
</event>
<event>
 5   0  0.4109937E-07  0.3394670E+04  0.7818609E-02  0.8139216E-01
        1   -1    0    0  501    0  0.00000000000E+00  0.00000000000E+00  0.22818981138E+04  0.22818981138E+04  0.50400001928E-02 0. -1.
       -1   -1    0    0    0  501  0.00000000000E+00  0.00000000000E+00 -0.12625221438E+04  0.12625221438E+04  0.50400001928E-02 0.  1.
    10030    2    1    2    0    0  0.00000000000E+00  0.00000000000E+00  0.10193759700E+04  0.35444202576E+04  0.33946704692E+04 0.  0.
        5    1    3    3  502    0  0.16327945051E+04  0.28515012989E+03  0.89132002499E+03  0.18819675793E+04  0.46999998093E+01 0. -1.
       -5    1    3    3    0  502 -0.16327945051E+04 -0.28515012989E+03  0.12805594504E+03  0.16624526783E+04  0.46999998093E+01 0.  1.
</event>
<event>
 5   0  0.1277635E-06  0.3434434E+04  0.7818609E-02  0.8129506E-01
       -2   -1    0    0    0  501  0.00000000000E+00  0.00000000000E+00  0.30524365368E+04  0.30524365368E+04  0.25500000920E-02 0.  1.
        2   -1    0    0  501    0  0.00000000000E+00  0.00000000000E+00 -0.96605923246E+03  0.96605923246E+03  0.25500000920E-02 0. -1.
    10030    2    1    2    0    0  0.00000000000E+00  0.00000000000E+00  0.20863773043E+04  0.40184957693E+04  0.34344341589E+04 0.  0.
        4    1    3    3  502    0  0.11504238031E+04  0.12653510853E+04  0.12253749599E+04  0.21038378505E+04  0.12699999809E+01 0. -1.
       -4    1    3    3    0  502 -0.11504238031E+04 -0.12653510853E+04  0.86100234443E+03  0.19146579188E+04  0.12699999809E+01 0.  1.
</event>
<event>
 5   0  0.4125758E-07  0.3448601E+04  0.7818609E-02  0.8126080E-01
        1   -1    0    0  501    0  0.00000000000E+00  0.00000000000E+00  0.13407961723E+04  0.13407961723E+04  0.50400001928E-02 0. -1.
       -1   -1    0    0    0  501  0.00000000000E+00  0.00000000000E+00 -0.22174970867E+04  0.22174970867E+04  0.50400001928E-02 0.  1.
    10030    2    1    2    0    0  0.00000000000E+00  0.00000000000E+00 -0.87670091437E+03  0.35582932590E+04  0.34486006472E+04 0.  0.
        2    1    3    3  502    0 -0.10943305644E+04 -0.56877461369E+03 -0.16817314447E+04  0.20854938497E+04  0.25500000920E-02 0.  1.
       -2    1    3    3    0  502  0.10943305644E+04  0.56877461369E+03  0.80503053030E+03  0.14727994093E+04  0.25500000920E-02 0. -1.
</event>
<event>
 5   0  0.1269497E-06  0.3468844E+04  0.7818609E-02  0.8121213E-01
        2   -1    0    0  501    0  0.00000000000E+00  0.00000000000E+00  0.19814071107E+04  0.19814071107E+04  0.25500000920E-02 0. -1.
       -2   -1    0    0    0  501  0.00000000000E+00  0.00000000000E+00 -0.15182240643E+04  0.15182240643E+04  0.25500000920E-02 0.  1.
    10030    2    1    2    0    0  0.00000000000E+00  0.00000000000E+00  0.46318304631E+03  0.34996311750E+04  0.34688441629E+04 0.  0.
        5    1    3    3  502    0 -0.13207290461E+03 -0.36873703650E+03  0.19361989987E+04  0.19754237284E+04  0.46999998093E+01 0. -1.
       -5    1    3    3    0  502  0.13207290461E+03  0.36873703650E+03 -0.14730159524E+04  0.15242074466E+04  0.46999998093E+01 0.  1.
</event>
<event>
 5   0  0.4289684E-07  0.3408280E+04  0.7818609E-02  0.8135877E-01
       -1   -1    0    0    0  501  0.00000000000E+00  0.00000000000E+00  0.13719610026E+04  0.13719610026E+04  0.50400001928E-02 0. -1.
        1   -1    0    0  501    0  0.00000000000E+00  0.00000000000E+00 -0.21167465695E+04  0.21167465695E+04  0.50400001928E-02 0.  1.
    10030    2    1    2    0    0  0.00000000000E+00  0.00000000000E+00 -0.74478556694E+03  0.34887075721E+04  0.34082803557E+04 0.  0.
        4    1    3    3  502    0  0.11872138852E+03 -0.55509630466E+03  0.12723426926E+04  0.13932279841E+04  0.12699999809E+01 0. -1.
       -4    1    3    3    0  502 -0.11872138852E+03  0.55509630466E+03 -0.20171282595E+04  0.20954795880E+04  0.12699999809E+01 0.  1.
</event>
<event>
 5   0  0.1256208E-06  0.2876228E+04  0.7818609E-02  0.8279986E-01
        2   -1    0    0  501    0  0.00000000000E+00  0.00000000000E+00  0.20259138403E+04  0.20259138403E+04  0.25500000920E-02 0. -1.
       -2   -1    0    0    0  501  0.00000000000E+00  0.00000000000E+00 -0.10208585248E+04  0.10208585248E+04  0.25500000920E-02 0.  1.
    10030    2    1    2    0    0  0.00000000000E+00  0.00000000000E+00  0.10050553155E+04  0.30467723650E+04  0.28762276783E+04 0.  0.
        3    1    3    3  502    0  0.11892749750E+04  0.63379356446E+02  0.13564133719E+04  0.18050620916E+04  0.10100000352E+00 0. -1.
       -3    1    3    3    0  502 -0.11892749750E+04 -0.63379356446E+02 -0.35135805637E+03  0.12417102734E+04  0.10100000352E+00 0.  1.
</event>
<event>
 5   0  0.4125758E-07  0.3392091E+04  0.7818609E-02  0.8139850E-01
       -1   -1    0    0    0  501  0.00000000000E+00  0.00000000000E+00  0.28389718066E+04  0.28389718066E+04  0.50400001928E-02 0.  1.
        1   -1    0    0  501    0  0.00000000000E+00  0.00000000000E+00 -0.10132439030E+04  0.10132439030E+04  0.50400001928E-02 0. -1.
    10030    2    1    2    0    0  0.00000000000E+00  0.00000000000E+00  0.18257279036E+04  0.38522157096E+04  0.33920913159E+04 0.  0.
        2    1    3    3  502    0 -0.10755947410E+04  0.68892537727E+03 -0.35430996252E+03  0.13255405583E+04  0.25500000920E-02 0. -1.
       -2    1    3    3    0  502  0.10755947410E+04 -0.68892537727E+03  0.21800378661E+04  0.25266751513E+04  0.25500000920E-02 0.  1.
</event>
<event>
 5   0  0.1268230E-06  0.3396241E+04  0.7818609E-02  0.8138830E-01
        2   -1    0    0  501    0  0.00000000000E+00  0.00000000000E+00  0.28518337342E+04  0.28518337342E+04  0.25500000920E-02 0.  1.
       -2   -1    0    0    0  501  0.00000000000E+00  0.00000000000E+00 -0.10111433738E+04  0.10111433738E+04  0.25500000920E-02 0. -1.
    10030    2    1    2    0    0  0.00000000000E+00  0.00000000000E+00  0.18406903603E+04  0.38629771080E+04  0.33962407356E+04 0.  0.
        2    1    3    3  502    0 -0.34791094018E+03  0.95231071270E+02 -0.96706524902E+03  0.10321463923E+04  0.25500000920E-02 0. -1.
       -2    1    3    3    0  502  0.34791094018E+03 -0.95231071270E+02  0.28077556093E+04  0.28308307157E+04  0.25500000920E-02 0.  1.
</event>
<event>
 5   0  0.1277635E-06  0.3370957E+04  0.7818609E-02  0.8145071E-01
       -2   -1    0    0    0  501  0.00000000000E+00  0.00000000000E+00  0.18480443893E+04  0.18480443893E+04  0.25500000920E-02 0.  1.
        2   -1    0    0  501    0  0.00000000000E+00  0.00000000000E+00 -0.15372127354E+04  0.15372127354E+04  0.25500000920E-02 0. -1.
    10030    2    1    2    0    0  0.00000000000E+00  0.00000000000E+00  0.31083165391E+03  0.33852571246E+04  0.33709567608E+04 0.  0.
        4    1    3    3  502    0  0.12085358670E+04 -0.11628456728E+04 -0.12826241112E+02  0.16771807076E+04  0.12699999809E+01 0. -1.
       -4    1    3    3    0  502 -0.12085358670E+04  0.11628456728E+04  0.32365789502E+03  0.17080764170E+04  0.12699999809E+01 0.  1.
</event>
<event>
 5   0  0.1269497E-06  0.3385219E+04  0.7818609E-02  0.8141544E-01
        2   -1    0    0  501    0  0.00000000000E+00  0.00000000000E+00  0.23117556827E+04  0.23117556827E+04  0.25500000920E-02 0. -1.
       -2   -1    0    0    0  501  0.00000000000E+00  0.00000000000E+00 -0.12392864640E+04  0.12392864640E+04  0.25500000920E-02 0.  1.
    10030    2    1    2    0    0  0.00000000000E+00  0.00000000000E+00  0.10724692188E+04  0.35510421467E+04  0.33852193581E+04 0.  0.
        5    1    3    3  502    0 -0.70782506037E+03 -0.14685917454E+04  0.58828696887E+02  0.16313371620E+04  0.46999998093E+01 0.  1.
       -5    1    3    3    0  502  0.70782506037E+03  0.14685917454E+04  0.10136405219E+04  0.19197049847E+04  0.46999998093E+01 0. -1.
</event>
<event>
 5   0  0.4272633E-07  0.3367401E+04  0.7818609E-02  0.8145954E-01
        1   -1    0    0  501    0  0.00000000000E+00  0.00000000000E+00  0.25019246711E+04  0.25019246711E+04  0.50400001928E-02 0.  1.
       -1   -1    0    0    0  501  0.00000000000E+00  0.00000000000E+00 -0.11330664216E+04  0.11330664216E+04  0.50400001928E-02 0. -1.
    10030    2    1    2    0    0  0.00000000000E+00  0.00000000000E+00  0.13688582495E+04  0.36349910927E+04  0.33674006796E+04 0.  0.
        1    1    3    3  502    0  0.30249151888E+03 -0.16322849389E+04  0.38104070994E+03  0.17032460960E+04  0.50400001928E-02 0. -1.
       -1    1    3    3    0  502 -0.30249151888E+03  0.16322849389E+04  0.98781753956E+03  0.19317449967E+04  0.50400001928E-02 0.  1.
</event>
<event>
 5   0  0.4125758E-07  0.3097943E+04  0.7818609E-02  0.8216303E-01
       -1   -1    0    0    0  501  0.00000000000E+00  0.00000000000E+00  0.20061964968E+04  0.20061964969E+04  0.50400001928E-02 0.  1.
        1   -1    0    0  501    0  0.00000000000E+00  0.00000000000E+00 -0.11959506209E+04  0.11959506209E+04  0.50400001928E-02 0. -1.
    10030    2    1    2    0    0  0.00000000000E+00  0.00000000000E+00  0.81024587595E+03  0.32021471178E+04  0.30979425082E+04 0.  0.
        2    1    3    3  502    0  0.13515175584E+04 -0.74281000353E+03  0.55471675611E+03  0.16389255906E+04  0.25500000920E-02 0. -1.
       -2    1    3    3    0  502 -0.13515175584E+04  0.74281000353E+03  0.25552911984E+03  0.15632215272E+04  0.25500000920E-02 0.  1.
</event>
<event>
 5   0  0.1269497E-06  0.3394491E+04  0.7818609E-02  0.8139260E-01
       -2   -1    0    0    0  501  0.00000000000E+00  0.00000000000E+00  0.17314695942E+04  0.17314695942E+04  0.25500000920E-02 0.  1.
        2   -1    0    0  501    0  0.00000000000E+00  0.00000000000E+00 -0.16636976345E+04  0.16636976345E+04  0.25500000920E-02 0. -1.
    10030    2    1    2    0    0  0.00000000000E+00  0.00000000000E+00  0.67771959651E+02  0.33951672287E+04  0.33944907530E+04 0.  0.
        5    1    3    3  502    0 -0.36950375020E+03 -0.11084756489E+04 -0.11973623855E+04  0.16730062934E+04  0.46999998093E+01 0. -1.
       -5    1    3    3    0  502  0.36950375020E+03  0.11084756489E+04  0.12651343452E+04  0.17221609353E+04  0.46999998093E+01 0.  1.
</event>
<event>
 5   0  0.4464951E-07  0.3385022E+04  0.7818609E-02  0.8141592E-01
       -1   -1    0    0    0  501  0.00000000000E+00  0.00000000000E+00  0.14483422789E+04  0.14483422789E+04  0.50400001928E-02 0. -1.
        1   -1    0    0  501    0  0.00000000000E+00  0.00000000000E+00 -0.19778428839E+04  0.19778428839E+04  0.50400001928E-02 0.  1.
    10030    2    1    2    0    0  0.00000000000E+00  0.00000000000E+00 -0.52950060494E+03  0.34261851628E+04  0.33850219909E+04 0.  0.
        3    1    3    3  502    0  0.26983301019E+03  0.48095760207E+03 -0.18843534831E+04  0.19633945421E+04  0.10100000352E+00 0.  1.
       -3    1    3    3    0  502 -0.26983301019E+03 -0.48095760207E+03  0.13548528782E+04  0.14627906207E+04  0.10100000352E+00 0. -1.
</event>
<event>
 5   0  0.1300176E-06  0.3419793E+04  0.7818609E-02  0.8133066E-01
        2   -1    0    0  501    0  0.00000000000E+00  0.00000000000E+00  0.14293996858E+04  0.14293996858E+04  0.25500000920E-02 0. -1.
       -2   -1    0    0    0  501  0.00000000000E+00  0.00000000000E+00 -0.20454360474E+04  0.20454360474E+04  0.25500000920E-02 0.  1.
    10030    2    1    2    0    0  0.00000000000E+00  0.00000000000E+00 -0.61603636152E+03  0.34748357332E+04  0.34197927677E+04 0.  0.
        1    1    3    3  502    0  0.16012109419E+04 -0.32971476112E+02 -0.91664325395E+03  0.18453179817E+04  0.50400001928E-02 0.  1.
       -1    1    3    3    0  502 -0.16012109419E+04  0.32971476112E+02  0.30060689243E+03  0.16295177515E+04  0.50400001928E-02 0. -1.
</event>
<event>
 5   0  0.4272633E-07  0.3387862E+04  0.7818609E-02  0.8140892E-01
       -1   -1    0    0    0  501  0.00000000000E+00  0.00000000000E+00  0.11722127287E+04  0.11722127287E+04  0.50400001928E-02 0.  1.
        1   -1    0    0  501    0  0.00000000000E+00  0.00000000000E+00 -0.24478516728E+04  0.24478516728E+04  0.50400001928E-02 0. -1.
    10030    2    1    2    0    0  0.00000000000E+00  0.00000000000E+00 -0.12756389441E+04  0.36200644014E+04  0.33878623872E+04 0.  0.
        1    1    3    3  502    0 -0.70933413942E+03  0.20818096520E+03 -0.22663901134E+04  0.23839082159E+04  0.50400001928E-02 0. -1.
       -1    1    3    3    0  502  0.70933413942E+03 -0.20818096520E+03  0.99075116928E+03  0.12361561856E+04  0.50400001928E-02 0.  1.
</event>
<event>
 5   0  0.1300176E-06  0.3400532E+04  0.7818609E-02  0.8137776E-01
        2   -1    0    0  501    0  0.00000000000E+00  0.00000000000E+00  0.17481581263E+04  0.17481581263E+04  0.25500000920E-02 0. -1.
       -2   -1    0    0    0  501  0.00000000000E+00  0.00000000000E+00 -0.16536855786E+04  0.16536855786E+04  0.25500000920E-02 0.  1.
    10030    2    1    2    0    0  0.00000000000E+00  0.00000000000E+00  0.94472547628E+02  0.34018437049E+04  0.34005316541E+04 0.  0.
        1    1    3    3  502    0  0.31056556565E+03 -0.89513979198E+03  0.14595804404E+04  0.17401440399E+04  0.50400001928E-02 0. -1.
       -1    1    3    3    0  502 -0.31056556565E+03  0.89513979198E+03 -0.13651078928E+04  0.16616996650E+04  0.50400001928E-02 0.  1.
</event>
<event>
 5   0  0.1300176E-06  0.3371221E+04  0.7818609E-02  0.8145006E-01
       -2   -1    0    0    0  501  0.00000000000E+00  0.00000000000E+00  0.28713239930E+04  0.28713239930E+04  0.25500000920E-02 0.  1.
        2   -1    0    0  501    0  0.00000000000E+00  0.00000000000E+00 -0.98953763331E+03  0.98953763331E+03  0.25500000920E-02 0. -1.
    10030    2    1    2    0    0  0.00000000000E+00  0.00000000000E+00  0.18817863597E+04  0.38608616264E+04  0.33712212319E+04 0.  0.
        1    1    3    3  502    0 -0.83302463328E+03 -0.62647323552E+03 -0.57623138096E+03  0.11909833579E+04  0.50400001928E-02 0. -1.
       -1    1    3    3    0  502  0.83302463328E+03  0.62647323552E+03  0.24580177407E+04  0.26698782684E+04  0.50400001928E-02 0.  1.
</event>
<event>
 5   0  0.1269497E-06  0.3397407E+04  0.7818609E-02  0.8138543E-01
       -2   -1    0    0    0  501  0.00000000000E+00  0.00000000000E+00  0.14127557073E+04  0.14127557073E+04  0.25500000920E-02 0. -1.
        2   -1    0    0  501    0  0.00000000000E+00  0.00000000000E+00 -0.20425277540E+04  0.20425277540E+04  0.25500000920E-02 0.  1.
    10030    2    1    2    0    0  0.00000000000E+00  0.00000000000E+00 -0.62977204673E+03  0.34552834613E+04  0.33974065060E+04 0.  0.
        5    1    3    3  502    0  0.14184478375E+04  0.43381511490E+03  0.52709469065E+03  0.15741793813E+04  0.46999998093E+01 0.  1.
       -5    1    3    3    0  502 -0.14184478375E+04 -0.43381511490E+03 -0.11568667374E+04  0.18811040800E+04  0.46999998093E+01 0. -1.
</event>
<event>
 5   0  0.1256208E-06  0.3310564E+04  0.7818609E-02  0.8160213E-01
       -2   -1    0    0    0  501  0.00000000000E+00  0.00000000000E+00  0.11187185970E+04  0.11187185970E+04  0.25500000920E-02 0.  1.
        2   -1    0    0  501    0  0.00000000000E+00  0.00000000000E+00 -0.24491933896E+04  0.24491933896E+04  0.25500000920E-02 0. -1.
    10030    2    1    2    0    0  0.00000000000E+00  0.00000000000E+00 -0.13304747926E+04  0.35679119866E+04  0.33105638146E+04 0.  0.
        3    1    3    3  502    0 -0.10065519782E+04  0.91612717248E+03  0.35007995055E+03  0.14053440372E+04  0.10100000352E+00 0.  1.
       -3    1    3    3    0  502  0.10065519782E+04 -0.91612717248E+03 -0.16805547431E+04  0.21625679494E+04  0.10100000352E+00 0. -1.
</event>
<event>
 5   0  0.4125758E-07  0.3455376E+04  0.7818609E-02  0.8124447E-01
        1   -1    0    0  501    0  0.00000000000E+00  0.00000000000E+00  0.26082507380E+04  0.26082507380E+04  0.50400001928E-02 0. -1.
       -1   -1    0    0    0  501  0.00000000000E+00  0.00000000000E+00 -0.11444088738E+04  0.11444088738E+04  0.50400001928E-02 0.  1.
    10030    2    1    2    0    0  0.00000000000E+00  0.00000000000E+00  0.14638418642E+04  0.37526596118E+04  0.34553756899E+04 0.  0.
        2    1    3    3  502    0  0.11233936632E+04  0.11113921080E+04  0.14903589189E+04  0.21721821856E+04  0.25500000920E-02 0. -1.
       -2    1    3    3    0  502 -0.11233936632E+04 -0.11113921080E+04 -0.26517054668E+02  0.15804774261E+04  0.25500000920E-02 0.  1.
</event>
<event>
 5   0  0.4464951E-07  0.3397303E+04  0.7818609E-02  0.8138569E-01
        1   -1    0    0  501    0  0.00000000000E+00  0.00000000000E+00  0.24837352959E+04  0.24837352959E+04  0.50400001928E-02 0.  1.
       -1   -1    0    0    0  501  0.00000000000E+00  0.00000000000E+00 -0.11617245606E+04  0.11617245606E+04  0.50400001928E-02 0. -1.
    10030    2    1    2    0    0  0.00000000000E+00  0.00000000000E+00  0.13220107353E+04  0.36454598565E+04  0.33973026332E+04 0.  0.
        3    1    3    3  502    0 -0.81493305683E+03  0.30303002584E+03 -0.90485911692E+03  0.12548757370E+04  0.10100000352E+00 0. -1.
       -3    1    3    3    0  502  0.81493305683E+03 -0.30303002584E+03  0.22268698522E+04  0.23905841195E+04  0.10100000352E+00 0.  1.
</event>
<event>
 5   0  0.4125758E-07  0.3377204E+04  0.7818609E-02  0.8143524E-01
       -1   -1    0    0    0  501  0.00000000000E+00  0.00000000000E+00  0.12584880283E+04  0.12584880283E+04  0.50400001928E-02 0. -1.
        1   -1    0    0  501    0  0.00000000000E+00  0.00000000000E+00 -0.22657161732E+04  0.22657161732E+04  0.50400001928E-02 0.  1.
    10030    2    1    2    0    0  0.00000000000E+00  0.00000000000E+00 -0.10072281448E+04  0.35242042015E+04  0.33772039793E+04 0.  0.
        2    1    3    3  502    0  0.13148276511E+04 -0.10595271624E+04 -0.50082970206E+03  0.17613063193E+04  0.25500000920E-02 0. -1.
       -2    1    3    3    0  502 -0.13148276511E+04  0.10595271624E+04 -0.50639844277E+03  0.17628978822E+04  0.25500000920E-02 0.  1.
</event>
<event>
 5   0  0.4272633E-07  0.3399707E+04  0.7818609E-02  0.8137978E-01
       -1   -1    0    0    0  501  0.00000000000E+00  0.00000000000E+00  0.21899919463E+04  0.21899919463E+04  0.50400001928E-02 0.  1.
        1   -1    0    0  501    0  0.00000000000E+00  0.00000000000E+00 -0.13194119313E+04  0.13194119313E+04  0.50400001928E-02 0. -1.
    10030    2    1    2    0    0  0.00000000000E+00  0.00000000000E+00  0.87058001500E+03  0.35094038777E+04  0.33997067541E+04 0.  0.
        1    1    3    3  502    0 -0.52692629153E+03 -0.82741993708E+03 -0.99774983625E+03  0.13992068484E+04  0.50400001928E-02 0. -1.
       -1    1    3    3    0  502  0.52692629153E+03  0.82741993708E+03  0.18683298512E+04  0.21101970292E+04  0.50400001928E-02 0.  1.
</event>
<event>
 5   0  0.1300176E-06  0.3370031E+04  0.7818609E-02  0.8145301E-01
       -2   -1    0    0    0  501  0.00000000000E+00  0.00000000000E+00  0.13677273698E+04  0.13677273698E+04  0.25500000920E-02 0.  1.
        2   -1    0    0  501    0  0.00000000000E+00  0.00000000000E+00 -0.20759087383E+04  0.20759087383E+04  0.25500000920E-02 0. -1.
    10030    2    1    2    0    0  0.00000000000E+00  0.00000000000E+00 -0.70818136849E+03  0.34436361081E+04  0.33700309782E+04 0.  0.
        1    1    3    3  502    0 -0.11665164563E+04  0.10241922450E+04 -0.10238034917E+04  0.18595440267E+04  0.50400001928E-02 0. -1.
       -1    1    3    3    0  502  0.11665164563E+04 -0.10241922450E+04  0.31562212321E+03  0.15840920814E+04  0.50400001928E-02 0.  1.
</event>
<event>
 5   0  0.4464951E-07  0.3330558E+04  0.7818609E-02  0.8155163E-01
       -1   -1    0    0    0  501  0.00000000000E+00  0.00000000000E+00  0.16594354834E+04  0.16594354834E+04  0.50400001928E-02 0. -1.
        1   -1    0    0  501    0  0.00000000000E+00  0.00000000000E+00 -0.16711428611E+04  0.16711428611E+04  0.50400001928E-02 0.  1.
    10030    2    1    2    0    0  0.00000000000E+00  0.00000000000E+00 -0.11707377738E+02  0.33305783445E+04  0.33305577680E+04 0.  0.
        3    1    3    3  502    0 -0.31208001282E+03  0.14487827222E+04 -0.76532427267E+03  0.16679588014E+04  0.10100000352E+00 0.  1.
       -3    1    3    3    0  502  0.31208001282E+03 -0.14487827222E+04  0.75361689493E+03  0.16626195431E+04  0.10100000352E+00 0. -1.
</event>
<event>
 5   0  0.1268230E-06  0.3404291E+04  0.7818609E-02  0.8136854E-01
        2   -1    0    0  501    0  0.00000000000E+00  0.00000000000E+00  0.11304852164E+04  0.11304852164E+04  0.25500000920E-02 0.  1.
       -2   -1    0    0    0  501  0.00000000000E+00  0.00000000000E+00 -0.25628807723E+04  0.25628807723E+04  0.25500000920E-02 0. -1.
    10030    2    1    2    0    0  0.00000000000E+00  0.00000000000E+00 -0.14323955559E+04  0.36933659887E+04  0.34042907188E+04 0.  0.
        2    1    3    3  502    0  0.43899107641E+03 -0.69426577161E+03 -0.23336239786E+04  0.24739682699E+04  0.25500000920E-02 0. -1.
       -2    1    3    3    0  502 -0.43899107641E+03  0.69426577161E+03  0.90122842269E+03  0.12193977188E+04  0.25500000920E-02 0.  1.
</event>
<event>
 5   0  0.4109937E-07  0.3408733E+04  0.7818609E-02  0.8135766E-01
       -1   -1    0    0    0  501  0.00000000000E+00  0.00000000000E+00  0.14156303273E+04  0.14156303273E+04  0.50400001928E-02 0.  1.
        1   -1    0    0  501    0  0.00000000000E+00  0.00000000000E+00 -0.20519946678E+04  0.20519946678E+04  0.50400001928E-02 0. -1.
    10030    2    1    2    0    0  0.00000000000E+00  0.00000000000E+00 -0.63636434051E+03  0.34676249950E+04  0.34087334206E+04 0.  0.
        5    1    3    3  502    0 -0.13877948667E+04 -0.64851448724E+03  0.44192037144E+03  0.15943215914E+04  0.46999998093E+01 0.  1.
       -5    1    3    3    0  502  0.13877948667E+04  0.64851448724E+03 -0.10782847120E+04  0.18733034037E+04  0.46999998093E+01 0. -1.
</event>
<event>
 5   0  0.1277635E-06  0.3382930E+04  0.7818609E-02  0.8142109E-01
        2   -1    0    0  501    0  0.00000000000E+00  0.00000000000E+00  0.21159499185E+04  0.21159499185E+04  0.25500000920E-02 0. -1.
       -2   -1    0    0    0  501  0.00000000000E+00  0.00000000000E+00 -0.13521365673E+04  0.13521365674E+04  0.25500000920E-02 0.  1.
    10030    2    1    2    0    0  0.00000000000E+00  0.00000000000E+00  0.76381335114E+03  0.34680864858E+04  0.33829296531E+04 0.  0.
        4    1    3    3  502    0 -0.35779804694E+03  0.36961265147E+02  0.20762864412E+04  0.21072144116E+04  0.12699999809E+01 0. -1.
       -4    1    3    3    0  502  0.35779804694E+03 -0.36961265147E+02 -0.13124730901E+04  0.13608720743E+04  0.12699999809E+01 0.  1.
</event>
<event>
 5   0  0.1300176E-06  0.3371652E+04  0.7818609E-02  0.8144899E-01
       -2   -1    0    0    0  501  0.00000000000E+00  0.00000000000E+00  0.13625755526E+04  0.13625755526E+04  0.25500000920E-02 0.  1.
        2   -1    0    0  501    0  0.00000000000E+00  0.00000000000E+00 -0.20857623226E+04  0.20857623226E+04  0.25500000920E-02 0. -1.
    10030    2    1    2    0    0  0.00000000000E+00  0.00000000000E+00 -0.72318676998E+03  0.34483378753E+04  0.33716516721E+04 0.  0.
        1    1    3    3  502    0  0.64676916736E+03  0.13105094784E+04 -0.12211023901E+04  0.19044255029E+04  0.50400001928E-02 0. -1.
       -1    1    3    3    0  502 -0.64676916736E+03 -0.13105094784E+04  0.49791562008E+03  0.15439123724E+04  0.50400001928E-02 0.  1.
</event>
<event>
 5   0  0.1300176E-06  0.3309238E+04  0.7818609E-02  0.8160549E-01
        2   -1    0    0  501    0  0.00000000000E+00  0.00000000000E+00  0.14701077391E+04  0.14701077391E+04  0.25500000920E-02 0.  1.
       -2   -1    0    0    0  501  0.00000000000E+00  0.00000000000E+00 -0.18622876900E+04  0.18622876900E+04  0.25500000920E-02 0. -1.
    10030    2    1    2    0    0  0.00000000000E+00  0.00000000000E+00 -0.39217995091E+03  0.33323954290E+04  0.33092377040E+04 0.  0.
        1    1    3    3  502    0 -0.12842164950E+04 -0.71190283857E+03 -0.96415011572E+03  0.17565884843E+04  0.50400001928E-02 0. -1.
       -1    1    3    3    0  502  0.12842164950E+04  0.71190283857E+03  0.57197016481E+03  0.15758069447E+04  0.50400001928E-02 0.  1.
</event>
<event>
 5   0  0.4289684E-07  0.3134211E+04  0.7818609E-02  0.8206411E-01
       -1   -1    0    0    0  501  0.00000000000E+00  0.00000000000E+00  0.12425299555E+04  0.12425299556E+04  0.50400001928E-02 0. -1.
        1   -1    0    0  501    0  0.00000000000E+00  0.00000000000E+00 -0.19764677436E+04  0.19764677436E+04  0.50400001928E-02 0.  1.
    10030    2    1    2    0    0  0.00000000000E+00  0.00000000000E+00 -0.73393778808E+03  0.32189976992E+04  0.31342114655E+04 0.  0.
        4    1    3    3  502    0  0.99565014669E+03 -0.12074165268E+04 -0.28324759208E+03  0.15904102286E+04  0.12699999809E+01 0.  1.
       -4    1    3    3    0  502 -0.99565014669E+03  0.12074165268E+04 -0.45069019601E+03  0.16285874706E+04  0.12699999809E+01 0. -1.
</event>
<event>
 5   0  0.1277635E-06  0.3374090E+04  0.7818609E-02  0.8144295E-01
       -2   -1    0    0    0  501  0.00000000000E+00  0.00000000000E+00  0.19116198412E+04  0.19116198412E+04  0.25500000920E-02 0.  1.
        2   -1    0    0  501    0  0.00000000000E+00  0.00000000000E+00 -0.14888528603E+04  0.14888528603E+04  0.25500000920E-02 0. -1.
    10030    2    1    2    0    0  0.00000000000E+00  0.00000000000E+00  0.42276698092E+03  0.34004727015E+04  0.33740899030E+04 0.  0.
        4    1    3    3  502    0  0.65783366598E+03  0.91336119497E+03  0.14778499183E+04  0.18576909858E+04  0.12699999809E+01 0.  1.
       -4    1    3    3    0  502 -0.65783366598E+03 -0.91336119497E+03 -0.10550829374E+04  0.15427817157E+04  0.12699999809E+01 0. -1.
</event>
<event>
 5   0  0.1277635E-06  0.3516854E+04  0.7818609E-02  0.8109807E-01
        2   -1    0    0  501    0  0.00000000000E+00  0.00000000000E+00  0.10425393060E+04  0.10425393060E+04  0.25500000920E-02 0. -1.
       -2   -1    0    0    0  501  0.00000000000E+00  0.00000000000E+00 -0.29658977918E+04  0.29658977918E+04  0.25500000920E-02 0.  1.
    10030    2    1    2    0    0  0.00000000000E+00  0.00000000000E+00 -0.19233584858E+04  0.40084370979E+04  0.35168537221E+04 0.  0.
        4    1    3    3  502    0 -0.35889270115E+03  0.97408241336E+03  0.65601370479E+03  0.12280049319E+04  0.12699999809E+01 0. -1.
       -4    1    3    3    0  502  0.35889270115E+03 -0.97408241336E+03 -0.25793721906E+04  0.27804321660E+04  0.12699999809E+01 0.  1.
</event>
<event>
 5   0  0.4125758E-07  0.3409908E+04  0.7818609E-02  0.8135479E-01
       -1   -1    0    0    0  501  0.00000000000E+00  0.00000000000E+00  0.24490930737E+04  0.24490930737E+04  0.50400001928E-02 0.  1.
        1   -1    0    0  501    0  0.00000000000E+00  0.00000000000E+00 -0.11869159831E+04  0.11869159831E+04  0.50400001928E-02 0. -1.
    10030    2    1    2    0    0  0.00000000000E+00  0.00000000000E+00  0.12621770906E+04  0.36360090568E+04  0.34099077485E+04 0.  0.
        2    1    3    3  502    0  0.37047827184E+03  0.49003708168E+03 -0.10648015863E+04  0.12293058649E+04  0.25500000920E-02 0. -1.
       -2    1    3    3    0  502 -0.37047827184E+03 -0.49003708168E+03  0.23269786769E+04  0.24067031919E+04  0.25500000920E-02 0.  1.
</event>
<event>
 5   0  0.1300176E-06  0.3291649E+04  0.7818609E-02  0.8165024E-01
        2   -1    0    0  501    0  0.00000000000E+00  0.00000000000E+00  0.25410011332E+04  0.25410011332E+04  0.25500000920E-02 0.  1.
       -2   -1    0    0    0  501  0.00000000000E+00  0.00000000000E+00 -0.10660121376E+04  0.10660121376E+04  0.25500000920E-02 0. -1.
    10030    2    1    2    0    0  0.00000000000E+00  0.00000000000E+00  0.14749889956E+04  0.36070132708E+04  0.32916488571E+04 0.  0.
        1    1    3    3  502    0 -0.28080863158E+03 -0.16216476713E+04  0.72437259022E+03  0.17981407917E+04  0.50400001928E-02 0.  1.
       -1    1    3    3    0  502  0.28080863158E+03  0.16216476713E+04  0.75061640542E+03  0.18088724791E+04  0.50400001928E-02 0. -1.
</event>
<event>
 5   0  0.4109937E-07  0.3404622E+04  0.7818609E-02  0.8136773E-01
        1   -1    0    0  501    0  0.00000000000E+00  0.00000000000E+00  0.24716322511E+04  0.24716322511E+04  0.50400001928E-02 0. -1.
       -1   -1    0    0    0  501  0.00000000000E+00  0.00000000000E+00 -0.11724492295E+04  0.11724492296E+04  0.50400001928E-02 0.  1.
    10030    2    1    2    0    0  0.00000000000E+00  0.00000000000E+00  0.12991830216E+04  0.36440814807E+04  0.34046223453E+04 0.  0.
        5    1    3    3  502    0  0.14282564067E+03  0.16941224532E+04  0.55757277291E+03  0.17892343439E+04  0.46999998093E+01 0.  1.
       -5    1    3    3    0  502 -0.14282564067E+03 -0.16941224532E+04  0.74161024869E+03  0.18548471369E+04  0.46999998093E+01 0. -1.
</event>
<event>
 5   0  0.4109937E-07  0.3377001E+04  0.7818609E-02  0.8143574E-01
       -1   -1    0    0    0  501  0.00000000000E+00  0.00000000000E+00  0.11020877020E+04  0.11020877020E+04  0.50400001928E-02 0.  1.
        1   -1    0    0  501    0  0.00000000000E+00  0.00000000000E+00 -0.25869385295E+04  0.25869385295E+04  0.50400001928E-02 0. -1.
    10030    2    1    2    0    0  0.00000000000E+00  0.00000000000E+00 -0.14848508275E+04  0.36890262315E+04  0.33770005266E+04 0.  0.
        5    1    3    3  502    0 -0.19397503157E+03  0.53638496593E+03  0.99365335331E+03  0.11457330497E+04  0.46999998093E+01 0.  1.
       -5    1    3    3    0  502  0.19397503157E+03 -0.53638496593E+03 -0.24785041808E+04  0.25432931818E+04  0.46999998093E+01 0. -1.
</event>
<event>
 5   0  0.4109937E-07  0.3412224E+04  0.7818609E-02  0.8134913E-01
       -1   -1    0    0    0  501  0.00000000000E+00  0.00000000000E+00  0.11871305616E+04  0.11871305617E+04  0.50400001928E-02 0. -1.
        1   -1    0    0  501    0  0.00000000000E+00  0.00000000000E+00 -0.24519779233E+04  0.24519779233E+04  0.50400001928E-02 0.  1.
    10030    2    1    2    0    0  0.00000000000E+00  0.00000000000E+00 -0.12648473617E+04  0.36391084850E+04  0.34122238668E+04 0.  0.
        5    1    3    3  502    0 -0.14917944608E+04  0.55500334208E+03  0.22680447883E+02  0.15918592638E+04  0.46999998093E+01 0. -1.
       -5    1    3    3    0  502  0.14917944608E+04 -0.55500334208E+03 -0.12875278096E+04  0.20472492212E+04  0.46999998093E+01 0.  1.
</event>
<event>
 5   0  0.4125758E-07  0.3309040E+04  0.7818609E-02  0.8160599E-01
        1   -1    0    0  501    0  0.00000000000E+00  0.00000000000E+00  0.26890456038E+04  0.26890456038E+04  0.50400001928E-02 0.  1.
       -1   -1    0    0    0  501  0.00000000000E+00  0.00000000000E+00 -0.10179954330E+04  0.10179954330E+04  0.50400001928E-02 0. -1.
    10030    2    1    2    0    0  0.00000000000E+00  0.00000000000E+00  0.16710501709E+04  0.37070410368E+04  0.33090398268E+04 0.  0.
        2    1    3    3  502    0  0.12664129360E+04 -0.65983340726E+02  0.20260166887E+04  0.23901671801E+04  0.25500000920E-02 0.  1.
       -2    1    3    3    0  502 -0.12664129360E+04  0.65983340726E+02 -0.35496651787E+03  0.13168738567E+04  0.25500000920E-02 0. -1.
</event>
<event>
 5   0  0.1256208E-06  0.3388012E+04  0.7818609E-02  0.8140855E-01
        2   -1    0    0  501    0  0.00000000000E+00  0.00000000000E+00  0.12513189842E+04  0.12513189842E+04  0.25500000920E-02 0.  1.
       -2   -1    0    0    0  501  0.00000000000E+00  0.00000000000E+00 -0.22933053301E+04  0.22933053301E+04  0.25500000920E-02 0. -1.
    10030    2    1    2    0    0  0.00000000000E+00  0.00000000000E+00 -0.10419863459E+04  0.35446243143E+04  0.33880120993E+04 0.  0.
        3    1    3    3  502    0  0.78733975257E+03 -0.14119923886E+04 -0.10503771204E+04  0.19279311441E+04  0.10100000352E+00 0. -1.
       -3    1    3    3    0  502 -0.78733975257E+03  0.14119923886E+04  0.83907744289E+01  0.16166931702E+04  0.10100000352E+00 0.  1.
</event>
<event>
 5   0  0.1269497E-06  0.3380157E+04  0.7818609E-02  0.8142794E-01
       -2   -1    0    0    0  501  0.00000000000E+00  0.00000000000E+00  0.17890175638E+04  0.17890175638E+04  0.25500000920E-02 0.  1.
        2   -1    0    0  501    0  0.00000000000E+00  0.00000000000E+00 -0.15966113739E+04  0.15966113739E+04  0.25500000920E-02 0. -1.
    10030    2    1    2    0    0  0.00000000000E+00  0.00000000000E+00  0.19240618994E+03  0.33856289377E+04  0.33801572688E+04 0.  0.
        5    1    3    3  502    0 -0.22060521597E+03  0.14108586151E+04 -0.80922647539E+03  0.16413586664E+04  0.46999998093E+01 0. -1.
       -5    1    3    3    0  502  0.22060521597E+03 -0.14108586151E+04  0.10016326653E+04  0.17442702713E+04  0.46999998093E+01 0.  1.
</event>
<event>
 5   0  0.1268230E-06  0.3367350E+04  0.7818609E-02  0.8145966E-01
       -2   -1    0    0    0  501  0.00000000000E+00  0.00000000000E+00  0.24094117977E+04  0.24094117977E+04  0.25500000920E-02 0.  1.
        2   -1    0    0  501    0  0.00000000000E+00  0.00000000000E+00 -0.11765368089E+04  0.11765368089E+04  0.25500000920E-02 0. -1.
    10030    2    1    2    0    0  0.00000000000E+00  0.00000000000E+00  0.12328749888E+04  0.35859486066E+04  0.33673500963E+04 0.  0.
        2    1    3    3  502    0  0.52699507515E+03  0.73714236817E+03  0.21275915882E+04  0.23125199775E+04  0.25500000920E-02 0.  1.
       -2    1    3    3    0  502 -0.52699507515E+03 -0.73714236817E+03 -0.89471659938E+03  0.12734286291E+04  0.25500000920E-02 0. -1.
</event>
<event>
 5   0  0.4289684E-07  0.3409580E+04  0.7818609E-02  0.8135559E-01
        1   -1    0    0  501    0  0.00000000000E+00  0.00000000000E+00  0.15214543864E+04  0.15214543864E+04  0.50400001928E-02 0. -1.
       -1   -1    0    0    0  501  0.00000000000E+00  0.00000000000E+00 -0.19102180406E+04  0.19102180406E+04  0.50400001928E-02 0.  1.
    10030    2    1    2    0    0  0.00000000000E+00  0.00000000000E+00 -0.38876365423E+03  0.34316724270E+04  0.34095803946E+04 0.  0.
        4    1    3    3  502    0  0.30234683181E+03  0.10115447183E+04  0.11528244715E+04  0.15632153399E+04  0.12699999809E+01 0. -1.
       -4    1    3    3    0  502 -0.30234683181E+03 -0.10115447183E+04 -0.15415881257E+04  0.18684570871E+04  0.12699999809E+01 0.  1.
</event>
<event>
 5   0  0.1300176E-06  0.3404151E+04  0.7818609E-02  0.8136888E-01
        2   -1    0    0  501    0  0.00000000000E+00  0.00000000000E+00  0.17172994770E+04  0.17172994770E+04  0.25500000920E-02 0.  1.
       -2   -1    0    0    0  501  0.00000000000E+00  0.00000000000E+00 -0.16869864275E+04  0.16869864275E+04  0.25500000920E-02 0. -1.
    10030    2    1    2    0    0  0.00000000000E+00  0.00000000000E+00  0.30313049481E+02  0.34042859044E+04  0.34041509423E+04 0.  0.
        1    1    3    3  502    0  0.17946104782E+03  0.11172177851E+04  0.12866938839E+04  0.17134652019E+04  0.50400001928E-02 0.  1.
       -1    1    3    3    0  502 -0.17946104782E+03 -0.11172177851E+04 -0.12563808344E+04  0.16908207026E+04  0.50400001928E-02 0. -1.
</event>
<event>
 5   0  0.4125758E-07  0.3401810E+04  0.7818609E-02  0.8137462E-01
       -1   -1    0    0    0  501  0.00000000000E+00  0.00000000000E+00  0.27818238102E+04  0.27818238102E+04  0.50400001928E-02 0. -1.
        1   -1    0    0  501    0  0.00000000000E+00  0.00000000000E+00 -0.10399932686E+04  0.10399932686E+04  0.50400001928E-02 0.  1.
    10030    2    1    2    0    0  0.00000000000E+00  0.00000000000E+00  0.17418305416E+04  0.38218170789E+04  0.34018101283E+04 0.  0.
        2    1    3    3  502    0  0.12631284362E+04  0.10205594826E+04  0.14393966242E+04  0.21699994805E+04  0.25500000920E-02 0. -1.
       -2    1    3    3    0  502 -0.12631284362E+04 -0.10205594826E+04  0.30243391742E+03  0.16518175983E+04  0.25500000920E-02 0.  1.
</event>
<event>
 5   0  0.4272633E-07  0.3510516E+04  0.7818609E-02  0.8111302E-01
        1   -1    0    0  501    0  0.00000000000E+00  0.00000000000E+00  0.23065805561E+04  0.23065805561E+04  0.50400001928E-02 0. -1.
       -1   -1    0    0    0  501  0.00000000000E+00  0.00000000000E+00 -0.13357136301E+04  0.13357136301E+04  0.50400001928E-02 0.  1.
    10030    2    1    2    0    0  0.00000000000E+00  0.00000000000E+00  0.97086692603E+03  0.36422941862E+04  0.35105162513E+04 0.  0.
        1    1    3    3  502    0  0.15749125525E+03 -0.17210789229E+04  0.16730505365E+03  0.17363487943E+04  0.50400001928E-02 0.  1.
       -1    1    3    3    0  502 -0.15749125525E+03  0.17210789229E+04  0.80356187238E+03  0.19059453919E+04  0.50400001928E-02 0. -1.
</event>
<event>
 5   0  0.4464951E-07  0.3429311E+04  0.7818609E-02  0.8130750E-01
        1   -1    0    0  501    0  0.00000000000E+00  0.00000000000E+00  0.18675188683E+04  0.18675188683E+04  0.50400001928E-02 0. -1.
       -1   -1    0    0    0  501  0.00000000000E+00  0.00000000000E+00 -0.15743044657E+04  0.15743044657E+04  0.50400001928E-02 0.  1.
    10030    2    1    2    0    0  0.00000000000E+00  0.00000000000E+00  0.29321440262E+03  0.34418233340E+04  0.34293108895E+04 0.  0.
        3    1    3    3  502    0  0.10650996444E+04 -0.33561765113E+03  0.14524952275E+04  0.18321623444E+04  0.10100000352E+00 0. -1.
       -3    1    3    3    0  502 -0.10650996444E+04  0.33561765113E+03 -0.11592808249E+04  0.16096609896E+04  0.10100000352E+00 0.  1.
</event>
<event>
 5   0  0.4125758E-07  0.3328915E+04  0.7818609E-02  0.8155577E-01
        1   -1    0    0  501    0  0.00000000000E+00  0.00000000000E+00  0.21993127556E+04  0.21993127556E+04  0.50400001928E-02 0. -1.
       -1   -1    0    0    0  501  0.00000000000E+00  0.00000000000E+00 -0.12596744100E+04  0.12596744101E+04  0.50400001928E-02 0.  1.
    10030    2    1    2    0    0  0.00000000000E+00  0.00000000000E+00  0.93963834557E+03  0.34589871657E+04  0.33289145366E+04 0.  0.
        2    1    3    3  502    0  0.10486509019E+04 -0.12709506076E+04  0.22517562021E+03  0.16630358448E+04  0.25500000920E-02 0.  1.
       -2    1    3    3    0  502 -0.10486509019E+04  0.12709506076E+04  0.71446272536E+03  0.17959513209E+04  0.25500000920E-02 0. -1.
</event>
<event>
 5   0  0.4464951E-07  0.3425270E+04  0.7818609E-02  0.8131732E-01
       -1   -1    0    0    0  501  0.00000000000E+00  0.00000000000E+00  0.11307933531E+04  0.11307933531E+04  0.50400001928E-02 0.  1.
        1   -1    0    0  501    0  0.00000000000E+00  0.00000000000E+00 -0.25938589774E+04  0.25938589774E+04  0.50400001928E-02 0. -1.
    10030    2    1    2    0    0  0.00000000000E+00  0.00000000000E+00 -0.14630656242E+04  0.37246523305E+04  0.34252699109E+04 0.  0.
        3    1    3    3  502    0  0.43821427722E+03 -0.68530375053E+03 -0.23703937403E+04  0.25060805010E+04  0.10100000352E+00 0. -1.
       -3    1    3    3    0  502 -0.43821427722E+03  0.68530375053E+03  0.90732811605E+03  0.12185718295E+04  0.10100000352E+00 0.  1.
</event>
<event>
 5   0  0.4272633E-07  0.3389030E+04  0.7818609E-02  0.8140604E-01
        1   -1    0    0  501    0  0.00000000000E+00  0.00000000000E+00  0.12389200826E+04  0.12389200826E+04  0.50400001928E-02 0.  1.
       -1   -1    0    0    0  501  0.00000000000E+00  0.00000000000E+00 -0.23176483912E+04  0.23176483913E+04  0.50400001928E-02 0. -1.
    10030    2    1    2    0    0  0.00000000000E+00  0.00000000000E+00 -0.10787283086E+04  0.35565684739E+04  0.33890300302E+04 0.  0.
        1    1    3    3  502    0  0.44047822948E+02  0.12207494993E+04 -0.17718195363E+04  0.21520952628E+04  0.50400001928E-02 0. -1.
       -1    1    3    3    0  502 -0.44047822948E+02 -0.12207494993E+04  0.69309122768E+03  0.14044732111E+04  0.50400001928E-02 0.  1.
</event>
<event>
 5   0  0.4125758E-07  0.3406821E+04  0.7818609E-02  0.8136234E-01
        1   -1    0    0  501    0  0.00000000000E+00  0.00000000000E+00  0.13638863809E+04  0.13638863809E+04  0.50400001928E-02 0.  1.
       -1   -1    0    0    0  501  0.00000000000E+00  0.00000000000E+00 -0.21274548582E+04  0.21274548582E+04  0.50400001928E-02 0. -1.
    10030    2    1    2    0    0  0.00000000000E+00  0.00000000000E+00 -0.76356847728E+03  0.34913412391E+04  0.34068206334E+04 0.  0.
        2    1    3    3  502    0  0.23536036584E+03  0.27488484811E+03 -0.20876069968E+04  0.21187399923E+04  0.25500000920E-02 0. -1.
       -2    1    3    3    0  502 -0.23536036584E+03 -0.27488484811E+03  0.13240385196E+04  0.13726012468E+04  0.25500000920E-02 0.  1.
</event>
<event>
 5   0  0.1268230E-06  0.3492861E+04  0.7818609E-02  0.8115484E-01
        2   -1    0    0  501    0  0.00000000000E+00  0.00000000000E+00  0.14364997240E+04  0.14364997240E+04  0.25500000920E-02 0. -1.
       -2   -1    0    0    0  501  0.00000000000E+00  0.00000000000E+00 -0.21232306145E+04  0.21232306145E+04  0.25500000920E-02 0.  1.
    10030    2    1    2    0    0  0.00000000000E+00  0.00000000000E+00 -0.68673089050E+03  0.35597303385E+04  0.34928614010E+04 0.  0.
        2    1    3    3  502    0 -0.14865240295E+04 -0.75631971831E+03  0.18447561653E+03  0.16780358934E+04  0.25500000920E-02 0. -1.
       -2    1    3    3    0  502  0.14865240295E+04  0.75631971831E+03 -0.87120650703E+03  0.18816944450E+04  0.25500000920E-02 0.  1.
</event>
<event>
 5   0  0.4125758E-07  0.3408523E+04  0.7818609E-02  0.8135818E-01
       -1   -1    0    0    0  501  0.00000000000E+00  0.00000000000E+00  0.13418461348E+04  0.13418461348E+04  0.50400001928E-02 0.  1.
        1   -1    0    0  501    0  0.00000000000E+00  0.00000000000E+00 -0.21645607751E+04  0.21645607751E+04  0.50400001928E-02 0. -1.
    10030    2    1    2    0    0  0.00000000000E+00  0.00000000000E+00 -0.82271464026E+03  0.35064069099E+04  0.34085231462E+04 0.  0.
        2    1    3    3  502    0 -0.14294827662E+04 -0.55474435299E+03 -0.11765911347E+04  0.19327516588E+04  0.25500000920E-02 0. -1.
       -2    1    3    3    0  502  0.14294827662E+04  0.55474435299E+03  0.35387649448E+03  0.15736552511E+04  0.25500000920E-02 0.  1.
</event>
<event>
 5   0  0.4109937E-07  0.3453617E+04  0.7818609E-02  0.8124871E-01
        1   -1    0    0  501    0  0.00000000000E+00  0.00000000000E+00  0.15123779016E+04  0.15123779016E+04  0.50400001928E-02 0.  1.
       -1   -1    0    0    0  501  0.00000000000E+00  0.00000000000E+00 -0.19716417144E+04  0.19716417144E+04  0.50400001928E-02 0. -1.
    10030    2    1    2    0    0  0.00000000000E+00  0.00000000000E+00 -0.45926381286E+03  0.34840196160E+04  0.34536168628E+04 0.  0.
        5    1    3    3  502    0  0.66913869214E+03  0.15904611825E+04 -0.16171984824E+03  0.17330576337E+04  0.46999998093E+01 0. -1.
       -5    1    3    3    0  502 -0.66913869214E+03 -0.15904611825E+04 -0.29754396462E+03  0.17509619823E+04  0.46999998093E+01 0.  1.
</event>
<event>
 5   0  0.1256208E-06  0.3438055E+04  0.7818609E-02  0.8128629E-01
       -2   -1    0    0    0  501  0.00000000000E+00  0.00000000000E+00  0.20127079469E+04  0.20127079469E+04  0.25500000920E-02 0. -1.
        2   -1    0    0  501    0  0.00000000000E+00  0.00000000000E+00 -0.14681986807E+04  0.14681986807E+04  0.25500000920E-02 0.  1.
    10030    2    1    2    0    0  0.00000000000E+00  0.00000000000E+00  0.54450926620E+03  0.34809066276E+04  0.34380547711E+04 0.  0.
        3    1    3    3  502    0  0.22247799488E+03  0.55442946877E+03  0.19042280660E+04  0.19957387183E+04  0.10100000352E+00 0. -1.
       -3    1    3    3    0  502 -0.22247799488E+03 -0.55442946877E+03 -0.13597187998E+04  0.14851679093E+04  0.10100000352E+00 0.  1.
</event>
<event>
 5   0  0.1256208E-06  0.3369826E+04  0.7818609E-02  0.8145352E-01
       -2   -1    0    0    0  501  0.00000000000E+00  0.00000000000E+00  0.16626520480E+04  0.16626520480E+04  0.25500000920E-02 0.  1.
        2   -1    0    0  501    0  0.00000000000E+00  0.00000000000E+00 -0.17074724230E+04  0.17074724230E+04  0.25500000920E-02 0. -1.
    10030    2    1    2    0    0  0.00000000000E+00  0.00000000000E+00 -0.44820375022E+02  0.33701244710E+04  0.33698264175E+04 0.  0.
        3    1    3    3  502    0  0.12607009173E+04  0.68950498648E+02 -0.11382200942E+04  0.16999017522E+04  0.10100000352E+00 0. -1.
       -3    1    3    3    0  502 -0.12607009173E+04 -0.68950498648E+02  0.10933997192E+04  0.16702227188E+04  0.10100000352E+00 0.  1.
</event>
<event>
 5   0  0.1277635E-06  0.3418704E+04  0.7818609E-02  0.8133331E-01
        2   -1    0    0  501    0  0.00000000000E+00  0.00000000000E+00  0.20074817076E+04  0.20074817076E+04  0.25500000920E-02 0. -1.
       -2   -1    0    0    0  501  0.00000000000E+00  0.00000000000E+00 -0.14554969188E+04  0.14554969188E+04  0.25500000920E-02 0.  1.
    10030    2    1    2    0    0  0.00000000000E+00  0.00000000000E+00  0.55198478878E+03  0.34629786265E+04  0.34187035204E+04 0.  0.
        4    1    3    3  502    0 -0.13653664364E+04  0.10283464570E+04  0.26318403679E+03  0.17294477128E+04  0.12699999809E+01 0. -1.
       -4    1    3    3    0  502  0.13653664364E+04 -0.10283464570E+04  0.28880075200E+03  0.17335309136E+04  0.12699999809E+01 0.  1.
</event>
<event>
 5   0  0.1256208E-06  0.3455184E+04  0.7818609E-02  0.8124494E-01
       -2   -1    0    0    0  501  0.00000000000E+00  0.00000000000E+00  0.18782162005E+04  0.18782162005E+04  0.25500000920E-02 0.  1.
        2   -1    0    0  501    0  0.00000000000E+00  0.00000000000E+00 -0.15890467365E+04  0.15890467365E+04  0.25500000920E-02 0. -1.
    10030    2    1    2    0    0  0.00000000000E+00  0.00000000000E+00  0.28916946399E+03  0.34672629371E+04  0.34551835401E+04 0.  0.
        3    1    3    3  502    0  0.40373605810E+03  0.15284091347E+04 -0.55465546252E+03  0.16753148897E+04  0.10100000352E+00 0.  1.
       -3    1    3    3    0  502 -0.40373605810E+03 -0.15284091347E+04  0.84382492651E+03  0.17919480473E+04  0.10100000352E+00 0. -1.
</event>
<event>
 5   0  0.1300176E-06  0.3388933E+04  0.7818609E-02  0.8140628E-01
        2   -1    0    0  501    0  0.00000000000E+00  0.00000000000E+00  0.18066295411E+04  0.18066295411E+04  0.25500000920E-02 0.  1.
       -2   -1    0    0    0  501  0.00000000000E+00  0.00000000000E+00 -0.15892666679E+04  0.15892666679E+04  0.25500000920E-02 0. -1.
    10030    2    1    2    0    0  0.00000000000E+00  0.00000000000E+00  0.21736287313E+03  0.33958962090E+04  0.33889326408E+04 0.  0.
        1    1    3    3  502    0 -0.15085067767E+04 -0.18313608077E+03 -0.64258210172E+03  0.16498615933E+04  0.50400001928E-02 0. -1.
       -1    1    3    3    0  502  0.15085067767E+04  0.18313608077E+03  0.85994497486E+03  0.17460346157E+04  0.50400001928E-02 0.  1.
</event>
<event>
 5   0  0.1256208E-06  0.3379085E+04  0.7818609E-02  0.8143059E-01
       -2   -1    0    0    0  501  0.00000000000E+00  0.00000000000E+00  0.20848270332E+04  0.20848270332E+04  0.25500000920E-02 0. -1.
        2   -1    0    0  501    0  0.00000000000E+00  0.00000000000E+00 -0.13692039570E+04  0.13692039570E+04  0.25500000920E-02 0.  1.
    10030    2    1    2    0    0  0.00000000000E+00  0.00000000000E+00  0.71562307619E+03  0.34540309902E+04  0.33790847421E+04 0.  0.
        3    1    3    3  502    0  0.72600837003E+03 -0.13982784144E+04 -0.26587101441E+03  0.15977978859E+04  0.10100000352E+00 0.  1.
       -3    1    3    3    0  502 -0.72600837003E+03  0.13982784144E+04  0.98149409060E+03  0.18562331043E+04  0.10100000352E+00 0. -1.
</event>
<event>
 5   0  0.1269497E-06  0.3401403E+04  0.7818609E-02  0.8137562E-01
        2   -1    0    0  501    0  0.00000000000E+00  0.00000000000E+00  0.21677523198E+04  0.21677523198E+04  0.25500000920E-02 0. -1.
       -2   -1    0    0    0  501  0.00000000000E+00  0.00000000000E+00 -0.13342784012E+04  0.13342784012E+04  0.25500000920E-02 0.  1.
    10030    2    1    2    0    0  0.00000000000E+00  0.00000000000E+00  0.83347391857E+03  0.35020307210E+04  0.34014027103E+04 0.  0.
        5    1    3    3  502    0 -0.76873942572E+03  0.10411965191E+04 -0.71922278503E+03  0.14806599882E+04  0.46999998093E+01 0.  1.
       -5    1    3    3    0  502  0.76873942572E+03 -0.10411965191E+04  0.15526967036E+04  0.20213707328E+04  0.46999998093E+01 0. -1.
</event>
<event>
 5   0  0.4109937E-07  0.3392878E+04  0.7818609E-02  0.8139657E-01
        1   -1    0    0  501    0  0.00000000000E+00  0.00000000000E+00  0.19930674676E+04  0.19930674676E+04  0.50400001928E-02 0.  1.
       -1   -1    0    0    0  501  0.00000000000E+00  0.00000000000E+00 -0.14439576603E+04  0.14439576604E+04  0.50400001928E-02 0. -1.
    10030    2    1    2    0    0  0.00000000000E+00  0.00000000000E+00  0.54910980730E+03  0.34370251280E+04  0.33928778566E+04 0.  0.
        5    1    3    3  502    0 -0.26199062378E+02 -0.26697068014E+03 -0.14223299487E+04  0.14474129707E+04  0.46999998093E+01 0. -1.
       -5    1    3    3    0  502  0.26199062378E+02  0.26697068014E+03  0.19714397560E+04  0.19896121573E+04  0.46999998093E+01 0.  1.
</event>
<event>
 5   0  0.4272633E-07  0.3421472E+04  0.7818609E-02  0.8132656E-01
       -1   -1    0    0    0  501  0.00000000000E+00  0.00000000000E+00  0.10123423559E+04  0.10123423559E+04  0.50400001928E-02 0.  1.
        1   -1    0    0  501    0  0.00000000000E+00  0.00000000000E+00 -0.28909373496E+04  0.28909373496E+04  0.50400001928E-02 0. -1.
    10030    2    1    2    0    0  0.00000000000E+00  0.00000000000E+00 -0.18785949938E+04  0.39032797055E+04  0.34214723890E+04 0.  0.
        1    1    3    3  502    0  0.10838907504E+04 -0.52530797554E+02  0.56944966280E+03  0.12255005353E+04  0.50400001928E-02 0.  1.
       -1    1    3    3    0  502 -0.10838907504E+04  0.52530797554E+02 -0.24480446566E+04  0.26777791702E+04  0.50400001928E-02 0. -1.
</event>
<event>
 5   0  0.4464951E-07  0.3388951E+04  0.7818609E-02  0.8140623E-01
        1   -1    0    0  501    0  0.00000000000E+00  0.00000000000E+00  0.16592013729E+04  0.16592013729E+04  0.50400001928E-02 0. -1.
       -1   -1    0    0    0  501  0.00000000000E+00  0.00000000000E+00 -0.17304999012E+04  0.17304999012E+04  0.50400001928E-02 0.  1.
    10030    2    1    2    0    0  0.00000000000E+00  0.00000000000E+00 -0.71298528233E+02  0.33897012741E+04  0.33889513492E+04 0.  0.
        3    1    3    3  502    0 -0.16745231810E+04  0.19707055315E+03  0.13286090767E+03  0.16913062164E+04  0.10100000352E+00 0. -1.
       -3    1    3    3    0  502  0.16745231810E+04 -0.19707055315E+03 -0.20415943590E+03  0.16983950577E+04  0.10100000352E+00 0.  1.
</event>
<event>
 5   0  0.4272633E-07  0.3414191E+04  0.7818609E-02  0.8134432E-01
        1   -1    0    0  501    0  0.00000000000E+00  0.00000000000E+00  0.23020430775E+04  0.23020430775E+04  0.50400001928E-02 0.  1.
       -1   -1    0    0    0  501  0.00000000000E+00  0.00000000000E+00 -0.12659082715E+04  0.12659082715E+04  0.50400001928E-02 0. -1.
    10030    2    1    2    0    0  0.00000000000E+00  0.00000000000E+00  0.10361348060E+04  0.35679513490E+04  0.34141911916E+04 0.  0.
        1    1    3    3  502    0 -0.53230698774E+03  0.11671467371E+04 -0.65897542475E+03  0.14421618652E+04  0.50400001928E-02 0. -1.
       -1    1    3    3    0  502  0.53230698774E+03 -0.11671467371E+04  0.16951102308E+04  0.21257894838E+04  0.50400001928E-02 0.  1.
</event>
<event>
 5   0  0.4289684E-07  0.3332444E+04  0.7818609E-02  0.8154689E-01
        1   -1    0    0  501    0  0.00000000000E+00  0.00000000000E+00  0.19515253046E+04  0.19515253047E+04  0.50400001928E-02 0.  1.
       -1   -1    0    0    0  501  0.00000000000E+00  0.00000000000E+00 -0.14226282780E+04  0.14226282780E+04  0.50400001928E-02 0. -1.
    10030    2    1    2    0    0  0.00000000000E+00  0.00000000000E+00  0.52889702664E+03  0.33741535827E+04  0.33324435981E+04 0.  0.
        4    1    3    3  502    0  0.10142930422E+04 -0.93458549811E+03  0.12110581760E+04  0.18354574218E+04  0.12699999809E+01 0.  1.
       -4    1    3    3    0  502 -0.10142930422E+04  0.93458549811E+03 -0.68216114938E+03  0.15386961608E+04  0.12699999809E+01 0. -1.
</event>
<event>
 5   0  0.1277635E-06  0.3220954E+04  0.7818609E-02  0.8183305E-01
       -2   -1    0    0    0  501  0.00000000000E+00  0.00000000000E+00  0.12838302991E+04  0.12838302991E+04  0.25500000920E-02 0.  1.
        2   -1    0    0  501    0  0.00000000000E+00  0.00000000000E+00 -0.20202332035E+04  0.20202332035E+04  0.25500000920E-02 0. -1.
    10030    2    1    2    0    0  0.00000000000E+00  0.00000000000E+00 -0.73640290434E+03  0.33040635026E+04  0.32209542673E+04 0.  0.
        4    1    3    3  502    0 -0.84856700470E+02  0.13876517739E+04 -0.12021082900E+04  0.18378911989E+04  0.12699999809E+01 0.  1.
       -4    1    3    3    0  502  0.84856700470E+02 -0.13876517739E+04  0.46570538563E+03  0.14661723037E+04  0.12699999809E+01 0. -1.
</event>
<event>
 5   0  0.1269497E-06  0.3029356E+04  0.7818609E-02  0.8235398E-01
        2   -1    0    0  501    0  0.00000000000E+00  0.00000000000E+00  0.15375415855E+04  0.15375415855E+04  0.25500000920E-02 0.  1.
       -2   -1    0    0    0  501  0.00000000000E+00  0.00000000000E+00 -0.14921540704E+04  0.14921540704E+04  0.25500000920E-02 0. -1.
    10030    2    1    2    0    0  0.00000000000E+00  0.00000000000E+00  0.45387515057E+02  0.30296956559E+04  0.30293556643E+04 0.  0.
        5    1    3    3  502    0 -0.15137666265E+03 -0.10359083961E+04 -0.10720549424E+04  0.14984475262E+04  0.46999998093E+01 0. -1.
       -5    1    3    3    0  502  0.15137666265E+03  0.10359083961E+04  0.11174424574E+04  0.15312481297E+04  0.46999998093E+01 0.  1.
</event>
<event>
 5   0  0.4272633E-07  0.3378042E+04  0.7818609E-02  0.8143317E-01
        1   -1    0    0  501    0  0.00000000000E+00  0.00000000000E+00  0.20803395776E+04  0.20803395776E+04  0.50400001928E-02 0. -1.
       -1   -1    0    0    0  501  0.00000000000E+00  0.00000000000E+00 -0.13713106668E+04  0.13713106668E+04  0.50400001928E-02 0.  1.
    10030    2    1    2    0    0  0.00000000000E+00  0.00000000000E+00  0.70902891081E+03  0.34516502444E+04  0.33780419496E+04 0.  0.
        1    1    3    3  502    0 -0.79772939590E+03  0.33248962419E+02  0.18753400279E+04  0.20382291095E+04  0.50400001928E-02 0. -1.
       -1    1    3    3    0  502  0.79772939590E+03 -0.33248962419E+02 -0.11663111171E+04  0.14134211349E+04  0.50400001928E-02 0.  1.
</event>
<event>
 5   0  0.1256208E-06  0.3399079E+04  0.7818609E-02  0.8138132E-01
        2   -1    0    0  501    0  0.00000000000E+00  0.00000000000E+00  0.16080486723E+04  0.16080486723E+04  0.25500000920E-02 0. -1.
       -2   -1    0    0    0  501  0.00000000000E+00  0.00000000000E+00 -0.17962357684E+04  0.17962357684E+04  0.25500000920E-02 0.  1.
    10030    2    1    2    0    0  0.00000000000E+00  0.00000000000E+00 -0.18818709615E+03  0.34042844407E+04  0.33990790179E+04 0.  0.
        3    1    3    3  502    0 -0.83125362939E+03 -0.12984341137E+04 -0.81039564632E+03  0.17417390326E+04  0.10100000352E+00 0. -1.
       -3    1    3    3    0  502  0.83125362939E+03  0.12984341137E+04  0.62220855017E+03  0.16625454081E+04  0.10100000352E+00 0.  1.
</event>
<event>
 5   0  0.1300176E-06  0.3116256E+04  0.7818609E-02  0.8211291E-01
        2   -1    0    0  501    0  0.00000000000E+00  0.00000000000E+00  0.17350100205E+04  0.17350100205E+04  0.25500000920E-02 0.  1.
       -2   -1    0    0    0  501  0.00000000000E+00  0.00000000000E+00 -0.13992791976E+04  0.13992791976E+04  0.25500000920E-02 0. -1.
    10030    2    1    2    0    0  0.00000000000E+00  0.00000000000E+00  0.33573082288E+03  0.31342892181E+04  0.31162563626E+04 0.  0.
        1    1    3    3  502    0  0.61034810299E+03  0.11840568732E+04 -0.64504917461E+03  0.14800688914E+04  0.50400001928E-02 0. -1.
       -1    1    3    3    0  502 -0.61034810299E+03 -0.11840568732E+04  0.98077999749E+03  0.16542203267E+04  0.50400001928E-02 0.  1.
</event>
<event>
 5   0  0.1268230E-06  0.3383587E+04  0.7818609E-02  0.8141946E-01
       -2   -1    0    0    0  501  0.00000000000E+00  0.00000000000E+00  0.13000017756E+04  0.13000017756E+04  0.25500000920E-02 0.  1.
        2   -1    0    0  501    0  0.00000000000E+00  0.00000000000E+00 -0.22016622323E+04  0.22016622323E+04  0.25500000920E-02 0. -1.
    10030    2    1    2    0    0  0.00000000000E+00  0.00000000000E+00 -0.90166045670E+03  0.35016640078E+04  0.33835867426E+04 0.  0.
        2    1    3    3  502    0 -0.14860433577E+04 -0.73326088358E+03 -0.80355926457E+03  0.18416579150E+04  0.25500000920E-02 0.  1.
       -2    1    3    3    0  502  0.14860433577E+04  0.73326088358E+03 -0.98101192127E+02  0.16600060928E+04  0.25500000920E-02 0. -1.
</event>
<event>
 5   0  0.4125758E-07  0.3492465E+04  0.7818609E-02  0.8115578E-01
       -1   -1    0    0    0  501  0.00000000000E+00  0.00000000000E+00  0.22717165585E+04  0.22717165585E+04  0.50400001928E-02 0.  1.
        1   -1    0    0  501    0  0.00000000000E+00  0.00000000000E+00 -0.13423008970E+04  0.13423008970E+04  0.50400001928E-02 0. -1.
    10030    2    1    2    0    0  0.00000000000E+00  0.00000000000E+00  0.92941566148E+03  0.36140174556E+04  0.34924645592E+04 0.  0.
        2    1    3    3  502    0  0.85895889093E+03  0.14884609911E+04  0.14408430606E+03  0.17245540831E+04  0.25500000920E-02 0.  1.
       -2    1    3    3    0  502 -0.85895889093E+03 -0.14884609911E+04  0.78533135542E+03  0.18894633725E+04  0.25500000920E-02 0. -1.
</event>
<event>
 5   0  0.4289684E-07  0.3388710E+04  0.7818609E-02  0.8140683E-01
       -1   -1    0    0    0  501  0.00000000000E+00  0.00000000000E+00  0.13744941128E+04  0.13744941128E+04  0.50400001928E-02 0. -1.
        1   -1    0    0  501    0  0.00000000000E+00  0.00000000000E+00 -0.20886507659E+04  0.20886507659E+04  0.50400001928E-02 0.  1.
    10030    2    1    2    0    0  0.00000000000E+00  0.00000000000E+00 -0.71415665310E+03  0.34631448788E+04  0.33887095960E+04 0.  0.
        4    1    3    3  502    0  0.19302714742E+02 -0.13313009851E+04 -0.14279996897E+04  0.19524137970E+04  0.12699999809E+01 0.  1.
       -4    1    3    3    0  502 -0.19302714742E+02  0.13313009851E+04  0.71384303665E+03  0.15107310818E+04  0.12699999809E+01 0. -1.
</event>
<event>
 5   0  0.1269497E-06  0.3418633E+04  0.7818609E-02  0.8133348E-01
       -2   -1    0    0    0  501  0.00000000000E+00  0.00000000000E+00  0.14456216442E+04  0.14456216442E+04  0.25500000920E-02 0.  1.
        2   -1    0    0  501    0  0.00000000000E+00  0.00000000000E+00 -0.20211121492E+04  0.20211121492E+04  0.25500000920E-02 0. -1.
    10030    2    1    2    0    0  0.00000000000E+00  0.00000000000E+00 -0.57549050500E+03  0.34667337933E+04  0.34186333340E+04 0.  0.
        5    1    3    3  502    0 -0.54791014081E+03  0.12268886341E+04  0.78366196862E+03  0.15555093744E+04  0.46999998093E+01 0.  1.
       -5    1    3    3    0  502  0.54791014081E+03 -0.12268886341E+04 -0.13591524736E+04  0.19112244189E+04  0.46999998093E+01 0. -1.
</event>
<event>
 5   0  0.4125758E-07  0.3205451E+04  0.7818609E-02  0.8187379E-01
       -1   -1    0    0    0  501  0.00000000000E+00  0.00000000000E+00  0.86111195391E+03  0.86111195393E+03  0.50400001928E-02 0. -1.
        1   -1    0    0  501    0  0.00000000000E+00  0.00000000000E+00 -0.29830363719E+04  0.29830363719E+04  0.50400001928E-02 0.  1.
    10030    2    1    2    0    0  0.00000000000E+00  0.00000000000E+00 -0.21219244180E+04  0.38441483258E+04  0.32054505323E+04 0.  0.
        2    1    3    3  502    0  0.11162698826E+04 -0.52647072849E+03 -0.22871944866E+04  0.25989398797E+04  0.25500000920E-02 0.  1.
       -2    1    3    3    0  502 -0.11162698826E+04  0.52647072849E+03  0.16527006859E+03  0.12452084461E+04  0.25500000920E-02 0. -1.
</event>
<event>
 5   0  0.4109937E-07  0.3403961E+04  0.7818609E-02  0.8136935E-01
       -1   -1    0    0    0  501  0.00000000000E+00  0.00000000000E+00  0.25257482059E+04  0.25257482059E+04  0.50400001928E-02 0.  1.
        1   -1    0    0  501    0  0.00000000000E+00  0.00000000000E+00 -0.11468832199E+04  0.11468832200E+04  0.50400001928E-02 0. -1.
    10030    2    1    2    0    0  0.00000000000E+00  0.00000000000E+00  0.13788649859E+04  0.36726314259E+04  0.34039613601E+04 0.  0.
        5    1    3    3  502    0 -0.75559641098E+03 -0.83444071061E+03 -0.68783964406E+03  0.13192280704E+04  0.46999998093E+01 0. -1.
       -5    1    3    3    0  502  0.75559641098E+03  0.83444071061E+03  0.20667046300E+04  0.23534033555E+04  0.46999998093E+01 0.  1.
</event>
<event>
 5   0  0.4289684E-07  0.3406616E+04  0.7818609E-02  0.8136284E-01
       -1   -1    0    0    0  501  0.00000000000E+00  0.00000000000E+00  0.19579980776E+04  0.19579980776E+04  0.50400001928E-02 0. -1.
        1   -1    0    0  501    0  0.00000000000E+00  0.00000000000E+00 -0.14817472000E+04  0.14817472000E+04  0.50400001928E-02 0.  1.
    10030    2    1    2    0    0  0.00000000000E+00  0.00000000000E+00  0.47625087762E+03  0.34397452776E+04  0.34066160154E+04 0.  0.
        4    1    3    3  502    0  0.14968967200E+04  0.57255881639E+03 -0.34431449872E+03  0.16392307572E+04  0.12699999809E+01 0.  1.
       -4    1    3    3    0  502 -0.14968967200E+04 -0.57255881639E+03  0.82056537634E+03  0.18005145204E+04  0.12699999809E+01 0. -1.
</event>
<event>
 5   0  0.4464951E-07  0.3369145E+04  0.7818609E-02  0.8145521E-01
       -1   -1    0    0    0  501  0.00000000000E+00  0.00000000000E+00  0.23217318149E+04  0.23217318149E+04  0.50400001928E-02 0. -1.
        1   -1    0    0  501    0  0.00000000000E+00  0.00000000000E+00 -0.12222709080E+04  0.12222709081E+04  0.50400001928E-02 0.  1.
    10030    2    1    2    0    0  0.00000000000E+00  0.00000000000E+00  0.10994609068E+04  0.35440027229E+04  0.33691454427E+04 0.  0.
        3    1    3    3  502    0  0.39154413807E+03  0.11622292736E+04 -0.66506627846E+03  0.13951332773E+04  0.10100000352E+00 0.  1.
       -3    1    3    3    0  502 -0.39154413807E+03 -0.11622292736E+04  0.17645271853E+04  0.21488694456E+04  0.10100000352E+00 0. -1.
</event>
<event>
 5   0  0.4109937E-07  0.3410539E+04  0.7818609E-02  0.8135325E-01
        1   -1    0    0  501    0  0.00000000000E+00  0.00000000000E+00  0.17512593313E+04  0.17512593313E+04  0.50400001928E-02 0. -1.
       -1   -1    0    0    0  501  0.00000000000E+00  0.00000000000E+00 -0.16604870395E+04  0.16604870395E+04  0.50400001928E-02 0.  1.
    10030    2    1    2    0    0  0.00000000000E+00  0.00000000000E+00  0.90772291715E+02  0.34117463708E+04  0.34105386216E+04 0.  0.
        5    1    3    3  502    0  0.10261043316E+03  0.74635133869E+03 -0.14849765392E+04  0.16651566394E+04  0.46999998093E+01 0.  1.
       -5    1    3    3    0  502 -0.10261043316E+03 -0.74635133869E+03  0.15757488309E+04  0.17465897314E+04  0.46999998093E+01 0. -1.
</event>
<event>
 5   0  0.4272633E-07  0.3408633E+04  0.7818609E-02  0.8135791E-01
        1   -1    0    0  501    0  0.00000000000E+00  0.00000000000E+00  0.15459076327E+04  0.15459076327E+04  0.50400001928E-02 0. -1.
       -1   -1    0    0    0  501  0.00000000000E+00  0.00000000000E+00 -0.18789572906E+04  0.18789572906E+04  0.50400001928E-02 0.  1.
    10030    2    1    2    0    0  0.00000000000E+00  0.00000000000E+00 -0.33304965784E+03  0.34248649233E+04  0.34086328151E+04 0.  0.
        1    1    3    3  502    0 -0.92364081658E+03  0.76655945719E+03  0.10491827282E+04  0.15942114529E+04  0.50400001928E-02 0. -1.
       -1    1    3    3    0  502  0.92364081658E+03 -0.76655945719E+03 -0.13822323861E+04  0.18306534704E+04  0.50400001928E-02 0.  1.
</event>
<event>
 5   0  0.1300176E-06  0.3408440E+04  0.7818609E-02  0.8135838E-01
        2   -1    0    0  501    0  0.00000000000E+00  0.00000000000E+00  0.16806420221E+04  0.16806420221E+04  0.25500000920E-02 0.  1.
       -2   -1    0    0    0  501  0.00000000000E+00  0.00000000000E+00 -0.17281291458E+04  0.17281291458E+04  0.25500000920E-02 0. -1.
    10030    2    1    2    0    0  0.00000000000E+00  0.00000000000E+00 -0.47487123690E+02  0.34087711680E+04  0.34084403836E+04 0.  0.
        1    1    3    3  502    0  0.12244414077E+04 -0.37427141381E+03  0.11011013878E+04  0.16887155232E+04  0.50400001928E-02 0.  1.
       -1    1    3    3    0  502 -0.12244414077E+04  0.37427141381E+03 -0.11485885115E+04  0.17200556447E+04  0.50400001928E-02 0. -1.
</event>
<event>
 5   0  0.4272633E-07  0.3425402E+04  0.7818609E-02  0.8131700E-01
        1   -1    0    0  501    0  0.00000000000E+00  0.00000000000E+00  0.14739546259E+04  0.14739546259E+04  0.50400001928E-02 0.  1.
       -1   -1    0    0    0  501  0.00000000000E+00  0.00000000000E+00 -0.19901187513E+04  0.19901187513E+04  0.50400001928E-02 0. -1.
    10030    2    1    2    0    0  0.00000000000E+00  0.00000000000E+00 -0.51616412541E+03  0.34640733773E+04  0.34254020142E+04 0.  0.
        1    1    3    3  502    0 -0.11419235947E+04  0.12379768467E+03  0.10267052863E+04  0.15405969972E+04  0.50400001928E-02 0.  1.
       -1    1    3    3    0  502  0.11419235947E+04 -0.12379768467E+03 -0.15428694117E+04  0.19234763800E+04  0.50400001928E-02 0. -1.
</event>
<event>
 5   0  0.1277635E-06  0.3453117E+04  0.7818609E-02  0.8124991E-01
        2   -1    0    0  501    0  0.00000000000E+00  0.00000000000E+00  0.15487378376E+04  0.15487378376E+04  0.25500000920E-02 0.  1.
       -2   -1    0    0    0  501  0.00000000000E+00  0.00000000000E+00 -0.19247959208E+04  0.19247959208E+04  0.25500000920E-02 0. -1.
    10030    2    1    2    0    0  0.00000000000E+00  0.00000000000E+00 -0.37605808324E+03  0.34735337584E+04  0.34531170106E+04 0.  0.
        4    1    3    3  502    0 -0.55620695262E+03  0.16158136082E+04 -0.43602855362E+03  0.17636162573E+04  0.12699999809E+01 0.  1.
       -4    1    3    3    0  502  0.55620695262E+03 -0.16158136082E+04  0.59970470379E+02  0.17099175011E+04  0.12699999809E+01 0. -1.
</event>
<event>
 5   0  0.1269497E-06  0.3365450E+04  0.7818609E-02  0.8146438E-01
       -2   -1    0    0    0  501  0.00000000000E+00  0.00000000000E+00  0.16650821734E+04  0.16650821734E+04  0.25500000920E-02 0.  1.
        2   -1    0    0  501    0  0.00000000000E+00  0.00000000000E+00 -0.17005547584E+04  0.17005547584E+04  0.25500000920E-02 0. -1.
    10030    2    1    2    0    0  0.00000000000E+00  0.00000000000E+00 -0.35472585007E+02  0.33656369318E+04  0.33654499925E+04 0.  0.
        5    1    3    3  502    0  0.14045677158E+04  0.46998104162E+03 -0.81643494533E+03  0.16912364582E+04  0.46999998093E+01 0. -1.
       -5    1    3    3    0  502 -0.14045677158E+04 -0.46998104162E+03  0.78096236032E+03  0.16744004736E+04  0.46999998093E+01 0.  1.
</event>
<event>
 5   0  0.4125758E-07  0.3335239E+04  0.7818609E-02  0.8153986E-01
        1   -1    0    0  501    0  0.00000000000E+00  0.00000000000E+00  0.24168773547E+04  0.24168773547E+04  0.50400001928E-02 0.  1.
       -1   -1    0    0    0  501  0.00000000000E+00  0.00000000000E+00 -0.11506398748E+04  0.11506398748E+04  0.50400001928E-02 0. -1.
    10030    2    1    2    0    0  0.00000000000E+00  0.00000000000E+00  0.12662374799E+04  0.35675172295E+04  0.33352393958E+04 0.  0.
        2    1    3    3  502    0  0.10688281241E+04 -0.76800386031E+03  0.17285151686E+04  0.21725533771E+04  0.25500000920E-02 0.  1.
       -2    1    3    3    0  502 -0.10688281241E+04  0.76800386031E+03 -0.46227768863E+03  0.13949638525E+04  0.25500000920E-02 0. -1.
</event>
<event>
 5   0  0.4272633E-07  0.3384647E+04  0.7818609E-02  0.8141685E-01
        1   -1    0    0  501    0  0.00000000000E+00  0.00000000000E+00  0.10530837976E+04  0.10530837976E+04  0.50400001928E-02 0. -1.
       -1   -1    0    0    0  501  0.00000000000E+00  0.00000000000E+00 -0.27195926773E+04  0.27195926774E+04  0.50400001928E-02 0.  1.
    10030    2    1    2    0    0  0.00000000000E+00  0.00000000000E+00 -0.16665088797E+04  0.37726764750E+04  0.33846470922E+04 0.  0.
        1    1    3    3  502    0  0.15423413613E+04  0.12866291532E+03 -0.15962670859E+04  0.22233847238E+04  0.50400001928E-02 0.  1.
       -1    1    3    3    0  502 -0.15423413613E+04 -0.12866291532E+03 -0.70241793827E+02  0.15492917511E+04  0.50400001928E-02 0. -1.
</event>
<event>
 5   0  0.1268230E-06  0.3440037E+04  0.7818609E-02  0.8128149E-01
       -2   -1    0    0    0  501  0.00000000000E+00  0.00000000000E+00  0.11196325735E+04  0.11196325735E+04  0.25500000920E-02 0. -1.
        2   -1    0    0  501    0  0.00000000000E+00  0.00000000000E+00 -0.26423526961E+04  0.26423526961E+04  0.25500000920E-02 0.  1.
    10030    2    1    2    0    0  0.00000000000E+00  0.00000000000E+00 -0.15227201226E+04  0.37619852696E+04  0.34400372959E+04 0.  0.
        2    1    3    3  502    0  0.49407271713E+02 -0.10846702533E+04 -0.22201897217E+04  0.24714758824E+04  0.25500000920E-02 0.  1.
       -2    1    3    3    0  502 -0.49407271713E+02  0.10846702533E+04  0.69746959906E+03  0.12905093873E+04  0.25500000920E-02 0. -1.
</event>
<event>
 5   0  0.4464951E-07  0.3479912E+04  0.7818609E-02  0.8118567E-01
       -1   -1    0    0    0  501  0.00000000000E+00  0.00000000000E+00  0.10393654499E+04  0.10393654499E+04  0.50400001928E-02 0. -1.
        1   -1    0    0  501    0  0.00000000000E+00  0.00000000000E+00 -0.29127843046E+04  0.29127843046E+04  0.50400001928E-02 0.  1.
    10030    2    1    2    0    0  0.00000000000E+00  0.00000000000E+00 -0.18734188546E+04  0.39521497545E+04  0.34799122801E+04 0.  0.
        3    1    3    3  502    0  0.15344209573E+03 -0.83679292585E+03  0.78704826488E+03  0.11589701717E+04  0.10100000352E+00 0. -1.
       -3    1    3    3    0  502 -0.15344209573E+03  0.83679292585E+03 -0.26604671195E+04  0.27931795828E+04  0.10100000352E+00 0.  1.
</event>
<event>
 5   0  0.4464951E-07  0.3587464E+04  0.7818609E-02  0.8093369E-01
       -1   -1    0    0    0  501  0.00000000000E+00  0.00000000000E+00  0.13383402540E+04  0.13383402540E+04  0.50400001928E-02 0. -1.
        1   -1    0    0  501    0  0.00000000000E+00  0.00000000000E+00 -0.24040782868E+04  0.24040782868E+04  0.50400001928E-02 0.  1.
    10030    2    1    2    0    0  0.00000000000E+00  0.00000000000E+00 -0.10657380328E+04  0.37424185408E+04  0.35874641434E+04 0.  0.
        3    1    3    3  502    0 -0.22734851026E+03  0.34713954645E+03 -0.23533179925E+04  0.23896231489E+04  0.10100000352E+00 0.  1.
       -3    1    3    3    0  502  0.22734851026E+03 -0.34713954645E+03  0.12875799596E+04  0.13527953919E+04  0.10100000352E+00 0. -1.
</event>
<event>
 5   0  0.1268230E-06  0.3363279E+04  0.7818609E-02  0.8146978E-01
        2   -1    0    0  501    0  0.00000000000E+00  0.00000000000E+00  0.15126426207E+04  0.15126426207E+04  0.25500000920E-02 0.  1.
       -2   -1    0    0    0  501  0.00000000000E+00  0.00000000000E+00 -0.18695175234E+04  0.18695175234E+04  0.25500000920E-02 0. -1.
    10030    2    1    2    0    0  0.00000000000E+00  0.00000000000E+00 -0.35687490275E+03  0.33821601441E+04  0.33632792843E+04 0.  0.
        2    1    3    3  502    0 -0.74765383791E+03 -0.17246786199E+03  0.13263521557E+04  0.15322994047E+04  0.25500000920E-02 0.  1.
       -2    1    3    3    0  502  0.74765383791E+03  0.17246786199E+03 -0.16832270585E+04  0.18498607394E+04  0.25500000920E-02 0. -1.
</event>
<event>
 5   0  0.4109937E-07  0.3355875E+04  0.7818609E-02  0.8148822E-01
        1   -1    0    0  501    0  0.00000000000E+00  0.00000000000E+00  0.21849101481E+04  0.21849101481E+04  0.50400001928E-02 0. -1.
       -1   -1    0    0    0  501  0.00000000000E+00  0.00000000000E+00 -0.12885992819E+04  0.12885992819E+04  0.50400001928E-02 0.  1.
    10030    2    1    2    0    0  0.00000000000E+00  0.00000000000E+00  0.89631086622E+03  0.34735094301E+04  0.33558746389E+04 0.  0.
        5    1    3    3  502    0  0.21181848287E+03 -0.15359249677E+04 -0.21582868174E+03  0.15654190129E+04  0.46999998093E+01 0. -1.
       -5    1    3    3    0  502 -0.21181848287E+03  0.15359249677E+04  0.11121395480E+04  0.19080904172E+04  0.46999998093E+01 0.  1.
</event>
<event>
 5   0  0.1256208E-06  0.3414781E+04  0.7818609E-02  0.8134288E-01
        2   -1    0    0  501    0  0.00000000000E+00  0.00000000000E+00  0.16464628846E+04  0.16464628846E+04  0.25500000920E-02 0. -1.
       -2   -1    0    0    0  501  0.00000000000E+00  0.00000000000E+00 -0.17705731024E+04  0.17705731024E+04  0.25500000920E-02 0.  1.
    10030    2    1    2    0    0  0.00000000000E+00  0.00000000000E+00 -0.12411021781E+03  0.34170359870E+04  0.34147813386E+04 0.  0.
        3    1    3    3  502    0 -0.76569528882E+03 -0.61727091776E+03  0.13345276070E+04  0.16577926907E+04  0.10100000352E+00 0. -1.
       -3    1    3    3    0  502  0.76569528882E+03  0.61727091776E+03 -0.14586378248E+04  0.17592432963E+04  0.10100000352E+00 0.  1.
</event>
<event>
 5   0  0.1256208E-06  0.3356805E+04  0.7818609E-02  0.8148590E-01
        2   -1    0    0  501    0  0.00000000000E+00  0.00000000000E+00  0.16035946948E+04  0.16035946948E+04  0.25500000920E-02 0.  1.
       -2   -1    0    0    0  501  0.00000000000E+00  0.00000000000E+00 -0.17567001591E+04  0.17567001591E+04  0.25500000920E-02 0. -1.
    10030    2    1    2    0    0  0.00000000000E+00  0.00000000000E+00 -0.15310546434E+03  0.33602948539E+04  0.33568050617E+04 0.  0.
        3    1    3    3  502    0  0.12743354953E+04 -0.10918245833E+04 -0.10857301596E+03  0.16816063705E+04  0.10100000352E+00 0. -1.
       -3    1    3    3    0  502 -0.12743354953E+04  0.10918245833E+04 -0.44532448378E+02  0.16786884834E+04  0.10100000352E+00 0.  1.
</event>
<event>
 5   0  0.1268230E-06  0.3416957E+04  0.7818609E-02  0.8133757E-01
        2   -1    0    0  501    0  0.00000000000E+00  0.00000000000E+00  0.22670138580E+04  0.22670138580E+04  0.25500000920E-02 0. -1.
       -2   -1    0    0    0  501  0.00000000000E+00  0.00000000000E+00 -0.12875522131E+04  0.12875522131E+04  0.25500000920E-02 0.  1.
    10030    2    1    2    0    0  0.00000000000E+00  0.00000000000E+00  0.97946164483E+03  0.35545660711E+04  0.34169569561E+04 0.  0.
        2    1    3    3  502    0 -0.15642554382E+04 -0.60035127605E+03  0.83722226479E+03  0.18730343967E+04  0.25500000920E-02 0. -1.
       -2    1    3    3    0  502  0.15642554382E+04  0.60035127605E+03  0.14223938003E+03  0.16815316744E+04  0.25500000920E-02 0.  1.
</event>
<event>
 5   0  0.4289684E-07  0.3400412E+04  0.7818609E-02  0.8137805E-01
       -1   -1    0    0    0  501  0.00000000000E+00  0.00000000000E+00  0.29329647890E+04  0.29329647890E+04  0.50400001928E-02 0.  1.
        1   -1    0    0  501    0  0.00000000000E+00  0.00000000000E+00 -0.98558962788E+03  0.98558962790E+03  0.50400001928E-02 0. -1.
    10030    2    1    2    0    0  0.00000000000E+00  0.00000000000E+00  0.19473751611E+04  0.39185544169E+04  0.34004115486E+04 0.  0.
        4    1    3    3  502    0  0.92045555763E+03  0.10287700451E+04 -0.17006676392E+03  0.13908740261E+04  0.12699999809E+01 0. -1.
       -4    1    3    3    0  502 -0.92045555763E+03 -0.10287700451E+04  0.21174419250E+04  0.25276803908E+04  0.12699999809E+01 0.  1.
</event>
<event>
 5   0  0.1300176E-06  0.3443296E+04  0.7818609E-02  0.8127361E-01
       -2   -1    0    0    0  501  0.00000000000E+00  0.00000000000E+00  0.19678871986E+04  0.19678871986E+04  0.25500000920E-02 0.  1.
        2   -1    0    0  501    0  0.00000000000E+00  0.00000000000E+00 -0.15062200634E+04  0.15062200634E+04  0.25500000920E-02 0. -1.
    10030    2    1    2    0    0  0.00000000000E+00  0.00000000000E+00  0.46166713525E+03  0.34741072620E+04  0.34432956196E+04 0.  0.
        1    1    3    3  502    0 -0.41622668834E+03  0.10212420877E+04 -0.11030751208E+04  0.15597931850E+04  0.50400001928E-02 0. -1.
       -1    1    3    3    0  502  0.41622668834E+03 -0.10212420877E+04  0.15647422561E+04  0.19143140771E+04  0.50400001928E-02 0.  1.
</event>
<event>
 5   0  0.1268230E-06  0.3417666E+04  0.7818609E-02  0.8133584E-01
       -2   -1    0    0    0  501  0.00000000000E+00  0.00000000000E+00  0.12336024786E+04  0.12336024786E+04  0.25500000920E-02 0. -1.
        2   -1    0    0  501    0  0.00000000000E+00  0.00000000000E+00 -0.23671407849E+04  0.23671407849E+04  0.25500000920E-02 0.  1.
    10030    2    1    2    0    0  0.00000000000E+00  0.00000000000E+00 -0.11335383063E+04  0.36007432635E+04  0.34176663029E+04 0.  0.
        2    1    3    3  502    0 -0.22008465873E+03  0.60952121333E+03 -0.22326585868E+04  0.23248048804E+04  0.25500000920E-02 0.  1.
       -2    1    3    3    0  502  0.22008465873E+03 -0.60952121333E+03  0.10991202805E+04  0.12759383831E+04  0.25500000920E-02 0. -1.
</event>
<event>
 5   0  0.1300176E-06  0.2779989E+04  0.7818609E-02  0.8309508E-01
       -2   -1    0    0    0  501  0.00000000000E+00  0.00000000000E+00  0.94288194837E+03  0.94288194837E+03  0.25500000920E-02 0. -1.
        2   -1    0    0  501    0  0.00000000000E+00  0.00000000000E+00 -0.20491269504E+04  0.20491269504E+04  0.25500000920E-02 0.  1.
    10030    2    1    2    0    0  0.00000000000E+00  0.00000000000E+00 -0.11062450021E+04  0.29920088988E+04  0.27799890730E+04 0.  0.
        1    1    3    3  502    0  0.21930853887E+03 -0.58610689523E+03 -0.18889366266E+04  0.19898992706E+04  0.50400001928E-02 0.  1.
       -1    1    3    3    0  502 -0.21930853887E+03  0.58610689523E+03  0.78269162451E+03  0.10021096282E+04  0.50400001928E-02 0. -1.
</event>
<event>
 5   0  0.1256208E-06  0.3285913E+04  0.7818609E-02  0.8166489E-01
        2   -1    0    0  501    0  0.00000000000E+00  0.00000000000E+00  0.21442259502E+04  0.21442259502E+04  0.25500000920E-02 0. -1.
       -2   -1    0    0    0  501  0.00000000000E+00  0.00000000000E+00 -0.12588721143E+04  0.12588721143E+04  0.25500000920E-02 0.  1.
    10030    2    1    2    0    0  0.00000000000E+00  0.00000000000E+00  0.88535383594E+03  0.34030980645E+04  0.32859131184E+04 0.  0.
        3    1    3    3  502    0 -0.51180624467E+03  0.17129518978E+03 -0.11644430746E+04  0.12834388799E+04  0.10100000352E+00 0.  1.
       -3    1    3    3    0  502  0.51180624467E+03 -0.17129518978E+03  0.20497969106E+04  0.21196591846E+04  0.10100000352E+00 0. -1.
</event>
<event>
 5   0  0.4125758E-07  0.3445649E+04  0.7818609E-02  0.8126793E-01
       -1   -1    0    0    0  501  0.00000000000E+00  0.00000000000E+00  0.15135994943E+04  0.15135994943E+04  0.50400001928E-02 0. -1.
        1   -1    0    0  501    0  0.00000000000E+00  0.00000000000E+00 -0.19609707685E+04  0.19609707685E+04  0.50400001928E-02 0.  1.
    10030    2    1    2    0    0  0.00000000000E+00  0.00000000000E+00 -0.44737127423E+03  0.34745702628E+04  0.34456490613E+04 0.  0.
        2    1    3    3  502    0 -0.48824887805E+03 -0.12756622342E+04 -0.12824620068E+04  0.18736087909E+04  0.25500000920E-02 0.  1.
       -2    1    3    3    0  502  0.48824887805E+03  0.12756622342E+04  0.83509073254E+03  0.16009614718E+04  0.25500000920E-02 0. -1.
</event>
<event>
 5   0  0.1256208E-06  0.3359640E+04  0.7818609E-02  0.8147884E-01
       -2   -1    0    0    0  501  0.00000000000E+00  0.00000000000E+00  0.13994295044E+04  0.13994295044E+04  0.25500000920E-02 0. -1.
        2   -1    0    0  501    0  0.00000000000E+00  0.00000000000E+00 -0.20163896487E+04  0.20163896487E+04  0.25500000920E-02 0.  1.
    10030    2    1    2    0    0  0.00000000000E+00  0.00000000000E+00 -0.61696014428E+03  0.34158191531E+04  0.33596399609E+04 0.  0.
        3    1    3    3  502    0  0.82473543125E+02 -0.16517803554E+04 -0.60770550731E+03  0.17619552269E+04  0.10100000352E+00 0.  1.
       -3    1    3    3    0  502 -0.82473543125E+02  0.16517803554E+04 -0.92546369753E+01  0.16538639262E+04  0.10100000352E+00 0. -1.
</event>
<event>
 5   0  0.1277635E-06  0.3316078E+04  0.7818609E-02  0.8158816E-01
       -2   -1    0    0    0  501  0.00000000000E+00  0.00000000000E+00  0.10546662469E+04  0.10546662469E+04  0.25500000920E-02 0. -1.
        2   -1    0    0  501    0  0.00000000000E+00  0.00000000000E+00 -0.26066009421E+04  0.26066009421E+04  0.25500000920E-02 0.  1.
    10030    2    1    2    0    0  0.00000000000E+00  0.00000000000E+00 -0.15519346952E+04  0.36612671890E+04  0.33160784265E+04 0.  0.
        4    1    3    3  502    0  0.12367488680E+04  0.82642442533E+03  0.32790936454E+02  0.14878178489E+04  0.12699999809E+01 0. -1.
       -4    1    3    3    0  502 -0.12367488680E+04 -0.82642442533E+03 -0.15847256317E+04  0.21734493401E+04  0.12699999809E+01 0.  1.
</event>
<event>
 5   0  0.4272633E-07  0.3392183E+04  0.7818609E-02  0.8139827E-01
        1   -1    0    0  501    0  0.00000000000E+00  0.00000000000E+00  0.14961923713E+04  0.14961923713E+04  0.50400001928E-02 0. -1.
       -1   -1    0    0    0  501  0.00000000000E+00  0.00000000000E+00 -0.19226986153E+04  0.19226986153E+04  0.50400001928E-02 0.  1.
    10030    2    1    2    0    0  0.00000000000E+00  0.00000000000E+00 -0.42650624396E+03  0.34188909866E+04  0.33921833680E+04 0.  0.
        1    1    3    3  502    0 -0.10351304006E+04 -0.18936003065E+03 -0.15539044900E+04  0.18766915920E+04  0.50400001928E-02 0.  1.
       -1    1    3    3    0  502  0.10351304006E+04  0.18936003065E+03  0.11273982460E+04  0.15421993946E+04  0.50400001928E-02 0. -1.
</event>
<event>
 5   0  0.4125758E-07  0.3403475E+04  0.7818609E-02  0.8137054E-01
        1   -1    0    0  501    0  0.00000000000E+00  0.00000000000E+00  0.20561890700E+04  0.20561890700E+04  0.50400001928E-02 0.  1.
       -1   -1    0    0    0  501  0.00000000000E+00  0.00000000000E+00 -0.14083876712E+04  0.14083876712E+04  0.50400001928E-02 0. -1.
    10030    2    1    2    0    0  0.00000000000E+00  0.00000000000E+00  0.64780139881E+03  0.34645767412E+04  0.34034754801E+04 0.  0.
        2    1    3    3  502    0 -0.15770192230E+04 -0.63425018254E+03  0.24089908851E+03  0.17167688530E+04  0.25500000920E-02 0.  1.
       -2    1    3    3    0  502  0.15770192230E+04  0.63425018254E+03  0.40690231030E+03  0.17478078882E+04  0.25500000920E-02 0. -1.
</event>
<event>
 5   0  0.4109937E-07  0.3442292E+04  0.7818609E-02  0.8127604E-01
       -1   -1    0    0    0  501  0.00000000000E+00  0.00000000000E+00  0.13604353307E+04  0.13604353307E+04  0.50400001928E-02 0. -1.
        1   -1    0    0  501    0  0.00000000000E+00  0.00000000000E+00 -0.21774972347E+04  0.21774972347E+04  0.50400001928E-02 0.  1.
    10030    2    1    2    0    0  0.00000000000E+00  0.00000000000E+00 -0.81706190400E+03  0.35379325654E+04  0.34422923586E+04 0.  0.
        5    1    3    3  502    0  0.64740884851E+03 -0.99831320936E+03  0.86962670614E+03  0.14737843055E+04  0.46999998093E+01 0. -1.
       -5    1    3    3    0  502 -0.64740884851E+03  0.99831320936E+03 -0.16866886101E+04  0.20641482599E+04  0.46999998093E+01 0.  1.
</event>
<event>
 5   0  0.4464951E-07  0.3452948E+04  0.7818609E-02  0.8125032E-01
       -1   -1    0    0    0  501  0.00000000000E+00  0.00000000000E+00  0.17844544053E+04  0.17844544053E+04  0.50400001928E-02 0.  1.
        1   -1    0    0  501    0  0.00000000000E+00  0.00000000000E+00 -0.16703771839E+04  0.16703771839E+04  0.50400001928E-02 0. -1.
    10030    2    1    2    0    0  0.00000000000E+00  0.00000000000E+00  0.11407722145E+03  0.34548315892E+04  0.34529476824E+04 0.  0.
        3    1    3    3  502    0  0.45014191942E+03  0.12148524103E+04  0.11988087886E+04  0.17651166104E+04  0.10100000352E+00 0.  1.
       -3    1    3    3    0  502 -0.45014191942E+03 -0.12148524103E+04 -0.10847315672E+04  0.16897149788E+04  0.10100000352E+00 0. -1.
</event>
<event>
 5   0  0.1277635E-06  0.3455611E+04  0.7818609E-02  0.8124391E-01
        2   -1    0    0  501    0  0.00000000000E+00  0.00000000000E+00  0.17024088557E+04  0.17024088557E+04  0.25500000920E-02 0.  1.
       -2   -1    0    0    0  501  0.00000000000E+00  0.00000000000E+00 -0.17535808426E+04  0.17535808426E+04  0.25500000920E-02 0. -1.
    10030    2    1    2    0    0  0.00000000000E+00  0.00000000000E+00 -0.51171986904E+02  0.34559896982E+04  0.34556108320E+04 0.  0.
        4    1    3    3  502    0  0.11200482333E+04 -0.66721049146E+03 -0.11595674666E+04  0.17447854330E+04  0.12699999809E+01 0. -1.
       -4    1    3    3    0  502 -0.11200482333E+04  0.66721049146E+03  0.11083954797E+04  0.17112042652E+04  0.12699999809E+01 0.  1.
</event>
<event>
 5   0  0.4272633E-07  0.3376097E+04  0.7818609E-02  0.8143798E-01
        1   -1    0    0  501    0  0.00000000000E+00  0.00000000000E+00  0.95841852624E+03  0.95841852625E+03  0.50400001928E-02 0. -1.
       -1   -1    0    0    0  501  0.00000000000E+00  0.00000000000E+00 -0.29731357098E+04  0.29731357098E+04  0.50400001928E-02 0.  1.
    10030    2    1    2    0    0  0.00000000000E+00  0.00000000000E+00 -0.20147171836E+04  0.39315542361E+04  0.33760973596E+04 0.  0.
        1    1    3    3  502    0 -0.14353040833E+04  0.72825624076E+03 -0.16000708943E+04  0.22695113638E+04  0.50400001928E-02 0.  1.
       -1    1    3    3    0  502  0.14353040833E+04 -0.72825624076E+03 -0.41464628929E+03  0.16620428722E+04  0.50400001928E-02 0. -1.
</event>
<event>
 5   0  0.1269497E-06  0.3377782E+04  0.7818609E-02  0.8143381E-01
       -2   -1    0    0    0  501  0.00000000000E+00  0.00000000000E+00  0.10917159800E+04  0.10917159800E+04  0.25500000920E-02 0.  1.
        2   -1    0    0  501    0  0.00000000000E+00  0.00000000000E+00 -0.26127235606E+04  0.26127235606E+04  0.25500000920E-02 0. -1.
    10030    2    1    2    0    0  0.00000000000E+00  0.00000000000E+00 -0.15210075806E+04  0.37044395406E+04  0.33777815575E+04 0.  0.
        5    1    3    3  502    0 -0.98637911153E+03  0.81006199749E+03 -0.19734377707E+04  0.23502389062E+04  0.46999998093E+01 0. -1.
       -5    1    3    3    0  502  0.98637911153E+03 -0.81006199749E+03  0.45243019005E+03  0.13542006344E+04  0.46999998093E+01 0.  1.
</event>
<event>
 5   0  0.1269497E-06  0.2826145E+04  0.7818609E-02  0.8295197E-01
        2   -1    0    0  501    0  0.00000000000E+00  0.00000000000E+00  0.19216434959E+04  0.19216434959E+04  0.25500000920E-02 0. -1.
       -2   -1    0    0    0  501  0.00000000000E+00  0.00000000000E+00 -0.10390972889E+04  0.10390972889E+04  0.25500000920E-02 0.  1.
    10030    2    1    2    0    0  0.00000000000E+00  0.00000000000E+00  0.88254620704E+03  0.29607407848E+04  0.28261454646E+04 0.  0.
        5    1    3    3  502    0 -0.11356356279E+04  0.48716416213E+03  0.11593016303E+04  0.16944024198E+04  0.46999998093E+01 0. -1.
       -5    1    3    3    0  502  0.11356356279E+04 -0.48716416213E+03 -0.27675542322E+03  0.12663383650E+04  0.46999998093E+01 0.  1.
</event>
<event>
 5   0  0.1269497E-06  0.3377911E+04  0.7818609E-02  0.8143349E-01
       -2   -1    0    0    0  501  0.00000000000E+00  0.00000000000E+00  0.22037447662E+04  0.22037447662E+04  0.25500000920E-02 0. -1.
        2   -1    0    0  501    0  0.00000000000E+00  0.00000000000E+00 -0.12944196833E+04  0.12944196833E+04  0.25500000920E-02 0.  1.
    10030    2    1    2    0    0  0.00000000000E+00  0.00000000000E+00  0.90932508293E+03  0.34981644495E+04  0.33779109534E+04 0.  0.
        5    1    3    3  502    0 -0.14914478294E+04  0.78115365279E+03  0.59333573820E+03  0.17851294197E+04  0.46999998093E+01 0. -1.
       -5    1    3    3    0  502  0.14914478294E+04 -0.78115365279E+03  0.31598934473E+03  0.17130350297E+04  0.46999998093E+01 0.  1.
</event>
<event>
 5   0  0.1268230E-06  0.2736899E+04  0.7818609E-02  0.8323131E-01
        2   -1    0    0  501    0  0.00000000000E+00  0.00000000000E+00  0.24074103012E+04  0.24074103012E+04  0.25500000920E-02 0.  1.
       -2   -1    0    0    0  501  0.00000000000E+00  0.00000000000E+00 -0.77787063045E+03  0.77787063045E+03  0.25500000920E-02 0. -1.
    10030    2    1    2    0    0  0.00000000000E+00  0.00000000000E+00  0.16295396707E+04  0.31852809316E+04  0.27368988061E+04 0.  0.
        2    1    3    3  502    0  0.99719816930E+03 -0.87245725490E+03  0.41656369791E+03  0.13889244634E+04  0.25500000920E-02 0. -1.
       -2    1    3    3    0  502 -0.99719816930E+03  0.87245725490E+03  0.12129759728E+04  0.17963564683E+04  0.25500000920E-02 0.  1.
</event>
<event>
 5   0  0.4289684E-07  0.3137449E+04  0.7818609E-02  0.8205535E-01
        1   -1    0    0  501    0  0.00000000000E+00  0.00000000000E+00  0.17565264544E+04  0.17565264545E+04  0.50400001928E-02 0.  1.
       -1   -1    0    0    0  501  0.00000000000E+00  0.00000000000E+00 -0.14010018400E+04  0.14010018400E+04  0.50400001928E-02 0. -1.
    10030    2    1    2    0    0  0.00000000000E+00  0.00000000000E+00  0.35552461442E+03  0.31575282945E+04  0.31374491516E+04 0.  0.
        4    1    3    3  502    0 -0.11263225283E+03 -0.76894105889E+03  0.15491787461E+04  0.17331799609E+04  0.12699999809E+01 0.  1.
       -4    1    3    3    0  502  0.11263225283E+03  0.76894105889E+03 -0.11936541317E+04  0.14243483336E+04  0.12699999809E+01 0. -1.
</event>
<event>
 5   0  0.1300176E-06  0.3373620E+04  0.7818609E-02  0.8144411E-01
        2   -1    0    0  501    0  0.00000000000E+00  0.00000000000E+00  0.24142214699E+04  0.24142214699E+04  0.25500000920E-02 0. -1.
       -2   -1    0    0    0  501  0.00000000000E+00  0.00000000000E+00 -0.11785693919E+04  0.11785693919E+04  0.25500000920E-02 0.  1.
    10030    2    1    2    0    0  0.00000000000E+00  0.00000000000E+00  0.12356520780E+04  0.35927908618E+04  0.33736197354E+04 0.  0.
        1    1    3    3  502    0 -0.21231282580E+03  0.25840963923E+02 -0.11640705055E+04  0.11835559274E+04  0.50400001928E-02 0.  1.
       -1    1    3    3    0  502  0.21231282580E+03 -0.25840963923E+02  0.23997225835E+04  0.24092349345E+04  0.50400001928E-02 0. -1.
</event>
<event>
 5   0  0.1269497E-06  0.3474770E+04  0.7818609E-02  0.8119795E-01
        2   -1    0    0  501    0  0.00000000000E+00  0.00000000000E+00  0.33534809298E+04  0.33534809299E+04  0.25500000920E-02 0.  1.
       -2   -1    0    0    0  501  0.00000000000E+00  0.00000000000E+00 -0.90011169181E+03  0.90011169181E+03  0.25500000920E-02 0. -1.
    10030    2    1    2    0    0  0.00000000000E+00  0.00000000000E+00  0.24533692380E+04  0.42535926217E+04  0.34747704346E+04 0.  0.
        5    1    3    3  502    0  0.14531075158E+04  0.63805530569E+03  0.20921492231E+04  0.26259753402E+04  0.46999998093E+01 0. -1.
       -5    1    3    3    0  502 -0.14531075158E+04 -0.63805530569E+03  0.36122001496E+03  0.16276172815E+04  0.46999998093E+01 0.  1.
</event>
<event>
 5   0  0.1277635E-06  0.3396145E+04  0.7818609E-02  0.8138853E-01
       -2   -1    0    0    0  501  0.00000000000E+00  0.00000000000E+00  0.11760108072E+04  0.11760108072E+04  0.25500000920E-02 0. -1.
        2   -1    0    0  501    0  0.00000000000E+00  0.00000000000E+00 -0.24518903369E+04  0.24518903369E+04  0.25500000920E-02 0.  1.
    10030    2    1    2    0    0  0.00000000000E+00  0.00000000000E+00 -0.12758795298E+04  0.36279011441E+04  0.33961445989E+04 0.  0.
        4    1    3    3  502    0  0.49666068777E+03 -0.42199632777E+03  0.10370864818E+04  0.12248684513E+04  0.12699999809E+01 0. -1.
       -4    1    3    3    0  502 -0.49666068777E+03  0.42199632777E+03 -0.23129660115E+04  0.24030326928E+04  0.12699999809E+01 0.  1.
</event>
<event>
 5   0  0.1256208E-06  0.3320533E+04  0.7818609E-02  0.8157690E-01
       -2   -1    0    0    0  501  0.00000000000E+00  0.00000000000E+00  0.23356453195E+04  0.23356453195E+04  0.25500000920E-02 0. -1.
        2   -1    0    0  501    0  0.00000000000E+00  0.00000000000E+00 -0.11801812237E+04  0.11801812237E+04  0.25500000920E-02 0.  1.
    10030    2    1    2    0    0  0.00000000000E+00  0.00000000000E+00  0.11554640958E+04  0.35158265432E+04  0.33205329399E+04 0.  0.
        3    1    3    3  502    0 -0.64543312707E+03 -0.67938303713E+03 -0.87339920127E+03  0.12810040623E+04  0.10100000352E+00 0.  1.
       -3    1    3    3    0  502  0.64543312707E+03  0.67938303713E+03  0.20288632971E+04  0.22348224809E+04  0.10100000352E+00 0. -1.
</event>
<event>
 5   0  0.1269497E-06  0.3377484E+04  0.7818609E-02  0.8143455E-01
       -2   -1    0    0    0  501  0.00000000000E+00  0.00000000000E+00  0.32276149831E+04  0.32276149831E+04  0.25500000920E-02 0. -1.
        2   -1    0    0  501    0  0.00000000000E+00  0.00000000000E+00 -0.88357817134E+03  0.88357817134E+03  0.25500000920E-02 0.  1.
    10030    2    1    2    0    0  0.00000000000E+00  0.00000000000E+00  0.23440368118E+04  0.41111931545E+04  0.33774843565E+04 0.  0.
        5    1    3    3  502    0 -0.39774510448E+03 -0.12984361587E+03  0.31635163502E+04  0.31910685234E+04  0.46999998093E+01 0. -1.
       -5    1    3    3    0  502  0.39774510448E+03  0.12984361587E+03 -0.81947953847E+03  0.92012463107E+03  0.46999998093E+01 0.  1.
</event>
<event>
 5   0  0.4289684E-07  0.3372693E+04  0.7818609E-02  0.8144641E-01
       -1   -1    0    0    0  501  0.00000000000E+00  0.00000000000E+00  0.23318640299E+04  0.23318640299E+04  0.50400001928E-02 0. -1.
        1   -1    0    0  501    0  0.00000000000E+00  0.00000000000E+00 -0.12195241650E+04  0.12195241651E+04  0.50400001928E-02 0.  1.
    10030    2    1    2    0    0  0.00000000000E+00  0.00000000000E+00  0.11123398648E+04  0.35513881949E+04  0.33726930095E+04 0.  0.
        4    1    3    3  502    0 -0.90119625977E+03  0.56867247344E+03  0.19324068865E+04  0.22067489818E+04  0.12699999809E+01 0. -1.
       -4    1    3    3    0  502  0.90119625977E+03 -0.56867247344E+03 -0.82006702166E+03  0.13446392132E+04  0.12699999809E+01 0.  1.
</event>
<event>
 5   0  0.4464951E-07  0.3556483E+04  0.7818609E-02  0.8100533E-01
       -1   -1    0    0    0  501  0.00000000000E+00  0.00000000000E+00  0.20335869012E+04  0.20335869012E+04  0.50400001928E-02 0.  1.
        1   -1    0    0  501    0  0.00000000000E+00  0.00000000000E+00 -0.15549586393E+04  0.15549586393E+04  0.50400001928E-02 0. -1.
    10030    2    1    2    0    0  0.00000000000E+00  0.00000000000E+00  0.47862826187E+03  0.35885455406E+04  0.35564833872E+04 0.  0.
        3    1    3    3  502    0 -0.47250096785E+02  0.69107398227E+03 -0.14132320092E+04  0.15738616656E+04  0.10100000352E+00 0. -1.
       -3    1    3    3    0  502  0.47250096785E+02 -0.69107398227E+03  0.18918602710E+04  0.20146838749E+04  0.10100000352E+00 0.  1.
</event>
<event>
 5   0  0.4109937E-07  0.3413941E+04  0.7818609E-02  0.8134493E-01
        1   -1    0    0  501    0  0.00000000000E+00  0.00000000000E+00  0.30002609693E+04  0.30002609693E+04  0.50400001928E-02 0. -1.
       -1   -1    0    0    0  501  0.00000000000E+00  0.00000000000E+00 -0.97116501581E+03  0.97116501583E+03  0.50400001928E-02 0.  1.
    10030    2    1    2    0    0  0.00000000000E+00  0.00000000000E+00  0.20290959535E+04  0.39714259851E+04  0.34139411194E+04 0.  0.
        5    1    3    3  502    0 -0.12579357778E+04  0.69681355753E+03  0.20843855072E+04  0.25323184214E+04  0.46999998093E+01 0. -1.
       -5    1    3    3    0  502  0.12579357778E+04 -0.69681355753E+03 -0.55289553684E+02  0.14391075637E+04  0.46999998093E+01 0.  1.
</event>
<event>
 5   0  0.1300176E-06  0.3396332E+04  0.7818609E-02  0.8138807E-01
       -2   -1    0    0    0  501  0.00000000000E+00  0.00000000000E+00  0.17841044144E+04  0.17841044144E+04  0.25500000920E-02 0. -1.
        2   -1    0    0  501    0  0.00000000000E+00  0.00000000000E+00 -0.16163667601E+04  0.16163667601E+04  0.25500000920E-02 0.  1.
    10030    2    1    2    0    0  0.00000000000E+00  0.00000000000E+00  0.16773765427E+03  0.34004711745E+04  0.33963315927E+04 0.  0.
        1    1    3    3  502    0  0.14357720316E+04 -0.90388664464E+03  0.15685952645E+03  0.17038360555E+04  0.50400001928E-02 0. -1.
       -1    1    3    3    0  502 -0.14357720316E+04  0.90388664464E+03  0.10878127812E+02  0.16966351189E+04  0.50400001928E-02 0.  1.
</event>
<event>
 5   0  0.1269497E-06  0.3402798E+04  0.7818609E-02  0.8137220E-01
        2   -1    0    0  501    0  0.00000000000E+00  0.00000000000E+00  0.19387921904E+04  0.19387921904E+04  0.25500000920E-02 0. -1.
       -2   -1    0    0    0  501  0.00000000000E+00  0.00000000000E+00 -0.14930734349E+04  0.14930734349E+04  0.25500000920E-02 0.  1.
    10030    2    1    2    0    0  0.00000000000E+00  0.00000000000E+00  0.44571875549E+03  0.34318656254E+04  0.34027983281E+04 0.  0.
        5    1    3    3  502    0 -0.10769791756E+04  0.95257733982E+03  0.11402721000E+04  0.18350831820E+04  0.46999998093E+01 0. -1.
       -5    1    3    3    0  502  0.10769791756E+04 -0.95257733982E+03 -0.69455334450E+03  0.15967824433E+04  0.46999998093E+01 0.  1.
</event>
<event>
 5   0  0.4109937E-07  0.3391077E+04  0.7818609E-02  0.8140100E-01
        1   -1    0    0  501    0  0.00000000000E+00  0.00000000000E+00  0.26780835324E+04  0.26780835324E+04  0.50400001928E-02 0. -1.
       -1   -1    0    0    0  501  0.00000000000E+00  0.00000000000E+00 -0.10734729878E+04  0.10734729878E+04  0.50400001928E-02 0.  1.
    10030    2    1    2    0    0  0.00000000000E+00  0.00000000000E+00  0.16046105446E+04  0.37515565202E+04  0.33910767205E+04 0.  0.
        5    1    3    3  502    0  0.62173136311E+03 -0.71298956283E+03  0.23589810378E+04  0.25415974566E+04  0.46999998093E+01 0. -1.
       -5    1    3    3    0  502 -0.62173136311E+03  0.71298956283E+03 -0.75437049323E+03  0.12099590636E+04  0.46999998093E+01 0.  1.
</event>
<event>
 5   0  0.4272633E-07  0.3164022E+04  0.7818609E-02  0.8198384E-01
        1   -1    0    0  501    0  0.00000000000E+00  0.00000000000E+00  0.20577998239E+04  0.20577998239E+04  0.50400001928E-02 0.  1.
       -1   -1    0    0    0  501  0.00000000000E+00  0.00000000000E+00 -0.12162301423E+04  0.12162301423E+04  0.50400001928E-02 0. -1.
    10030    2    1    2    0    0  0.00000000000E+00  0.00000000000E+00  0.84156968163E+03  0.32740299662E+04  0.31640216008E+04 0.  0.
        1    1    3    3  502    0 -0.11559819152E+04 -0.38366562349E+03  0.14654730582E+04  0.19055457967E+04  0.50400001928E-02 0.  1.
       -1    1    3    3    0  502  0.11559819152E+04  0.38366562349E+03 -0.62390337662E+03  0.13684841695E+04  0.50400001928E-02 0. -1.
</event>
<event>
 5   0  0.1277635E-06  0.3429065E+04  0.7818609E-02  0.8130809E-01
       -2   -1    0    0    0  501  0.00000000000E+00  0.00000000000E+00  0.19723807169E+04  0.19723807169E+04  0.25500000920E-02 0.  1.
        2   -1    0    0  501    0  0.00000000000E+00  0.00000000000E+00 -0.14903925699E+04  0.14903925699E+04  0.25500000920E-02 0. -1.
    10030    2    1    2    0    0  0.00000000000E+00  0.00000000000E+00  0.48198814694E+03  0.34627732868E+04  0.34290649253E+04 0.  0.
        4    1    3    3  502    0 -0.99724201364E+03  0.13941644747E+04  0.20275714650E+03  0.17260643933E+04  0.12699999809E+01 0. -1.
       -4    1    3    3    0  502  0.99724201364E+03 -0.13941644747E+04  0.27923100045E+03  0.17367088935E+04  0.12699999809E+01 0.  1.
</event>
<event>
 5   0  0.4272633E-07  0.3382400E+04  0.7818609E-02  0.8142239E-01
       -1   -1    0    0    0  501  0.00000000000E+00  0.00000000000E+00  0.11827716453E+04  0.11827716453E+04  0.50400001928E-02 0. -1.
        1   -1    0    0  501    0  0.00000000000E+00  0.00000000000E+00 -0.24181821874E+04  0.24181821874E+04  0.50400001928E-02 0.  1.
    10030    2    1    2    0    0  0.00000000000E+00  0.00000000000E+00 -0.12354105421E+04  0.36009538327E+04  0.33823999316E+04 0.  0.
        1    1    3    3  502    0 -0.15426227116E+04  0.61326705006E+03 -0.27375713398E+03  0.16824756383E+04  0.50400001928E-02 0. -1.
       -1    1    3    3    0  502  0.15426227116E+04 -0.61326705006E+03 -0.96165340810E+03  0.19184781944E+04  0.50400001928E-02 0.  1.
</event>
<event>
 5   0  0.1277635E-06  0.3444029E+04  0.7818609E-02  0.8127184E-01
       -2   -1    0    0    0  501  0.00000000000E+00  0.00000000000E+00  0.12830657076E+04  0.12830657076E+04  0.25500000920E-02 0. -1.
        2   -1    0    0  501    0  0.00000000000E+00  0.00000000000E+00 -0.23111324119E+04  0.23111324119E+04  0.25500000920E-02 0.  1.
    10030    2    1    2    0    0  0.00000000000E+00  0.00000000000E+00 -0.10280667043E+04  0.35941981195E+04  0.34440294676E+04 0.  0.
        4    1    3    3  502    0  0.93450787189E+03 -0.20240398819E+03 -0.20086314337E+04  0.22246065240E+04  0.12699999809E+01 0.  1.
       -4    1    3    3    0  502 -0.93450787189E+03  0.20240398819E+03  0.98056472946E+03  0.13695915956E+04  0.12699999809E+01 0. -1.
</event>
<event>
 5   0  0.1300176E-06  0.3538412E+04  0.7818609E-02  0.8104747E-01
        2   -1    0    0  501    0  0.00000000000E+00  0.00000000000E+00  0.15057268757E+04  0.15057268757E+04  0.25500000920E-02 0. -1.
       -2   -1    0    0    0  501  0.00000000000E+00  0.00000000000E+00 -0.20787897196E+04  0.20787897196E+04  0.25500000920E-02 0.  1.
    10030    2    1    2    0    0  0.00000000000E+00  0.00000000000E+00 -0.57306284392E+03  0.35845165953E+04  0.35384118187E+04 0.  0.
        1    1    3    3  502    0 -0.17944407219E+03 -0.17594380758E+04 -0.23829767058E+03  0.17845470847E+04  0.50400001928E-02 0.  1.
       -1    1    3    3    0  502  0.17944407219E+03  0.17594380758E+04 -0.33476517334E+03  0.17999695106E+04  0.50400001928E-02 0. -1.
</event>
<event>
 5   0  0.4125758E-07  0.3391254E+04  0.7818609E-02  0.8140056E-01
       -1   -1    0    0    0  501  0.00000000000E+00  0.00000000000E+00  0.14473527744E+04  0.14473527744E+04  0.50400001928E-02 0. -1.
        1   -1    0    0  501    0  0.00000000000E+00  0.00000000000E+00 -0.19864888179E+04  0.19864888179E+04  0.50400001928E-02 0.  1.
    10030    2    1    2    0    0  0.00000000000E+00  0.00000000000E+00 -0.53913604347E+03  0.34338415923E+04  0.33912535157E+04 0.  0.
        2    1    3    3  502    0  0.17000478231E+03 -0.15671642474E+04  0.36297272221E+03  0.16176076785E+04  0.25500000920E-02 0. -1.
       -2    1    3    3    0  502 -0.17000478231E+03  0.15671642474E+04 -0.90210876568E+03  0.18162339138E+04  0.25500000920E-02 0.  1.
</event>
<event>
 5   0  0.4272633E-07  0.3417661E+04  0.7818609E-02  0.8133585E-01
       -1   -1    0    0    0  501  0.00000000000E+00  0.00000000000E+00  0.20012222023E+04  0.20012222024E+04  0.50400001928E-02 0. -1.
        1   -1    0    0  501    0  0.00000000000E+00  0.00000000000E+00 -0.14591588350E+04  0.14591588350E+04  0.50400001928E-02 0.  1.
    10030    2    1    2    0    0  0.00000000000E+00  0.00000000000E+00  0.54206336738E+03  0.34603810373E+04  0.34176606369E+04 0.  0.
        1    1    3    3  502    0 -0.13580588879E+04 -0.22926898165E+02 -0.77887333042E+03  0.15657245130E+04  0.50400001928E-02 0.  1.
       -1    1    3    3    0  502  0.13580588879E+04  0.22926898165E+02  0.13209366978E+04  0.18946565244E+04  0.50400001928E-02 0. -1.
</event>
<event>
 5   0  0.1277635E-06  0.3401232E+04  0.7818609E-02  0.8137604E-01
       -2   -1    0    0    0  501  0.00000000000E+00  0.00000000000E+00  0.22987977694E+04  0.22987977694E+04  0.25500000920E-02 0. -1.
        2   -1    0    0  501    0  0.00000000000E+00  0.00000000000E+00 -0.12580904267E+04  0.12580904267E+04  0.25500000920E-02 0.  1.
    10030    2    1    2    0    0  0.00000000000E+00  0.00000000000E+00  0.10407073427E+04  0.35568881961E+04  0.34012324041E+04 0.  0.
        4    1    3    3  502    0  0.29041244439E+02 -0.16976436134E+04  0.62096807692E+03  0.18078827942E+04  0.12699999809E+01 0. -1.
       -4    1    3    3    0  502 -0.29041244439E+02  0.16976436134E+04  0.41973926575E+03  0.17490054020E+04  0.12699999809E+01 0.  1.
</event>
<event>
 5   0  0.4289684E-07  0.3475880E+04  0.7818609E-02  0.8119530E-01
        1   -1    0    0  501    0  0.00000000000E+00  0.00000000000E+00  0.21215681238E+04  0.21215681238E+04  0.50400001928E-02 0. -1.
       -1   -1    0    0    0  501  0.00000000000E+00  0.00000000000E+00 -0.14236804990E+04  0.14236804990E+04  0.50400001928E-02 0.  1.
    10030    2    1    2    0    0  0.00000000000E+00  0.00000000000E+00  0.69788762482E+03  0.35452486228E+04  0.34758798397E+04 0.  0.
        4    1    3    3  502    0  0.14723583962E+04 -0.75630508406E+03 -0.19134179211E+03  0.16662682621E+04  0.12699999809E+01 0.  1.
       -4    1    3    3    0  502 -0.14723583962E+04  0.75630508406E+03  0.88922941693E+03  0.18789803607E+04  0.12699999809E+01 0. -1.
</event>
<event>
 5   0  0.1277635E-06  0.3403655E+04  0.7818609E-02  0.8137010E-01
       -2   -1    0    0    0  501  0.00000000000E+00  0.00000000000E+00  0.24380736114E+04  0.24380736114E+04  0.25500000920E-02 0.  1.
        2   -1    0    0  501    0  0.00000000000E+00  0.00000000000E+00 -0.11879116406E+04  0.11879116406E+04  0.25500000920E-02 0. -1.
    10030    2    1    2    0    0  0.00000000000E+00  0.00000000000E+00  0.12501619708E+04  0.36259852521E+04  0.34036545205E+04 0.  0.
        4    1    3    3  502    0  0.10576556217E+04 -0.93302495421E+03 -0.38951841891E+03  0.14631805053E+04  0.12699999809E+01 0. -1.
       -4    1    3    3    0  502 -0.10576556217E+04  0.93302495421E+03  0.16396803897E+04  0.21628047468E+04  0.12699999809E+01 0.  1.
</event>
<event>
 5   0  0.4125758E-07  0.3415599E+04  0.7818609E-02  0.8134088E-01
       -1   -1    0    0    0  501  0.00000000000E+00  0.00000000000E+00  0.16809853018E+04  0.16809853018E+04  0.50400001928E-02 0.  1.
        1   -1    0    0  501    0  0.00000000000E+00  0.00000000000E+00 -0.17350410176E+04  0.17350410176E+04  0.50400001928E-02 0. -1.
    10030    2    1    2    0    0  0.00000000000E+00  0.00000000000E+00 -0.54055715778E+02  0.34160263194E+04  0.34155985997E+04 0.  0.
        2    1    3    3  502    0  0.40761841861E+03  0.16166132798E+01  0.16316197686E+04  0.16817664694E+04  0.25500000920E-02 0.  1.
       -2    1    3    3    0  502 -0.40761841861E+03 -0.16166132798E+01 -0.16856754843E+04  0.17342598499E+04  0.25500000920E-02 0. -1.
</event>
<event>
 5   0  0.1300176E-06  0.3298964E+04  0.7818609E-02  0.8163159E-01
        2   -1    0    0  501    0  0.00000000000E+00  0.00000000000E+00  0.19130608662E+04  0.19130608662E+04  0.25500000920E-02 0.  1.
       -2   -1    0    0    0  501  0.00000000000E+00  0.00000000000E+00 -0.14222182748E+04  0.14222182748E+04  0.25500000920E-02 0. -1.
    10030    2    1    2    0    0  0.00000000000E+00  0.00000000000E+00  0.49084259143E+03  0.33352791410E+04  0.32989635491E+04 0.  0.
        1    1    3    3  502    0  0.15613281828E+04 -0.24370529806E+03  0.72354603618E+03  0.17380036920E+04  0.50400001928E-02 0.  1.
       -1    1    3    3    0  502 -0.15613281828E+04  0.24370529806E+03 -0.23270344475E+03  0.15972754490E+04  0.50400001928E-02 0. -1.
</event>
<event>
 5   0  0.4464951E-07  0.3357418E+04  0.7818609E-02  0.8148437E-01
        1   -1    0    0  501    0  0.00000000000E+00  0.00000000000E+00  0.19292772310E+04  0.19292772310E+04  0.50400001928E-02 0. -1.
       -1   -1    0    0    0  501  0.00000000000E+00  0.00000000000E+00 -0.14606836230E+04  0.14606836230E+04  0.50400001928E-02 0.  1.
    10030    2    1    2    0    0  0.00000000000E+00  0.00000000000E+00  0.46859360797E+03  0.33899608540E+04  0.33574178504E+04 0.  0.
        3    1    3    3  502    0  0.23888707150E+03 -0.49036491992E+03  0.18373058996E+04  0.19165640523E+04  0.10100000352E+00 0. -1.
       -3    1    3    3    0  502 -0.23888707150E+03  0.49036491992E+03 -0.13687122917E+04  0.14733968017E+04  0.10100000352E+00 0.  1.
</event>
<event>
 5   0  0.4272633E-07  0.3563709E+04  0.7818609E-02  0.8098856E-01
       -1   -1    0    0    0  501  0.00000000000E+00  0.00000000000E+00  0.26316893254E+04  0.26316893254E+04  0.50400001928E-02 0. -1.
        1   -1    0    0  501    0  0.00000000000E+00  0.00000000000E+00 -0.12064514036E+04  0.12064514036E+04  0.50400001928E-02 0.  1.
    10030    2    1    2    0    0  0.00000000000E+00  0.00000000000E+00  0.14252379217E+04  0.38381407290E+04  0.35637088998E+04 0.  0.
        1    1    3    3  502    0 -0.84184373581E+03  0.12353310928E+04  0.17569615732E+04  0.23068718547E+04  0.50400001928E-02 0. -1.
       -1    1    3    3    0  502  0.84184373581E+03 -0.12353310928E+04 -0.33172365143E+03  0.15312688743E+04  0.50400001928E-02 0.  1.
</event>
<event>
 5   0  0.4464951E-07  0.3374536E+04  0.7818609E-02  0.8144184E-01
       -1   -1    0    0    0  501  0.00000000000E+00  0.00000000000E+00  0.14956419799E+04  0.14956419799E+04  0.50400001928E-02 0. -1.
        1   -1    0    0  501    0  0.00000000000E+00  0.00000000000E+00 -0.19034455715E+04  0.19034455715E+04  0.50400001928E-02 0.  1.
    10030    2    1    2    0    0  0.00000000000E+00  0.00000000000E+00 -0.40780359163E+03  0.33990875514E+04  0.33745358811E+04 0.  0.
        3    1    3    3  502    0  0.14090320741E+04  0.90262816813E+03 -0.42172521877E+03  0.17256770167E+04  0.10100000352E+00 0. -1.
       -3    1    3    3    0  502 -0.14090320741E+04 -0.90262816813E+03  0.13921627132E+02  0.16734105347E+04  0.10100000352E+00 0.  1.
</event>
<event>
 5   0  0.1256208E-06  0.3371308E+04  0.7818609E-02  0.8144984E-01
       -2   -1    0    0    0  501  0.00000000000E+00  0.00000000000E+00  0.28150818034E+04  0.28150818034E+04  0.25500000920E-02 0.  1.
        2   -1    0    0  501    0  0.00000000000E+00  0.00000000000E+00 -0.10093593112E+04  0.10093593112E+04  0.25500000920E-02 0. -1.
    10030    2    1    2    0    0  0.00000000000E+00  0.00000000000E+00  0.18057224922E+04  0.38244411146E+04  0.33713077759E+04 0.  0.
        3    1    3    3  502    0 -0.39392433266E+03  0.15709106886E+04  0.14331196903E+04  0.21625838315E+04  0.10100000352E+00 0.  1.
       -3    1    3    3    0  502  0.39392433266E+03 -0.15709106886E+04  0.37260280196E+03  0.16618572831E+04  0.10100000352E+00 0. -1.
</event>
<event>
 5   0  0.1268230E-06  0.3408276E+04  0.7818609E-02  0.8135878E-01
        2   -1    0    0  501    0  0.00000000000E+00  0.00000000000E+00  0.14949173365E+04  0.14949173365E+04  0.25500000920E-02 0.  1.
       -2   -1    0    0    0  501  0.00000000000E+00  0.00000000000E+00 -0.19426402937E+04  0.19426402937E+04  0.25500000920E-02 0. -1.
    10030    2    1    2    0    0  0.00000000000E+00  0.00000000000E+00 -0.44772295726E+03  0.34375576302E+04  0.34082761940E+04 0.  0.
        2    1    3    3  502    0  0.15503683312E+04 -0.70686378999E+03 -0.25217890271E+03  0.17224670037E+04  0.25500000920E-02 0.  1.
       -2    1    3    3    0  502 -0.15503683312E+04  0.70686378999E+03 -0.19554405455E+03  0.17150906265E+04  0.25500000920E-02 0. -1.
</event>
<event>
 5   0  0.4289684E-07  0.3361942E+04  0.7818609E-02  0.8147311E-01
       -1   -1    0    0    0  501  0.00000000000E+00  0.00000000000E+00  0.12767095591E+04  0.12767095591E+04  0.50400001928E-02 0. -1.
        1   -1    0    0  501    0  0.00000000000E+00  0.00000000000E+00 -0.22132392541E+04  0.22132392541E+04  0.50400001928E-02 0.  1.
    10030    2    1    2    0    0  0.00000000000E+00  0.00000000000E+00 -0.93652969501E+03  0.34899488131E+04  0.33619421245E+04 0.  0.
        4    1    3    3  502    0  0.64555011761E+03 -0.40025059984E+03 -0.20249369888E+04  0.21627082370E+04  0.12699999809E+01 0.  1.
       -4    1    3    3    0  502 -0.64555011761E+03  0.40025059984E+03  0.10884072937E+04  0.13272405762E+04  0.12699999809E+01 0. -1.
</event>
<event>
 5   0  0.1300176E-06  0.2963035E+04  0.7818609E-02  0.8254366E-01
        2   -1    0    0  501    0  0.00000000000E+00  0.00000000000E+00  0.18749295411E+04  0.18749295411E+04  0.25500000920E-02 0.  1.
       -2   -1    0    0    0  501  0.00000000000E+00  0.00000000000E+00 -0.11706539781E+04  0.11706539781E+04  0.25500000920E-02 0. -1.
    10030    2    1    2    0    0  0.00000000000E+00  0.00000000000E+00  0.70427556304E+03  0.30455835192E+04  0.29630347457E+04 0.  0.
        1    1    3    3  502    0 -0.84664110514E+03  0.12152008500E+03  0.15955187912E+04  0.18103172388E+04  0.50400001928E-02 0.  1.
       -1    1    3    3    0  502  0.84664110514E+03 -0.12152008500E+03 -0.89124322813E+03  0.12352662805E+04  0.50400001928E-02 0. -1.
</event>
<event>
 5   0  0.1269497E-06  0.3468749E+04  0.7818609E-02  0.8121236E-01
       -2   -1    0    0    0  501  0.00000000000E+00  0.00000000000E+00  0.11308591362E+04  0.11308591362E+04  0.25500000920E-02 0. -1.
        2   -1    0    0  501    0  0.00000000000E+00  0.00000000000E+00 -0.26599729391E+04  0.26599729391E+04  0.25500000920E-02 0.  1.
    10030    2    1    2    0    0  0.00000000000E+00  0.00000000000E+00 -0.15291138029E+04  0.37908320753E+04  0.34687488813E+04 0.  0.
        5    1    3    3  502    0 -0.12888226589E+04 -0.25704898513E+02 -0.20325996742E+04  0.24069084140E+04  0.46999998093E+01 0.  1.
       -5    1    3    3    0  502  0.12888226589E+04  0.25704898513E+02  0.50348587132E+03  0.13839236613E+04  0.46999998093E+01 0. -1.
</event>
<event>
 5   0  0.4289684E-07  0.3364253E+04  0.7818609E-02  0.8146736E-01
        1   -1    0    0  501    0  0.00000000000E+00  0.00000000000E+00  0.14373384201E+04  0.14373384202E+04  0.50400001928E-02 0. -1.
       -1   -1    0    0    0  501  0.00000000000E+00  0.00000000000E+00 -0.19686036755E+04  0.19686036755E+04  0.50400001928E-02 0.  1.
    10030    2    1    2    0    0  0.00000000000E+00  0.00000000000E+00 -0.53126525534E+03  0.34059420956E+04  0.33642530802E+04 0.  0.
        4    1    3    3  502    0  0.65059148586E+03  0.10061058870E+04 -0.14609538276E+04  0.18894194972E+04  0.12699999809E+01 0.  1.
       -4    1    3    3    0  502 -0.65059148586E+03 -0.10061058870E+04  0.92968857222E+03  0.15165225984E+04  0.12699999809E+01 0. -1.
</event>
<event>
 5   0  0.1300176E-06  0.3408451E+04  0.7818609E-02  0.8135835E-01
        2   -1    0    0  501    0  0.00000000000E+00  0.00000000000E+00  0.24773284770E+04  0.24773284770E+04  0.25500000920E-02 0.  1.
       -2   -1    0    0    0  501  0.00000000000E+00  0.00000000000E+00 -0.11723854543E+04  0.11723854543E+04  0.25500000920E-02 0. -1.
    10030    2    1    2    0    0  0.00000000000E+00  0.00000000000E+00  0.13049430227E+04  0.36497139313E+04  0.34084505993E+04 0.  0.
        1    1    3    3  502    0 -0.42896517367E+03  0.85120238781E+03 -0.86026502055E+03  0.12839830726E+04  0.50400001928E-02 0. -1.
       -1    1    3    3    0  502  0.42896517367E+03 -0.85120238781E+03  0.21652080432E+04  0.23657308587E+04  0.50400001928E-02 0.  1.
</event>
<event>
 5   0  0.4272633E-07  0.3376481E+04  0.7818609E-02  0.8143703E-01
       -1   -1    0    0    0  501  0.00000000000E+00  0.00000000000E+00  0.11295125777E+04  0.11295125777E+04  0.50400001928E-02 0. -1.
        1   -1    0    0  501    0  0.00000000000E+00  0.00000000000E+00 -0.25233497298E+04  0.25233497298E+04  0.50400001928E-02 0.  1.
    10030    2    1    2    0    0  0.00000000000E+00  0.00000000000E+00 -0.13938371521E+04  0.36528623075E+04  0.33764805687E+04 0.  0.
        1    1    3    3  502    0 -0.65099256964E+02 -0.12902994749E+04  0.47879680065E+03  0.13778087764E+04  0.50400001928E-02 0. -1.
       -1    1    3    3    0  502  0.65099256964E+02  0.12902994749E+04 -0.18726339528E+04  0.22750535311E+04  0.50400001928E-02 0.  1.
</event>
<event>
 5   0  0.1300176E-06  0.3280729E+04  0.7818609E-02  0.8167816E-01
       -2   -1    0    0    0  501  0.00000000000E+00  0.00000000000E+00  0.10902393878E+04  0.10902393878E+04  0.25500000920E-02 0. -1.
        2   -1    0    0  501    0  0.00000000000E+00  0.00000000000E+00 -0.24680783771E+04  0.24680783771E+04  0.25500000920E-02 0.  1.
    10030    2    1    2    0    0  0.00000000000E+00  0.00000000000E+00 -0.13778389894E+04  0.35583177649E+04  0.32807293450E+04 0.  0.
        1    1    3    3  502    0  0.32436922285E+03  0.41319470526E+02 -0.24323713346E+04  0.24542520247E+04  0.50400001928E-02 0.  1.
       -1    1    3    3    0  502 -0.32436922285E+03 -0.41319470526E+02  0.10545323453E+04  0.11040657402E+04  0.50400001928E-02 0. -1.
</event>
<event>
 5   0  0.4289684E-07  0.3192696E+04  0.7818609E-02  0.8190749E-01
       -1   -1    0    0    0  501  0.00000000000E+00  0.00000000000E+00  0.13286363738E+04  0.13286363738E+04  0.50400001928E-02 0.  1.
        1   -1    0    0  501    0  0.00000000000E+00  0.00000000000E+00 -0.19180017154E+04  0.19180017154E+04  0.50400001928E-02 0. -1.
    10030    2    1    2    0    0  0.00000000000E+00  0.00000000000E+00 -0.58936534160E+03  0.32466380893E+04  0.31926959418E+04 0.  0.
        4    1    3    3  502    0 -0.64559555007E+03 -0.14599658253E+04 -0.28898387144E+03  0.16222845361E+04  0.12699999809E+01 0. -1.
       -4    1    3    3    0  502  0.64559555007E+03  0.14599658253E+04 -0.30038147016E+03  0.16243535532E+04  0.12699999809E+01 0.  1.
</event>
<event>
 5   0  0.1268230E-06  0.3370660E+04  0.7818609E-02  0.8145145E-01
       -2   -1    0    0    0  501  0.00000000000E+00  0.00000000000E+00  0.16173389777E+04  0.16173389777E+04  0.25500000920E-02 0. -1.
        2   -1    0    0  501    0  0.00000000000E+00  0.00000000000E+00 -0.17561796669E+04  0.17561796669E+04  0.25500000920E-02 0.  1.
    10030    2    1    2    0    0  0.00000000000E+00  0.00000000000E+00 -0.13884068919E+03  0.33735186446E+04  0.33706603668E+04 0.  0.
        2    1    3    3  502    0 -0.10525963116E+04 -0.12134484858E+04 -0.57967774213E+03  0.17077594993E+04  0.25500000920E-02 0.  1.
       -2    1    3    3    0  502  0.10525963116E+04  0.12134484858E+04  0.44083705294E+03  0.16657591453E+04  0.25500000920E-02 0. -1.
</event>
<event>
 5   0  0.1268230E-06  0.3428976E+04  0.7818609E-02  0.8130831E-01
        2   -1    0    0  501    0  0.00000000000E+00  0.00000000000E+00  0.23330920126E+04  0.23330920126E+04  0.25500000920E-02 0. -1.
       -2   -1    0    0    0  501  0.00000000000E+00  0.00000000000E+00 -0.12599028458E+04  0.12599028458E+04  0.25500000920E-02 0.  1.
    10030    2    1    2    0    0  0.00000000000E+00  0.00000000000E+00  0.10731891667E+04  0.35929948584E+04  0.34289760957E+04 0.  0.
        2    1    3    3  502    0 -0.11272213808E+04 -0.12853637689E+04  0.40126091010E+03  0.17560747073E+04  0.25500000920E-02 0. -1.
       -2    1    3    3    0  502  0.11272213808E+04  0.12853637689E+04  0.67192825665E+03  0.18369201511E+04  0.25500000920E-02 0.  1.
</event>
<event>
 5   0  0.4289684E-07  0.3867124E+04  0.7818609E-02  0.8031902E-01
        1   -1    0    0  501    0  0.00000000000E+00  0.00000000000E+00  0.20596779490E+04  0.20596779491E+04  0.50400001928E-02 0.  1.
       -1   -1    0    0    0  501  0.00000000000E+00  0.00000000000E+00 -0.18151678671E+04  0.18151678671E+04  0.50400001928E-02 0. -1.
    10030    2    1    2    0    0  0.00000000000E+00  0.00000000000E+00  0.24451008193E+03  0.38748458162E+04  0.38671235976E+04 0.  0.
        4    1    3    3  502    0 -0.29805572969E+02 -0.26543472629E+02  0.20592647490E+04  0.20596518753E+04  0.12699999809E+01 0.  1.
       -4    1    3    3    0  502  0.29805572969E+02  0.26543472629E+02 -0.18147546671E+04  0.18151939408E+04  0.12699999809E+01 0. -1.
</event>
<event>
 5   0  0.4109937E-07  0.3394097E+04  0.7818609E-02  0.8139357E-01
       -1   -1    0    0    0  501  0.00000000000E+00  0.00000000000E+00  0.10665224433E+04  0.10665224433E+04  0.50400001928E-02 0.  1.
        1   -1    0    0  501    0  0.00000000000E+00  0.00000000000E+00 -0.27003407656E+04  0.27003407656E+04  0.50400001928E-02 0. -1.
    10030    2    1    2    0    0  0.00000000000E+00  0.00000000000E+00 -0.16338183223E+04  0.37668632089E+04  0.33940972473E+04 0.  0.
        5    1    3    3  502    0  0.10464505403E+04  0.12518685527E+04 -0.29906024746E+03  0.16588226934E+04  0.46999998093E+01 0.  1.
       -5    1    3    3    0  502 -0.10464505403E+04 -0.12518685527E+04 -0.13347580748E+04  0.21080405155E+04  0.46999998093E+01 0. -1.
</event>
<event>
 5   0  0.4125758E-07  0.3358125E+04  0.7818609E-02  0.8148261E-01
       -1   -1    0    0    0  501  0.00000000000E+00  0.00000000000E+00  0.93785850521E+03  0.93785850522E+03  0.50400001928E-02 0.  1.
        1   -1    0    0  501    0  0.00000000000E+00  0.00000000000E+00 -0.30060521024E+04  0.30060521024E+04  0.50400001928E-02 0. -1.
    10030    2    1    2    0    0  0.00000000000E+00  0.00000000000E+00 -0.20681935972E+04  0.39439106077E+04  0.33581253886E+04 0.  0.
        2    1    3    3  502    0 -0.74727176524E+03 -0.70725301279E+03 -0.25924437511E+04  0.27891551621E+04  0.25500000920E-02 0. -1.
       -2    1    3    3    0  502  0.74727176524E+03  0.70725301279E+03  0.52425015392E+03  0.11547554456E+04  0.25500000920E-02 0.  1.
</event>
<event>
 5   0  0.1256208E-06  0.3429255E+04  0.7818609E-02  0.8130763E-01
        2   -1    0    0  501    0  0.00000000000E+00  0.00000000000E+00  0.26272920529E+04  0.26272920529E+04  0.25500000920E-02 0.  1.
       -2   -1    0    0    0  501  0.00000000000E+00  0.00000000000E+00 -0.11190028416E+04  0.11190028416E+04  0.25500000920E-02 0. -1.
    10030    2    1    2    0    0  0.00000000000E+00  0.00000000000E+00  0.15082892113E+04  0.37462948945E+04  0.34292548887E+04 0.  0.
        3    1    3    3  502    0 -0.12923037793E+04  0.18487710785E+03 -0.46025605929E+03  0.13842197273E+04  0.10100000352E+00 0. -1.
       -3    1    3    3    0  502  0.12923037793E+04 -0.18487710785E+03  0.19685452705E+04  0.23620751672E+04  0.10100000352E+00 0.  1.
</event>
<event>
 5   0  0.4125758E-07  0.3313042E+04  0.7818609E-02  0.8159585E-01
        1   -1    0    0  501    0  0.00000000000E+00  0.00000000000E+00  0.22512831618E+04  0.22512831619E+04  0.50400001928E-02 0. -1.
       -1   -1    0    0    0  501  0.00000000000E+00  0.00000000000E+00 -0.12188881865E+04  0.12188881865E+04  0.50400001928E-02 0.  1.
    10030    2    1    2    0    0  0.00000000000E+00  0.00000000000E+00  0.10323949754E+04  0.34701713484E+04  0.33130423785E+04 0.  0.
        2    1    3    3  502    0  0.49084433822E+03 -0.46402957266E+03 -0.10680899750E+04  0.12637514801E+04  0.25500000920E-02 0.  1.
       -2    1    3    3    0  502 -0.49084433822E+03  0.46402957266E+03  0.21004849503E+04  0.22064198683E+04  0.25500000920E-02 0. -1.
</event>
<event>
 5   0  0.4272633E-07  0.3364361E+04  0.7818609E-02  0.8146709E-01
       -1   -1    0    0    0  501  0.00000000000E+00  0.00000000000E+00  0.93486467989E+03  0.93486467990E+03  0.50400001928E-02 0. -1.
        1   -1    0    0  501    0  0.00000000000E+00  0.00000000000E+00 -0.30268884463E+04  0.30268884463E+04  0.50400001928E-02 0.  1.
    10030    2    1    2    0    0  0.00000000000E+00  0.00000000000E+00 -0.20920237664E+04  0.39617531262E+04  0.33643609191E+04 0.  0.
        1    1    3    3  502    0 -0.60985509667E+03  0.10813221492E+04  0.29069293285E+03  0.12750228274E+04  0.50400001928E-02 0. -1.
       -1    1    3    3    0  502  0.60985509667E+03 -0.10813221492E+04 -0.23827166992E+04  0.26867302987E+04  0.50400001928E-02 0.  1.
</event>
<event>
 5   0  0.1300176E-06  0.3383481E+04  0.7818609E-02  0.8141973E-01
       -2   -1    0    0    0  501  0.00000000000E+00  0.00000000000E+00  0.16887633565E+04  0.16887633565E+04  0.25500000920E-02 0.  1.
        2   -1    0    0  501    0  0.00000000000E+00  0.00000000000E+00 -0.16947225725E+04  0.16947225725E+04  0.25500000920E-02 0. -1.
    10030    2    1    2    0    0  0.00000000000E+00  0.00000000000E+00 -0.59592160478E+01  0.33834859290E+04  0.33834806812E+04 0.  0.
        1    1    3    3  502    0 -0.59879584411E+03 -0.45875261168E+03 -0.15172391866E+04  0.16944099772E+04  0.50400001928E-02 0. -1.
       -1    1    3    3    0  502  0.59879584411E+03  0.45875261168E+03  0.15112799705E+04  0.16890759518E+04  0.50400001928E-02 0.  1.
</event>
<event>
 5   0  0.4060750E-07  0.2906595E+04  0.7818609E-02  0.8270918E-01
        3   -1    0    0  501    0  0.00000000000E+00  0.00000000000E+00  0.70900297086E+03  0.70900297805E+03  0.10100000352E+00 0.  1.
       -3   -1    0    0    0  501  0.00000000000E+00  0.00000000000E+00 -0.29789348106E+04  0.29789348123E+04  0.10100000352E+00 0. -1.
    10030    2    1    2    0    0  0.00000000000E+00  0.00000000000E+00 -0.22699318397E+04  0.36879377903E+04  0.29065950162E+04 0.  0.
        1    1    3    3  502    0  0.31204159985E+03  0.12862352212E+04 -0.18965761797E+04  0.23127412760E+04  0.50400001928E-02 0. -1.
       -1    1    3    3    0  502 -0.31204159985E+03 -0.12862352212E+04 -0.37335565998E+03  0.13751965143E+04  0.50400001928E-02 0.  1.
</event>
<event>
 5   0  0.4109937E-07  0.3404540E+04  0.7818609E-02  0.8136793E-01
       -1   -1    0    0    0  501  0.00000000000E+00  0.00000000000E+00  0.15587933365E+04  0.15587933365E+04  0.50400001928E-02 0. -1.
        1   -1    0    0  501    0  0.00000000000E+00  0.00000000000E+00 -0.18589526624E+04  0.18589526624E+04  0.50400001928E-02 0.  1.
    10030    2    1    2    0    0  0.00000000000E+00  0.00000000000E+00 -0.30015932596E+03  0.34177459989E+04  0.34045399237E+04 0.  0.
        5    1    3    3  502    0 -0.15594520257E+04 -0.59921157831E+02 -0.83258430503E+03  0.17688131276E+04  0.46999998093E+01 0.  1.
       -5    1    3    3    0  502  0.15594520257E+04  0.59921157831E+02  0.53242497907E+03  0.16489328712E+04  0.46999998093E+01 0. -1.
</event>
<event>
 5   0  0.1268230E-06  0.3398702E+04  0.7818609E-02  0.8138225E-01
       -2   -1    0    0    0  501  0.00000000000E+00  0.00000000000E+00  0.26196701800E+04  0.26196701800E+04  0.25500000920E-02 0. -1.
        2   -1    0    0  501    0  0.00000000000E+00  0.00000000000E+00 -0.11023498612E+04  0.11023498612E+04  0.25500000920E-02 0.  1.
    10030    2    1    2    0    0  0.00000000000E+00  0.00000000000E+00  0.15173203188E+04  0.37220200412E+04  0.33987015517E+04 0.  0.
        2    1    3    3  502    0 -0.98780050763E+03 -0.14954945737E+02  0.22728806836E+04  0.24782978221E+04  0.25500000920E-02 0. -1.
       -2    1    3    3    0  502  0.98780050763E+03  0.14954945737E+02 -0.75556036484E+03  0.12437222191E+04  0.25500000920E-02 0.  1.
</event>
<event>
 5   0  0.1268230E-06  0.3378252E+04  0.7818609E-02  0.8143265E-01
        2   -1    0    0  501    0  0.00000000000E+00  0.00000000000E+00  0.11310106831E+04  0.11310106831E+04  0.25500000920E-02 0.  1.
       -2   -1    0    0    0  501  0.00000000000E+00  0.00000000000E+00 -0.25226516134E+04  0.25226516134E+04  0.25500000920E-02 0. -1.
    10030    2    1    2    0    0  0.00000000000E+00  0.00000000000E+00 -0.13916409303E+04  0.36536622965E+04  0.33782515741E+04 0.  0.
        2    1    3    3  502    0  0.82668661073E+03  0.13691220380E+04 -0.12834776182E+04  0.20506634789E+04  0.25500000920E-02 0. -1.
       -2    1    3    3    0  502 -0.82668661073E+03 -0.13691220380E+04 -0.10816331212E+03  0.16029988176E+04  0.25500000920E-02 0.  1.
</event>
<event>
 5   0  0.4464951E-07  0.3476200E+04  0.7818609E-02  0.8119453E-01
        1   -1    0    0  501    0  0.00000000000E+00  0.00000000000E+00  0.29624545196E+04  0.29624545196E+04  0.50400001928E-02 0.  1.
       -1   -1    0    0    0  501  0.00000000000E+00  0.00000000000E+00 -0.10197598237E+04  0.10197598237E+04  0.50400001928E-02 0. -1.
    10030    2    1    2    0    0  0.00000000000E+00  0.00000000000E+00  0.19426946958E+04  0.39822143433E+04  0.34762002812E+04 0.  0.
        3    1    3    3  502    0 -0.13236847358E+04 -0.10377788010E+04  0.46956102748E+03  0.17463143154E+04  0.10100000352E+00 0. -1.
       -3    1    3    3    0  502  0.13236847358E+04  0.10377788010E+04  0.14731336684E+04  0.22359000279E+04  0.10100000352E+00 0.  1.
</event>
<event>
 5   0  0.1269497E-06  0.3326685E+04  0.7818609E-02  0.8156138E-01
       -2   -1    0    0    0  501  0.00000000000E+00  0.00000000000E+00  0.11252904915E+04  0.11252904915E+04  0.25500000920E-02 0.  1.
        2   -1    0    0  501    0  0.00000000000E+00  0.00000000000E+00 -0.24586609010E+04  0.24586609010E+04  0.25500000920E-02 0. -1.
    10030    2    1    2    0    0  0.00000000000E+00  0.00000000000E+00 -0.13333704095E+04  0.35839513925E+04  0.33266846762E+04 0.  0.
        5    1    3    3  502    0 -0.59866317024E+03  0.15369923560E+04 -0.89760332913E+03  0.18778862905E+04  0.46999998093E+01 0.  1.
       -5    1    3    3    0  502  0.59866317024E+03 -0.15369923560E+04 -0.43576708039E+03  0.17060651020E+04  0.46999998093E+01 0. -1.
</event>
<event>
 5   0  0.4289684E-07  0.3425735E+04  0.7818609E-02  0.8131619E-01
        1   -1    0    0  501    0  0.00000000000E+00  0.00000000000E+00  0.26409773297E+04  0.26409773298E+04  0.50400001928E-02 0.  1.
       -1   -1    0    0    0  501  0.00000000000E+00  0.00000000000E+00 -0.11109203607E+04  0.11109203607E+04  0.50400001928E-02 0. -1.
    10030    2    1    2    0    0  0.00000000000E+00  0.00000000000E+00  0.15300569691E+04  0.37518976905E+04  0.34257352424E+04 0.  0.
        4    1    3    3  502    0 -0.14819633954E+03  0.14039688957E+04 -0.29728126768E+03  0.14427295589E+04  0.12699999809E+01 0. -1.
       -4    1    3    3    0  502  0.14819633954E+03 -0.14039688957E+04  0.18273382367E+04  0.23091681315E+04  0.12699999809E+01 0.  1.
</event>
<event>
 5   0  0.1268230E-06  0.3309428E+04  0.7818609E-02  0.8160501E-01
        2   -1    0    0  501    0  0.00000000000E+00  0.00000000000E+00  0.11032991929E+04  0.11032991929E+04  0.25500000920E-02 0.  1.
       -2   -1    0    0    0  501  0.00000000000E+00  0.00000000000E+00 -0.24817189747E+04  0.24817189747E+04  0.25500000920E-02 0. -1.
    10030    2    1    2    0    0  0.00000000000E+00  0.00000000000E+00 -0.13784197817E+04  0.35850181676E+04  0.33094280725E+04 0.  0.
        2    1    3    3  502    0 -0.69361207856E+03  0.14598997660E+04 -0.30518420931E+03  0.16448533199E+04  0.25500000920E-02 0.  1.
       -2    1    3    3    0  502  0.69361207856E+03 -0.14598997660E+04 -0.10732355724E+04  0.19401648477E+04  0.25500000920E-02 0. -1.
</event>
<event>
 5   0  0.4109937E-07  0.3367490E+04  0.7818609E-02  0.8145932E-01
        1   -1    0    0  501    0  0.00000000000E+00  0.00000000000E+00  0.11569572116E+04  0.11569572117E+04  0.50400001928E-02 0. -1.
       -1   -1    0    0    0  501  0.00000000000E+00  0.00000000000E+00 -0.24503906900E+04  0.24503906900E+04  0.50400001928E-02 0.  1.
    10030    2    1    2    0    0  0.00000000000E+00  0.00000000000E+00 -0.12934334783E+04  0.36073479016E+04  0.33674899733E+04 0.  0.
        5    1    3    3  502    0  0.12803201651E+04  0.10805458908E+04 -0.46690379668E+03  0.17392010788E+04  0.46999998093E+01 0. -1.
       -5    1    3    3    0  502 -0.12803201651E+04 -0.10805458908E+04 -0.82652968165E+03  0.18681468229E+04  0.46999998093E+01 0.  1.
</event>
<event>
 5   0  0.4060750E-07  0.3422683E+04  0.7818609E-02  0.8132361E-01
       -3   -1    0    0    0  501  0.00000000000E+00  0.00000000000E+00  0.98489033294E+03  0.98489033812E+03  0.10100000352E+00 0. -1.
        3   -1    0    0  501    0  0.00000000000E+00  0.00000000000E+00 -0.29736207064E+04  0.29736207082E+04  0.10100000352E+00 0.  1.
    10030    2    1    2    0    0  0.00000000000E+00  0.00000000000E+00 -0.19887303735E+04  0.39585110463E+04  0.34226833340E+04 0.  0.
        1    1    3    3  502    0 -0.40901790649E+03 -0.16515674405E+04 -0.78198860589E+03  0.18725589011E+04  0.50400001928E-02 0. -1.
       -1    1    3    3    0  502  0.40901790649E+03  0.16515674405E+04 -0.12067417676E+04  0.20859521452E+04  0.50400001928E-02 0.  1.
</event>
<event>
 5   0  0.4125758E-07  0.3364912E+04  0.7818609E-02  0.8146572E-01
        1   -1    0    0  501    0  0.00000000000E+00  0.00000000000E+00  0.12963441906E+04  0.12963441906E+04  0.50400001928E-02 0. -1.
       -1   -1    0    0    0  501  0.00000000000E+00  0.00000000000E+00 -0.21835697274E+04  0.21835697274E+04  0.50400001928E-02 0.  1.
    10030    2    1    2    0    0  0.00000000000E+00  0.00000000000E+00 -0.88722553686E+03  0.34799139180E+04  0.33649118448E+04 0.  0.
        2    1    3    3  502    0 -0.14211108555E+04  0.86745532036E+03 -0.69400988745E+03  0.18037972503E+04  0.25500000920E-02 0. -1.
       -2    1    3    3    0  502  0.14211108555E+04 -0.86745532036E+03 -0.19321564941E+03  0.16761166677E+04  0.25500000920E-02 0.  1.
</event>
<event>
 5   0  0.4109937E-07  0.3387662E+04  0.7818609E-02  0.8140941E-01
       -1   -1    0    0    0  501  0.00000000000E+00  0.00000000000E+00  0.22444027278E+04  0.22444027278E+04  0.50400001928E-02 0.  1.
        1   -1    0    0  501    0  0.00000000000E+00  0.00000000000E+00 -0.12783189868E+04  0.12783189868E+04  0.50400001928E-02 0. -1.
    10030    2    1    2    0    0  0.00000000000E+00  0.00000000000E+00  0.96608374100E+03  0.35227217146E+04  0.33876615067E+04 0.  0.
        5    1    3    3  502    0 -0.12810471905E+04 -0.28726043845E+03  0.15959633191E+04  0.20665723964E+04  0.46999998093E+01 0.  1.
       -5    1    3    3    0  502  0.12810471905E+04  0.28726043845E+03 -0.62987957808E+03  0.14561493181E+04  0.46999998093E+01 0. -1.
</event>
<event>
 5   0  0.1268230E-06  0.3390876E+04  0.7818609E-02  0.8140149E-01
       -2   -1    0    0    0  501  0.00000000000E+00  0.00000000000E+00  0.20905219824E+04  0.20905219824E+04  0.25500000920E-02 0.  1.
        2   -1    0    0  501    0  0.00000000000E+00  0.00000000000E+00 -0.13750203170E+04  0.13750203170E+04  0.25500000920E-02 0. -1.
    10030    2    1    2    0    0  0.00000000000E+00  0.00000000000E+00  0.71550166537E+03  0.34655422994E+04  0.33908761103E+04 0.  0.
        2    1    3    3  502    0  0.49910395179E+03 -0.11519516597E+04  0.15223210481E+04  0.19732102662E+04  0.25500000920E-02 0.  1.
       -2    1    3    3    0  502 -0.49910395179E+03  0.11519516597E+04 -0.80681938271E+03  0.14923320332E+04  0.25500000920E-02 0. -1.
</event>
<event>
 5   0  0.1268230E-06  0.3350522E+04  0.7818609E-02  0.8150158E-01
        2   -1    0    0  501    0  0.00000000000E+00  0.00000000000E+00  0.21670103498E+04  0.21670103498E+04  0.25500000920E-02 0. -1.
       -2   -1    0    0    0  501  0.00000000000E+00  0.00000000000E+00 -0.12951017006E+04  0.12951017006E+04  0.25500000920E-02 0.  1.
    10030    2    1    2    0    0  0.00000000000E+00  0.00000000000E+00  0.87190864917E+03  0.34621120504E+04  0.33505216246E+04 0.  0.
        2    1    3    3  502    0 -0.69746396433E+03  0.11990878701E+04  0.14065087024E+04  0.19754833413E+04  0.25500000920E-02 0. -1.
       -2    1    3    3    0  502  0.69746396433E+03 -0.11990878701E+04 -0.53460005326E+03  0.14866287091E+04  0.25500000920E-02 0.  1.
</event>
<event>
 5   0  0.4289684E-07  0.3173315E+04  0.7818609E-02  0.8195900E-01
       -1   -1    0    0    0  501  0.00000000000E+00  0.00000000000E+00  0.11581107918E+04  0.11581107919E+04  0.50400001928E-02 0. -1.
        1   -1    0    0  501    0  0.00000000000E+00  0.00000000000E+00 -0.21737838769E+04  0.21737838769E+04  0.50400001928E-02 0.  1.
    10030    2    1    2    0    0  0.00000000000E+00  0.00000000000E+00 -0.10156730851E+04  0.33318946688E+04  0.31733153433E+04 0.  0.
        4    1    3    3  502    0  0.64425268321E+03  0.17035774825E+03 -0.20197235513E+04  0.21268211300E+04  0.12699999809E+01 0.  1.
       -4    1    3    3    0  502 -0.64425268321E+03 -0.17035774825E+03  0.10040504663E+04  0.12050735388E+04  0.12699999809E+01 0. -1.
</event>
<event>
 5   0  0.1277635E-06  0.3390982E+04  0.7818609E-02  0.8140123E-01
        2   -1    0    0  501    0  0.00000000000E+00  0.00000000000E+00  0.15602545881E+04  0.15602545881E+04  0.25500000920E-02 0. -1.
       -2   -1    0    0    0  501  0.00000000000E+00  0.00000000000E+00 -0.18424488047E+04  0.18424488047E+04  0.25500000920E-02 0.  1.
    10030    2    1    2    0    0  0.00000000000E+00  0.00000000000E+00 -0.28219421663E+03  0.34027033928E+04  0.33909816873E+04 0.  0.
        4    1    3    3  502    0 -0.13522898844E+04  0.83122569376E+03 -0.73902892877E+03  0.17509395923E+04  0.12699999809E+01 0.  1.
       -4    1    3    3    0  502  0.13522898844E+04 -0.83122569376E+03  0.45683471213E+03  0.16517638005E+04  0.12699999809E+01 0. -1.
</event>
<event>
 5   0  0.4060750E-07  0.3441057E+04  0.7818609E-02  0.8127902E-01
        3   -1    0    0  501    0  0.00000000000E+00  0.00000000000E+00  0.22688202931E+04  0.22688202953E+04  0.10100000352E+00 0.  1.
       -3   -1    0    0    0  501  0.00000000000E+00  0.00000000000E+00 -0.13047390026E+04  0.13047390065E+04  0.10100000352E+00 0. -1.
    10030    2    1    2    0    0  0.00000000000E+00  0.00000000000E+00  0.96408129050E+03  0.35735593018E+04  0.34410570104E+04 0.  0.
        1    1    3    3  502    0 -0.16072965615E+04 -0.61295336250E+03  0.51655088446E+03  0.17960898857E+04  0.50400001928E-02 0.  1.
       -1    1    3    3    0  502  0.16072965615E+04  0.61295336250E+03  0.44753040604E+03  0.17774694162E+04  0.50400001928E-02 0. -1.
</event>
<event>
 5   0  0.4109937E-07  0.3359265E+04  0.7818609E-02  0.8147977E-01
        1   -1    0    0  501    0  0.00000000000E+00  0.00000000000E+00  0.14953874784E+04  0.14953874784E+04  0.50400001928E-02 0. -1.
       -1   -1    0    0    0  501  0.00000000000E+00  0.00000000000E+00 -0.18865781038E+04  0.18865781038E+04  0.50400001928E-02 0.  1.
    10030    2    1    2    0    0  0.00000000000E+00  0.00000000000E+00 -0.39119062535E+03  0.33819655822E+04  0.33592649633E+04 0.  0.
        5    1    3    3  502    0  0.14263367096E+04 -0.50754731092E+03 -0.92790508656E+03  0.17756887739E+04  0.46999998093E+01 0.  1.
       -5    1    3    3    0  502 -0.14263367096E+04  0.50754731092E+03  0.53671446121E+03  0.16062768083E+04  0.46999998093E+01 0. -1.
</event>
<event>
 5   0  0.1268230E-06  0.3390837E+04  0.7818609E-02  0.8140159E-01
       -2   -1    0    0    0  501  0.00000000000E+00  0.00000000000E+00  0.12280093437E+04  0.12280093437E+04  0.25500000920E-02 0.  1.
        2   -1    0    0  501    0  0.00000000000E+00  0.00000000000E+00 -0.23407350220E+04  0.23407350220E+04  0.25500000920E-02 0. -1.
    10030    2    1    2    0    0  0.00000000000E+00  0.00000000000E+00 -0.11127256783E+04  0.35687443657E+04  0.33908373468E+04 0.  0.
        2    1    3    3  502    0 -0.15379170915E+04 -0.10306563583E+03 -0.12995513355E+04  0.20160965203E+04  0.25500000920E-02 0. -1.
       -2    1    3    3    0  502  0.15379170915E+04  0.10306563583E+03  0.18682565715E+03  0.15526478454E+04  0.25500000920E-02 0.  1.
</event>
<event>
 5   0  0.4272633E-07  0.3403605E+04  0.7818609E-02  0.8137022E-01
        1   -1    0    0  501    0  0.00000000000E+00  0.00000000000E+00  0.24684441721E+04  0.24684441721E+04  0.50400001928E-02 0.  1.
       -1   -1    0    0    0  501  0.00000000000E+00  0.00000000000E+00 -0.11732621601E+04  0.11732621601E+04  0.50400001928E-02 0. -1.
    10030    2    1    2    0    0  0.00000000000E+00  0.00000000000E+00  0.12951820120E+04  0.36417063323E+04  0.34036052307E+04 0.  0.
        1    1    3    3  502    0 -0.11046891822E+03  0.11114759844E+04 -0.72618772096E+03  0.13322653083E+04  0.50400001928E-02 0. -1.
       -1    1    3    3    0  502  0.11046891822E+03 -0.11114759844E+04  0.20213697329E+04  0.23094410239E+04  0.50400001928E-02 0.  1.
</event>
<event>
 5   0  0.1268230E-06  0.3403243E+04  0.7818609E-02  0.8137111E-01
       -2   -1    0    0    0  501  0.00000000000E+00  0.00000000000E+00  0.13194931694E+04  0.13194931694E+04  0.25500000920E-02 0.  1.
        2   -1    0    0  501    0  0.00000000000E+00  0.00000000000E+00 -0.21944155790E+04  0.21944155790E+04  0.25500000920E-02 0. -1.
    10030    2    1    2    0    0  0.00000000000E+00  0.00000000000E+00 -0.87492240954E+03  0.35139087484E+04  0.34032433750E+04 0.  0.
        2    1    3    3  502    0 -0.64504993885E+03 -0.11826291714E+04 -0.15108898750E+04  0.20242256285E+04  0.25500000920E-02 0. -1.
       -2    1    3    3    0  502  0.64504993885E+03  0.11826291714E+04  0.63596746546E+03  0.14896831199E+04  0.25500000920E-02 0.  1.
</event>
<event>
 5   0  0.1268230E-06  0.3380842E+04  0.7818609E-02  0.8142624E-01
       -2   -1    0    0    0  501  0.00000000000E+00  0.00000000000E+00  0.12853856639E+04  0.12853856639E+04  0.25500000920E-02 0.  1.
        2   -1    0    0  501    0  0.00000000000E+00  0.00000000000E+00 -0.22230864922E+04  0.22230864922E+04  0.25500000920E-02 0. -1.
    10030    2    1    2    0    0  0.00000000000E+00  0.00000000000E+00 -0.93770082823E+03  0.35084721561E+04  0.33808422067E+04 0.  0.
        2    1    3    3  502    0  0.12288563373E+04 -0.10139991999E+04  0.11749376949E+03  0.15975252928E+04  0.25500000920E-02 0.  1.
       -2    1    3    3    0  502 -0.12288563373E+04  0.10139991999E+04 -0.10551945977E+04  0.19109468633E+04  0.25500000920E-02 0. -1.
</event>
<event>
 5   0  0.4464951E-07  0.3346420E+04  0.7818609E-02  0.8151183E-01
       -1   -1    0    0    0  501  0.00000000000E+00  0.00000000000E+00  0.21355789262E+04  0.21355789262E+04  0.50400001928E-02 0.  1.
        1   -1    0    0  501    0  0.00000000000E+00  0.00000000000E+00 -0.13109473807E+04  0.13109473807E+04  0.50400001928E-02 0. -1.
    10030    2    1    2    0    0  0.00000000000E+00  0.00000000000E+00  0.82463154546E+03  0.34465263069E+04  0.33464199376E+04 0.  0.
        3    1    3    3  502    0 -0.35333386710E+03  0.84763865521E+03 -0.10282012151E+04  0.13785985131E+04  0.10100000352E+00 0. -1.
       -3    1    3    3    0  502  0.35333386710E+03 -0.84763865521E+03  0.18528327606E+04  0.20679277938E+04  0.10100000352E+00 0.  1.
</event>
<event>
 5   0  0.4272633E-07  0.3407102E+04  0.7818609E-02  0.8136165E-01
        1   -1    0    0  501    0  0.00000000000E+00  0.00000000000E+00  0.26124588935E+04  0.26124588935E+04  0.50400001928E-02 0.  1.
       -1   -1    0    0    0  501  0.00000000000E+00  0.00000000000E+00 -0.11108638910E+04  0.11108638910E+04  0.50400001928E-02 0. -1.
    10030    2    1    2    0    0  0.00000000000E+00  0.00000000000E+00  0.15015950025E+04  0.37233227846E+04  0.34071021421E+04 0.  0.
        1    1    3    3  502    0 -0.14396127816E+04 -0.90496234694E+03  0.86354501476E+03  0.19071318263E+04  0.50400001928E-02 0.  1.
       -1    1    3    3    0  502  0.14396127816E+04  0.90496234694E+03  0.63804998771E+03  0.18161909583E+04  0.50400001928E-02 0. -1.
</event>
<event>
 5   0  0.4464951E-07  0.3791911E+04  0.7818609E-02  0.8047893E-01
        1   -1    0    0  501    0  0.00000000000E+00  0.00000000000E+00  0.23198599260E+04  0.23198599260E+04  0.50400001928E-02 0. -1.
       -1   -1    0    0    0  501  0.00000000000E+00  0.00000000000E+00 -0.15495103417E+04  0.15495103417E+04  0.50400001928E-02 0.  1.
    10030    2    1    2    0    0  0.00000000000E+00  0.00000000000E+00  0.77034958430E+03  0.38693702676E+04  0.37919108357E+04 0.  0.
        3    1    3    3  502    0  0.13569040193E+03 -0.11625285287E+04  0.19072075462E+04  0.22377053201E+04  0.10100000352E+00 0. -1.
       -3    1    3    3    0  502 -0.13569040193E+03  0.11625285287E+04 -0.11368579619E+04  0.16316649475E+04  0.10100000352E+00 0.  1.
</event>
<event>
 5   0  0.4289684E-07  0.3660031E+04  0.7818609E-02  0.8076878E-01
        1   -1    0    0  501    0  0.00000000000E+00  0.00000000000E+00  0.23338204862E+04  0.23338204862E+04  0.50400001928E-02 0.  1.
       -1   -1    0    0    0  501  0.00000000000E+00  0.00000000000E+00 -0.14349676643E+04  0.14349676643E+04  0.50400001928E-02 0. -1.
    10030    2    1    2    0    0  0.00000000000E+00  0.00000000000E+00  0.89885282192E+03  0.37687881506E+04  0.36600311103E+04 0.  0.
        4    1    3    3  502    0 -0.35916633876E+03  0.10814714652E+04 -0.10250353939E+04  0.15327361680E+04  0.12699999809E+01 0. -1.
       -4    1    3    3    0  502  0.35916633876E+03 -0.10814714652E+04  0.19238882158E+04  0.22360519826E+04  0.12699999809E+01 0.  1.
</event>
<event>
 5   0  0.4289684E-07  0.3475669E+04  0.7818609E-02  0.8119580E-01
       -1   -1    0    0    0  501  0.00000000000E+00  0.00000000000E+00  0.11347574789E+04  0.11347574789E+04  0.50400001928E-02 0.  1.
        1   -1    0    0  501    0  0.00000000000E+00  0.00000000000E+00 -0.26614229296E+04  0.26614229296E+04  0.50400001928E-02 0. -1.
    10030    2    1    2    0    0  0.00000000000E+00  0.00000000000E+00 -0.15266654507E+04  0.37961804085E+04  0.34756694744E+04 0.  0.
        4    1    3    3  502    0  0.69270807995E+03  0.86296461031E+03  0.70020175999E+03  0.13095176670E+04  0.12699999809E+01 0.  1.
       -4    1    3    3    0  502 -0.69270807995E+03 -0.86296461031E+03 -0.22268672107E+04  0.24866627414E+04  0.12699999809E+01 0. -1.
</event>
<event>
 5   0  0.1300176E-06  0.3418438E+04  0.7818609E-02  0.8133396E-01
       -2   -1    0    0    0  501  0.00000000000E+00  0.00000000000E+00  0.16312293218E+04  0.16312293218E+04  0.25500000920E-02 0.  1.
        2   -1    0    0  501    0  0.00000000000E+00  0.00000000000E+00 -0.17909378773E+04  0.17909378773E+04  0.25500000920E-02 0. -1.
    10030    2    1    2    0    0  0.00000000000E+00  0.00000000000E+00 -0.15970855543E+03  0.34221671991E+04  0.34184384616E+04 0.  0.
        1    1    3    3  502    0 -0.13533315374E+03 -0.16974237666E+04 -0.22789347814E+03  0.17179924165E+04  0.50400001928E-02 0. -1.
       -1    1    3    3    0  502  0.13533315374E+03  0.16974237666E+04  0.68184922717E+02  0.17041747826E+04  0.50400001928E-02 0.  1.
</event>
<event>
 5   0  0.1256208E-06  0.3365297E+04  0.7818609E-02  0.8146476E-01
        2   -1    0    0  501    0  0.00000000000E+00  0.00000000000E+00  0.25653276933E+04  0.25653276933E+04  0.25500000920E-02 0. -1.
       -2   -1    0    0    0  501  0.00000000000E+00  0.00000000000E+00 -0.11036819674E+04  0.11036819674E+04  0.25500000920E-02 0.  1.
    10030    2    1    2    0    0  0.00000000000E+00  0.00000000000E+00  0.14616457259E+04  0.36690096607E+04  0.33652969649E+04 0.  0.
        3    1    3    3  502    0 -0.22359436308E+03 -0.19945109226E+03  0.25360091277E+04  0.25536478777E+04  0.10100000352E+00 0. -1.
       -3    1    3    3    0  502  0.22359436308E+03  0.19945109226E+03 -0.10743634018E+04  0.11153617829E+04  0.10100000352E+00 0.  1.
</event>
<event>
 5   0  0.4060750E-07  0.3338807E+04  0.7818609E-02  0.8153091E-01
       -3   -1    0    0    0  501  0.00000000000E+00  0.00000000000E+00  0.15557241662E+04  0.15557241695E+04  0.10100000352E+00 0. -1.
        3   -1    0    0  501    0  0.00000000000E+00  0.00000000000E+00 -0.17913891946E+04  0.17913891975E+04  0.10100000352E+00 0.  1.
    10030    2    1    2    0    0  0.00000000000E+00  0.00000000000E+00 -0.23566502839E+03  0.33471133670E+04  0.33388066560E+04 0.  0.
        3    1    3    3  502    0 -0.99155845690E+03 -0.12337147895E+04  0.41421107850E+03  0.16360963245E+04  0.10100000352E+00 0. -1.
       -3    1    3    3    0  502  0.99155845690E+03  0.12337147895E+04 -0.64987610689E+03  0.17110170425E+04  0.10100000352E+00 0.  1.
</event>
<event>
 5   0  0.1268230E-06  0.3360433E+04  0.7818609E-02  0.8147686E-01
        2   -1    0    0  501    0  0.00000000000E+00  0.00000000000E+00  0.16631825765E+04  0.16631825765E+04  0.25500000920E-02 0.  1.
       -2   -1    0    0    0  501  0.00000000000E+00  0.00000000000E+00 -0.16974245204E+04  0.16974245204E+04  0.25500000920E-02 0. -1.
    10030    2    1    2    0    0  0.00000000000E+00  0.00000000000E+00 -0.34241943865E+02  0.33606070969E+04  0.33604326432E+04 0.  0.
        2    1    3    3  502    0 -0.11526335383E+04 -0.10920707252E+04  0.53240218146E+03  0.16747043396E+04  0.25500000920E-02 0.  1.
       -2    1    3    3    0  502  0.11526335383E+04  0.10920707252E+04 -0.56664412532E+03  0.16859027573E+04  0.25500000920E-02 0. -1.
</event>
<event>
 5   0  0.1277635E-06  0.3397874E+04  0.7818609E-02  0.8138428E-01
       -2   -1    0    0    0  501  0.00000000000E+00  0.00000000000E+00  0.13971162691E+04  0.13971162691E+04  0.25500000920E-02 0. -1.
        2   -1    0    0  501    0  0.00000000000E+00  0.00000000000E+00 -0.20659598988E+04  0.20659598988E+04  0.25500000920E-02 0.  1.
    10030    2    1    2    0    0  0.00000000000E+00  0.00000000000E+00 -0.66884362971E+03  0.34630761680E+04  0.33978735621E+04 0.  0.
        4    1    3    3  502    0  0.91042374452E+03 -0.64203755992E+03  0.97288493513E+03  0.14790504835E+04  0.12699999809E+01 0. -1.
       -4    1    3    3    0  502 -0.91042374452E+03  0.64203755992E+03 -0.16417285648E+04  0.19840256844E+04  0.12699999809E+01 0.  1.
</event>
<event>
 5   0  0.4289684E-07  0.3350977E+04  0.7818609E-02  0.8150044E-01
       -1   -1    0    0    0  501  0.00000000000E+00  0.00000000000E+00  0.28262833150E+04  0.28262833150E+04  0.50400001928E-02 0.  1.
        1   -1    0    0  501    0  0.00000000000E+00  0.00000000000E+00 -0.99326948942E+03  0.99326948943E+03  0.50400001928E-02 0. -1.
    10030    2    1    2    0    0  0.00000000000E+00  0.00000000000E+00  0.18330138256E+04  0.38195528044E+04  0.33509765653E+04 0.  0.
        4    1    3    3  502    0  0.42033089094E+03 -0.89318381567E+03 -0.62661109043E+03  0.11692298568E+04  0.12699999809E+01 0. -1.
       -4    1    3    3    0  502 -0.42033089094E+03  0.89318381567E+03  0.24596249160E+04  0.26503229477E+04  0.12699999809E+01 0.  1.
</event>
<event>
 5   0  0.1269497E-06  0.3425094E+04  0.7818609E-02  0.8131775E-01
        2   -1    0    0  501    0  0.00000000000E+00  0.00000000000E+00  0.18321047200E+04  0.18321047200E+04  0.25500000920E-02 0.  1.
       -2   -1    0    0    0  501  0.00000000000E+00  0.00000000000E+00 -0.16007908490E+04  0.16007908490E+04  0.25500000920E-02 0. -1.
    10030    2    1    2    0    0  0.00000000000E+00  0.00000000000E+00  0.23131387102E+03  0.34328955690E+04  0.34250935580E+04 0.  0.
        5    1    3    3  502    0  0.11118680923E+04  0.12951584106E+04  0.25420501417E+03  0.17257833707E+04  0.46999998093E+01 0.  1.
       -5    1    3    3    0  502 -0.11118680923E+04 -0.12951584106E+04 -0.22891143152E+02  0.17071121983E+04  0.46999998093E+01 0. -1.
</event>
<event>
 5   0  0.1256208E-06  0.3380852E+04  0.7818609E-02  0.8142622E-01
       -2   -1    0    0    0  501  0.00000000000E+00  0.00000000000E+00  0.12193428401E+04  0.12193428401E+04  0.25500000920E-02 0. -1.
        2   -1    0    0  501    0  0.00000000000E+00  0.00000000000E+00 -0.23435077994E+04  0.23435077994E+04  0.25500000920E-02 0.  1.
    10030    2    1    2    0    0  0.00000000000E+00  0.00000000000E+00 -0.11241649593E+04  0.35628506395E+04  0.33808516418E+04 0.  0.
        3    1    3    3  502    0  0.79696248759E+02 -0.12952287849E+04 -0.17037143044E+04  0.21416375834E+04  0.10100000352E+00 0.  1.
       -3    1    3    3    0  502 -0.79696248759E+02  0.12952287849E+04  0.57954934509E+03  0.14212130561E+04  0.10100000352E+00 0. -1.
</event>
<event>
 5   0  0.4289684E-07  0.3423216E+04  0.7818609E-02  0.8132232E-01
        1   -1    0    0  501    0  0.00000000000E+00  0.00000000000E+00  0.21517173077E+04  0.21517173077E+04  0.50400001928E-02 0. -1.
       -1   -1    0    0    0  501  0.00000000000E+00  0.00000000000E+00 -0.13615184397E+04  0.13615184397E+04  0.50400001928E-02 0.  1.
    10030    2    1    2    0    0  0.00000000000E+00  0.00000000000E+00  0.79019886799E+03  0.35132357474E+04  0.34232164942E+04 0.  0.
        4    1    3    3  502    0 -0.13547640254E+04  0.78435070175E+03  0.11054046953E+04  0.19163801139E+04  0.12699999809E+01 0.  1.
       -4    1    3    3    0  502  0.13547640254E+04 -0.78435070175E+03 -0.31520582735E+03  0.15968556335E+04  0.12699999809E+01 0. -1.
</event>
<event>
 5   0  0.4464951E-07  0.3416443E+04  0.7818609E-02  0.8133882E-01
       -1   -1    0    0    0  501  0.00000000000E+00  0.00000000000E+00  0.18461079364E+04  0.18461079364E+04  0.50400001928E-02 0.  1.
        1   -1    0    0  501    0  0.00000000000E+00  0.00000000000E+00 -0.15806342211E+04  0.15806342211E+04  0.50400001928E-02 0. -1.
    10030    2    1    2    0    0  0.00000000000E+00  0.00000000000E+00  0.26547371532E+03  0.34267421576E+04  0.34164434023E+04 0.  0.
        3    1    3    3  502    0  0.13792362372E+03 -0.16246027686E+04  0.64384560014E+03  0.17529672697E+04  0.10100000352E+00 0. -1.
       -3    1    3    3    0  502 -0.13792362372E+03  0.16246027686E+04 -0.37837188482E+03  0.16737748878E+04  0.10100000352E+00 0.  1.
</event>
<event>
 5   0  0.1277635E-06  0.3380471E+04  0.7818609E-02  0.8142716E-01
        2   -1    0    0  501    0  0.00000000000E+00  0.00000000000E+00  0.13949923608E+04  0.13949923608E+04  0.25500000920E-02 0.  1.
       -2   -1    0    0    0  501  0.00000000000E+00  0.00000000000E+00 -0.20479658456E+04  0.20479658456E+04  0.25500000920E-02 0. -1.
    10030    2    1    2    0    0  0.00000000000E+00  0.00000000000E+00 -0.65297348483E+03  0.34429582064E+04  0.33804713930E+04 0.  0.
        4    1    3    3  502    0  0.86108315986E+02 -0.64409066941E+03  0.12626847363E+04  0.14200851343E+04  0.12699999809E+01 0.  1.
       -4    1    3    3    0  502 -0.86108315986E+02  0.64409066941E+03 -0.19156582211E+04  0.20228730721E+04  0.12699999809E+01 0. -1.
</event>
<event>
 5   0  0.1256208E-06  0.3375299E+04  0.7818609E-02  0.8143995E-01
       -2   -1    0    0    0  501  0.00000000000E+00  0.00000000000E+00  0.12914514366E+04  0.12914514366E+04  0.25500000920E-02 0.  1.
        2   -1    0    0  501    0  0.00000000000E+00  0.00000000000E+00 -0.22053954056E+04  0.22053954056E+04  0.25500000920E-02 0. -1.
    10030    2    1    2    0    0  0.00000000000E+00  0.00000000000E+00 -0.91394396901E+03  0.34968468422E+04  0.33752991362E+04 0.  0.
        3    1    3    3  502    0 -0.61226548169E+03 -0.15155712044E+04 -0.89201758865E+03  0.18621279452E+04  0.10100000352E+00 0. -1.
       -3    1    3    3    0  502  0.61226548169E+03  0.15155712044E+04 -0.21926380357E+02  0.16347188970E+04  0.10100000352E+00 0.  1.
</event>
<event>
 5   0  0.1268230E-06  0.3393101E+04  0.7818609E-02  0.8139602E-01
       -2   -1    0    0    0  501  0.00000000000E+00  0.00000000000E+00  0.20713455365E+04  0.20713455365E+04  0.25500000920E-02 0.  1.
        2   -1    0    0  501    0  0.00000000000E+00  0.00000000000E+00 -0.13895721634E+04  0.13895721634E+04  0.25500000920E-02 0. -1.
    10030    2    1    2    0    0  0.00000000000E+00  0.00000000000E+00  0.68177337309E+03  0.34609176999E+04  0.33931012943E+04 0.  0.
        2    1    3    3  502    0  0.12347354677E+04  0.80556294673E+03 -0.51540448715E+03  0.15617762714E+04  0.25500000920E-02 0.  1.
       -2    1    3    3    0  502 -0.12347354677E+04 -0.80556294673E+03  0.11971778602E+04  0.18991414285E+04  0.25500000920E-02 0. -1.
</event>
<event>
 5   0  0.1268230E-06  0.3239189E+04  0.7818609E-02  0.8178544E-01
       -2   -1    0    0    0  501  0.00000000000E+00  0.00000000000E+00  0.81518358756E+03  0.81518358756E+03  0.25500000920E-02 0. -1.
        2   -1    0    0  501    0  0.00000000000E+00  0.00000000000E+00 -0.32177851164E+04  0.32177851164E+04  0.25500000920E-02 0.  1.
    10030    2    1    2    0    0  0.00000000000E+00  0.00000000000E+00 -0.24026015289E+04  0.40329687040E+04  0.32391885497E+04 0.  0.
        2    1    3    3  502    0  0.87517082328E+03  0.11695355136E+04 -0.33034183213E+03  0.14976191150E+04  0.25500000920E-02 0. -1.
       -2    1    3    3    0  502 -0.87517082328E+03 -0.11695355136E+04 -0.20722596967E+04  0.25353495890E+04  0.25500000920E-02 0.  1.
</event>
<event>
 5   0  0.1277635E-06  0.3377540E+04  0.7818609E-02  0.8143441E-01
       -2   -1    0    0    0  501  0.00000000000E+00  0.00000000000E+00  0.11578957842E+04  0.11578957842E+04  0.25500000920E-02 0. -1.
        2   -1    0    0  501    0  0.00000000000E+00  0.00000000000E+00 -0.24630401145E+04  0.24630401145E+04  0.25500000920E-02 0.  1.
    10030    2    1    2    0    0  0.00000000000E+00  0.00000000000E+00 -0.13051443302E+04  0.36209358987E+04  0.33775397939E+04 0.  0.
        4    1    3    3  502    0 -0.75556746043E+03 -0.89823568271E+03  0.64910525324E+03  0.13412862378E+04  0.12699999809E+01 0. -1.
       -4    1    3    3    0  502  0.75556746043E+03  0.89823568271E+03 -0.19542495835E+04  0.22796496609E+04  0.12699999809E+01 0.  1.
</event>
<event>
 5   0  0.1269497E-06  0.3414315E+04  0.7818609E-02  0.8134402E-01
       -2   -1    0    0    0  501  0.00000000000E+00  0.00000000000E+00  0.30743887452E+04  0.30743887452E+04  0.25500000920E-02 0. -1.
        2   -1    0    0  501    0  0.00000000000E+00  0.00000000000E+00 -0.94795633783E+03  0.94795633783E+03  0.25500000920E-02 0.  1.
    10030    2    1    2    0    0  0.00000000000E+00  0.00000000000E+00  0.21264324074E+04  0.40223450831E+04  0.34143147459E+04 0.  0.
        5    1    3    3  502    0 -0.71496704609E+03 -0.14753092639E+04  0.16240737730E+04  0.23076726395E+04  0.46999998093E+01 0. -1.
       -5    1    3    3    0  502  0.71496704609E+03  0.14753092639E+04  0.50235863444E+03  0.17146724436E+04  0.46999998093E+01 0.  1.
</event>
<event>
 5   0  0.1269497E-06  0.3396886E+04  0.7818609E-02  0.8138671E-01
       -2   -1    0    0    0  501  0.00000000000E+00  0.00000000000E+00  0.14605012103E+04  0.14605012103E+04  0.25500000920E-02 0. -1.
        2   -1    0    0  501    0  0.00000000000E+00  0.00000000000E+00 -0.19751499120E+04  0.19751499120E+04  0.25500000920E-02 0.  1.
    10030    2    1    2    0    0  0.00000000000E+00  0.00000000000E+00 -0.51464870169E+03  0.34356511223E+04  0.33968861253E+04 0.  0.
        5    1    3    3  502    0  0.14807923149E+04  0.72035170364E+03  0.16339661637E+03  0.16548030097E+04  0.46999998093E+01 0.  1.
       -5    1    3    3    0  502 -0.14807923149E+04 -0.72035170364E+03 -0.67804531806E+03  0.17808481126E+04  0.46999998093E+01 0. -1.
</event>
<event>
 5   0  0.1256208E-06  0.3395212E+04  0.7818609E-02  0.8139082E-01
       -2   -1    0    0    0  501  0.00000000000E+00  0.00000000000E+00  0.16711115505E+04  0.16711115505E+04  0.25500000920E-02 0.  1.
        2   -1    0    0  501    0  0.00000000000E+00  0.00000000000E+00 -0.17245205433E+04  0.17245205433E+04  0.25500000920E-02 0. -1.
    10030    2    1    2    0    0  0.00000000000E+00  0.00000000000E+00 -0.53408992784E+02  0.33956320938E+04  0.33952120399E+04 0.  0.
        3    1    3    3  502    0 -0.12975915860E+04  0.85994753221E+01 -0.11213938478E+04  0.17150341241E+04  0.10100000352E+00 0. -1.
       -3    1    3    3    0  502  0.12975915860E+04 -0.85994753221E+01  0.10679848550E+04  0.16805979696E+04  0.10100000352E+00 0.  1.
</event>
<event>
 5   0  0.4272633E-07  0.3153966E+04  0.7818609E-02  0.8201082E-01
       -1   -1    0    0    0  501  0.00000000000E+00  0.00000000000E+00  0.13132159552E+04  0.13132159552E+04  0.50400001928E-02 0. -1.
        1   -1    0    0  501    0  0.00000000000E+00  0.00000000000E+00 -0.18937290458E+04  0.18937290459E+04  0.50400001928E-02 0.  1.
    10030    2    1    2    0    0  0.00000000000E+00  0.00000000000E+00 -0.58051309066E+03  0.32069450010E+04  0.31539658830E+04 0.  0.
        1    1    3    3  502    0 -0.13043814431E+04 -0.50132159261E+03 -0.10333825197E+04  0.17379912890E+04  0.50400001928E-02 0.  1.
       -1    1    3    3    0  502  0.13043814431E+04  0.50132159261E+03  0.45286942905E+03  0.14689537121E+04  0.50400001928E-02 0. -1.
</event>
<event>
 5   0  0.4272633E-07  0.3397017E+04  0.7818609E-02  0.8138639E-01
       -1   -1    0    0    0  501  0.00000000000E+00  0.00000000000E+00  0.17562968754E+04  0.17562968754E+04  0.50400001928E-02 0.  1.
        1   -1    0    0  501    0  0.00000000000E+00  0.00000000000E+00 -0.16426213838E+04  0.16426213838E+04  0.50400001928E-02 0. -1.
    10030    2    1    2    0    0  0.00000000000E+00  0.00000000000E+00  0.11367549166E+03  0.33989182592E+04  0.33970168111E+04 0.  0.
        1    1    3    3  502    0 -0.96301836918E+03  0.13603525570E+04 -0.27040394862E+03  0.16885146591E+04  0.50400001928E-02 0.  1.
       -1    1    3    3    0  502  0.96301836918E+03 -0.13603525570E+04  0.38407944028E+03  0.17104036001E+04  0.50400001928E-02 0. -1.
</event>
<event>
 5   0  0.1268230E-06  0.3395590E+04  0.7818609E-02  0.8138989E-01
        2   -1    0    0  501    0  0.00000000000E+00  0.00000000000E+00  0.31307437621E+04  0.31307437621E+04  0.25500000920E-02 0. -1.
       -2   -1    0    0    0  501  0.00000000000E+00  0.00000000000E+00 -0.92071046805E+03  0.92071046805E+03  0.25500000920E-02 0.  1.
    10030    2    1    2    0    0  0.00000000000E+00  0.00000000000E+00  0.22100332941E+04  0.40514542302E+04  0.33955904079E+04 0.  0.
        2    1    3    3  502    0 -0.11647941355E+04 -0.14490531304E+03  0.25686424927E+04  0.28241223740E+04  0.25500000920E-02 0. -1.
       -2    1    3    3    0  502  0.11647941355E+04  0.14490531304E+03 -0.35860919869E+03  0.12273318562E+04  0.25500000920E-02 0.  1.
</event>
<event>
 5   0  0.1277635E-06  0.3425692E+04  0.7818609E-02  0.8131629E-01
        2   -1    0    0  501    0  0.00000000000E+00  0.00000000000E+00  0.17917915529E+04  0.17917915529E+04  0.25500000920E-02 0.  1.
       -2   -1    0    0    0  501  0.00000000000E+00  0.00000000000E+00 -0.16373787938E+04  0.16373787938E+04  0.25500000920E-02 0. -1.
    10030    2    1    2    0    0  0.00000000000E+00  0.00000000000E+00  0.15441275908E+03  0.34291703467E+04  0.34256920420E+04 0.  0.
        4    1    3    3  502    0 -0.20043180696E+02  0.11510316288E+04  0.13467860484E+04  0.17717533160E+04  0.12699999809E+01 0.  1.
       -4    1    3    3    0  502  0.20043180696E+02 -0.11510316288E+04 -0.11923732894E+04  0.16574170307E+04  0.12699999809E+01 0. -1.
</event>
<event>
 5   0  0.4109937E-07  0.3318366E+04  0.7818609E-02  0.8158238E-01
       -1   -1    0    0    0  501  0.00000000000E+00  0.00000000000E+00  0.16817302956E+04  0.16817302956E+04  0.50400001928E-02 0.  1.
        1   -1    0    0  501    0  0.00000000000E+00  0.00000000000E+00 -0.16369377367E+04  0.16369377367E+04  0.50400001928E-02 0. -1.
    10030    2    1    2    0    0  0.00000000000E+00  0.00000000000E+00  0.44792558940E+02  0.33186680323E+04  0.33183657326E+04 0.  0.
        5    1    3    3  502    0  0.14581342976E+03  0.17000248232E+03 -0.16217435391E+04  0.16371428150E+04  0.46999998093E+01 0. -1.
       -5    1    3    3    0  502 -0.14581342976E+03 -0.17000248232E+03  0.16665360980E+04  0.16815252173E+04  0.46999998093E+01 0.  1.
</event>
<event>
 5   0  0.1300176E-06  0.3404896E+04  0.7818609E-02  0.8136706E-01
        2   -1    0    0  501    0  0.00000000000E+00  0.00000000000E+00  0.92573746804E+03  0.92573746804E+03  0.25500000920E-02 0.  1.
       -2   -1    0    0    0  501  0.00000000000E+00  0.00000000000E+00 -0.31308323574E+04  0.31308323574E+04  0.25500000920E-02 0. -1.
    10030    2    1    2    0    0  0.00000000000E+00  0.00000000000E+00 -0.22050948893E+04  0.40565698254E+04  0.34048957807E+04 0.  0.
        1    1    3    3  502    0  0.55492546379E+03 -0.48277832473E+03 -0.29317577218E+04  0.30226181566E+04  0.50400001928E-02 0. -1.
       -1    1    3    3    0  502 -0.55492546379E+03  0.48277832473E+03  0.72666283252E+03  0.10339516688E+04  0.50400001928E-02 0.  1.
</event>
<event>
 5   0  0.4109937E-07  0.3407748E+04  0.7818609E-02  0.8136007E-01
        1   -1    0    0  501    0  0.00000000000E+00  0.00000000000E+00  0.18891201592E+04  0.18891201592E+04  0.50400001928E-02 0.  1.
       -1   -1    0    0    0  501  0.00000000000E+00  0.00000000000E+00 -0.15367925440E+04  0.15367925440E+04  0.50400001928E-02 0. -1.
    10030    2    1    2    0    0  0.00000000000E+00  0.00000000000E+00  0.35232761516E+03  0.34259127032E+04  0.34077475115E+04 0.  0.
        5    1    3    3  502    0  0.96186767200E+01  0.16124197750E+04  0.72971093195E+03  0.17698842290E+04  0.46999998093E+01 0.  1.
       -5    1    3    3    0  502 -0.96186767200E+01 -0.16124197750E+04 -0.37738331679E+03  0.16560284743E+04  0.46999998093E+01 0. -1.
</event>
<event>
 5   0  0.4289684E-07  0.3369250E+04  0.7818609E-02  0.8145495E-01
        1   -1    0    0  501    0  0.00000000000E+00  0.00000000000E+00  0.18981694750E+04  0.18981694751E+04  0.50400001928E-02 0.  1.
       -1   -1    0    0    0  501  0.00000000000E+00  0.00000000000E+00 -0.14951043260E+04  0.14951043260E+04  0.50400001928E-02 0. -1.
    10030    2    1    2    0    0  0.00000000000E+00  0.00000000000E+00  0.40306514903E+03  0.33932738011E+04  0.33692500018E+04 0.  0.
        4    1    3    3  502    0  0.12696412630E+04 -0.10955703806E+04  0.40088658383E+02  0.16774600171E+04  0.12699999809E+01 0. -1.
       -4    1    3    3    0  502 -0.12696412630E+04  0.10955703806E+04  0.36297649065E+03  0.17158137840E+04  0.12699999809E+01 0.  1.
</event>
<event>
 5   0  0.4272633E-07  0.3250163E+04  0.7818609E-02  0.8175694E-01
        1   -1    0    0  501    0  0.00000000000E+00  0.00000000000E+00  0.20680959148E+04  0.20680959148E+04  0.50400001928E-02 0. -1.
       -1   -1    0    0    0  501  0.00000000000E+00  0.00000000000E+00 -0.12769664755E+04  0.12769664755E+04  0.50400001928E-02 0.  1.
    10030    2    1    2    0    0  0.00000000000E+00  0.00000000000E+00  0.79112943928E+03  0.33450623903E+04  0.32501625506E+04 0.  0.
        1    1    3    3  502    0 -0.47056743945E+03 -0.14081077732E+03  0.19898685125E+04  0.20495946153E+04  0.50400001928E-02 0. -1.
       -1    1    3    3    0  502  0.47056743945E+03  0.14081077732E+03 -0.11987390733E+04  0.12954677749E+04  0.50400001928E-02 0.  1.
</event>
<event>
 5   0  0.4272633E-07  0.3371389E+04  0.7818609E-02  0.8144964E-01
        1   -1    0    0  501    0  0.00000000000E+00  0.00000000000E+00  0.23164609318E+04  0.23164609318E+04  0.50400001928E-02 0.  1.
       -1   -1    0    0    0  501  0.00000000000E+00  0.00000000000E+00 -0.12266844637E+04  0.12266844637E+04  0.50400001928E-02 0. -1.
    10030    2    1    2    0    0  0.00000000000E+00  0.00000000000E+00  0.10897764681E+04  0.35431453956E+04  0.33713894085E+04 0.  0.
        1    1    3    3  502    0  0.26799489100E+02  0.44662583172E+03  0.22529162432E+04  0.22969162904E+04  0.50400001928E-02 0.  1.
       -1    1    3    3    0  502 -0.26799489100E+02 -0.44662583172E+03 -0.11631397751E+04  0.12462291052E+04  0.50400001928E-02 0. -1.
</event>
<event>
 5   0  0.4272633E-07  0.2732207E+04  0.7818609E-02  0.8324630E-01
        1   -1    0    0  501    0  0.00000000000E+00  0.00000000000E+00  0.19474732649E+04  0.19474732649E+04  0.50400001928E-02 0.  1.
       -1   -1    0    0    0  501  0.00000000000E+00  0.00000000000E+00 -0.95828704682E+03  0.95828704684E+03  0.50400001928E-02 0. -1.
    10030    2    1    2    0    0  0.00000000000E+00  0.00000000000E+00  0.98918621804E+03  0.29057603117E+04  0.27322067299E+04 0.  0.
        1    1    3    3  502    0  0.71857526151E+03  0.35246147101E+03 -0.68282590265E+03  0.10520602209E+04  0.50400001928E-02 0. -1.
       -1    1    3    3    0  502 -0.71857526151E+03 -0.35246147101E+03  0.16720121207E+04  0.18537000908E+04  0.50400001928E-02 0.  1.
</event>
<event>
 5   0  0.4125758E-07  0.3391680E+04  0.7818609E-02  0.8139951E-01
        1   -1    0    0  501    0  0.00000000000E+00  0.00000000000E+00  0.19810032225E+04  0.19810032225E+04  0.50400001928E-02 0.  1.
       -1   -1    0    0    0  501  0.00000000000E+00  0.00000000000E+00 -0.14517256026E+04  0.14517256026E+04  0.50400001928E-02 0. -1.
    10030    2    1    2    0    0  0.00000000000E+00  0.00000000000E+00  0.52927761984E+03  0.34327288251E+04  0.33916798770E+04 0.  0.
        2    1    3    3  502    0 -0.24006812627E+03 -0.71036302760E+02 -0.14329187207E+04  0.14546253544E+04  0.25500000920E-02 0. -1.
       -2    1    3    3    0  502  0.24006812627E+03  0.71036302760E+02  0.19621963406E+04  0.19781034706E+04  0.25500000920E-02 0.  1.
</event>
<event>
 5   0  0.4109937E-07  0.3357928E+04  0.7818609E-02  0.8148310E-01
       -1   -1    0    0    0  501  0.00000000000E+00  0.00000000000E+00  0.11524747809E+04  0.11524747809E+04  0.50400001928E-02 0. -1.
        1   -1    0    0  501    0  0.00000000000E+00  0.00000000000E+00 -0.24459705611E+04  0.24459705611E+04  0.50400001928E-02 0.  1.
    10030    2    1    2    0    0  0.00000000000E+00  0.00000000000E+00 -0.12934957802E+04  0.35984453419E+04  0.33579275670E+04 0.  0.
        5    1    3    3  502    0  0.16437416668E+04  0.34204899841E+03 -0.64286751263E+03  0.17978278320E+04  0.46999998093E+01 0.  1.
       -5    1    3    3    0  502 -0.16437416668E+04 -0.34204899841E+03 -0.65062826757E+03  0.18006175100E+04  0.46999998093E+01 0. -1.
</event>
<event>
 5   0  0.1256208E-06  0.3419918E+04  0.7818609E-02  0.8133035E-01
        2   -1    0    0  501    0  0.00000000000E+00  0.00000000000E+00  0.25250042545E+04  0.25250042546E+04  0.25500000920E-02 0.  1.
       -2   -1    0    0    0  501  0.00000000000E+00  0.00000000000E+00 -0.11580017927E+04  0.11580017927E+04  0.25500000920E-02 0. -1.
    10030    2    1    2    0    0  0.00000000000E+00  0.00000000000E+00  0.13670024619E+04  0.36830060472E+04  0.34199178080E+04 0.  0.
        3    1    3    3  502    0  0.12752327447E+04  0.53191388874E+02 -0.54198043506E+03  0.13866472800E+04  0.10100000352E+00 0. -1.
       -3    1    3    3    0  502 -0.12752327447E+04 -0.53191388874E+02  0.19089828969E+04  0.22963587672E+04  0.10100000352E+00 0.  1.
</event>
<event>
 5   0  0.4464951E-07  0.3405799E+04  0.7818609E-02  0.8136485E-01
       -1   -1    0    0    0  501  0.00000000000E+00  0.00000000000E+00  0.11636606890E+04  0.11636606890E+04  0.50400001928E-02 0.  1.
        1   -1    0    0  501    0  0.00000000000E+00  0.00000000000E+00 -0.24920208375E+04  0.24920208375E+04  0.50400001928E-02 0. -1.
    10030    2    1    2    0    0  0.00000000000E+00  0.00000000000E+00 -0.13283601485E+04  0.36556815266E+04  0.34057989869E+04 0.  0.
        3    1    3    3  502    0  0.66867022160E+03  0.54892022852E+03  0.91021344951E+03  0.12557554764E+04  0.10100000352E+00 0.  1.
       -3    1    3    3    0  502 -0.66867022160E+03 -0.54892022852E+03 -0.22385735980E+04  0.23999260502E+04  0.10100000352E+00 0. -1.
</event>
<event>
 5   0  0.4125758E-07  0.3375621E+04  0.7818609E-02  0.8143916E-01
        1   -1    0    0  501    0  0.00000000000E+00  0.00000000000E+00  0.19887678889E+04  0.19887678889E+04  0.50400001928E-02 0.  1.
       -1   -1    0    0    0  501  0.00000000000E+00  0.00000000000E+00 -0.14323965447E+04  0.14323965447E+04  0.50400001928E-02 0. -1.
    10030    2    1    2    0    0  0.00000000000E+00  0.00000000000E+00  0.55637134423E+03  0.34211644337E+04  0.33756209813E+04 0.  0.
        2    1    3    3  502    0  0.45808567292E+03 -0.12568192543E+04  0.13212786434E+04  0.18802165767E+04  0.25500000920E-02 0.  1.
       -2    1    3    3    0  502 -0.45808567292E+03  0.12568192543E+04 -0.76490729918E+03  0.15409478570E+04  0.25500000920E-02 0. -1.
</event>
<event>
 5   0  0.1269497E-06  0.3330471E+04  0.7818609E-02  0.8155185E-01
       -2   -1    0    0    0  501  0.00000000000E+00  0.00000000000E+00  0.18925883482E+04  0.18925883482E+04  0.25500000920E-02 0.  1.
        2   -1    0    0  501    0  0.00000000000E+00  0.00000000000E+00 -0.14651943741E+04  0.14651943741E+04  0.25500000920E-02 0. -1.
    10030    2    1    2    0    0  0.00000000000E+00  0.00000000000E+00  0.42739397409E+03  0.33577827223E+04  0.33304713181E+04 0.  0.
        5    1    3    3  502    0  0.11084123135E+04  0.19772535531E+03  0.14506708413E+04  0.18363390625E+04  0.46999998093E+01 0.  1.
       -5    1    3    3    0  502 -0.11084123135E+04 -0.19772535531E+03 -0.10232768672E+04  0.15214436597E+04  0.46999998093E+01 0. -1.
</event>
<event>
 5   0  0.1256208E-06  0.3355836E+04  0.7818609E-02  0.8148832E-01
       -2   -1    0    0    0  501  0.00000000000E+00  0.00000000000E+00  0.11688054145E+04  0.11688054145E+04  0.25500000920E-02 0. -1.
        2   -1    0    0  501    0  0.00000000000E+00  0.00000000000E+00 -0.24087911658E+04  0.24087911658E+04  0.25500000920E-02 0.  1.
    10030    2    1    2    0    0  0.00000000000E+00  0.00000000000E+00 -0.12399857513E+04  0.35775965802E+04  0.33558356079E+04 0.  0.
        3    1    3    3  502    0  0.67376635857E+03  0.51092315386E+03  0.92505580047E+03  0.12532884023E+04  0.10100000352E+00 0. -1.
       -3    1    3    3    0  502 -0.67376635857E+03 -0.51092315386E+03 -0.21650415518E+04  0.23243081780E+04  0.10100000352E+00 0.  1.
</event>
<event>
 5   0  0.4272633E-07  0.3377282E+04  0.7818609E-02  0.8143505E-01
       -1   -1    0    0    0  501  0.00000000000E+00  0.00000000000E+00  0.15526136463E+04  0.15526136463E+04  0.50400001928E-02 0. -1.
        1   -1    0    0  501    0  0.00000000000E+00  0.00000000000E+00 -0.18365859164E+04  0.18365859164E+04  0.50400001928E-02 0.  1.
    10030    2    1    2    0    0  0.00000000000E+00  0.00000000000E+00 -0.28397227004E+03  0.33891995627E+04  0.33772819582E+04 0.  0.
        1    1    3    3  502    0  0.73555967153E+03 -0.10156408203E+03 -0.16639608414E+04  0.18221221076E+04  0.50400001928E-02 0.  1.
       -1    1    3    3    0  502 -0.73555967153E+03  0.10156408203E+03  0.13799885714E+04  0.15670774551E+04  0.50400001928E-02 0. -1.
</event>
<event>
 5   0  0.1277635E-06  0.3383660E+04  0.7818609E-02  0.8141928E-01
       -2   -1    0    0    0  501  0.00000000000E+00  0.00000000000E+00  0.25452971537E+04  0.25452971537E+04  0.25500000920E-02 0.  1.
        2   -1    0    0  501    0  0.00000000000E+00  0.00000000000E+00 -0.11245403506E+04  0.11245403506E+04  0.25500000920E-02 0. -1.
    10030    2    1    2    0    0  0.00000000000E+00  0.00000000000E+00  0.14207568031E+04  0.36698375044E+04  0.33836603575E+04 0.  0.
        4    1    3    3  502    0  0.11433719344E+04 -0.12413453377E+04  0.58182014428E+03  0.17851481510E+04  0.12699999809E+01 0. -1.
       -4    1    3    3    0  502 -0.11433719344E+04  0.12413453377E+04  0.83893665885E+03  0.18846893533E+04  0.12699999809E+01 0.  1.
</event>
<event>
 5   0  0.1300176E-06  0.3383125E+04  0.7818609E-02  0.8142060E-01
        2   -1    0    0  501    0  0.00000000000E+00  0.00000000000E+00  0.15644915055E+04  0.15644915055E+04  0.25500000920E-02 0. -1.
       -2   -1    0    0    0  501  0.00000000000E+00  0.00000000000E+00 -0.18289547207E+04  0.18289547207E+04  0.25500000920E-02 0.  1.
    10030    2    1    2    0    0  0.00000000000E+00  0.00000000000E+00 -0.26446321515E+03  0.33934462262E+04  0.33831252561E+04 0.  0.
        1    1    3    3  502    0 -0.21739956745E+02  0.16904682729E+04 -0.18922499110E+03  0.17011648082E+04  0.50400001928E-02 0.  1.
       -1    1    3    3    0  502  0.21739956745E+02 -0.16904682729E+04 -0.75238224054E+02  0.16922814180E+04  0.50400001928E-02 0. -1.
</event>
<event>
 5   0  0.1256208E-06  0.3564890E+04  0.7818609E-02  0.8098582E-01
       -2   -1    0    0    0  501  0.00000000000E+00  0.00000000000E+00  0.12293956893E+04  0.12293956893E+04  0.25500000920E-02 0.  1.
        2   -1    0    0  501    0  0.00000000000E+00  0.00000000000E+00 -0.25842865845E+04  0.25842865845E+04  0.25500000920E-02 0. -1.
    10030    2    1    2    0    0  0.00000000000E+00  0.00000000000E+00 -0.13548908953E+04  0.38136822738E+04  0.35648903416E+04 0.  0.
        3    1    3    3  502    0  0.12103454382E+04  0.74706026581E+03  0.47180709460E+03  0.14985449827E+04  0.10100000352E+00 0.  1.
       -3    1    3    3    0  502 -0.12103454382E+04 -0.74706026581E+03 -0.18266979898E+04  0.23151372911E+04  0.10100000352E+00 0. -1.
</event>
<event>
 5   0  0.4109937E-07  0.3402634E+04  0.7818609E-02  0.8137260E-01
        1   -1    0    0  501    0  0.00000000000E+00  0.00000000000E+00  0.17373305522E+04  0.17373305522E+04  0.50400001928E-02 0.  1.
       -1   -1    0    0    0  501  0.00000000000E+00  0.00000000000E+00 -0.16660497726E+04  0.16660497726E+04  0.50400001928E-02 0. -1.
    10030    2    1    2    0    0  0.00000000000E+00  0.00000000000E+00  0.71280779655E+02  0.34033803248E+04  0.34026337866E+04 0.  0.
        5    1    3    3  502    0 -0.65410647301E+03  0.73972488224E+03 -0.13500909086E+04  0.16726672505E+04  0.46999998093E+01 0. -1.
       -5    1    3    3    0  502  0.65410647301E+03 -0.73972488224E+03  0.14213716882E+04  0.17307130743E+04  0.46999998093E+01 0.  1.
</event>
<event>
 5   0  0.4125758E-07  0.3413771E+04  0.7818609E-02  0.8134535E-01
        1   -1    0    0  501    0  0.00000000000E+00  0.00000000000E+00  0.17617065850E+04  0.17617065850E+04  0.50400001928E-02 0. -1.
       -1   -1    0    0    0  501  0.00000000000E+00  0.00000000000E+00 -0.16537707756E+04  0.16537707756E+04  0.50400001928E-02 0.  1.
    10030    2    1    2    0    0  0.00000000000E+00  0.00000000000E+00  0.10793580946E+03  0.34154773606E+04  0.34137714425E+04 0.  0.
        2    1    3    3  502    0 -0.85688936841E+03 -0.98083234606E+03  0.11577723104E+04  0.17426210728E+04  0.25500000920E-02 0. -1.
       -2    1    3    3    0  502  0.85688936841E+03  0.98083234606E+03 -0.10498365010E+04  0.16728562878E+04  0.25500000920E-02 0.  1.
</event>
<event>
 5   0  0.4464951E-07  0.3353155E+04  0.7818609E-02  0.8149500E-01
       -1   -1    0    0    0  501  0.00000000000E+00  0.00000000000E+00  0.16141745637E+04  0.16141745637E+04  0.50400001928E-02 0. -1.
        1   -1    0    0  501    0  0.00000000000E+00  0.00000000000E+00 -0.17413930704E+04  0.17413930704E+04  0.50400001928E-02 0.  1.
    10030    2    1    2    0    0  0.00000000000E+00  0.00000000000E+00 -0.12721850665E+03  0.33555676341E+04  0.33531551706E+04 0.  0.
        3    1    3    3  502    0 -0.14665026551E+04 -0.76421788783E+03 -0.33994805607E+03  0.16882605571E+04  0.10100000352E+00 0. -1.
       -3    1    3    3    0  502  0.14665026551E+04  0.76421788783E+03  0.21272954942E+03  0.16673070770E+04  0.10100000352E+00 0.  1.
</event>
<event>
 5   0  0.1268230E-06  0.3392866E+04  0.7818609E-02  0.8139660E-01
       -2   -1    0    0    0  501  0.00000000000E+00  0.00000000000E+00  0.13867147258E+04  0.13867147258E+04  0.25500000920E-02 0.  1.
        2   -1    0    0  501    0  0.00000000000E+00  0.00000000000E+00 -0.20753253211E+04  0.20753253211E+04  0.25500000920E-02 0. -1.
    10030    2    1    2    0    0  0.00000000000E+00  0.00000000000E+00 -0.68861059533E+03  0.34620400469E+04  0.33928655638E+04 0.  0.
        2    1    3    3  502    0 -0.18478189927E+03 -0.94117731336E+03  0.10834818626E+04  0.14470286908E+04  0.25500000920E-02 0.  1.
       -2    1    3    3    0  502  0.18478189927E+03  0.94117731336E+03 -0.17720924579E+04  0.20150113560E+04  0.25500000920E-02 0. -1.
</event>
<event>
 5   0  0.1277635E-06  0.3231355E+04  0.7818609E-02  0.8180585E-01
       -2   -1    0    0    0  501  0.00000000000E+00  0.00000000000E+00  0.15365782550E+04  0.15365782551E+04  0.25500000920E-02 0. -1.
        2   -1    0    0  501    0  0.00000000000E+00  0.00000000000E+00 -0.16988487028E+04  0.16988487028E+04  0.25500000920E-02 0.  1.
    10030    2    1    2    0    0  0.00000000000E+00  0.00000000000E+00 -0.16227044771E+03  0.32354269578E+04  0.32313551184E+04 0.  0.
        4    1    3    3  502    0  0.21324253695E+03 -0.93577230190E+03 -0.13824922740E+04  0.16829820799E+04  0.12699999809E+01 0.  1.
       -4    1    3    3    0  502 -0.21324253695E+03  0.93577230190E+03  0.12202218263E+04  0.15524448779E+04  0.12699999809E+01 0. -1.
</event>
<event>
 5   0  0.4125758E-07  0.3373853E+04  0.7818609E-02  0.8144354E-01
        1   -1    0    0  501    0  0.00000000000E+00  0.00000000000E+00  0.18492034705E+04  0.18492034705E+04  0.50400001928E-02 0. -1.
       -1   -1    0    0    0  501  0.00000000000E+00  0.00000000000E+00 -0.15388897269E+04  0.15388897269E+04  0.50400001928E-02 0.  1.
    10030    2    1    2    0    0  0.00000000000E+00  0.00000000000E+00  0.31031374362E+03  0.33880931974E+04  0.33738525301E+04 0.  0.
        2    1    3    3  502    0 -0.74999523509E+03 -0.63485617755E+02  0.16712301029E+04  0.18329029797E+04  0.25500000920E-02 0. -1.
       -2    1    3    3    0  502  0.74999523509E+03  0.63485617755E+02 -0.13609163592E+04  0.15551902177E+04  0.25500000920E-02 0.  1.
</event>
<event>
 5   0  0.4109937E-07  0.3408667E+04  0.7818609E-02  0.8135782E-01
       -1   -1    0    0    0  501  0.00000000000E+00  0.00000000000E+00  0.16601496833E+04  0.16601496833E+04  0.50400001928E-02 0. -1.
        1   -1    0    0  501    0  0.00000000000E+00  0.00000000000E+00 -0.17496932774E+04  0.17496932774E+04  0.50400001928E-02 0.  1.
    10030    2    1    2    0    0  0.00000000000E+00  0.00000000000E+00 -0.89543594082E+02  0.34098429607E+04  0.34086670359E+04 0.  0.
        5    1    3    3  502    0  0.95089000821E+03  0.13456843575E+04 -0.48043605075E+03  0.17163621665E+04  0.46999998093E+01 0.  1.
       -5    1    3    3    0  502 -0.95089000821E+03 -0.13456843575E+04  0.39089245667E+03  0.16934807942E+04  0.46999998093E+01 0. -1.
</event>
<event>
 5   0  0.4125758E-07  0.3292688E+04  0.7818609E-02  0.8164759E-01
       -1   -1    0    0    0  501  0.00000000000E+00  0.00000000000E+00  0.15685212581E+04  0.15685212582E+04  0.50400001928E-02 0. -1.
        1   -1    0    0  501    0  0.00000000000E+00  0.00000000000E+00 -0.17280275224E+04  0.17280275224E+04  0.50400001928E-02 0.  1.
    10030    2    1    2    0    0  0.00000000000E+00  0.00000000000E+00 -0.15950626429E+03  0.32965487806E+04  0.32926875975E+04 0.  0.
        2    1    3    3  502    0  0.36593030142E+03 -0.10167716800E+04 -0.13232717446E+04  0.17084430763E+04  0.25500000920E-02 0.  1.
       -2    1    3    3    0  502 -0.36593030142E+03  0.10167716800E+04  0.11637654803E+04  0.15881057043E+04  0.25500000920E-02 0. -1.
</event>
<event>
 5   0  0.1268230E-06  0.3497299E+04  0.7818609E-02  0.8114430E-01
       -2   -1    0    0    0  501  0.00000000000E+00  0.00000000000E+00  0.14261310763E+04  0.14261310763E+04  0.25500000920E-02 0.  1.
        2   -1    0    0  501    0  0.00000000000E+00  0.00000000000E+00 -0.21441057031E+04  0.21441057031E+04  0.25500000920E-02 0. -1.
    10030    2    1    2    0    0  0.00000000000E+00  0.00000000000E+00 -0.71797462683E+03  0.35702367794E+04  0.34972994004E+04 0.  0.
        2    1    3    3  502    0  0.10001652878E+03  0.48192161709E+03 -0.20719339154E+04  0.21295919564E+04  0.25500000920E-02 0. -1.
       -2    1    3    3    0  502 -0.10001652878E+03 -0.48192161709E+03  0.13539592885E+04  0.14406448230E+04  0.25500000920E-02 0.  1.
</event>
<event>
 5   0  0.1256208E-06  0.3443537E+04  0.7818609E-02  0.8127303E-01
        2   -1    0    0  501    0  0.00000000000E+00  0.00000000000E+00  0.26589482967E+04  0.26589482967E+04  0.25500000920E-02 0.  1.
       -2   -1    0    0    0  501  0.00000000000E+00  0.00000000000E+00 -0.11149095904E+04  0.11149095904E+04  0.25500000920E-02 0. -1.
    10030    2    1    2    0    0  0.00000000000E+00  0.00000000000E+00  0.15440387063E+04  0.37738578871E+04  0.34435371096E+04 0.  0.
        3    1    3    3  502    0  0.45320643224E+03  0.12959244155E+04  0.19107642644E+04  0.23528357880E+04  0.10100000352E+00 0.  1.
       -3    1    3    3    0  502 -0.45320643224E+03 -0.12959244155E+04 -0.36672555810E+03  0.14210220991E+04  0.10100000352E+00 0. -1.
</event>
<event>
 5   0  0.1268230E-06  0.3393970E+04  0.7818609E-02  0.8139388E-01
       -2   -1    0    0    0  501  0.00000000000E+00  0.00000000000E+00  0.20044376750E+04  0.20044376750E+04  0.25500000920E-02 0. -1.
        2   -1    0    0  501    0  0.00000000000E+00  0.00000000000E+00 -0.14366913385E+04  0.14366913385E+04  0.25500000920E-02 0.  1.
    10030    2    1    2    0    0  0.00000000000E+00  0.00000000000E+00  0.56774633642E+03  0.34411290135E+04  0.33939700920E+04 0.  0.
        2    1    3    3  502    0  0.37151348400E+03  0.32574686588E+03 -0.13621454757E+04  0.14489905405E+04  0.25500000920E-02 0.  1.
       -2    1    3    3    0  502 -0.37151348400E+03 -0.32574686588E+03  0.19298918121E+04  0.19921384731E+04  0.25500000920E-02 0. -1.
</event>
<event>
 5   0  0.4464951E-07  0.3434472E+04  0.7818609E-02  0.8129497E-01
        1   -1    0    0  501    0  0.00000000000E+00  0.00000000000E+00  0.24543512723E+04  0.24543512723E+04  0.50400001928E-02 0.  1.
       -1   -1    0    0    0  501  0.00000000000E+00  0.00000000000E+00 -0.12014983080E+04  0.12014983080E+04  0.50400001928E-02 0. -1.
    10030    2    1    2    0    0  0.00000000000E+00  0.00000000000E+00  0.12528529643E+04  0.36558495803E+04  0.34344716630E+04 0.  0.
        3    1    3    3  502    0  0.55072316628E+03  0.15544409596E+03 -0.10970221489E+04  0.12373020966E+04  0.10100000352E+00 0. -1.
       -3    1    3    3    0  502 -0.55072316628E+03 -0.15544409596E+03  0.23498751133E+04  0.24185474837E+04  0.10100000352E+00 0.  1.
</event>
<event>
 5   0  0.4109937E-07  0.3385986E+04  0.7818609E-02  0.8141354E-01
        1   -1    0    0  501    0  0.00000000000E+00  0.00000000000E+00  0.12129290587E+04  0.12129290587E+04  0.50400001928E-02 0.  1.
       -1   -1    0    0    0  501  0.00000000000E+00  0.00000000000E+00 -0.23630614281E+04  0.23630614281E+04  0.50400001928E-02 0. -1.
    10030    2    1    2    0    0  0.00000000000E+00  0.00000000000E+00 -0.11501323694E+04  0.35759904868E+04  0.33859863399E+04 0.  0.
        5    1    3    3  502    0 -0.54233986482E+03 -0.12557967664E+04 -0.16285616598E+04  0.21268270304E+04  0.46999998093E+01 0. -1.
       -5    1    3    3    0  502  0.54233986482E+03  0.12557967664E+04  0.47842929037E+03  0.14491634564E+04  0.46999998093E+01 0.  1.
</event>
<event>
 5   0  0.1269497E-06  0.3390006E+04  0.7818609E-02  0.8140363E-01
       -2   -1    0    0    0  501  0.00000000000E+00  0.00000000000E+00  0.15324179704E+04  0.15324179704E+04  0.25500000920E-02 0. -1.
        2   -1    0    0  501    0  0.00000000000E+00  0.00000000000E+00 -0.18748382043E+04  0.18748382043E+04  0.25500000920E-02 0.  1.
    10030    2    1    2    0    0  0.00000000000E+00  0.00000000000E+00 -0.34242023388E+03  0.34072561746E+04  0.33900063456E+04 0.  0.
        5    1    3    3  502    0 -0.73644551787E+03  0.15190021397E+04 -0.17809238449E+02  0.16882117048E+04  0.46999998093E+01 0.  1.
       -5    1    3    3    0  502  0.73644551787E+03 -0.15190021397E+04 -0.32461099543E+03  0.17190444699E+04  0.46999998093E+01 0. -1.
</event>
<event>
 5   0  0.4109937E-07  0.3342376E+04  0.7818609E-02  0.8152196E-01
       -1   -1    0    0    0  501  0.00000000000E+00  0.00000000000E+00  0.18312606673E+04  0.18312606673E+04  0.50400001928E-02 0.  1.
        1   -1    0    0  501    0  0.00000000000E+00  0.00000000000E+00 -0.15251074292E+04  0.15251074292E+04  0.50400001928E-02 0. -1.
    10030    2    1    2    0    0  0.00000000000E+00  0.00000000000E+00  0.30615323809E+03  0.33563680965E+04  0.33423759504E+04 0.  0.
        5    1    3    3  502    0  0.51301882180E+03  0.17723075025E+03 -0.14341248990E+04  0.15334064582E+04  0.46999998093E+01 0. -1.
       -5    1    3    3    0  502 -0.51301882180E+03 -0.17723075025E+03  0.17402781370E+04  0.18229616383E+04  0.46999998093E+01 0.  1.
</event>
<event>
 5   0  0.4125758E-07  0.3387064E+04  0.7818609E-02  0.8141089E-01
        1   -1    0    0  501    0  0.00000000000E+00  0.00000000000E+00  0.18178130583E+04  0.18178130584E+04  0.50400001928E-02 0.  1.
       -1   -1    0    0    0  501  0.00000000000E+00  0.00000000000E+00 -0.15777475666E+04  0.15777475666E+04  0.50400001928E-02 0. -1.
    10030    2    1    2    0    0  0.00000000000E+00  0.00000000000E+00  0.24006549173E+03  0.33955606250E+04  0.33870637014E+04 0.  0.
        2    1    3    3  502    0 -0.18198497567E+03 -0.16702850627E+04 -0.92819003335E+02  0.16827317342E+04  0.25500000920E-02 0. -1.
       -2    1    3    3    0  502  0.18198497567E+03  0.16702850627E+04  0.33288449506E+03  0.17128288908E+04  0.25500000920E-02 0.  1.
</event>
<event>
 5   0  0.1269497E-06  0.3407390E+04  0.7818609E-02  0.8136095E-01
        2   -1    0    0  501    0  0.00000000000E+00  0.00000000000E+00  0.22973198303E+04  0.22973198303E+04  0.25500000920E-02 0. -1.
       -2   -1    0    0    0  501  0.00000000000E+00  0.00000000000E+00 -0.12634620685E+04  0.12634620685E+04  0.25500000920E-02 0.  1.
    10030    2    1    2    0    0  0.00000000000E+00  0.00000000000E+00  0.10338577618E+04  0.35607818987E+04  0.34073898894E+04 0.  0.
        5    1    3    3  502    0  0.61562888961E+03 -0.94634711707E+03 -0.81643418102E+03  0.13932546995E+04  0.46999998093E+01 0.  1.
       -5    1    3    3    0  502 -0.61562888961E+03  0.94634711707E+03  0.18502919429E+04  0.21675271993E+04  0.46999998093E+01 0. -1.
</event>
<event>
 5   0  0.4272633E-07  0.3394840E+04  0.7818609E-02  0.8139174E-01
       -1   -1    0    0    0  501  0.00000000000E+00  0.00000000000E+00  0.96377752600E+03  0.96377752601E+03  0.50400001928E-02 0.  1.
        1   -1    0    0  501    0  0.00000000000E+00  0.00000000000E+00 -0.29895231037E+04  0.29895231037E+04  0.50400001928E-02 0. -1.
    10030    2    1    2    0    0  0.00000000000E+00  0.00000000000E+00 -0.20257455777E+04  0.39533006297E+04  0.33948403089E+04 0.  0.
        1    1    3    3  502    0  0.96567480611E+03  0.14787586625E+03  0.60358112437E+03  0.11483489351E+04  0.50400001928E-02 0.  1.
       -1    1    3    3    0  502 -0.96567480611E+03 -0.14787586625E+03 -0.26293267020E+04  0.28049516946E+04  0.50400001928E-02 0. -1.
</event>
<event>
 5   0  0.1256208E-06  0.3398449E+04  0.7818609E-02  0.8138287E-01
       -2   -1    0    0    0  501  0.00000000000E+00  0.00000000000E+00  0.13605673269E+04  0.13605673269E+04  0.25500000920E-02 0.  1.
        2   -1    0    0  501    0  0.00000000000E+00  0.00000000000E+00 -0.21221761580E+04  0.21221761580E+04  0.25500000920E-02 0. -1.
    10030    2    1    2    0    0  0.00000000000E+00  0.00000000000E+00 -0.76160883112E+03  0.34827434850E+04  0.33984487888E+04 0.  0.
        3    1    3    3  502    0  0.81793153555E+03 -0.67385741488E+03 -0.17420077447E+04  0.20390406581E+04  0.10100000352E+00 0. -1.
       -3    1    3    3    0  502 -0.81793153555E+03  0.67385741488E+03  0.98039891358E+03  0.14437028269E+04  0.10100000352E+00 0.  1.
</event>
<event>
 5   0  0.1300176E-06  0.3436516E+04  0.7818609E-02  0.8129002E-01
        2   -1    0    0  501    0  0.00000000000E+00  0.00000000000E+00  0.22492090030E+04  0.22492090030E+04  0.25500000920E-02 0. -1.
       -2   -1    0    0    0  501  0.00000000000E+00  0.00000000000E+00 -0.13126442952E+04  0.13126442952E+04  0.25500000920E-02 0.  1.
    10030    2    1    2    0    0  0.00000000000E+00  0.00000000000E+00  0.93656470775E+03  0.35618532982E+04  0.34365164726E+04 0.  0.
        1    1    3    3  502    0  0.47906638352E+03 -0.15086166249E+04 -0.22466928972E+03  0.15987198036E+04  0.50400001928E-02 0.  1.
       -1    1    3    3    0  502 -0.47906638352E+03  0.15086166249E+04  0.11612339975E+04  0.19631334946E+04  0.50400001928E-02 0. -1.
</event>
<event>
 5   0  0.1256208E-06  0.3485957E+04  0.7818609E-02  0.8117126E-01
        2   -1    0    0  501    0  0.00000000000E+00  0.00000000000E+00  0.16862028252E+04  0.16862028252E+04  0.25500000920E-02 0.  1.
       -2   -1    0    0    0  501  0.00000000000E+00  0.00000000000E+00 -0.18016656685E+04  0.18016656685E+04  0.25500000920E-02 0. -1.
    10030    2    1    2    0    0  0.00000000000E+00  0.00000000000E+00 -0.11546284332E+03  0.34878684938E+04  0.34859568215E+04 0.  0.
        3    1    3    3  502    0  0.14846571722E+04 -0.22808795644E+03  0.82691558921E+03  0.17146487794E+04  0.10100000352E+00 0.  1.
       -3    1    3    3    0  502 -0.14846571722E+04  0.22808795644E+03 -0.94237843253E+03  0.17732197143E+04  0.10100000352E+00 0. -1.
</event>
<event>
 5   0  0.4125758E-07  0.3296978E+04  0.7818609E-02  0.8163665E-01
        1   -1    0    0  501    0  0.00000000000E+00  0.00000000000E+00  0.16971473517E+04  0.16971473518E+04  0.50400001928E-02 0.  1.
       -1   -1    0    0    0  501  0.00000000000E+00  0.00000000000E+00 -0.16012261693E+04  0.16012261693E+04  0.50400001928E-02 0. -1.
    10030    2    1    2    0    0  0.00000000000E+00  0.00000000000E+00  0.95921182433E+02  0.32983735211E+04  0.32969784669E+04 0.  0.
        2    1    3    3  502    0 -0.46521420840E+03 -0.23319072495E+03  0.16128201949E+04  0.16946950035E+04  0.25500000920E-02 0.  1.
       -2    1    3    3    0  502  0.46521420840E+03  0.23319072495E+03 -0.15168990124E+04  0.16036785176E+04  0.25500000920E-02 0. -1.
</event>
<event>
 5   0  0.1277635E-06  0.3381599E+04  0.7818609E-02  0.8142437E-01
       -2   -1    0    0    0  501  0.00000000000E+00  0.00000000000E+00  0.18672850191E+04  0.18672850191E+04  0.25500000920E-02 0.  1.
        2   -1    0    0  501    0  0.00000000000E+00  0.00000000000E+00 -0.15309945792E+04  0.15309945792E+04  0.25500000920E-02 0. -1.
    10030    2    1    2    0    0  0.00000000000E+00  0.00000000000E+00  0.33629043990E+03  0.33982795983E+04  0.33815991732E+04 0.  0.
        4    1    3    3  502    0  0.26594359342E+03 -0.34840870100E+03  0.18091997124E+04  0.18615369537E+04  0.12699999809E+01 0.  1.
       -4    1    3    3    0  502 -0.26594359342E+03  0.34840870100E+03 -0.14729092725E+04  0.15367426446E+04  0.12699999809E+01 0. -1.
</event>
<event>
 5   0  0.4109937E-07  0.3173045E+04  0.7818609E-02  0.8195972E-01
        1   -1    0    0  501    0  0.00000000000E+00  0.00000000000E+00  0.19008684496E+04  0.19008684496E+04  0.50400001928E-02 0. -1.
       -1   -1    0    0    0  501  0.00000000000E+00  0.00000000000E+00 -0.13241599561E+04  0.13241599561E+04  0.50400001928E-02 0.  1.
    10030    2    1    2    0    0  0.00000000000E+00  0.00000000000E+00  0.57670849358E+03  0.32250284057E+04  0.31730451511E+04 0.  0.
        5    1    3    3  502    0 -0.13476904716E+04  0.78567846742E+03  0.58200186495E+03  0.16650250816E+04  0.46999998093E+01 0.  1.
       -5    1    3    3    0  502  0.13476904716E+04 -0.78567846742E+03 -0.52933713756E+01  0.15600033241E+04  0.46999998093E+01 0. -1.
</event>
<event>
 5   0  0.4125758E-07  0.3165350E+04  0.7818609E-02  0.8198029E-01
       -1   -1    0    0    0  501  0.00000000000E+00  0.00000000000E+00  0.17799346472E+04  0.17799346472E+04  0.50400001928E-02 0.  1.
        1   -1    0    0  501    0  0.00000000000E+00  0.00000000000E+00 -0.14072763110E+04  0.14072763111E+04  0.50400001928E-02 0. -1.
    10030    2    1    2    0    0  0.00000000000E+00  0.00000000000E+00  0.37265833618E+03  0.31872109583E+04  0.31653498159E+04 0.  0.
        2    1    3    3  502    0  0.18159210646E+03  0.13031274086E+04 -0.69937257570E+03  0.14900465549E+04  0.25500000920E-02 0. -1.
       -2    1    3    3    0  502 -0.18159210646E+03 -0.13031274086E+04  0.10720309119E+04  0.16971644034E+04  0.25500000920E-02 0.  1.
</event>
<event>
 5   0  0.4125758E-07  0.3397637E+04  0.7818609E-02  0.8138486E-01
        1   -1    0    0  501    0  0.00000000000E+00  0.00000000000E+00  0.13703419832E+04  0.13703419832E+04  0.50400001928E-02 0.  1.
       -1   -1    0    0    0  501  0.00000000000E+00  0.00000000000E+00 -0.21060322827E+04  0.21060322827E+04  0.50400001928E-02 0. -1.
    10030    2    1    2    0    0  0.00000000000E+00  0.00000000000E+00 -0.73569029946E+03  0.34763742659E+04  0.33976370936E+04 0.  0.
        2    1    3    3  502    0  0.70873685127E+03 -0.67025004663E+03 -0.17909186341E+04  0.20393461216E+04  0.25500000920E-02 0. -1.
       -2    1    3    3    0  502 -0.70873685127E+03  0.67025004663E+03  0.10552283347E+04  0.14370281444E+04  0.25500000920E-02 0.  1.
</event>
<event>
 5   0  0.4464951E-07  0.3370778E+04  0.7818609E-02  0.8145116E-01
        1   -1    0    0  501    0  0.00000000000E+00  0.00000000000E+00  0.23735010057E+04  0.23735010058E+04  0.50400001928E-02 0.  1.
       -1   -1    0    0    0  501  0.00000000000E+00  0.00000000000E+00 -0.11967702428E+04  0.11967702428E+04  0.50400001928E-02 0. -1.
    10030    2    1    2    0    0  0.00000000000E+00  0.00000000000E+00  0.11767307630E+04  0.35702712485E+04  0.33707775808E+04 0.  0.
        3    1    3    3  502    0 -0.71404095615E+03 -0.69947676947E+01  0.22053577259E+04  0.23180824237E+04  0.10100000352E+00 0.  1.
       -3    1    3    3    0  502  0.71404095615E+03  0.69947676947E+01 -0.10286269629E+04  0.12521888248E+04  0.10100000352E+00 0. -1.
</event>
<event>
 5   0  0.4109937E-07  0.3466118E+04  0.7818609E-02  0.8121867E-01
        1   -1    0    0  501    0  0.00000000000E+00  0.00000000000E+00  0.26484686945E+04  0.26484686945E+04  0.50400001928E-02 0. -1.
       -1   -1    0    0    0  501  0.00000000000E+00  0.00000000000E+00 -0.11340490603E+04  0.11340490603E+04  0.50400001928E-02 0.  1.
    10030    2    1    2    0    0  0.00000000000E+00  0.00000000000E+00  0.15144196342E+04  0.37825177548E+04  0.34661179635E+04 0.  0.
        5    1    3    3  502    0 -0.16810986722E+04 -0.14254265264E+03  0.32472516841E+03  0.17181035121E+04  0.46999998093E+01 0. -1.
       -5    1    3    3    0  502  0.16810986722E+04  0.14254265264E+03  0.11896944658E+04  0.20644142427E+04  0.46999998093E+01 0.  1.
</event>
<event>
 5   0  0.1269497E-06  0.3416835E+04  0.7818609E-02  0.8133787E-01
        2   -1    0    0  501    0  0.00000000000E+00  0.00000000000E+00  0.11230246407E+04  0.11230246407E+04  0.25500000920E-02 0.  1.
       -2   -1    0    0    0  501  0.00000000000E+00  0.00000000000E+00 -0.25989555565E+04  0.25989555565E+04  0.25500000920E-02 0. -1.
    10030    2    1    2    0    0  0.00000000000E+00  0.00000000000E+00 -0.14759309158E+04  0.37219801972E+04  0.34168354540E+04 0.  0.
        5    1    3    3  502    0  0.13595488806E+03  0.13179487226E+04  0.43686860986E+03  0.13951160666E+04  0.46999998093E+01 0.  1.
       -5    1    3    3    0  502 -0.13595488806E+03 -0.13179487226E+04 -0.19127995257E+04  0.23268641306E+04  0.46999998093E+01 0. -1.
</event>
<event>
 5   0  0.4464951E-07  0.3550856E+04  0.7818609E-02  0.8101842E-01
       -1   -1    0    0    0  501  0.00000000000E+00  0.00000000000E+00  0.13558036305E+04  0.13558036305E+04  0.50400001928E-02 0.  1.
        1   -1    0    0  501    0  0.00000000000E+00  0.00000000000E+00 -0.23249274119E+04  0.23249274119E+04  0.50400001928E-02 0. -1.
    10030    2    1    2    0    0  0.00000000000E+00  0.00000000000E+00 -0.96912378135E+03  0.36807310424E+04  0.35508562493E+04 0.  0.
        3    1    3    3  502    0  0.10793491716E+04 -0.67922157717E+03  0.79585383117E+03  0.15032364803E+04  0.10100000352E+00 0.  1.
       -3    1    3    3    0  502 -0.10793491716E+04  0.67922157717E+03 -0.17649776125E+04  0.21774945621E+04  0.10100000352E+00 0. -1.
</event>
<event>
 5   0  0.4109937E-07  0.3396927E+04  0.7818609E-02  0.8138661E-01
       -1   -1    0    0    0  501  0.00000000000E+00  0.00000000000E+00  0.13274388168E+04  0.13274388168E+04  0.50400001928E-02 0. -1.
        1   -1    0    0  501    0  0.00000000000E+00  0.00000000000E+00 -0.21731909956E+04  0.21731909957E+04  0.50400001928E-02 0.  1.
    10030    2    1    2    0    0  0.00000000000E+00  0.00000000000E+00 -0.84575217885E+03  0.35006298125E+04  0.33969268959E+04 0.  0.
        5    1    3    3  502    0 -0.98822156933E+03  0.13573774947E+04 -0.15872999477E+03  0.16864972085E+04  0.46999998093E+01 0.  1.
       -5    1    3    3    0  502  0.98822156933E+03 -0.13573774947E+04 -0.68702218408E+03  0.18141326039E+04  0.46999998093E+01 0. -1.
</event>
<event>
 5   0  0.4289684E-07  0.3374571E+04  0.7818609E-02  0.8144176E-01
       -1   -1    0    0    0  501  0.00000000000E+00  0.00000000000E+00  0.15820849165E+04  0.15820849165E+04  0.50400001928E-02 0. -1.
        1   -1    0    0  501    0  0.00000000000E+00  0.00000000000E+00 -0.17994816389E+04  0.17994816389E+04  0.50400001928E-02 0.  1.
    10030    2    1    2    0    0  0.00000000000E+00  0.00000000000E+00 -0.21739672239E+03  0.33815665554E+04  0.33745712370E+04 0.  0.
        4    1    3    3  502    0  0.66986018855E+03 -0.89788331799E+03 -0.13730682576E+04  0.17720680512E+04  0.12699999809E+01 0.  1.
       -4    1    3    3    0  502 -0.66986018855E+03  0.89788331799E+03  0.11556715352E+04  0.16094985043E+04  0.12699999809E+01 0. -1.
</event>
<event>
 5   0  0.4125758E-07  0.3359255E+04  0.7818609E-02  0.8147979E-01
       -1   -1    0    0    0  501  0.00000000000E+00  0.00000000000E+00  0.16716891879E+04  0.16716891879E+04  0.50400001928E-02 0. -1.
        1   -1    0    0  501    0  0.00000000000E+00  0.00000000000E+00 -0.16876035591E+04  0.16876035591E+04  0.50400001928E-02 0.  1.
    10030    2    1    2    0    0  0.00000000000E+00  0.00000000000E+00 -0.15914371154E+02  0.33592927470E+04  0.33592550502E+04 0.  0.
        2    1    3    3  502    0 -0.43684426803E+03 -0.85866642763E+02 -0.16275254912E+04  0.16873189442E+04  0.25500000920E-02 0.  1.
       -2    1    3    3    0  502  0.43684426803E+03  0.85866642763E+02  0.16116111201E+04  0.16719738028E+04  0.25500000920E-02 0. -1.
</event>
<event>
 5   0  0.1268230E-06  0.3413784E+04  0.7818609E-02  0.8134532E-01
       -2   -1    0    0    0  501  0.00000000000E+00  0.00000000000E+00  0.28584828792E+04  0.28584828792E+04  0.25500000920E-02 0.  1.
        2   -1    0    0  501    0  0.00000000000E+00  0.00000000000E+00 -0.10192399700E+04  0.10192399700E+04  0.25500000920E-02 0. -1.
    10030    2    1    2    0    0  0.00000000000E+00  0.00000000000E+00  0.18392429091E+04  0.38777228492E+04  0.34137838268E+04 0.  0.
        2    1    3    3  502    0 -0.13910265023E+04 -0.15347556936E+03  0.20296540520E+04  0.24653610387E+04  0.25500000920E-02 0.  1.
       -2    1    3    3    0  502  0.13910265023E+04  0.15347556936E+03 -0.19041114287E+03  0.14123618105E+04  0.25500000920E-02 0. -1.
</event>
<event>
 5   0  0.1256208E-06  0.3427528E+04  0.7818609E-02  0.8131183E-01
       -2   -1    0    0    0  501  0.00000000000E+00  0.00000000000E+00  0.18358907137E+04  0.18358907137E+04  0.25500000920E-02 0. -1.
        2   -1    0    0  501    0  0.00000000000E+00  0.00000000000E+00 -0.15997615904E+04  0.15997615904E+04  0.25500000920E-02 0.  1.
    10030    2    1    2    0    0  0.00000000000E+00  0.00000000000E+00  0.23612912331E+03  0.34356523041E+04  0.34275282336E+04 0.  0.
        3    1    3    3  502    0  0.96620500244E+01 -0.12442124958E+04  0.12993438991E+04  0.17990143602E+04  0.10100000352E+00 0. -1.
       -3    1    3    3    0  502 -0.96620500244E+01  0.12442124958E+04 -0.10632147758E+04  0.16366379439E+04  0.10100000352E+00 0.  1.
</event>
<event>
 5   0  0.1277635E-06  0.3403015E+04  0.7818609E-02  0.8137167E-01
       -2   -1    0    0    0  501  0.00000000000E+00  0.00000000000E+00  0.10533878087E+04  0.10533878087E+04  0.25500000920E-02 0.  1.
        2   -1    0    0  501    0  0.00000000000E+00  0.00000000000E+00 -0.27483972911E+04  0.27483972911E+04  0.25500000920E-02 0. -1.
    10030    2    1    2    0    0  0.00000000000E+00  0.00000000000E+00 -0.16950094824E+04  0.38017850998E+04  0.34030152512E+04 0.  0.
        4    1    3    3  502    0  0.13186659352E+04  0.80986494822E+03 -0.16377599178E+04  0.22532244105E+04  0.12699999809E+01 0. -1.
       -4    1    3    3    0  502 -0.13186659352E+04 -0.80986494822E+03 -0.57249564616E+02  0.15485606893E+04  0.12699999809E+01 0.  1.
</event>
<event>
 5   0  0.4109937E-07  0.3437051E+04  0.7818609E-02  0.8128872E-01
        1   -1    0    0  501    0  0.00000000000E+00  0.00000000000E+00  0.17039670350E+04  0.17039670350E+04  0.50400001928E-02 0. -1.
       -1   -1    0    0    0  501  0.00000000000E+00  0.00000000000E+00 -0.17332079429E+04  0.17332079429E+04  0.50400001928E-02 0.  1.
    10030    2    1    2    0    0  0.00000000000E+00  0.00000000000E+00 -0.29240907945E+02  0.34371749779E+04  0.34370505958E+04 0.  0.
        5    1    3    3  502    0 -0.52285463075E+03  0.87964623381E+03 -0.13953052886E+04  0.17303333205E+04  0.46999998093E+01 0.  1.
       -5    1    3    3    0  502  0.52285463075E+03 -0.87964623381E+03  0.13660643806E+04  0.17068416574E+04  0.46999998093E+01 0. -1.
</event>
<event>
 5   0  0.1300176E-06  0.3395960E+04  0.7818609E-02  0.8138899E-01
       -2   -1    0    0    0  501  0.00000000000E+00  0.00000000000E+00  0.16676957230E+04  0.16676957230E+04  0.25500000920E-02 0. -1.
        2   -1    0    0  501    0  0.00000000000E+00  0.00000000000E+00 -0.17288139949E+04  0.17288139949E+04  0.25500000920E-02 0.  1.
    10030    2    1    2    0    0  0.00000000000E+00  0.00000000000E+00 -0.61118271852E+02  0.33965097179E+04  0.33959597790E+04 0.  0.
        1    1    3    3  502    0 -0.11899710095E+04  0.28664266279E+03 -0.12075847406E+04  0.17194347692E+04  0.50400001928E-02 0.  1.
       -1    1    3    3    0  502  0.11899710095E+04 -0.28664266279E+03  0.11464664687E+04  0.16770749487E+04  0.50400001928E-02 0. -1.
</event>
<event>
 5   0  0.1269497E-06  0.3437174E+04  0.7818609E-02  0.8128842E-01
        2   -1    0    0  501    0  0.00000000000E+00  0.00000000000E+00  0.19539917674E+04  0.19539917674E+04  0.25500000920E-02 0. -1.
       -2   -1    0    0    0  501  0.00000000000E+00  0.00000000000E+00 -0.15115425560E+04  0.15115425560E+04  0.25500000920E-02 0.  1.
    10030    2    1    2    0    0  0.00000000000E+00  0.00000000000E+00  0.44244921139E+03  0.34655343234E+04  0.34371742525E+04 0.  0.
        5    1    3    3  502    0 -0.83651255110E+03 -0.22099437845E+03 -0.12759272290E+04  0.15416238670E+04  0.46999998093E+01 0.  1.
       -5    1    3    3    0  502  0.83651255110E+03  0.22099437845E+03  0.17183764404E+04  0.19239104565E+04  0.46999998093E+01 0. -1.
</event>
<event>
 5   0  0.4289684E-07  0.3405542E+04  0.7818609E-02  0.8136547E-01
       -1   -1    0    0    0  501  0.00000000000E+00  0.00000000000E+00  0.12118533912E+04  0.12118533912E+04  0.50400001928E-02 0. -1.
        1   -1    0    0  501    0  0.00000000000E+00  0.00000000000E+00 -0.23925579436E+04  0.23925579436E+04  0.50400001928E-02 0.  1.
    10030    2    1    2    0    0  0.00000000000E+00  0.00000000000E+00 -0.11807045524E+04  0.36044113348E+04  0.34055422226E+04 0.  0.
        4    1    3    3  502    0 -0.12413750290E+04  0.12104533915E+03 -0.18172533985E+04  0.22041042316E+04  0.12699999809E+01 0.  1.
       -4    1    3    3    0  502  0.12413750290E+04 -0.12104533915E+03  0.63654884612E+03  0.14003071031E+04  0.12699999809E+01 0. -1.
</event>
<event>
 5   0  0.4125758E-07  0.3414353E+04  0.7818609E-02  0.8134393E-01
        1   -1    0    0  501    0  0.00000000000E+00  0.00000000000E+00  0.24798506771E+04  0.24798506771E+04  0.50400001928E-02 0.  1.
       -1   -1    0    0    0  501  0.00000000000E+00  0.00000000000E+00 -0.11752527619E+04  0.11752527619E+04  0.50400001928E-02 0. -1.
    10030    2    1    2    0    0  0.00000000000E+00  0.00000000000E+00  0.13045979153E+04  0.36551034390E+04  0.34143528566E+04 0.  0.
        2    1    3    3  502    0 -0.77400335012E+03 -0.15215989820E+04  0.64124055429E+03  0.18236046985E+04  0.25500000920E-02 0.  1.
       -2    1    3    3    0  502  0.77400335012E+03  0.15215989820E+04  0.66335736097E+03  0.18314987405E+04  0.25500000920E-02 0. -1.
</event>
<event>
 5   0  0.4125758E-07  0.3413369E+04  0.7818609E-02  0.8134633E-01
       -1   -1    0    0    0  501  0.00000000000E+00  0.00000000000E+00  0.12215865147E+04  0.12215865147E+04  0.50400001928E-02 0. -1.
        1   -1    0    0  501    0  0.00000000000E+00  0.00000000000E+00 -0.23844176086E+04  0.23844176086E+04  0.50400001928E-02 0.  1.
    10030    2    1    2    0    0  0.00000000000E+00  0.00000000000E+00 -0.11628310940E+04  0.36060041234E+04  0.34133692423E+04 0.  0.
        2    1    3    3  502    0  0.60745599062E+03 -0.88343227438E+03 -0.19842555753E+04  0.22553770310E+04  0.25500000920E-02 0.  1.
       -2    1    3    3    0  502 -0.60745599062E+03  0.88343227438E+03  0.82142448135E+03  0.13506270923E+04  0.25500000920E-02 0. -1.
</event>
<event>
 5   0  0.4109937E-07  0.3376998E+04  0.7818609E-02  0.8143575E-01
        1   -1    0    0  501    0  0.00000000000E+00  0.00000000000E+00  0.20531692487E+04  0.20531692487E+04  0.50400001928E-02 0. -1.
       -1   -1    0    0    0  501  0.00000000000E+00  0.00000000000E+00 -0.13885989086E+04  0.13885989087E+04  0.50400001928E-02 0.  1.
    10030    2    1    2    0    0  0.00000000000E+00  0.00000000000E+00  0.66457034000E+03  0.34417681573E+04  0.33769978253E+04 0.  0.
        5    1    3    3  502    0  0.14346581921E+04  0.84642003942E+03  0.50697235703E+02  0.16665123195E+04  0.46999998093E+01 0. -1.
       -5    1    3    3    0  502 -0.14346581921E+04 -0.84642003942E+03  0.61387310430E+03  0.17752558378E+04  0.46999998093E+01 0.  1.
</event>
<event>
 5   0  0.4125758E-07  0.3376463E+04  0.7818609E-02  0.8143707E-01
       -1   -1    0    0    0  501  0.00000000000E+00  0.00000000000E+00  0.11566357189E+04  0.11566357189E+04  0.50400001928E-02 0. -1.
        1   -1    0    0  501    0  0.00000000000E+00  0.00000000000E+00 -0.24641510506E+04  0.24641510506E+04  0.50400001928E-02 0.  1.
    10030    2    1    2    0    0  0.00000000000E+00  0.00000000000E+00 -0.13075153317E+04  0.36207867695E+04  0.33764627183E+04 0.  0.
        2    1    3    3  502    0  0.11113200791E+04  0.53323458347E+03  0.58329967076E+03  0.13636751612E+04  0.25500000920E-02 0.  1.
       -2    1    3    3    0  502 -0.11113200791E+04 -0.53323458347E+03 -0.18908150025E+04  0.22571116084E+04  0.25500000920E-02 0. -1.
</event>
<event>
 5   0  0.1268230E-06  0.3366780E+04  0.7818609E-02  0.8146108E-01
       -2   -1    0    0    0  501  0.00000000000E+00  0.00000000000E+00  0.23448127252E+04  0.23448127252E+04  0.25500000920E-02 0.  1.
        2   -1    0    0  501    0  0.00000000000E+00  0.00000000000E+00 -0.12085409018E+04  0.12085409018E+04  0.25500000920E-02 0. -1.
    10030    2    1    2    0    0  0.00000000000E+00  0.00000000000E+00  0.11362718234E+04  0.35533536270E+04  0.33667801149E+04 0.  0.
        2    1    3    3  502    0 -0.16466000547E+04 -0.32349548573E+03  0.70918710285E+03  0.18217813854E+04  0.25500000920E-02 0. -1.
       -2    1    3    3    0  502  0.16466000547E+04  0.32349548573E+03  0.42708472059E+03  0.17315722416E+04  0.25500000920E-02 0.  1.
</event>
<event>
 5   0  0.1268230E-06  0.3407852E+04  0.7818609E-02  0.8135982E-01
        2   -1    0    0  501    0  0.00000000000E+00  0.00000000000E+00  0.19317097184E+04  0.19317097184E+04  0.25500000920E-02 0.  1.
       -2   -1    0    0    0  501  0.00000000000E+00  0.00000000000E+00 -0.15030022932E+04  0.15030022932E+04  0.25500000920E-02 0. -1.
    10030    2    1    2    0    0  0.00000000000E+00  0.00000000000E+00  0.42870742526E+03  0.34347120116E+04  0.34078521896E+04 0.  0.
        2    1    3    3  502    0 -0.15734493756E+04 -0.52184441091E+03 -0.18283304569E+03  0.16677806959E+04  0.25500000920E-02 0. -1.
       -2    1    3    3    0  502  0.15734493756E+04  0.52184441091E+03  0.61154047095E+03  0.17669313157E+04  0.25500000920E-02 0.  1.
</event>
<event>
 5   0  0.1256208E-06  0.3406968E+04  0.7818609E-02  0.8136198E-01
       -2   -1    0    0    0  501  0.00000000000E+00  0.00000000000E+00  0.15427603240E+04  0.15427603240E+04  0.25500000920E-02 0.  1.
        2   -1    0    0  501    0  0.00000000000E+00  0.00000000000E+00 -0.18809515971E+04  0.18809515971E+04  0.25500000920E-02 0. -1.
    10030    2    1    2    0    0  0.00000000000E+00  0.00000000000E+00 -0.33819127306E+03  0.34237119211E+04  0.34069678575E+04 0.  0.
        3    1    3    3  502    0 -0.16500339890E+04  0.34260573214E+03  0.80856824786E+02  0.16871658748E+04  0.10100000352E+00 0. -1.
       -3    1    3    3    0  502  0.16500339890E+04 -0.34260573214E+03 -0.41904809785E+03  0.17365460464E+04  0.10100000352E+00 0.  1.
</event>
<event>
 5   0  0.4272633E-07  0.3309036E+04  0.7818609E-02  0.8160600E-01
        1   -1    0    0  501    0  0.00000000000E+00  0.00000000000E+00  0.17860361472E+04  0.17860361472E+04  0.50400001928E-02 0.  1.
       -1   -1    0    0    0  501  0.00000000000E+00  0.00000000000E+00 -0.15326845681E+04  0.15326845682E+04  0.50400001928E-02 0. -1.
    10030    2    1    2    0    0  0.00000000000E+00  0.00000000000E+00  0.25335157909E+03  0.33187207154E+04  0.33090361382E+04 0.  0.
        1    1    3    3  502    0  0.12304639939E+04 -0.74461155101E+03 -0.69360669999E+03  0.15967398838E+04  0.50400001928E-02 0.  1.
       -1    1    3    3    0  502 -0.12304639939E+04  0.74461155101E+03  0.94695827908E+03  0.17219808316E+04  0.50400001928E-02 0. -1.
</event>
<event>
 5   0  0.4125758E-07  0.3400868E+04  0.7818609E-02  0.8137693E-01
        1   -1    0    0  501    0  0.00000000000E+00  0.00000000000E+00  0.17422657616E+04  0.17422657616E+04  0.50400001928E-02 0. -1.
       -1   -1    0    0    0  501  0.00000000000E+00  0.00000000000E+00 -0.16596062409E+04  0.16596062409E+04  0.50400001928E-02 0.  1.
    10030    2    1    2    0    0  0.00000000000E+00  0.00000000000E+00  0.82659520715E+02  0.34018720025E+04  0.34008676135E+04 0.  0.
        2    1    3    3  502    0  0.48737278217E+03  0.15779411386E+04  0.44647365512E+03  0.17107802870E+04  0.25500000920E-02 0.  1.
       -2    1    3    3    0  502 -0.48737278217E+03 -0.15779411386E+04 -0.36381413440E+03  0.16910917155E+04  0.25500000920E-02 0. -1.
</event>
<event>
 5   0  0.4125758E-07  0.3403657E+04  0.7818609E-02  0.8137009E-01
        1   -1    0    0  501    0  0.00000000000E+00  0.00000000000E+00  0.28140229796E+04  0.28140229797E+04  0.50400001928E-02 0.  1.
       -1   -1    0    0    0  501  0.00000000000E+00  0.00000000000E+00 -0.10292099653E+04  0.10292099653E+04  0.50400001928E-02 0. -1.
    10030    2    1    2    0    0  0.00000000000E+00  0.00000000000E+00  0.17848130144E+04  0.38432329449E+04  0.34036571468E+04 0.  0.
        2    1    3    3  502    0 -0.89977252074E+03 -0.82416470646E+03 -0.44713743880E+03  0.12995268145E+04  0.25500000920E-02 0. -1.
       -2    1    3    3    0  502  0.89977252074E+03  0.82416470646E+03  0.22319504532E+04  0.25437061304E+04  0.25500000920E-02 0.  1.
</event>
<event>
 5   0  0.1256208E-06  0.3399055E+04  0.7818609E-02  0.8138138E-01
       -2   -1    0    0    0  501  0.00000000000E+00  0.00000000000E+00  0.18561103919E+04  0.18561103919E+04  0.25500000920E-02 0. -1.
        2   -1    0    0  501    0  0.00000000000E+00  0.00000000000E+00 -0.15561542163E+04  0.15561542163E+04  0.25500000920E-02 0.  1.
    10030    2    1    2    0    0  0.00000000000E+00  0.00000000000E+00  0.29995617554E+03  0.34122646082E+04  0.33990551700E+04 0.  0.
        3    1    3    3  502    0  0.77661525933E+03  0.45173866799E+03 -0.12982630056E+04  0.15788242229E+04  0.10100000352E+00 0.  1.
       -3    1    3    3    0  502 -0.77661525933E+03 -0.45173866799E+03  0.15982191811E+04  0.18334403852E+04  0.10100000352E+00 0. -1.
</event>
<event>
 5   0  0.1268230E-06  0.3600888E+04  0.7818609E-02  0.8090288E-01
       -2   -1    0    0    0  501  0.00000000000E+00  0.00000000000E+00  0.21353338128E+04  0.21353338128E+04  0.25500000920E-02 0. -1.
        2   -1    0    0  501    0  0.00000000000E+00  0.00000000000E+00 -0.15180759805E+04  0.15180759805E+04  0.25500000920E-02 0.  1.
    10030    2    1    2    0    0  0.00000000000E+00  0.00000000000E+00  0.61725783230E+03  0.36534097932E+04  0.36008882079E+04 0.  0.
        2    1    3    3  502    0  0.87033287534E+03  0.51827571920E+03  0.18187980901E+04  0.20818538680E+04  0.25500000920E-02 0. -1.
       -2    1    3    3    0  502 -0.87033287534E+03 -0.51827571920E+03 -0.12015402578E+04  0.15715559252E+04  0.25500000920E-02 0.  1.
</event>
<event>
 5   0  0.1268230E-06  0.3079058E+04  0.7818609E-02  0.8221509E-01
        2   -1    0    0  501    0  0.00000000000E+00  0.00000000000E+00  0.21371151094E+04  0.21371151094E+04  0.25500000920E-02 0. -1.
       -2   -1    0    0    0  501  0.00000000000E+00  0.00000000000E+00 -0.11090415999E+04  0.11090415999E+04  0.25500000920E-02 0.  1.
    10030    2    1    2    0    0  0.00000000000E+00  0.00000000000E+00  0.10280735095E+04  0.32461567094E+04  0.30790580119E+04 0.  0.
        2    1    3    3  502    0  0.10046278732E+04  0.51157495561E+03 -0.59126981601E+03  0.12730224249E+04  0.25500000920E-02 0.  1.
       -2    1    3    3    0  502 -0.10046278732E+04 -0.51157495561E+03  0.16193433255E+04  0.19731342845E+04  0.25500000920E-02 0. -1.
</event>
<event>
 5   0  0.4289684E-07  0.3361248E+04  0.7818609E-02  0.8147483E-01
        1   -1    0    0  501    0  0.00000000000E+00  0.00000000000E+00  0.21753468915E+04  0.21753468915E+04  0.50400001928E-02 0.  1.
       -1   -1    0    0    0  501  0.00000000000E+00  0.00000000000E+00 -0.12984122514E+04  0.12984122514E+04  0.50400001928E-02 0. -1.
    10030    2    1    2    0    0  0.00000000000E+00  0.00000000000E+00  0.87693464002E+03  0.34737591429E+04  0.33612480153E+04 0.  0.
        4    1    3    3  502    0 -0.77805954791E+03 -0.14426909744E+04  0.54880982979E+02  0.16400449515E+04  0.12699999809E+01 0.  1.
       -4    1    3    3    0  502  0.77805954791E+03  0.14426909744E+04  0.82205365704E+03  0.18337141914E+04  0.12699999809E+01 0. -1.
</event>
<event>
 5   0  0.1300176E-06  0.3383894E+04  0.7818609E-02  0.8141871E-01
       -2   -1    0    0    0  501  0.00000000000E+00  0.00000000000E+00  0.16525812584E+04  0.16525812584E+04  0.25500000920E-02 0. -1.
        2   -1    0    0  501    0  0.00000000000E+00  0.00000000000E+00 -0.17322501568E+04  0.17322501568E+04  0.25500000920E-02 0.  1.
    10030    2    1    2    0    0  0.00000000000E+00  0.00000000000E+00 -0.79668898461E+02  0.33848314152E+04  0.33838937004E+04 0.  0.
        1    1    3    3  502    0 -0.10482463630E+04 -0.23544045286E+03 -0.13472664672E+04  0.17231887819E+04  0.50400001928E-02 0.  1.
       -1    1    3    3    0  502  0.10482463630E+04  0.23544045286E+03  0.12675975688E+04  0.16616426333E+04  0.50400001928E-02 0. -1.
</event>
<event>
 5   0  0.1256208E-06  0.3383731E+04  0.7818609E-02  0.8141911E-01
       -2   -1    0    0    0  501  0.00000000000E+00  0.00000000000E+00  0.12745505887E+04  0.12745505887E+04  0.25500000920E-02 0. -1.
        2   -1    0    0  501    0  0.00000000000E+00  0.00000000000E+00 -0.22458181460E+04  0.22458181460E+04  0.25500000920E-02 0.  1.
    10030    2    1    2    0    0  0.00000000000E+00  0.00000000000E+00 -0.97126755726E+03  0.35203687347E+04  0.33837309823E+04 0.  0.
        3    1    3    3  502    0 -0.12652667715E+04 -0.19991146771E+03 -0.16354989668E+04  0.20774314618E+04  0.10100000352E+00 0.  1.
       -3    1    3    3    0  502  0.12652667715E+04  0.19991146771E+03  0.66423140955E+03  0.14429372729E+04  0.10100000352E+00 0. -1.
</event>
<event>
 5   0  0.4125758E-07  0.3418828E+04  0.7818609E-02  0.8133301E-01
        1   -1    0    0  501    0  0.00000000000E+00  0.00000000000E+00  0.29183538038E+04  0.29183538038E+04  0.50400001928E-02 0.  1.
       -1   -1    0    0    0  501  0.00000000000E+00  0.00000000000E+00 -0.10012823403E+04  0.10012823403E+04  0.50400001928E-02 0. -1.
    10030    2    1    2    0    0  0.00000000000E+00  0.00000000000E+00  0.19170714636E+04  0.39196361441E+04  0.34188279433E+04 0.  0.
        2    1    3    3  502    0 -0.12888864739E+04  0.45598769926E+03  0.21349788676E+04  0.25352096342E+04  0.25500000920E-02 0.  1.
       -2    1    3    3    0  502  0.12888864739E+04 -0.45598769926E+03 -0.21790740401E+03  0.13844265099E+04  0.25500000920E-02 0. -1.
</event>
<event>
 5   0  0.1256208E-06  0.3430428E+04  0.7818609E-02  0.8130478E-01
       -2   -1    0    0    0  501  0.00000000000E+00  0.00000000000E+00  0.18964749909E+04  0.18964749909E+04  0.25500000920E-02 0.  1.
        2   -1    0    0  501    0  0.00000000000E+00  0.00000000000E+00 -0.15512777948E+04  0.15512777948E+04  0.25500000920E-02 0. -1.
    10030    2    1    2    0    0  0.00000000000E+00  0.00000000000E+00  0.34519719610E+03  0.34477527856E+04  0.34304282774E+04 0.  0.
        3    1    3    3  502    0 -0.16370245046E+03  0.67397391556E+03 -0.14040559212E+04  0.15660179983E+04  0.10100000352E+00 0. -1.
       -3    1    3    3    0  502  0.16370245046E+03 -0.67397391556E+03  0.17492531173E+04  0.18817347873E+04  0.10100000352E+00 0.  1.
</event>
<event>
 5   0  0.1268230E-06  0.3405189E+04  0.7818609E-02  0.8136634E-01
       -2   -1    0    0    0  501  0.00000000000E+00  0.00000000000E+00  0.13987656358E+04  0.13987656358E+04  0.25500000920E-02 0.  1.
        2   -1    0    0  501    0  0.00000000000E+00  0.00000000000E+00 -0.20724185112E+04  0.20724185112E+04  0.25500000920E-02 0. -1.
    10030    2    1    2    0    0  0.00000000000E+00  0.00000000000E+00 -0.67365287542E+03  0.34711841470E+04  0.34051888620E+04 0.  0.
        2    1    3    3  502    0  0.41605963764E+03  0.75859662926E+03  0.11579672795E+04  0.14454973845E+04  0.25500000920E-02 0.  1.
       -2    1    3    3    0  502 -0.41605963764E+03 -0.75859662926E+03 -0.18316201549E+04  0.20256867626E+04  0.25500000920E-02 0. -1.
</event>
<event>
 5   0  0.1269497E-06  0.3367289E+04  0.7818609E-02  0.8145982E-01
       -2   -1    0    0    0  501  0.00000000000E+00  0.00000000000E+00  0.17370976889E+04  0.17370976889E+04  0.25500000920E-02 0.  1.
        2   -1    0    0  501    0  0.00000000000E+00  0.00000000000E+00 -0.16318359661E+04  0.16318359661E+04  0.25500000920E-02 0. -1.
    10030    2    1    2    0    0  0.00000000000E+00  0.00000000000E+00  0.10526172278E+03  0.33689336550E+04  0.33672888117E+04 0.  0.
        5    1    3    3  502    0  0.62067697678E+03 -0.14418571350E+04 -0.55630795630E+03  0.16654406443E+04  0.46999998093E+01 0. -1.
       -5    1    3    3    0  502 -0.62067697678E+03  0.14418571350E+04  0.66156967907E+03  0.17034930107E+04  0.46999998093E+01 0.  1.
</event>
<event>
 5   0  0.4109937E-07  0.3416104E+04  0.7818609E-02  0.8133965E-01
       -1   -1    0    0    0  501  0.00000000000E+00  0.00000000000E+00  0.16857419844E+04  0.16857419844E+04  0.50400001928E-02 0.  1.
        1   -1    0    0  501    0  0.00000000000E+00  0.00000000000E+00 -0.17306577676E+04  0.17306577676E+04  0.50400001928E-02 0. -1.
    10030    2    1    2    0    0  0.00000000000E+00  0.00000000000E+00 -0.44915783210E+02  0.34163997520E+04  0.34161044828E+04 0.  0.
        5    1    3    3  502    0 -0.14730711183E+04  0.86186543851E+03 -0.90799848944E+02  0.17090983752E+04  0.46999998093E+01 0. -1.
       -5    1    3    3    0  502  0.14730711183E+04 -0.86186543851E+03  0.45884065734E+02  0.17073013768E+04  0.46999998093E+01 0.  1.
</event>
<event>
 5   0  0.4109937E-07  0.3146978E+04  0.7818609E-02  0.8202962E-01
        1   -1    0    0  501    0  0.00000000000E+00  0.00000000000E+00  0.12273464223E+04  0.12273464223E+04  0.50400001928E-02 0.  1.
       -1   -1    0    0    0  501  0.00000000000E+00  0.00000000000E+00 -0.20172522310E+04  0.20172522310E+04  0.50400001928E-02 0. -1.
    10030    2    1    2    0    0  0.00000000000E+00  0.00000000000E+00 -0.78990580863E+03  0.32445986533E+04  0.31469777938E+04 0.  0.
        5    1    3    3  502    0  0.11439654508E+04  0.46985982091E+03  0.60806633442E+03  0.13781117375E+04  0.46999998093E+01 0.  1.
       -5    1    3    3    0  502 -0.11439654508E+04 -0.46985982091E+03 -0.13979721431E+04  0.18664869158E+04  0.46999998093E+01 0. -1.
</event>
<event>
 5   0  0.1300176E-06  0.3338261E+04  0.7818609E-02  0.8153227E-01
        2   -1    0    0  501    0  0.00000000000E+00  0.00000000000E+00  0.17609804738E+04  0.17609804738E+04  0.25500000920E-02 0. -1.
       -2   -1    0    0    0  501  0.00000000000E+00  0.00000000000E+00 -0.15820717242E+04  0.15820717242E+04  0.25500000920E-02 0.  1.
    10030    2    1    2    0    0  0.00000000000E+00  0.00000000000E+00  0.17890874957E+03  0.33430521979E+04  0.33382614723E+04 0.  0.
        1    1    3    3  502    0 -0.81257685130E+03 -0.44741714660E+03  0.14790819473E+04  0.17458942263E+04  0.50400001928E-02 0. -1.
       -1    1    3    3    0  502  0.81257685130E+03  0.44741714660E+03 -0.13001731978E+04  0.15971579717E+04  0.50400001928E-02 0.  1.
</event>
<event>
 5   0  0.4289684E-07  0.3422108E+04  0.7818609E-02  0.8132502E-01
        1   -1    0    0  501    0  0.00000000000E+00  0.00000000000E+00  0.18114996024E+04  0.18114996024E+04  0.50400001928E-02 0.  1.
       -1   -1    0    0    0  501  0.00000000000E+00  0.00000000000E+00 -0.16161776990E+04  0.16161776990E+04  0.50400001928E-02 0. -1.
    10030    2    1    2    0    0  0.00000000000E+00  0.00000000000E+00  0.19532190345E+03  0.34276773014E+04  0.34221076892E+04 0.  0.
        4    1    3    3  502    0 -0.12424710437E+04 -0.11119015322E+04  0.48253147453E+03  0.17357700160E+04  0.12699999809E+01 0.  1.
       -4    1    3    3    0  502  0.12424710437E+04  0.11119015322E+04 -0.28720957108E+03  0.16919072854E+04  0.12699999809E+01 0. -1.
</event>
<event>
 5   0  0.1268230E-06  0.3372498E+04  0.7818609E-02  0.8144689E-01
        2   -1    0    0  501    0  0.00000000000E+00  0.00000000000E+00  0.17740236808E+04  0.17740236808E+04  0.25500000920E-02 0. -1.
       -2   -1    0    0    0  501  0.00000000000E+00  0.00000000000E+00 -0.16028174349E+04  0.16028174349E+04  0.25500000920E-02 0.  1.
    10030    2    1    2    0    0  0.00000000000E+00  0.00000000000E+00  0.17120624593E+03  0.33768411158E+04  0.33724982346E+04 0.  0.
        2    1    3    3  502    0 -0.70395887284E+03 -0.44408812542E+03 -0.13827994991E+04  0.16139723704E+04  0.25500000920E-02 0.  1.
       -2    1    3    3    0  502  0.70395887284E+03  0.44408812542E+03  0.15540057450E+04  0.17628687453E+04  0.25500000920E-02 0. -1.
</event>
<event>
 5   0  0.4272633E-07  0.3390541E+04  0.7818609E-02  0.8140232E-01
       -1   -1    0    0    0  501  0.00000000000E+00  0.00000000000E+00  0.13512945106E+04  0.13512945106E+04  0.50400001928E-02 0. -1.
        1   -1    0    0  501    0  0.00000000000E+00  0.00000000000E+00 -0.21268062446E+04  0.21268062446E+04  0.50400001928E-02 0.  1.
    10030    2    1    2    0    0  0.00000000000E+00  0.00000000000E+00 -0.77551173399E+03  0.34781007551E+04  0.33905407258E+04 0.  0.
        1    1    3    3  502    0 -0.16507900455E+04  0.19834696954E+03 -0.72719741538E+03  0.18147356214E+04  0.50400001928E-02 0. -1.
       -1    1    3    3    0  502  0.16507900455E+04 -0.19834696954E+03 -0.48314318609E+02  0.16633651337E+04  0.50400001928E-02 0.  1.
</event>
<event>
 5   0  0.1277635E-06  0.3414821E+04  0.7818609E-02  0.8134278E-01
       -2   -1    0    0    0  501  0.00000000000E+00  0.00000000000E+00  0.15374752635E+04  0.15374752635E+04  0.25500000920E-02 0.  1.
        2   -1    0    0  501    0  0.00000000000E+00  0.00000000000E+00 -0.18961279806E+04  0.18961279806E+04  0.25500000920E-02 0. -1.
    10030    2    1    2    0    0  0.00000000000E+00  0.00000000000E+00 -0.35865271709E+03  0.34336032441E+04  0.34148205613E+04 0.  0.
        4    1    3    3  502    0  0.91942523032E+03  0.42193145525E+03 -0.15623478883E+04  0.18612634000E+04  0.12699999809E+01 0. -1.
       -4    1    3    3    0  502 -0.91942523032E+03 -0.42193145525E+03  0.12036951712E+04  0.15723398441E+04  0.12699999809E+01 0.  1.
</event>
<event>
 5   0  0.4289684E-07  0.3396727E+04  0.7818609E-02  0.8138710E-01
       -1   -1    0    0    0  501  0.00000000000E+00  0.00000000000E+00  0.15433160519E+04  0.15433160519E+04  0.50400001928E-02 0.  1.
        1   -1    0    0  501    0  0.00000000000E+00  0.00000000000E+00 -0.18689873891E+04  0.18689873891E+04  0.50400001928E-02 0. -1.
    10030    2    1    2    0    0  0.00000000000E+00  0.00000000000E+00 -0.32567133714E+03  0.34123034410E+04  0.33967268000E+04 0.  0.
        4    1    3    3  502    0 -0.68739329537E+03  0.11269986390E+04 -0.12362867663E+04  0.18086022383E+04  0.12699999809E+01 0. -1.
       -4    1    3    3    0  502  0.68739329537E+03 -0.11269986390E+04  0.91061542920E+03  0.16037012027E+04  0.12699999809E+01 0.  1.
</event>
<event>
 5   0  0.1269497E-06  0.3679943E+04  0.7818609E-02  0.8072421E-01
       -2   -1    0    0    0  501  0.00000000000E+00  0.00000000000E+00  0.14768072405E+04  0.14768072405E+04  0.25500000920E-02 0.  1.
        2   -1    0    0  501    0  0.00000000000E+00  0.00000000000E+00 -0.22924415237E+04  0.22924415237E+04  0.25500000920E-02 0. -1.
    10030    2    1    2    0    0  0.00000000000E+00  0.00000000000E+00 -0.81563428320E+03  0.37692487641E+04  0.36799425215E+04 0.  0.
        5    1    3    3  502    0 -0.11730251948E+04  0.54918992032E+03 -0.17463891520E+04  0.21742803030E+04  0.46999998093E+01 0. -1.
       -5    1    3    3    0  502  0.11730251948E+04 -0.54918992032E+03  0.93075486876E+03  0.15949684611E+04  0.46999998093E+01 0.  1.
</event>
<event>
 5   0  0.4289684E-07  0.3376337E+04  0.7818609E-02  0.8143738E-01
       -1   -1    0    0    0  501  0.00000000000E+00  0.00000000000E+00  0.15389063717E+04  0.15389063717E+04  0.50400001928E-02 0.  1.
        1   -1    0    0  501    0  0.00000000000E+00  0.00000000000E+00 -0.18519081717E+04  0.18519081717E+04  0.50400001928E-02 0. -1.
    10030    2    1    2    0    0  0.00000000000E+00  0.00000000000E+00 -0.31300179996E+03  0.33908145434E+04  0.33763372375E+04 0.  0.
        4    1    3    3  502    0 -0.11902351714E+04 -0.91766814921E+03 -0.92865204267E+03  0.17666835667E+04  0.12699999809E+01 0. -1.
       -4    1    3    3    0  502  0.11902351714E+04  0.91766814921E+03  0.61565024271E+03  0.16241309768E+04  0.12699999809E+01 0.  1.
</event>
<event>
 5   0  0.4109937E-07  0.3412180E+04  0.7818609E-02  0.8134923E-01
       -1   -1    0    0    0  501  0.00000000000E+00  0.00000000000E+00  0.16230106630E+04  0.16230106630E+04  0.50400001928E-02 0. -1.
        1   -1    0    0  501    0  0.00000000000E+00  0.00000000000E+00 -0.17934222418E+04  0.17934222418E+04  0.50400001928E-02 0.  1.
    10030    2    1    2    0    0  0.00000000000E+00  0.00000000000E+00 -0.17041157876E+03  0.34164329049E+04  0.34121801956E+04 0.  0.
        5    1    3    3  502    0 -0.10972030178E+04  0.56635544985E+03 -0.12640041730E+04  0.17670148832E+04  0.46999998093E+01 0.  1.
       -5    1    3    3    0  502  0.10972030178E+04 -0.56635544985E+03  0.10935925943E+04  0.16494180217E+04  0.46999998093E+01 0. -1.
</event>
<event>
 5   0  0.1300176E-06  0.2957833E+04  0.7818609E-02  0.8255876E-01
        2   -1    0    0  501    0  0.00000000000E+00  0.00000000000E+00  0.29317006007E+04  0.29317006007E+04  0.25500000920E-02 0. -1.
       -2   -1    0    0    0  501  0.00000000000E+00  0.00000000000E+00 -0.74604949369E+03  0.74604949369E+03  0.25500000920E-02 0.  1.
    10030    2    1    2    0    0  0.00000000000E+00  0.00000000000E+00  0.21856511070E+04  0.36777500944E+04  0.29578328207E+04 0.  0.
        1    1    3    3  502    0 -0.20205706112E+03  0.12162700894E+04  0.21083467923E+04  0.24423894412E+04  0.50400001928E-02 0. -1.
       -1    1    3    3    0  502  0.20205706112E+03 -0.12162700894E+04  0.77304314719E+02  0.12353606531E+04  0.50400001928E-02 0.  1.
</event>
<event>
 5   0  0.4109937E-07  0.3484420E+04  0.7818609E-02  0.8117492E-01
        1   -1    0    0  501    0  0.00000000000E+00  0.00000000000E+00  0.18088901231E+04  0.18088901231E+04  0.50400001928E-02 0. -1.
       -1   -1    0    0    0  501  0.00000000000E+00  0.00000000000E+00 -0.16779879060E+04  0.16779879060E+04  0.50400001928E-02 0.  1.
    10030    2    1    2    0    0  0.00000000000E+00  0.00000000000E+00  0.13090221706E+03  0.34868780291E+04  0.34844200377E+04 0.  0.
        5    1    3    3  502    0  0.57366924166E+03  0.16447011172E+04  0.99171999203E+02  0.17447049433E+04  0.46999998093E+01 0. -1.
       -5    1    3    3    0  502 -0.57366924166E+03 -0.16447011172E+04  0.31730217861E+02  0.17421730857E+04  0.46999998093E+01 0.  1.
</event>
<event>
 5   0  0.1300176E-06  0.3371112E+04  0.7818609E-02  0.8145033E-01
        2   -1    0    0  501    0  0.00000000000E+00  0.00000000000E+00  0.23246605047E+04  0.23246605047E+04  0.25500000920E-02 0.  1.
       -2   -1    0    0    0  501  0.00000000000E+00  0.00000000000E+00 -0.12221568469E+04  0.12221568469E+04  0.25500000920E-02 0. -1.
    10030    2    1    2    0    0  0.00000000000E+00  0.00000000000E+00  0.11025036578E+04  0.35468173516E+04  0.33711124292E+04 0.  0.
        1    1    3    3  502    0  0.32657445479E+03 -0.12342137389E+04 -0.60663816770E+03  0.14134865738E+04  0.50400001928E-02 0. -1.
       -1    1    3    3    0  502 -0.32657445479E+03  0.12342137389E+04  0.17091418255E+04  0.21333307778E+04  0.50400001928E-02 0.  1.
</event>
<event>
 5   0  0.4464951E-07  0.3382423E+04  0.7818609E-02  0.8142234E-01
        1   -1    0    0  501    0  0.00000000000E+00  0.00000000000E+00  0.17412731332E+04  0.17412731332E+04  0.50400001928E-02 0. -1.
       -1   -1    0    0    0  501  0.00000000000E+00  0.00000000000E+00 -0.16425896179E+04  0.16425896179E+04  0.50400001928E-02 0.  1.
    10030    2    1    2    0    0  0.00000000000E+00  0.00000000000E+00  0.98683515344E+02  0.33838627511E+04  0.33824234925E+04 0.  0.
        3    1    3    3  502    0 -0.54076655393E+03  0.75130261481E+03 -0.13666449308E+04  0.16506369868E+04  0.10100000352E+00 0.  1.
       -3    1    3    3    0  502  0.54076655393E+03 -0.75130261481E+03  0.14653284462E+04  0.17332257644E+04  0.10100000352E+00 0. -1.
</event>
<event>
 5   0  0.4109937E-07  0.3407050E+04  0.7818609E-02  0.8136178E-01
        1   -1    0    0  501    0  0.00000000000E+00  0.00000000000E+00  0.21179742525E+04  0.21179742525E+04  0.50400001928E-02 0.  1.
       -1   -1    0    0    0  501  0.00000000000E+00  0.00000000000E+00 -0.13701762688E+04  0.13701762688E+04  0.50400001928E-02 0. -1.
    10030    2    1    2    0    0  0.00000000000E+00  0.00000000000E+00  0.74779798367E+03  0.34881505213E+04  0.34070503716E+04 0.  0.
        5    1    3    3  502    0 -0.93019513112E+03  0.11627833869E+04 -0.47323140558E+03  0.15624654364E+04  0.46999998093E+01 0. -1.
       -5    1    3    3    0  502  0.93019513112E+03 -0.11627833869E+04  0.12210293892E+04  0.19256850849E+04  0.46999998093E+01 0.  1.
</event>
<event>
 5   0  0.1277635E-06  0.3393248E+04  0.7818609E-02  0.8139565E-01
       -2   -1    0    0    0  501  0.00000000000E+00  0.00000000000E+00  0.11822027837E+04  0.11822027837E+04  0.25500000920E-02 0.  1.
        2   -1    0    0  501    0  0.00000000000E+00  0.00000000000E+00 -0.24348893445E+04  0.24348893445E+04  0.25500000920E-02 0. -1.
    10030    2    1    2    0    0  0.00000000000E+00  0.00000000000E+00 -0.12526865608E+04  0.36170921283E+04  0.33932479787E+04 0.  0.
        4    1    3    3  502    0 -0.46981879641E+03  0.11823925677E+04 -0.18227698865E+04  0.22228975590E+04  0.12699999809E+01 0. -1.
       -4    1    3    3    0  502  0.46981879641E+03 -0.11823925677E+04  0.57008332576E+03  0.13941945692E+04  0.12699999809E+01 0.  1.
</event>
<event>
 5   0  0.1268230E-06  0.3425946E+04  0.7818609E-02  0.8131568E-01
       -2   -1    0    0    0  501  0.00000000000E+00  0.00000000000E+00  0.15651672652E+04  0.15651672652E+04  0.25500000920E-02 0.  1.
        2   -1    0    0  501    0  0.00000000000E+00  0.00000000000E+00 -0.18747364178E+04  0.18747364178E+04  0.25500000920E-02 0. -1.
    10030    2    1    2    0    0  0.00000000000E+00  0.00000000000E+00 -0.30956915261E+03  0.34399036831E+04  0.34259457510E+04 0.  0.
        2    1    3    3  502    0  0.53928317793E+03  0.72806495636E+03 -0.16144512333E+04  0.18513124294E+04  0.25500000920E-02 0. -1.
       -2    1    3    3    0  502 -0.53928317793E+03 -0.72806495636E+03  0.13048820807E+04  0.15885912536E+04  0.25500000920E-02 0.  1.
</event>
<event>
 5   0  0.4289684E-07  0.3391182E+04  0.7818609E-02  0.8140074E-01
        1   -1    0    0  501    0  0.00000000000E+00  0.00000000000E+00  0.24319387603E+04  0.24319387603E+04  0.50400001928E-02 0.  1.
       -1   -1    0    0    0  501  0.00000000000E+00  0.00000000000E+00 -0.11821963691E+04  0.11821963692E+04  0.50400001928E-02 0. -1.
    10030    2    1    2    0    0  0.00000000000E+00  0.00000000000E+00  0.12497423911E+04  0.36141351294E+04  0.33911821964E+04 0.  0.
        4    1    3    3  502    0 -0.16380124854E+04 -0.20938373355E+03  0.21473092017E+03  0.16652439554E+04  0.12699999809E+01 0.  1.
       -4    1    3    3    0  502  0.16380124854E+04  0.20938373355E+03  0.10350114709E+04  0.19488911740E+04  0.12699999809E+01 0. -1.
</event>
<event>
 5   0  0.1269497E-06  0.3391900E+04  0.7818609E-02  0.8139897E-01
       -2   -1    0    0    0  501  0.00000000000E+00  0.00000000000E+00  0.11359617500E+04  0.11359617501E+04  0.25500000920E-02 0.  1.
        2   -1    0    0  501    0  0.00000000000E+00  0.00000000000E+00 -0.25319922718E+04  0.25319922718E+04  0.25500000920E-02 0. -1.
    10030    2    1    2    0    0  0.00000000000E+00  0.00000000000E+00 -0.13960305218E+04  0.36679540219E+04  0.33918999821E+04 0.  0.
        5    1    3    3  502    0  0.13440876809E+04 -0.48476097523E+03 -0.16859664449E+04  0.22099931765E+04  0.46999998093E+01 0. -1.
       -5    1    3    3    0  502 -0.13440876809E+04  0.48476097523E+03  0.28993592315E+03  0.14579608453E+04  0.46999998093E+01 0.  1.
</event>
<event>
 5   0  0.4272633E-07  0.3410530E+04  0.7818609E-02  0.8135327E-01
       -1   -1    0    0    0  501  0.00000000000E+00  0.00000000000E+00  0.13041396568E+04  0.13041396569E+04  0.50400001928E-02 0. -1.
        1   -1    0    0  501    0  0.00000000000E+00  0.00000000000E+00 -0.22297677938E+04  0.22297677938E+04  0.50400001928E-02 0.  1.
    10030    2    1    2    0    0  0.00000000000E+00  0.00000000000E+00 -0.92562813693E+03  0.35339074506E+04  0.34105299327E+04 0.  0.
        1    1    3    3  502    0  0.79238806562E+03  0.13529596663E+02  0.11017308436E+04  0.13571561253E+04  0.50400001928E-02 0. -1.
       -1    1    3    3    0  502 -0.79238806562E+03 -0.13529596663E+02 -0.20273589805E+04  0.21767513254E+04  0.50400001928E-02 0.  1.
</event>
<event>
 5   0  0.1277635E-06  0.3402481E+04  0.7818609E-02  0.8137298E-01
       -2   -1    0    0    0  501  0.00000000000E+00  0.00000000000E+00  0.15385658826E+04  0.15385658826E+04  0.25500000920E-02 0.  1.
        2   -1    0    0  501    0  0.00000000000E+00  0.00000000000E+00 -0.18811150951E+04  0.18811150951E+04  0.25500000920E-02 0. -1.
    10030    2    1    2    0    0  0.00000000000E+00  0.00000000000E+00 -0.34254921250E+03  0.34196809776E+04  0.34024811573E+04 0.  0.
        4    1    3    3  502    0 -0.57859575488E+03 -0.75321290988E+03 -0.15898325622E+04  0.18519373434E+04  0.12699999809E+01 0. -1.
       -4    1    3    3    0  502  0.57859575488E+03  0.75321290988E+03  0.12472833497E+04  0.15677436342E+04  0.12699999809E+01 0.  1.
</event>
<event>
 5   0  0.4125758E-07  0.3549963E+04  0.7818609E-02  0.8102050E-01
       -1   -1    0    0    0  501  0.00000000000E+00  0.00000000000E+00  0.18370918827E+04  0.18370918827E+04  0.50400001928E-02 0. -1.
        1   -1    0    0  501    0  0.00000000000E+00  0.00000000000E+00 -0.17149709354E+04  0.17149709354E+04  0.50400001928E-02 0.  1.
    10030    2    1    2    0    0  0.00000000000E+00  0.00000000000E+00  0.12212094728E+03  0.35520628181E+04  0.35499629207E+04 0.  0.
        2    1    3    3  502    0 -0.77452201284E+03  0.96002083766E+03  0.13381519473E+04  0.18199381834E+04  0.25500000920E-02 0. -1.
       -2    1    3    3    0  502  0.77452201284E+03 -0.96002083766E+03 -0.12160310001E+04  0.17321246347E+04  0.25500000920E-02 0.  1.
</event>
<event>
 5   0  0.4125758E-07  0.3390714E+04  0.7818609E-02  0.8140189E-01
       -1   -1    0    0    0  501  0.00000000000E+00  0.00000000000E+00  0.14428015498E+04  0.14428015498E+04  0.50400001928E-02 0. -1.
        1   -1    0    0  501    0  0.00000000000E+00  0.00000000000E+00 -0.19921214255E+04  0.19921214255E+04  0.50400001928E-02 0.  1.
    10030    2    1    2    0    0  0.00000000000E+00  0.00000000000E+00 -0.54931987579E+03  0.34349229753E+04  0.33907143083E+04 0.  0.
        2    1    3    3  502    0  0.25746750538E+03 -0.14570688842E+04 -0.11130349368E+04  0.18515361244E+04  0.25500000920E-02 0.  1.
       -2    1    3    3    0  502 -0.25746750538E+03  0.14570688842E+04  0.56371506100E+03  0.15833868509E+04  0.25500000920E-02 0. -1.
</event>
<event>
 5   0  0.1268230E-06  0.3425073E+04  0.7818609E-02  0.8131780E-01
        2   -1    0    0  501    0  0.00000000000E+00  0.00000000000E+00  0.11264911091E+04  0.11264911091E+04  0.25500000920E-02 0. -1.
       -2   -1    0    0    0  501  0.00000000000E+00  0.00000000000E+00 -0.26034657871E+04  0.26034657871E+04  0.25500000920E-02 0.  1.
    10030    2    1    2    0    0  0.00000000000E+00  0.00000000000E+00 -0.14769746780E+04  0.37299568961E+04  0.34250728821E+04 0.  0.
        2    1    3    3  502    0 -0.16980172716E+04 -0.99109576399E+02 -0.95546035401E+03  0.19508946283E+04  0.25500000920E-02 0. -1.
       -2    1    3    3    0  502  0.16980172716E+04  0.99109576399E+02 -0.52151432397E+03  0.17790622678E+04  0.25500000920E-02 0.  1.
</event>
<event>
 5   0  0.4060750E-07  0.3477093E+04  0.7818609E-02  0.8119240E-01
        3   -1    0    0  501    0  0.00000000000E+00  0.00000000000E+00  0.24207572849E+04  0.24207572870E+04  0.10100000352E+00 0. -1.
       -3   -1    0    0    0  501  0.00000000000E+00  0.00000000000E+00 -0.12485943649E+04  0.12485943690E+04  0.10100000352E+00 0.  1.
    10030    2    1    2    0    0  0.00000000000E+00  0.00000000000E+00  0.11721629199E+04  0.36693516560E+04  0.34770929905E+04 0.  0.
        2    1    3    3  502    0 -0.11361673489E+04 -0.29375734651E+02  0.19744253935E+04  0.22781779591E+04  0.25500000920E-02 0. -1.
       -2    1    3    3    0  502  0.11361673489E+04  0.29375734651E+02 -0.80226247359E+03  0.13911736969E+04  0.25500000920E-02 0.  1.
</event>
<event>
 5   0  0.4272633E-07  0.3402200E+04  0.7818609E-02  0.8137366E-01
        1   -1    0    0  501    0  0.00000000000E+00  0.00000000000E+00  0.25671550361E+04  0.25671550361E+04  0.50400001928E-02 0.  1.
       -1   -1    0    0    0  501  0.00000000000E+00  0.00000000000E+00 -0.11272174833E+04  0.11272174833E+04  0.50400001928E-02 0. -1.
    10030    2    1    2    0    0  0.00000000000E+00  0.00000000000E+00  0.14399375528E+04  0.36943725194E+04  0.34022004874E+04 0.  0.
        1    1    3    3  502    0 -0.75631854305E+03  0.37431593538E+03  0.23238401192E+04  0.24723193680E+04  0.50400001928E-02 0.  1.
       -1    1    3    3    0  502  0.75631854305E+03 -0.37431593538E+03 -0.88390256636E+03  0.12220531514E+04  0.50400001928E-02 0. -1.
</event>
<event>
 5   0  0.4109937E-07  0.3385897E+04  0.7818609E-02  0.8141376E-01
        1   -1    0    0  501    0  0.00000000000E+00  0.00000000000E+00  0.21973930146E+04  0.21973930146E+04  0.50400001928E-02 0. -1.
       -1   -1    0    0    0  501  0.00000000000E+00  0.00000000000E+00 -0.13043066255E+04  0.13043066255E+04  0.50400001928E-02 0.  1.
    10030    2    1    2    0    0  0.00000000000E+00  0.00000000000E+00  0.89308638908E+03  0.35016996401E+04  0.33858967898E+04 0.  0.
        5    1    3    3  502    0  0.42341734746E+03  0.15729047953E+04  0.92355617241E+03  0.18725089690E+04  0.46999998093E+01 0.  1.
       -5    1    3    3    0  502 -0.42341734746E+03 -0.15729047953E+04 -0.30469783330E+02  0.16291906711E+04  0.46999998093E+01 0. -1.
</event>
<event>
 5   0  0.1268230E-06  0.3408567E+04  0.7818609E-02  0.8135807E-01
       -2   -1    0    0    0  501  0.00000000000E+00  0.00000000000E+00  0.33275231017E+04  0.33275231017E+04  0.25500000920E-02 0.  1.
        2   -1    0    0  501    0  0.00000000000E+00  0.00000000000E+00 -0.87289630300E+03  0.87289630300E+03  0.25500000920E-02 0. -1.
    10030    2    1    2    0    0  0.00000000000E+00  0.00000000000E+00  0.24546267987E+04  0.42004194047E+04  0.34085672143E+04 0.  0.
        2    1    3    3  502    0  0.12560609813E+04 -0.10148722327E+04  0.18988136925E+04  0.24926187587E+04  0.25500000920E-02 0.  1.
       -2    1    3    3    0  502 -0.12560609813E+04  0.10148722327E+04  0.55581310614E+03  0.17078006460E+04  0.25500000920E-02 0. -1.
</event>
<event>
 5   0  0.1268230E-06  0.3396296E+04  0.7818609E-02  0.8138816E-01
       -2   -1    0    0    0  501  0.00000000000E+00  0.00000000000E+00  0.12570768237E+04  0.12570768237E+04  0.25500000920E-02 0.  1.
        2   -1    0    0  501    0  0.00000000000E+00  0.00000000000E+00 -0.22939775096E+04  0.22939775096E+04  0.25500000920E-02 0. -1.
    10030    2    1    2    0    0  0.00000000000E+00  0.00000000000E+00 -0.10369006860E+04  0.35510543333E+04  0.33962956063E+04 0.  0.
        2    1    3    3  502    0  0.16616609537E+04 -0.28617750316E+03 -0.30753776890E+03  0.17139411214E+04  0.25500000920E-02 0. -1.
       -2    1    3    3    0  502 -0.16616609537E+04  0.28617750316E+03 -0.72936291707E+03  0.18371132119E+04  0.25500000920E-02 0.  1.
</event>
<event>
 5   0  0.4272633E-07  0.3385346E+04  0.7818609E-02  0.8141512E-01
       -1   -1    0    0    0  501  0.00000000000E+00  0.00000000000E+00  0.25360370304E+04  0.25360370304E+04  0.50400001928E-02 0.  1.
        1   -1    0    0  501    0  0.00000000000E+00  0.00000000000E+00 -0.11297711203E+04  0.11297711204E+04  0.50400001928E-02 0. -1.
    10030    2    1    2    0    0  0.00000000000E+00  0.00000000000E+00  0.14062659101E+04  0.36658081508E+04  0.33853457118E+04 0.  0.
        1    1    3    3  502    0  0.11530013325E+04 -0.11614616077E+04  0.23520280042E+03  0.16533981663E+04  0.50400001928E-02 0.  1.
       -1    1    3    3    0  502 -0.11530013325E+04  0.11614616077E+04  0.11710631096E+04  0.20124099845E+04  0.50400001928E-02 0. -1.
</event>
<event>
 5   0  0.1256208E-06  0.3411099E+04  0.7818609E-02  0.8135188E-01
        2   -1    0    0  501    0  0.00000000000E+00  0.00000000000E+00  0.22678259859E+04  0.22678259859E+04  0.25500000920E-02 0.  1.
       -2   -1    0    0    0  501  0.00000000000E+00  0.00000000000E+00 -0.12826814178E+04  0.12826814178E+04  0.25500000920E-02 0. -1.
    10030    2    1    2    0    0  0.00000000000E+00  0.00000000000E+00  0.98514456817E+03  0.35505074037E+04  0.34110985039E+04 0.  0.
        3    1    3    3  502    0  0.10796048686E+04 -0.13201804527E+04  0.46988370513E+03  0.17689583959E+04  0.10100000352E+00 0. -1.
       -3    1    3    3    0  502 -0.10796048686E+04  0.13201804527E+04  0.51526086304E+03  0.17815490078E+04  0.10100000352E+00 0.  1.
</event>
<event>
 5   0  0.1256208E-06  0.3410542E+04  0.7818609E-02  0.8135324E-01
       -2   -1    0    0    0  501  0.00000000000E+00  0.00000000000E+00  0.93559628238E+03  0.93559628238E+03  0.25500000920E-02 0.  1.
        2   -1    0    0  501    0  0.00000000000E+00  0.00000000000E+00 -0.31081230756E+04  0.31081230756E+04  0.25500000920E-02 0. -1.
    10030    2    1    2    0    0  0.00000000000E+00  0.00000000000E+00 -0.21725267932E+04  0.40437193579E+04  0.34105415375E+04 0.  0.
        3    1    3    3  502    0 -0.21546329917E+03  0.93113803716E+03  0.58819872332E+03  0.11222389344E+04  0.10100000352E+00 0.  1.
       -3    1    3    3    0  502  0.21546329917E+03 -0.93113803716E+03 -0.27607255165E+04  0.29214804236E+04  0.10100000352E+00 0. -1.
</event>
<event>
 5   0  0.1277635E-06  0.3373986E+04  0.7818609E-02  0.8144321E-01
       -2   -1    0    0    0  501  0.00000000000E+00  0.00000000000E+00  0.14017147607E+04  0.14017147607E+04  0.25500000920E-02 0.  1.
        2   -1    0    0  501    0  0.00000000000E+00  0.00000000000E+00 -0.20303312572E+04  0.20303312572E+04  0.25500000920E-02 0. -1.
    10030    2    1    2    0    0  0.00000000000E+00  0.00000000000E+00 -0.62861649650E+03  0.34320460178E+04  0.33739859468E+04 0.  0.
        4    1    3    3  502    0 -0.12586561561E+04 -0.55479427031E+03 -0.13078096140E+04  0.18979935724E+04  0.12699999809E+01 0. -1.
       -4    1    3    3    0  502  0.12586561561E+04  0.55479427031E+03  0.67919311748E+03  0.15340524454E+04  0.12699999809E+01 0.  1.
</event>
<event>
 5   0  0.4289684E-07  0.3406673E+04  0.7818609E-02  0.8136270E-01
       -1   -1    0    0    0  501  0.00000000000E+00  0.00000000000E+00  0.33493504726E+04  0.33493504726E+04  0.50400001928E-02 0. -1.
        1   -1    0    0  501    0  0.00000000000E+00  0.00000000000E+00 -0.86624436328E+03  0.86624436329E+03  0.50400001928E-02 0.  1.
    10030    2    1    2    0    0  0.00000000000E+00  0.00000000000E+00  0.24831061093E+04  0.42155948359E+04  0.34066734317E+04 0.  0.
        4    1    3    3  502    0  0.51880574557E+02  0.37406343319E+03  0.32968931375E+04  0.33184515996E+04  0.12699999809E+01 0. -1.
       -4    1    3    3    0  502 -0.51880574557E+02 -0.37406343319E+03 -0.81378702823E+03  0.89714323622E+03  0.12699999809E+01 0.  1.
</event>
<event>
 5   0  0.4289684E-07  0.3387497E+04  0.7818609E-02  0.8140982E-01
       -1   -1    0    0    0  501  0.00000000000E+00  0.00000000000E+00  0.13011236127E+04  0.13011236127E+04  0.50400001928E-02 0.  1.
        1   -1    0    0  501    0  0.00000000000E+00  0.00000000000E+00 -0.22048512963E+04  0.22048512963E+04  0.50400001928E-02 0. -1.
    10030    2    1    2    0    0  0.00000000000E+00  0.00000000000E+00 -0.90372768364E+03  0.35059749090E+04  0.33874970607E+04 0.  0.
        4    1    3    3  502    0 -0.14136634452E+04  0.27987325102E+03 -0.13729387722E+04  0.19904109772E+04  0.12699999809E+01 0. -1.
       -4    1    3    3    0  502  0.14136634452E+04 -0.27987325102E+03  0.46921108859E+03  0.15155639318E+04  0.12699999809E+01 0.  1.
</event>
<event>
 5   0  0.1269497E-06  0.3456522E+04  0.7818609E-02  0.8124172E-01
       -2   -1    0    0    0  501  0.00000000000E+00  0.00000000000E+00  0.16503242019E+04  0.16503242019E+04  0.25500000920E-02 0. -1.
        2   -1    0    0  501    0  0.00000000000E+00  0.00000000000E+00 -0.18098786905E+04  0.18098786905E+04  0.25500000920E-02 0.  1.
    10030    2    1    2    0    0  0.00000000000E+00  0.00000000000E+00 -0.15955448853E+03  0.34602028924E+04  0.34565223016E+04 0.  0.
        5    1    3    3  502    0  0.21898462149E+03 -0.26978649083E+03 -0.17745434799E+04  0.18082493376E+04  0.46999998093E+01 0.  1.
       -5    1    3    3    0  502 -0.21898462149E+03  0.26978649083E+03  0.16149889913E+04  0.16519535548E+04  0.46999998093E+01 0. -1.
</event>
<event>
 5   0  0.4289684E-07  0.3281080E+04  0.7818609E-02  0.8167726E-01
        1   -1    0    0  501    0  0.00000000000E+00  0.00000000000E+00  0.25380943715E+04  0.25380943715E+04  0.50400001928E-02 0.  1.
       -1   -1    0    0    0  501  0.00000000000E+00  0.00000000000E+00 -0.10603905182E+04  0.10603905182E+04  0.50400001928E-02 0. -1.
    10030    2    1    2    0    0  0.00000000000E+00  0.00000000000E+00  0.14777038533E+04  0.35984848897E+04  0.32810798259E+04 0.  0.
        4    1    3    3  502    0 -0.45062283603E+02 -0.36975514179E+03  0.24911015721E+04  0.25187969608E+04  0.12699999809E+01 0.  1.
       -4    1    3    3    0  502  0.45062283603E+02  0.36975514179E+03 -0.10133977189E+04  0.10796879289E+04  0.12699999809E+01 0. -1.
</event>
<event>
 5   0  0.1256208E-06  0.3428254E+04  0.7818609E-02  0.8131006E-01
       -2   -1    0    0    0  501  0.00000000000E+00  0.00000000000E+00  0.13766093181E+04  0.13766093181E+04  0.25500000920E-02 0. -1.
        2   -1    0    0  501    0  0.00000000000E+00  0.00000000000E+00 -0.21343979484E+04  0.21343979484E+04  0.25500000920E-02 0.  1.
    10030    2    1    2    0    0  0.00000000000E+00  0.00000000000E+00 -0.75778863036E+03  0.35110072665E+04  0.34282544271E+04 0.  0.
        3    1    3    3  502    0 -0.29835692971E+03 -0.16329689766E+04  0.58770706198E+02  0.16610414029E+04  0.10100000352E+00 0. -1.
       -3    1    3    3    0  502  0.29835692971E+03  0.16329689766E+04 -0.81655933656E+03  0.18499658636E+04  0.10100000352E+00 0.  1.
</event>
<event>
 5   0  0.1256208E-06  0.2987349E+04  0.7818609E-02  0.8247353E-01
       -2   -1    0    0    0  501  0.00000000000E+00  0.00000000000E+00  0.87287787389E+03  0.87287787390E+03  0.25500000920E-02 0.  1.
        2   -1    0    0  501    0  0.00000000000E+00  0.00000000000E+00 -0.25559857250E+04  0.25559857250E+04  0.25500000920E-02 0. -1.
    10030    2    1    2    0    0  0.00000000000E+00  0.00000000000E+00 -0.16831078511E+04  0.34288635989E+04  0.29873489152E+04 0.  0.
        3    1    3    3  502    0 -0.25157268935E+03 -0.14230853791E+04 -0.40811498978E+03  0.15016719580E+04  0.10100000352E+00 0. -1.
       -3    1    3    3    0  502  0.25157268935E+03  0.14230853791E+04 -0.12749928613E+04  0.19271916409E+04  0.10100000352E+00 0.  1.
</event>
<event>
 5   0  0.4289684E-07  0.3373707E+04  0.7818609E-02  0.8144390E-01
        1   -1    0    0  501    0  0.00000000000E+00  0.00000000000E+00  0.94853538008E+03  0.94853538009E+03  0.50400001928E-02 0. -1.
       -1   -1    0    0    0  501  0.00000000000E+00  0.00000000000E+00 -0.29998611167E+04  0.29998611167E+04  0.50400001928E-02 0.  1.
    10030    2    1    2    0    0  0.00000000000E+00  0.00000000000E+00 -0.20513257366E+04  0.39483964968E+04  0.33737068068E+04 0.  0.
        4    1    3    3  502    0 -0.11531542056E+03  0.25288854155E+03 -0.29728779297E+04  0.29858424369E+04  0.12699999809E+01 0.  1.
       -4    1    3    3    0  502  0.11531542056E+03 -0.25288854155E+03  0.92155219306E+03  0.96255405984E+03  0.12699999809E+01 0. -1.
</event>
<event>
 5   0  0.4464951E-07  0.3379597E+04  0.7818609E-02  0.8142932E-01
       -1   -1    0    0    0  501  0.00000000000E+00  0.00000000000E+00  0.14905203555E+04  0.14905203555E+04  0.50400001928E-02 0. -1.
        1   -1    0    0  501    0  0.00000000000E+00  0.00000000000E+00 -0.19157198036E+04  0.19157198036E+04  0.50400001928E-02 0.  1.
    10030    2    1    2    0    0  0.00000000000E+00  0.00000000000E+00 -0.42519944804E+03  0.34062401591E+04  0.33795972321E+04 0.  0.
        3    1    3    3  502    0  0.10295782276E+04  0.47917150573E+03 -0.14737767866E+04  0.18605522528E+04  0.10100000352E+00 0.  1.
       -3    1    3    3    0  502 -0.10295782276E+04 -0.47917150573E+03  0.10485773385E+04  0.15456879063E+04  0.10100000352E+00 0. -1.
</event>
<event>
 5   0  0.4289684E-07  0.3428940E+04  0.7818609E-02  0.8130840E-01
        1   -1    0    0  501    0  0.00000000000E+00  0.00000000000E+00  0.15973803432E+04  0.15973803432E+04  0.50400001928E-02 0.  1.
       -1   -1    0    0    0  501  0.00000000000E+00  0.00000000000E+00 -0.18401426462E+04  0.18401426462E+04  0.50400001928E-02 0. -1.
    10030    2    1    2    0    0  0.00000000000E+00  0.00000000000E+00 -0.24276230302E+03  0.34375229894E+04  0.34289401812E+04 0.  0.
        4    1    3    3  502    0  0.11979371019E+04  0.94022359131E+02  0.11045913724E+04  0.16321817353E+04  0.12699999809E+01 0.  1.
       -4    1    3    3    0  502 -0.11979371019E+04 -0.94022359131E+02 -0.13473536754E+04  0.18053412541E+04  0.12699999809E+01 0. -1.
</event>
<event>
 5   0  0.1269497E-06  0.3240875E+04  0.7818609E-02  0.8178105E-01
       -2   -1    0    0    0  501  0.00000000000E+00  0.00000000000E+00  0.16595066589E+04  0.16595066589E+04  0.25500000920E-02 0. -1.
        2   -1    0    0  501    0  0.00000000000E+00  0.00000000000E+00 -0.15822885661E+04  0.15822885661E+04  0.25500000920E-02 0.  1.
    10030    2    1    2    0    0  0.00000000000E+00  0.00000000000E+00  0.77218092870E+02  0.32417952250E+04  0.32408754446E+04 0.  0.
        5    1    3    3  502    0  0.70802803206E+03  0.14504215284E+04  0.18276801656E+03  0.16243314138E+04  0.46999998093E+01 0.  1.
       -5    1    3    3    0  502 -0.70802803206E+03 -0.14504215284E+04 -0.10554992369E+03  0.16174638112E+04  0.46999998093E+01 0. -1.
</event>
<event>
 5   0  0.4289684E-07  0.3378099E+04  0.7818609E-02  0.8143303E-01
        1   -1    0    0  501    0  0.00000000000E+00  0.00000000000E+00  0.21344807218E+04  0.21344807218E+04  0.50400001928E-02 0.  1.
       -1   -1    0    0    0  501  0.00000000000E+00  0.00000000000E+00 -0.13365722162E+04  0.13365722162E+04  0.50400001928E-02 0. -1.
    10030    2    1    2    0    0  0.00000000000E+00  0.00000000000E+00  0.79790850561E+03  0.34710529380E+04  0.33780986538E+04 0.  0.
        4    1    3    3  502    0 -0.14055930259E+04 -0.29131864990E+03 -0.51566708672E+03  0.15252778328E+04  0.12699999809E+01 0. -1.
       -4    1    3    3    0  502  0.14055930259E+04  0.29131864990E+03  0.13135755923E+04  0.19457751051E+04  0.12699999809E+01 0.  1.
</event>
<event>
 5   0  0.4125758E-07  0.3439377E+04  0.7818609E-02  0.8128309E-01
        1   -1    0    0  501    0  0.00000000000E+00  0.00000000000E+00  0.18812499420E+04  0.18812499420E+04  0.50400001928E-02 0.  1.
       -1   -1    0    0    0  501  0.00000000000E+00  0.00000000000E+00 -0.15720017269E+04  0.15720017269E+04  0.50400001928E-02 0. -1.
    10030    2    1    2    0    0  0.00000000000E+00  0.00000000000E+00  0.30924821513E+03  0.34532516690E+04  0.34393767794E+04 0.  0.
        2    1    3    3  502    0  0.48966454223E+03  0.81954228620E+03  0.15907464692E+04  0.18552345545E+04  0.25500000920E-02 0.  1.
       -2    1    3    3    0  502 -0.48966454223E+03 -0.81954228620E+03 -0.12814982541E+04  0.15980171145E+04  0.25500000920E-02 0. -1.
</event>
<event>
 5   0  0.4109937E-07  0.3408088E+04  0.7818609E-02  0.8135924E-01
        1   -1    0    0  501    0  0.00000000000E+00  0.00000000000E+00  0.20242209490E+04  0.20242209490E+04  0.50400001928E-02 0. -1.
       -1   -1    0    0    0  501  0.00000000000E+00  0.00000000000E+00 -0.14345107813E+04  0.14345107814E+04  0.50400001928E-02 0.  1.
    10030    2    1    2    0    0  0.00000000000E+00  0.00000000000E+00  0.58971016762E+03  0.34587317303E+04  0.34080884819E+04 0.  0.
        5    1    3    3  502    0  0.11082424216E+04  0.11437783451E+04 -0.32021565036E+03  0.16244969438E+04  0.46999998093E+01 0.  1.
       -5    1    3    3    0  502 -0.11082424216E+04 -0.11437783451E+04  0.90992581798E+03  0.18342347865E+04  0.46999998093E+01 0. -1.
</event>
<event>
 5   0  0.1268230E-06  0.3404269E+04  0.7818609E-02  0.8136859E-01
       -2   -1    0    0    0  501  0.00000000000E+00  0.00000000000E+00  0.13021997316E+04  0.13021997316E+04  0.25500000920E-02 0. -1.
        2   -1    0    0  501    0  0.00000000000E+00  0.00000000000E+00 -0.22248978956E+04  0.22248978956E+04  0.25500000920E-02 0.  1.
    10030    2    1    2    0    0  0.00000000000E+00  0.00000000000E+00 -0.92269816395E+03  0.35270976272E+04  0.34042687571E+04 0.  0.
        2    1    3    3  502    0  0.72881182092E+01 -0.13357237234E+04  0.63172870429E+03  0.14775967439E+04  0.25500000920E-02 0. -1.
       -2    1    3    3    0  502 -0.72881182092E+01  0.13357237234E+04 -0.15544268682E+04  0.20495008833E+04  0.25500000920E-02 0.  1.
</event>
<event>
 5   0  0.1277635E-06  0.3313727E+04  0.7818609E-02  0.8159411E-01
        2   -1    0    0  501    0  0.00000000000E+00  0.00000000000E+00  0.12554152368E+04  0.12554152368E+04  0.25500000920E-02 0.  1.
       -2   -1    0    0    0  501  0.00000000000E+00  0.00000000000E+00 -0.21866838468E+04  0.21866838468E+04  0.25500000920E-02 0. -1.
    10030    2    1    2    0    0  0.00000000000E+00  0.00000000000E+00 -0.93126861004E+03  0.34420990836E+04  0.33137267355E+04 0.  0.
        4    1    3    3  502    0  0.93958530654E+03 -0.97343408608E+03 -0.14591386865E+04  0.19898446642E+04  0.12699999809E+01 0. -1.
       -4    1    3    3    0  502 -0.93958530654E+03  0.97343408608E+03  0.52787007648E+03  0.14522544194E+04  0.12699999809E+01 0.  1.
</event>
<event>
 5   0  0.1256208E-06  0.3358575E+04  0.7818609E-02  0.8148149E-01
        2   -1    0    0  501    0  0.00000000000E+00  0.00000000000E+00  0.17577594983E+04  0.17577594983E+04  0.25500000920E-02 0. -1.
       -2   -1    0    0    0  501  0.00000000000E+00  0.00000000000E+00 -0.16043185233E+04  0.16043185234E+04  0.25500000920E-02 0.  1.
    10030    2    1    2    0    0  0.00000000000E+00  0.00000000000E+00  0.15344097491E+03  0.33620780216E+04  0.33585747707E+04 0.  0.
        3    1    3    3  502    0  0.25599398041E+02  0.12537771405E+04  0.11947532583E+04  0.17320646078E+04  0.10100000352E+00 0. -1.
       -3    1    3    3    0  502 -0.25599398041E+02 -0.12537771405E+04 -0.10413122834E+04  0.16300134138E+04  0.10100000352E+00 0.  1.
</event>
<event>
 5   0  0.4272633E-07  0.3403402E+04  0.7818609E-02  0.8137072E-01
        1   -1    0    0  501    0  0.00000000000E+00  0.00000000000E+00  0.13054486677E+04  0.13054486677E+04  0.50400001928E-02 0.  1.
       -1   -1    0    0    0  501  0.00000000000E+00  0.00000000000E+00 -0.22182311129E+04  0.22182311129E+04  0.50400001928E-02 0. -1.
    10030    2    1    2    0    0  0.00000000000E+00  0.00000000000E+00 -0.91278244521E+03  0.35236797807E+04  0.34034023277E+04 0.  0.
        1    1    3    3  502    0 -0.88656927621E+03 -0.12983000609E+04  0.21793154054E+03  0.15871617076E+04  0.50400001928E-02 0.  1.
       -1    1    3    3    0  502  0.88656927621E+03  0.12983000609E+04 -0.11307139857E+04  0.19365180731E+04  0.50400001928E-02 0. -1.
</event>
<event>
 5   0  0.4464951E-07  0.3441805E+04  0.7818609E-02  0.8127721E-01
       -1   -1    0    0    0  501  0.00000000000E+00  0.00000000000E+00  0.14275401759E+04  0.14275401759E+04  0.50400001928E-02 0.  1.
        1   -1    0    0  501    0  0.00000000000E+00  0.00000000000E+00 -0.20745518491E+04  0.20745518491E+04  0.50400001928E-02 0. -1.
    10030    2    1    2    0    0  0.00000000000E+00  0.00000000000E+00 -0.64701167326E+03  0.35020920250E+04  0.34418054051E+04 0.  0.
        3    1    3    3  502    0 -0.23209596390E+03 -0.15050367484E+04 -0.11391081840E+04  0.19017285861E+04  0.10100000352E+00 0. -1.
       -3    1    3    3    0  502  0.23209596390E+03  0.15050367484E+04  0.49209651070E+03  0.16003634389E+04  0.10100000352E+00 0.  1.
</event>
<event>
 5   0  0.4109937E-07  0.3395899E+04  0.7818609E-02  0.8138914E-01
        1   -1    0    0  501    0  0.00000000000E+00  0.00000000000E+00  0.13362753015E+04  0.13362753015E+04  0.50400001928E-02 0. -1.
       -1   -1    0    0    0  501  0.00000000000E+00  0.00000000000E+00 -0.21575141051E+04  0.21575141051E+04  0.50400001928E-02 0.  1.
    10030    2    1    2    0    0  0.00000000000E+00  0.00000000000E+00 -0.82123880361E+03  0.34937894066E+04  0.33958991806E+04 0.  0.
        5    1    3    3  502    0 -0.74816200837E+03 -0.94652521241E+03 -0.16397777563E+04  0.20358166786E+04  0.46999998093E+01 0.  1.
       -5    1    3    3    0  502  0.74816200837E+03  0.94652521241E+03  0.81853895272E+03  0.14579727280E+04  0.46999998093E+01 0. -1.
</event>
<event>
 5   0  0.4109937E-07  0.3372690E+04  0.7818609E-02  0.8144642E-01
       -1   -1    0    0    0  501  0.00000000000E+00  0.00000000000E+00  0.15800363092E+04  0.15800363092E+04  0.50400001928E-02 0. -1.
        1   -1    0    0  501    0  0.00000000000E+00  0.00000000000E+00 -0.17998058736E+04  0.17998058736E+04  0.50400001928E-02 0.  1.
    10030    2    1    2    0    0  0.00000000000E+00  0.00000000000E+00 -0.21976956438E+03  0.33798421827E+04  0.33726895082E+04 0.  0.
        5    1    3    3  502    0  0.79899521247E+03 -0.13458169936E+04 -0.73900579746E+03  0.17308288155E+04  0.46999998093E+01 0.  1.
       -5    1    3    3    0  502 -0.79899521247E+03  0.13458169936E+04  0.51923623308E+03  0.16490133673E+04  0.46999998093E+01 0. -1.
</event>
<event>
 5   0  0.1268230E-06  0.3385466E+04  0.7818609E-02  0.8141483E-01
       -2   -1    0    0    0  501  0.00000000000E+00  0.00000000000E+00  0.16462081677E+04  0.16462081677E+04  0.25500000920E-02 0. -1.
        2   -1    0    0  501    0  0.00000000000E+00  0.00000000000E+00 -0.17405730758E+04  0.17405730758E+04  0.25500000920E-02 0.  1.
    10030    2    1    2    0    0  0.00000000000E+00  0.00000000000E+00 -0.94364908097E+02  0.33867812435E+04  0.33854663571E+04 0.  0.
        2    1    3    3  502    0 -0.48849490960E+03  0.15786559236E+04 -0.41415433201E+03  0.17036154532E+04  0.25500000920E-02 0. -1.
       -2    1    3    3    0  502  0.48849490960E+03 -0.15786559236E+04  0.31978942391E+03  0.16831657902E+04  0.25500000920E-02 0.  1.
</event>
<event>
 5   0  0.1268230E-06  0.3287730E+04  0.7818609E-02  0.8166025E-01
        2   -1    0    0  501    0  0.00000000000E+00  0.00000000000E+00  0.16333433273E+04  0.16333433273E+04  0.25500000920E-02 0.  1.
       -2   -1    0    0    0  501  0.00000000000E+00  0.00000000000E+00 -0.16544542916E+04  0.16544542916E+04  0.25500000920E-02 0. -1.
    10030    2    1    2    0    0  0.00000000000E+00  0.00000000000E+00 -0.21110964223E+02  0.32877976189E+04  0.32877298414E+04 0.  0.
        2    1    3    3  502    0 -0.23960269112E+03 -0.21869050356E+03  0.16010164123E+04  0.16335508986E+04  0.25500000920E-02 0.  1.
       -2    1    3    3    0  502  0.23960269112E+03  0.21869050356E+03 -0.16221273765E+04  0.16542467203E+04  0.25500000920E-02 0. -1.
</event>
<event>
 5   0  0.4464951E-07  0.3323319E+04  0.7818609E-02  0.8156987E-01
       -1   -1    0    0    0  501  0.00000000000E+00  0.00000000000E+00  0.20311218086E+04  0.20311218086E+04  0.50400001928E-02 0.  1.
        1   -1    0    0  501    0  0.00000000000E+00  0.00000000000E+00 -0.13594026513E+04  0.13594026513E+04  0.50400001928E-02 0. -1.
    10030    2    1    2    0    0  0.00000000000E+00  0.00000000000E+00  0.67171915731E+03  0.33905244598E+04  0.33233190468E+04 0.  0.
        3    1    3    3  502    0  0.10066940206E+04  0.10545419123E+04 -0.47752122364E+03  0.15341179959E+04  0.10100000352E+00 0. -1.
       -3    1    3    3    0  502 -0.10066940206E+04 -0.10545419123E+04  0.11492403809E+04  0.18564064640E+04  0.10100000352E+00 0.  1.
</event>
<event>
 5   0  0.4272633E-07  0.3411352E+04  0.7818609E-02  0.8135126E-01
       -1   -1    0    0    0  501  0.00000000000E+00  0.00000000000E+00  0.17681086299E+04  0.17681086299E+04  0.50400001928E-02 0.  1.
        1   -1    0    0  501    0  0.00000000000E+00  0.00000000000E+00 -0.16454479311E+04  0.16454479311E+04  0.50400001928E-02 0. -1.
    10030    2    1    2    0    0  0.00000000000E+00  0.00000000000E+00  0.12266069876E+03  0.34135565611E+04  0.34113520411E+04 0.  0.
        1    1    3    3  502    0 -0.16294686636E+04  0.49850731503E+03 -0.13904794738E+02  0.17040748259E+04  0.50400001928E-02 0. -1.
       -1    1    3    3    0  502  0.16294686636E+04 -0.49850731503E+03  0.13656549350E+03  0.17094817352E+04  0.50400001928E-02 0.  1.
</event>
<event>
 5   0  0.1256208E-06  0.3402418E+04  0.7818609E-02  0.8137313E-01
        2   -1    0    0  501    0  0.00000000000E+00  0.00000000000E+00  0.19126562065E+04  0.19126562065E+04  0.25500000920E-02 0. -1.
       -2   -1    0    0    0  501  0.00000000000E+00  0.00000000000E+00 -0.15131374024E+04  0.15131374024E+04  0.25500000920E-02 0.  1.
    10030    2    1    2    0    0  0.00000000000E+00  0.00000000000E+00  0.39951880414E+03  0.34257936089E+04  0.34024177545E+04 0.  0.
        3    1    3    3  502    0 -0.25675760737E+03  0.65461774153E+03 -0.13599678715E+04  0.15310001562E+04  0.10100000352E+00 0.  1.
       -3    1    3    3    0  502  0.25675760737E+03 -0.65461774153E+03  0.17594866756E+04  0.18947934527E+04  0.10100000352E+00 0. -1.
</event>
<event>
 5   0  0.1269497E-06  0.3391361E+04  0.7818609E-02  0.8140030E-01
        2   -1    0    0  501    0  0.00000000000E+00  0.00000000000E+00  0.18333605424E+04  0.18333605424E+04  0.25500000920E-02 0.  1.
       -2   -1    0    0    0  501  0.00000000000E+00  0.00000000000E+00 -0.15683400989E+04  0.15683400989E+04  0.25500000920E-02 0. -1.
    10030    2    1    2    0    0  0.00000000000E+00  0.00000000000E+00  0.26502044348E+03  0.34017006414E+04  0.33913612927E+04 0.  0.
        5    1    3    3  502    0 -0.67469509268E+03  0.64435522384E+03  0.15527732612E+04  0.18115004867E+04  0.46999998093E+01 0.  1.
       -5    1    3    3    0  502  0.67469509268E+03 -0.64435522384E+03 -0.12877528177E+04  0.15902001547E+04  0.46999998093E+01 0. -1.
</event>
<event>
 5   0  0.4125758E-07  0.3444255E+04  0.7818609E-02  0.8127129E-01
       -1   -1    0    0    0  501  0.00000000000E+00  0.00000000000E+00  0.15298661840E+04  0.15298661840E+04  0.50400001928E-02 0.  1.
        1   -1    0    0  501    0  0.00000000000E+00  0.00000000000E+00 -0.19385505877E+04  0.19385505878E+04  0.50400001928E-02 0. -1.
    10030    2    1    2    0    0  0.00000000000E+00  0.00000000000E+00 -0.40868440379E+03  0.34684167717E+04  0.34442549209E+04 0.  0.
        2    1    3    3  502    0 -0.10067813135E+04  0.15298709787E+03  0.11941800478E+04  0.15694201642E+04  0.25500000920E-02 0.  1.
       -2    1    3    3    0  502  0.10067813135E+04 -0.15298709787E+03 -0.16028644516E+04  0.18989966075E+04  0.25500000920E-02 0. -1.
</event>
<event>
 5   0  0.4125758E-07  0.3409183E+04  0.7818609E-02  0.8135656E-01
        1   -1    0    0  501    0  0.00000000000E+00  0.00000000000E+00  0.23767327359E+04  0.23767327359E+04  0.50400001928E-02 0.  1.
       -1   -1    0    0    0  501  0.00000000000E+00  0.00000000000E+00 -0.12225322026E+04  0.12225322026E+04  0.50400001928E-02 0. -1.
    10030    2    1    2    0    0  0.00000000000E+00  0.00000000000E+00  0.11542005332E+04  0.35992649385E+04  0.34091830732E+04 0.  0.
        2    1    3    3  502    0 -0.75792320284E+02 -0.16367466330E+04  0.10733597452E+04  0.19587713392E+04  0.25500000920E-02 0.  1.
       -2    1    3    3    0  502  0.75792320284E+02  0.16367466330E+04  0.80840788030E+02  0.16404935993E+04  0.25500000920E-02 0. -1.
</event>
<event>
 5   0  0.4464951E-07  0.3399721E+04  0.7818609E-02  0.8137975E-01
       -1   -1    0    0    0  501  0.00000000000E+00  0.00000000000E+00  0.96182537628E+03  0.96182537629E+03  0.50400001928E-02 0. -1.
        1   -1    0    0  501    0  0.00000000000E+00  0.00000000000E+00 -0.30042096181E+04  0.30042096181E+04  0.50400001928E-02 0.  1.
    10030    2    1    2    0    0  0.00000000000E+00  0.00000000000E+00 -0.20423842418E+04  0.39660349944E+04  0.33997206040E+04 0.  0.
        3    1    3    3  502    0 -0.14427830047E+04 -0.23710473083E+03 -0.20326105147E+04  0.25038664035E+04  0.10100000352E+00 0.  1.
       -3    1    3    3    0  502  0.14427830047E+04  0.23710473083E+03 -0.97737271226E+01  0.14621685908E+04  0.10100000352E+00 0. -1.
</event>
<event>
 5   0  0.1256208E-06  0.3412476E+04  0.7818609E-02  0.8134851E-01
        2   -1    0    0  501    0  0.00000000000E+00  0.00000000000E+00  0.26025602920E+04  0.26025602920E+04  0.25500000920E-02 0.  1.
       -2   -1    0    0    0  501  0.00000000000E+00  0.00000000000E+00 -0.11186090400E+04  0.11186090400E+04  0.25500000920E-02 0. -1.
    10030    2    1    2    0    0  0.00000000000E+00  0.00000000000E+00  0.14839512520E+04  0.37211693320E+04  0.34124756232E+04 0.  0.
        3    1    3    3  502    0  0.95498563742E+03 -0.22690863248E+03  0.22638466923E+04  0.24674859577E+04  0.10100000352E+00 0. -1.
       -3    1    3    3    0  502 -0.95498563742E+03  0.22690863248E+03 -0.77989544023E+03  0.12536833743E+04  0.10100000352E+00 0.  1.
</event>
<event>
 5   0  0.4109937E-07  0.3295957E+04  0.7818609E-02  0.8163925E-01
        1   -1    0    0  501    0  0.00000000000E+00  0.00000000000E+00  0.18430867330E+04  0.18430867330E+04  0.50400001928E-02 0.  1.
       -1   -1    0    0    0  501  0.00000000000E+00  0.00000000000E+00 -0.14735246445E+04  0.14735246445E+04  0.50400001928E-02 0. -1.
    10030    2    1    2    0    0  0.00000000000E+00  0.00000000000E+00  0.36956208843E+03  0.33166113775E+04  0.32959573560E+04 0.  0.
        5    1    3    3  502    0 -0.32247736221E+03 -0.48757726665E+02  0.18102807002E+04  0.18394312351E+04  0.46999998093E+01 0.  1.
       -5    1    3    3    0  502  0.32247736221E+03  0.48757726665E+02 -0.14407186118E+04  0.14771801425E+04  0.46999998093E+01 0. -1.
</event>
<event>
 5   0  0.4289684E-07  0.3482755E+04  0.7818609E-02  0.8117889E-01
        1   -1    0    0  501    0  0.00000000000E+00  0.00000000000E+00  0.27574560806E+04  0.27574560806E+04  0.50400001928E-02 0.  1.
       -1   -1    0    0    0  501  0.00000000000E+00  0.00000000000E+00 -0.10997074489E+04  0.10997074489E+04  0.50400001928E-02 0. -1.
    10030    2    1    2    0    0  0.00000000000E+00  0.00000000000E+00  0.16577486317E+04  0.38571635295E+04  0.34827546522E+04 0.  0.
        4    1    3    3  502    0  0.88119527564E+03 -0.45481901479E+03 -0.75645360950E+03  0.12472325871E+04  0.12699999809E+01 0. -1.
       -4    1    3    3    0  502 -0.88119527564E+03  0.45481901479E+03  0.24142022412E+04  0.26099309424E+04  0.12699999809E+01 0.  1.
</event>
<event>
 5   0  0.1256208E-06  0.3340230E+04  0.7818609E-02  0.8152734E-01
       -2   -1    0    0    0  501  0.00000000000E+00  0.00000000000E+00  0.22132602958E+04  0.22132602958E+04  0.25500000920E-02 0.  1.
        2   -1    0    0  501    0  0.00000000000E+00  0.00000000000E+00 -0.12602603534E+04  0.12602603534E+04  0.25500000920E-02 0. -1.
    10030    2    1    2    0    0  0.00000000000E+00  0.00000000000E+00  0.95299994236E+03  0.34735206492E+04  0.33402300535E+04 0.  0.
        3    1    3    3  502    0  0.92022538848E+02  0.16494720274E+04  0.22165315512E+03  0.16668401987E+04  0.10100000352E+00 0. -1.
       -3    1    3    3    0  502 -0.92022538848E+02 -0.16494720274E+04  0.73134678724E+03  0.18066804505E+04  0.10100000352E+00 0.  1.
</event>
<event>
 5   0  0.1269497E-06  0.3254900E+04  0.7818609E-02  0.8174467E-01
        2   -1    0    0  501    0  0.00000000000E+00  0.00000000000E+00  0.22581732179E+04  0.22581732179E+04  0.25500000920E-02 0.  1.
       -2   -1    0    0    0  501  0.00000000000E+00  0.00000000000E+00 -0.11728918225E+04  0.11728918225E+04  0.25500000920E-02 0. -1.
    10030    2    1    2    0    0  0.00000000000E+00  0.00000000000E+00  0.10852813954E+04  0.34310650404E+04  0.32548996305E+04 0.  0.
        5    1    3    3  502    0  0.23625609498E+03 -0.12555975209E+04  0.16052829620E+04  0.20516572704E+04  0.46999998093E+01 0.  1.
       -5    1    3    3    0  502 -0.23625609498E+03  0.12555975209E+04 -0.52000156663E+03  0.13794077701E+04  0.46999998093E+01 0. -1.
</event>
<event>
 5   0  0.1269497E-06  0.3420109E+04  0.7818609E-02  0.8132988E-01
        2   -1    0    0  501    0  0.00000000000E+00  0.00000000000E+00  0.23362743956E+04  0.23362743956E+04  0.25500000920E-02 0. -1.
       -2   -1    0    0    0  501  0.00000000000E+00  0.00000000000E+00 -0.12516879480E+04  0.12516879480E+04  0.25500000920E-02 0.  1.
    10030    2    1    2    0    0  0.00000000000E+00  0.00000000000E+00  0.10845864476E+04  0.35879623436E+04  0.34201090651E+04 0.  0.
        5    1    3    3  502    0 -0.11514177012E+04  0.57854714790E+03  0.17216480806E+04  0.21504822084E+04  0.46999998093E+01 0. -1.
       -5    1    3    3    0  502  0.11514177012E+04 -0.57854714790E+03 -0.63706163305E+03  0.14374801353E+04  0.46999998093E+01 0.  1.
</event>
<event>
 5   0  0.1269497E-06  0.3400923E+04  0.7818609E-02  0.8137680E-01
       -2   -1    0    0    0  501  0.00000000000E+00  0.00000000000E+00  0.11018889888E+04  0.11018889888E+04  0.25500000920E-02 0. -1.
        2   -1    0    0  501    0  0.00000000000E+00  0.00000000000E+00 -0.26241935924E+04  0.26241935924E+04  0.25500000920E-02 0.  1.
    10030    2    1    2    0    0  0.00000000000E+00  0.00000000000E+00 -0.15223046035E+04  0.37260825812E+04  0.34009234181E+04 0.  0.
        5    1    3    3  502    0  0.16950656679E+04 -0.10068145616E+03 -0.86014323400E+03  0.19034843964E+04  0.46999998093E+01 0.  1.
       -5    1    3    3    0  502 -0.16950656679E+04  0.10068145616E+03 -0.66216136954E+03  0.18225981849E+04  0.46999998093E+01 0. -1.
</event>
<event>
 5   0  0.1268230E-06  0.3274154E+04  0.7818609E-02  0.8169503E-01
       -2   -1    0    0    0  501  0.00000000000E+00  0.00000000000E+00  0.84917185348E+03  0.84917185349E+03  0.25500000920E-02 0. -1.
        2   -1    0    0  501    0  0.00000000000E+00  0.00000000000E+00 -0.31560414224E+04  0.31560414224E+04  0.25500000920E-02 0.  1.
    10030    2    1    2    0    0  0.00000000000E+00  0.00000000000E+00 -0.23068695689E+04  0.40052132759E+04  0.32741542690E+04 0.  0.
        2    1    3    3  502    0  0.15337876734E+03 -0.15970400786E+04 -0.75523920995E+03  0.17732592374E+04  0.25500000920E-02 0.  1.
       -2    1    3    3    0  502 -0.15337876734E+03  0.15970400786E+04 -0.15516303590E+04  0.22319540385E+04  0.25500000920E-02 0. -1.
</event>
<event>
 5   0  0.1277635E-06  0.3387862E+04  0.7818609E-02  0.8140892E-01
        2   -1    0    0  501    0  0.00000000000E+00  0.00000000000E+00  0.16686902389E+04  0.16686902389E+04  0.25500000920E-02 0.  1.
       -2   -1    0    0    0  501  0.00000000000E+00  0.00000000000E+00 -0.17195538942E+04  0.17195538942E+04  0.25500000920E-02 0. -1.
    10030    2    1    2    0    0  0.00000000000E+00  0.00000000000E+00 -0.50863655308E+02  0.33882441331E+04  0.33878623340E+04 0.  0.
        4    1    3    3  502    0  0.49411063676E+03 -0.31185904976E+03 -0.16155795004E+04  0.17179930510E+04  0.12699999809E+01 0. -1.
       -4    1    3    3    0  502 -0.49411063676E+03  0.31185904976E+03  0.15647158451E+04  0.16702510821E+04  0.12699999809E+01 0.  1.
</event>
<event>
 5   0  0.1256208E-06  0.3374732E+04  0.7818609E-02  0.8144136E-01
        2   -1    0    0  501    0  0.00000000000E+00  0.00000000000E+00  0.30962586932E+04  0.30962586932E+04  0.25500000920E-02 0. -1.
       -2   -1    0    0    0  501  0.00000000000E+00  0.00000000000E+00 -0.91956248964E+03  0.91956248964E+03  0.25500000920E-02 0.  1.
    10030    2    1    2    0    0  0.00000000000E+00  0.00000000000E+00  0.21766962035E+04  0.40158211828E+04  0.33747316056E+04 0.  0.
        3    1    3    3  502    0 -0.15922453514E+04  0.54672361744E+03  0.12242930796E+04  0.20815968697E+04  0.10100000352E+00 0. -1.
       -3    1    3    3    0  502  0.15922453514E+04 -0.54672361744E+03  0.95240312392E+03  0.19342243131E+04  0.10100000352E+00 0.  1.
</event>
<event>
 5   0  0.1269497E-06  0.3386230E+04  0.7818609E-02  0.8141294E-01
        2   -1    0    0  501    0  0.00000000000E+00  0.00000000000E+00  0.16498227828E+04  0.16498227828E+04  0.25500000920E-02 0.  1.
       -2   -1    0    0    0  501  0.00000000000E+00  0.00000000000E+00 -0.17375435327E+04  0.17375435327E+04  0.25500000920E-02 0. -1.
    10030    2    1    2    0    0  0.00000000000E+00  0.00000000000E+00 -0.87720749818E+02  0.33873663155E+04  0.33862302972E+04 0.  0.
        5    1    3    3  502    0 -0.32852835117E+03  0.12207487278E+04  0.10827760857E+04  0.16645072772E+04  0.46999998093E+01 0.  1.
       -5    1    3    3    0  502  0.32852835117E+03 -0.12207487278E+04 -0.11704968355E+04  0.17228590383E+04  0.46999998093E+01 0. -1.
</event>
<event>
 5   0  0.1300176E-06  0.3432722E+04  0.7818609E-02  0.8129922E-01
       -2   -1    0    0    0  501  0.00000000000E+00  0.00000000000E+00  0.11341366207E+04  0.11341366207E+04  0.25500000920E-02 0. -1.
        2   -1    0    0  501    0  0.00000000000E+00  0.00000000000E+00 -0.25974776382E+04  0.25974776382E+04  0.25500000920E-02 0.  1.
    10030    2    1    2    0    0  0.00000000000E+00  0.00000000000E+00 -0.14633410174E+04  0.37316142589E+04  0.34327216671E+04 0.  0.
        1    1    3    3  502    0 -0.16571304348E+04 -0.44064606088E+03 -0.65000051694E+03  0.18337804942E+04  0.50400001928E-02 0.  1.
       -1    1    3    3    0  502  0.16571304348E+04  0.44064606088E+03 -0.81334050049E+03  0.18978337647E+04  0.50400001928E-02 0. -1.
</event>
<event>
 5   0  0.1300176E-06  0.3481053E+04  0.7818609E-02  0.8118295E-01
       -2   -1    0    0    0  501  0.00000000000E+00  0.00000000000E+00  0.14130597958E+04  0.14130597958E+04  0.25500000920E-02 0. -1.
        2   -1    0    0  501    0  0.00000000000E+00  0.00000000000E+00 -0.21438811604E+04  0.21438811604E+04  0.25500000920E-02 0.  1.
    10030    2    1    2    0    0  0.00000000000E+00  0.00000000000E+00 -0.73082136461E+03  0.35569409562E+04  0.34810528721E+04 0.  0.
        1    1    3    3  502    0 -0.19419163206E+03 -0.58991209757E+03  0.12959893894E+04  0.14371134855E+04  0.50400001928E-02 0. -1.
       -1    1    3    3    0  502  0.19419163206E+03  0.58991209757E+03 -0.20268107540E+04  0.21198274706E+04  0.50400001928E-02 0.  1.
</event>
<event>
 5   0  0.4125758E-07  0.3360678E+04  0.7818609E-02  0.8147625E-01
       -1   -1    0    0    0  501  0.00000000000E+00  0.00000000000E+00  0.12084091893E+04  0.12084091893E+04  0.50400001928E-02 0.  1.
        1   -1    0    0  501    0  0.00000000000E+00  0.00000000000E+00 -0.23365760000E+04  0.23365760000E+04  0.50400001928E-02 0. -1.
    10030    2    1    2    0    0  0.00000000000E+00  0.00000000000E+00 -0.11281668107E+04  0.35449851893E+04  0.33606784493E+04 0.  0.
        2    1    3    3  502    0 -0.13040317198E+04  0.41194885216E+03  0.46585491840E+03  0.14447219068E+04  0.25500000920E-02 0.  1.
       -2    1    3    3    0  502  0.13040317198E+04 -0.41194885216E+03 -0.15940217291E+04  0.21002632825E+04  0.25500000920E-02 0. -1.
</event>
<event>
 5   0  0.1256208E-06  0.3384844E+04  0.7818609E-02  0.8141636E-01
       -2   -1    0    0    0  501  0.00000000000E+00  0.00000000000E+00  0.28694492800E+04  0.28694492800E+04  0.25500000920E-02 0. -1.
        2   -1    0    0  501    0  0.00000000000E+00  0.00000000000E+00 -0.99820261405E+03  0.99820261406E+03  0.25500000920E-02 0.  1.
    10030    2    1    2    0    0  0.00000000000E+00  0.00000000000E+00  0.18712466659E+04  0.38676518940E+04  0.33848437318E+04 0.  0.
        3    1    3    3  502    0 -0.37237895489E+03 -0.13665842634E+04 -0.12282802842E+03  0.14217261937E+04  0.10100000352E+00 0.  1.
       -3    1    3    3    0  502  0.37237895489E+03  0.13665842634E+04  0.19940746943E+04  0.24459257004E+04  0.10100000352E+00 0. -1.
</event>
<event>
 5   0  0.4289684E-07  0.3353848E+04  0.7818609E-02  0.8149327E-01
        1   -1    0    0  501    0  0.00000000000E+00  0.00000000000E+00  0.18223193260E+04  0.18223193260E+04  0.50400001928E-02 0.  1.
       -1   -1    0    0    0  501  0.00000000000E+00  0.00000000000E+00 -0.15431294074E+04  0.15431294074E+04  0.50400001928E-02 0. -1.
    10030    2    1    2    0    0  0.00000000000E+00  0.00000000000E+00  0.27918991858E+03  0.33654487335E+04  0.33538482624E+04 0.  0.
        4    1    3    3  502    0  0.88319374122E+03 -0.69260195991E+03 -0.11106456196E+04  0.15790072719E+04  0.12699999809E+01 0. -1.
       -4    1    3    3    0  502 -0.88319374122E+03  0.69260195991E+03  0.13898355382E+04  0.17864414616E+04  0.12699999809E+01 0.  1.
</event>
<event>
 5   0  0.4272633E-07  0.3310247E+04  0.7818609E-02  0.8160293E-01
        1   -1    0    0  501    0  0.00000000000E+00  0.00000000000E+00  0.15074557687E+04  0.15074557687E+04  0.50400001928E-02 0. -1.
       -1   -1    0    0    0  501  0.00000000000E+00  0.00000000000E+00 -0.18172568624E+04  0.18172568625E+04  0.50400001928E-02 0.  1.
    10030    2    1    2    0    0  0.00000000000E+00  0.00000000000E+00 -0.30980109378E+03  0.33247126311E+04  0.33102473264E+04 0.  0.
        1    1    3    3  502    0 -0.12750353926E+04 -0.18381386666E+03  0.88883814817E+03  0.15650993718E+04  0.50400001928E-02 0.  1.
       -1    1    3    3    0  502  0.12750353926E+04  0.18381386666E+03 -0.11986392419E+04  0.17596132593E+04  0.50400001928E-02 0. -1.
</event>
<event>
 5   0  0.4109937E-07  0.3398942E+04  0.7818609E-02  0.8138166E-01
       -1   -1    0    0    0  501  0.00000000000E+00  0.00000000000E+00  0.14812562911E+04  0.14812562911E+04  0.50400001928E-02 0. -1.
        1   -1    0    0  501    0  0.00000000000E+00  0.00000000000E+00 -0.19498320719E+04  0.19498320719E+04  0.50400001928E-02 0.  1.
    10030    2    1    2    0    0  0.00000000000E+00  0.00000000000E+00 -0.46857578081E+03  0.34310883631E+04  0.33989416136E+04 0.  0.
        5    1    3    3  502    0 -0.33418229776E+03 -0.16378827234E+04  0.74944678301E+02  0.16733130068E+04  0.46999998093E+01 0. -1.
       -5    1    3    3    0  502  0.33418229776E+03  0.16378827234E+04 -0.54352045911E+03  0.17577753563E+04  0.46999998093E+01 0.  1.
</event>
<event>
 5   0  0.1277635E-06  0.3467308E+04  0.7818609E-02  0.8121581E-01
       -2   -1    0    0    0  501  0.00000000000E+00  0.00000000000E+00  0.14215537106E+04  0.14215537106E+04  0.25500000920E-02 0. -1.
        2   -1    0    0  501    0  0.00000000000E+00  0.00000000000E+00 -0.21142756752E+04  0.21142756752E+04  0.25500000920E-02 0.  1.
    10030    2    1    2    0    0  0.00000000000E+00  0.00000000000E+00 -0.69272196459E+03  0.35358293858E+04  0.34673081382E+04 0.  0.
        4    1    3    3  502    0  0.58386217714E+03  0.28101288514E+03  0.12934251858E+04  0.14466560088E+04  0.12699999809E+01 0. -1.
       -4    1    3    3    0  502 -0.58386217714E+03 -0.28101288514E+03 -0.19861471504E+04  0.20891733771E+04  0.12699999809E+01 0.  1.
</event>
<event>
 5   0  0.4125758E-07  0.3298809E+04  0.7818609E-02  0.8163198E-01
        1   -1    0    0  501    0  0.00000000000E+00  0.00000000000E+00  0.25917167113E+04  0.25917167113E+04  0.50400001928E-02 0. -1.
       -1   -1    0    0    0  501  0.00000000000E+00  0.00000000000E+00 -0.10497039630E+04  0.10497039631E+04  0.50400001928E-02 0.  1.
    10030    2    1    2    0    0  0.00000000000E+00  0.00000000000E+00  0.15420127482E+04  0.36414206743E+04  0.32988090596E+04 0.  0.
        2    1    3    3  502    0  0.10214773401E+04 -0.14013985045E+02 -0.65844777583E+03  0.12153871078E+04  0.25500000920E-02 0.  1.
       -2    1    3    3    0  502 -0.10214773401E+04  0.14013985045E+02  0.22004605241E+04  0.24260335666E+04  0.25500000920E-02 0. -1.
</event>
<event>
 5   0  0.1268230E-06  0.3425894E+04  0.7818609E-02  0.8131580E-01
       -2   -1    0    0    0  501  0.00000000000E+00  0.00000000000E+00  0.16052745849E+04  0.16052745849E+04  0.25500000920E-02 0.  1.
        2   -1    0    0  501    0  0.00000000000E+00  0.00000000000E+00 -0.18278417703E+04  0.18278417703E+04  0.25500000920E-02 0. -1.
    10030    2    1    2    0    0  0.00000000000E+00  0.00000000000E+00 -0.22256718540E+03  0.34331163551E+04  0.34258943001E+04 0.  0.
        2    1    3    3  502    0 -0.91416485005E+03 -0.69938761825E+03  0.11599913342E+04  0.16341420713E+04  0.25500000920E-02 0.  1.
       -2    1    3    3    0  502  0.91416485005E+03  0.69938761825E+03 -0.13825585196E+04  0.17989742838E+04  0.25500000920E-02 0. -1.
</event>
<event>
 5   0  0.1300176E-06  0.3412725E+04  0.7818609E-02  0.8134790E-01
       -2   -1    0    0    0  501  0.00000000000E+00  0.00000000000E+00  0.18220137637E+04  0.18220137637E+04  0.25500000920E-02 0. -1.
        2   -1    0    0  501    0  0.00000000000E+00  0.00000000000E+00 -0.15980517690E+04  0.15980517690E+04  0.25500000920E-02 0.  1.
    10030    2    1    2    0    0  0.00000000000E+00  0.00000000000E+00  0.22396199471E+03  0.34200655327E+04  0.34127246114E+04 0.  0.
        1    1    3    3  502    0 -0.41511249137E+03 -0.14369175289E+04  0.93510149747E+03  0.17639345724E+04  0.50400001928E-02 0. -1.
       -1    1    3    3    0  502  0.41511249137E+03  0.14369175289E+04 -0.71113950276E+03  0.16561309603E+04  0.50400001928E-02 0.  1.
</event>
<event>
 5   0  0.1269497E-06  0.3401750E+04  0.7818609E-02  0.8137477E-01
        2   -1    0    0  501    0  0.00000000000E+00  0.00000000000E+00  0.14926144175E+04  0.14926144175E+04  0.25500000920E-02 0. -1.
       -2   -1    0    0    0  501  0.00000000000E+00  0.00000000000E+00 -0.19381936693E+04  0.19381936693E+04  0.25500000920E-02 0.  1.
    10030    2    1    2    0    0  0.00000000000E+00  0.00000000000E+00 -0.44557925180E+03  0.34308080868E+04  0.34017500288E+04 0.  0.
        5    1    3    3  502    0 -0.81917710280E+02  0.54842553350E+03  0.13988860468E+04  0.15047874730E+04  0.46999998093E+01 0. -1.
       -5    1    3    3    0  502  0.81917710280E+02 -0.54842553350E+03 -0.18444652986E+04  0.19260206138E+04  0.46999998093E+01 0.  1.
</event>
<event>
 5   0  0.4125758E-07  0.3399835E+04  0.7818609E-02  0.8137947E-01
        1   -1    0    0  501    0  0.00000000000E+00  0.00000000000E+00  0.24552535700E+04  0.24552535700E+04  0.50400001928E-02 0. -1.
       -1   -1    0    0    0  501  0.00000000000E+00  0.00000000000E+00 -0.11769534580E+04  0.11769534580E+04  0.50400001928E-02 0.  1.
    10030    2    1    2    0    0  0.00000000000E+00  0.00000000000E+00  0.12783001120E+04  0.36322070281E+04  0.33998348075E+04 0.  0.
        2    1    3    3  502    0  0.59341595340E+03 -0.33850817405E+03 -0.10238355531E+04  0.12308409797E+04  0.25500000920E-02 0.  1.
       -2    1    3    3    0  502 -0.59341595340E+03  0.33850817405E+03  0.23021356651E+04  0.24013660483E+04  0.25500000920E-02 0. -1.
</event>
<event>
 5   0  0.4289684E-07  0.3390283E+04  0.7818609E-02  0.8140295E-01
       -1   -1    0    0    0  501  0.00000000000E+00  0.00000000000E+00  0.13823261324E+04  0.13823261324E+04  0.50400001928E-02 0.  1.
        1   -1    0    0  501    0  0.00000000000E+00  0.00000000000E+00 -0.20787455377E+04  0.20787455377E+04  0.50400001928E-02 0. -1.
    10030    2    1    2    0    0  0.00000000000E+00  0.00000000000E+00 -0.69641940531E+03  0.34610716701E+04  0.33902827489E+04 0.  0.
        4    1    3    3  502    0 -0.63062287543E+03 -0.11535481280E+04  0.74424831490E+03  0.15107169363E+04  0.12699999809E+01 0.  1.
       -4    1    3    3    0  502  0.63062287543E+03  0.11535481280E+04 -0.14406677202E+04  0.19503547338E+04  0.12699999809E+01 0. -1.
</event>
<event>
 5   0  0.1277635E-06  0.3391311E+04  0.7818609E-02  0.8140042E-01
       -2   -1    0    0    0  501  0.00000000000E+00  0.00000000000E+00  0.17225436392E+04  0.17225436392E+04  0.25500000920E-02 0.  1.
        2   -1    0    0  501    0  0.00000000000E+00  0.00000000000E+00 -0.16691872198E+04  0.16691872198E+04  0.25500000920E-02 0. -1.
    10030    2    1    2    0    0  0.00000000000E+00  0.00000000000E+00  0.53356419410E+02  0.33917308591E+04  0.33913111495E+04 0.  0.
        4    1    3    3  502    0 -0.10410880499E+03 -0.89099046834E+03 -0.14124382175E+04  0.16732262218E+04  0.12699999809E+01 0. -1.
       -4    1    3    3    0  502  0.10410880499E+03  0.89099046834E+03  0.14657946369E+04  0.17185046373E+04  0.12699999809E+01 0.  1.
</event>
<event>
 5   0  0.1256208E-06  0.3398637E+04  0.7818609E-02  0.8138241E-01
        2   -1    0    0  501    0  0.00000000000E+00  0.00000000000E+00  0.18253457382E+04  0.18253457382E+04  0.25500000920E-02 0.  1.
       -2   -1    0    0    0  501  0.00000000000E+00  0.00000000000E+00 -0.15819921512E+04  0.15819921512E+04  0.25500000920E-02 0. -1.
    10030    2    1    2    0    0  0.00000000000E+00  0.00000000000E+00  0.24335358701E+03  0.34073378894E+04  0.33986365685E+04 0.  0.
        3    1    3    3  502    0 -0.16295485414E+04  0.37145009557E+03 -0.18615817889E+03  0.16816832341E+04  0.10100000352E+00 0. -1.
       -3    1    3    3    0  502  0.16295485414E+04 -0.37145009557E+03  0.42951176590E+03  0.17256546553E+04  0.10100000352E+00 0.  1.
</event>
<event>
 5   0  0.4272633E-07  0.3400039E+04  0.7818609E-02  0.8137897E-01
        1   -1    0    0  501    0  0.00000000000E+00  0.00000000000E+00  0.16360466349E+04  0.16360466349E+04  0.50400001928E-02 0.  1.
       -1   -1    0    0    0  501  0.00000000000E+00  0.00000000000E+00 -0.17664935557E+04  0.17664935557E+04  0.50400001928E-02 0. -1.
    10030    2    1    2    0    0  0.00000000000E+00  0.00000000000E+00 -0.13044692077E+03  0.34025401906E+04  0.34000387276E+04 0.  0.
        1    1    3    3  502    0  0.13936374335E+04  0.78045988462E+03 -0.64765070978E+03  0.17235992485E+04  0.50400001928E-02 0. -1.
       -1    1    3    3    0  502 -0.13936374335E+04 -0.78045988462E+03  0.51720378901E+03  0.16789409421E+04  0.50400001928E-02 0.  1.
</event>
<event>
 5   0  0.4464951E-07  0.3394350E+04  0.7818609E-02  0.8139294E-01
        1   -1    0    0  501    0  0.00000000000E+00  0.00000000000E+00  0.16101007090E+04  0.16101007090E+04  0.50400001928E-02 0.  1.
       -1   -1    0    0    0  501  0.00000000000E+00  0.00000000000E+00 -0.17889582571E+04  0.17889582571E+04  0.50400001928E-02 0. -1.
    10030    2    1    2    0    0  0.00000000000E+00  0.00000000000E+00 -0.17885754817E+03  0.33990589661E+04  0.33943499868E+04 0.  0.
        3    1    3    3  502    0 -0.10095626491E+04 -0.11749115176E+04 -0.78376586659E+03  0.17360653099E+04  0.10100000352E+00 0. -1.
       -3    1    3    3    0  502  0.10095626491E+04  0.11749115176E+04  0.60490831842E+03  0.16629936562E+04  0.10100000352E+00 0.  1.
</event>
<event>
 5   0  0.4125758E-07  0.3380121E+04  0.7818609E-02  0.8142803E-01
       -1   -1    0    0    0  501  0.00000000000E+00  0.00000000000E+00  0.95154109846E+03  0.95154109847E+03  0.50400001928E-02 0. -1.
        1   -1    0    0  501    0  0.00000000000E+00  0.00000000000E+00 -0.30017666193E+04  0.30017666193E+04  0.50400001928E-02 0.  1.
    10030    2    1    2    0    0  0.00000000000E+00  0.00000000000E+00 -0.20502255208E+04  0.39533077178E+04  0.33801208891E+04 0.  0.
        2    1    3    3  502    0  0.10092095565E+04  0.94535073011E+03  0.11131080866E+03  0.13872930577E+04  0.25500000920E-02 0. -1.
       -2    1    3    3    0  502 -0.10092095565E+04 -0.94535073011E+03 -0.21615363295E+04  0.25660146600E+04  0.25500000920E-02 0.  1.
</event>
<event>
 5   0  0.4125758E-07  0.3412016E+04  0.7818609E-02  0.8134963E-01
        1   -1    0    0  501    0  0.00000000000E+00  0.00000000000E+00  0.25571998256E+04  0.25571998256E+04  0.50400001928E-02 0.  1.
       -1   -1    0    0    0  501  0.00000000000E+00  0.00000000000E+00 -0.11381448878E+04  0.11381448878E+04  0.50400001928E-02 0. -1.
    10030    2    1    2    0    0  0.00000000000E+00  0.00000000000E+00  0.14190549378E+04  0.36953447134E+04  0.34120163590E+04 0.  0.
        2    1    3    3  502    0  0.63703523234E+03 -0.15594960879E+04  0.41766525348E+03  0.17355939039E+04  0.25500000920E-02 0. -1.
       -2    1    3    3    0  502 -0.63703523234E+03  0.15594960879E+04  0.10013896843E+04  0.19597508095E+04  0.25500000920E-02 0.  1.
</event>
<event>
 5   0  0.1269497E-06  0.3166700E+04  0.7818609E-02  0.8197667E-01
       -2   -1    0    0    0  501  0.00000000000E+00  0.00000000000E+00  0.15478873323E+04  0.15478873323E+04  0.25500000920E-02 0. -1.
        2   -1    0    0  501    0  0.00000000000E+00  0.00000000000E+00 -0.16196246768E+04  0.16196246768E+04  0.25500000920E-02 0.  1.
    10030    2    1    2    0    0  0.00000000000E+00  0.00000000000E+00 -0.71737344428E+02  0.31675120091E+04  0.31666995565E+04 0.  0.
        5    1    3    3  502    0  0.29535807774E+03  0.75721675704E+03 -0.13950258928E+04  0.16145379967E+04  0.46999998093E+01 0.  1.
       -5    1    3    3    0  502 -0.29535807774E+03 -0.75721675704E+03  0.13232885483E+04  0.15529740125E+04  0.46999998093E+01 0. -1.
</event>
<event>
 5   0  0.4109937E-07  0.3391045E+04  0.7818609E-02  0.8140108E-01
       -1   -1    0    0    0  501  0.00000000000E+00  0.00000000000E+00  0.17370617941E+04  0.17370617941E+04  0.50400001928E-02 0.  1.
        1   -1    0    0  501    0  0.00000000000E+00  0.00000000000E+00 -0.16549763046E+04  0.16549763046E+04  0.50400001928E-02 0. -1.
    10030    2    1    2    0    0  0.00000000000E+00  0.00000000000E+00  0.82085489495E+02  0.33920380987E+04  0.33910447410E+04 0.  0.
        5    1    3    3  502    0  0.65788454279E+03  0.26335299400E+03  0.15818209227E+04  0.17333050489E+04  0.46999998093E+01 0.  1.
       -5    1    3    3    0  502 -0.65788454279E+03 -0.26335299400E+03 -0.14997354332E+04  0.16587330498E+04  0.46999998093E+01 0. -1.
</event>
<event>
 5   0  0.4464951E-07  0.3382909E+04  0.7818609E-02  0.8142114E-01
       -1   -1    0    0    0  501  0.00000000000E+00  0.00000000000E+00  0.29810849968E+04  0.29810849968E+04  0.50400001928E-02 0. -1.
        1   -1    0    0  501    0  0.00000000000E+00  0.00000000000E+00 -0.95972357267E+03  0.95972357268E+03  0.50400001928E-02 0.  1.
    10030    2    1    2    0    0  0.00000000000E+00  0.00000000000E+00  0.20213614241E+04  0.39408085695E+04  0.33829085377E+04 0.  0.
        3    1    3    3  502    0 -0.21208251212E+03  0.13681549292E+04 -0.12126324724E+03  0.13897955560E+04  0.10100000352E+00 0.  1.
       -3    1    3    3    0  502  0.21208251212E+03 -0.13681549292E+04  0.21426246714E+04  0.25510130134E+04  0.10100000352E+00 0. -1.
</event>
<event>
 5   0  0.4109937E-07  0.3387568E+04  0.7818609E-02  0.8140964E-01
       -1   -1    0    0    0  501  0.00000000000E+00  0.00000000000E+00  0.14415525346E+04  0.14415525346E+04  0.50400001928E-02 0.  1.
        1   -1    0    0  501    0  0.00000000000E+00  0.00000000000E+00 -0.19901490817E+04  0.19901490817E+04  0.50400001928E-02 0. -1.
    10030    2    1    2    0    0  0.00000000000E+00  0.00000000000E+00 -0.54859654704E+03  0.34317016163E+04  0.33875681266E+04 0.  0.
        5    1    3    3  502    0  0.14953735677E+04  0.24908069479E+03 -0.10395865516E+04  0.18381908464E+04  0.46999998093E+01 0. -1.
       -5    1    3    3    0  502 -0.14953735677E+04 -0.24908069479E+03  0.49099000460E+03  0.15935107700E+04  0.46999998093E+01 0.  1.
</event>
<event>
 5   0  0.4272633E-07  0.3417582E+04  0.7818609E-02  0.8133605E-01
        1   -1    0    0  501    0  0.00000000000E+00  0.00000000000E+00  0.23821954240E+04  0.23821954240E+04  0.50400001928E-02 0.  1.
       -1   -1    0    0    0  501  0.00000000000E+00  0.00000000000E+00 -0.12257459726E+04  0.12257459727E+04  0.50400001928E-02 0. -1.
    10030    2    1    2    0    0  0.00000000000E+00  0.00000000000E+00  0.11564494514E+04  0.36079413967E+04  0.34175818627E+04 0.  0.
        1    1    3    3  502    0  0.13154596667E+04  0.53139267807E+02 -0.57181430692E+03  0.14353499637E+04  0.50400001928E-02 0. -1.
       -1    1    3    3    0  502 -0.13154596667E+04 -0.53139267807E+02  0.17282637583E+04  0.21725914330E+04  0.50400001928E-02 0.  1.
</event>
<event>
 5   0  0.1268230E-06  0.3402419E+04  0.7818609E-02  0.8137313E-01
        2   -1    0    0  501    0  0.00000000000E+00  0.00000000000E+00  0.11885917352E+04  0.11885917352E+04  0.25500000920E-02 0.  1.
       -2   -1    0    0    0  501  0.00000000000E+00  0.00000000000E+00 -0.24349093226E+04  0.24349093226E+04  0.25500000920E-02 0. -1.
    10030    2    1    2    0    0  0.00000000000E+00  0.00000000000E+00 -0.12463175874E+04  0.36235010578E+04  0.34024186085E+04 0.  0.
        2    1    3    3  502    0 -0.29184525899E+03 -0.26185149294E+03  0.11398135776E+04  0.12053691763E+04  0.25500000920E-02 0.  1.
       -2    1    3    3    0  502  0.29184525899E+03  0.26185149294E+03 -0.23861311650E+04  0.24181318815E+04  0.25500000920E-02 0. -1.
</event>
<event>
 5   0  0.1300176E-06  0.3416466E+04  0.7818609E-02  0.8133877E-01
        2   -1    0    0  501    0  0.00000000000E+00  0.00000000000E+00  0.19740866884E+04  0.19740866884E+04  0.25500000920E-02 0. -1.
       -2   -1    0    0    0  501  0.00000000000E+00  0.00000000000E+00 -0.14781823180E+04  0.14781823180E+04  0.25500000920E-02 0.  1.
    10030    2    1    2    0    0  0.00000000000E+00  0.00000000000E+00  0.49590437038E+03  0.34522690064E+04  0.34164660320E+04 0.  0.
        1    1    3    3  502    0  0.15741583241E+04 -0.28239893579E+03 -0.35861878158E+03  0.16390030564E+04  0.50400001928E-02 0.  1.
       -1    1    3    3    0  502 -0.15741583241E+04  0.28239893579E+03  0.85452315196E+03  0.18132659500E+04  0.50400001928E-02 0. -1.
</event>
<event>
 5   0  0.4060750E-07  0.3410698E+04  0.7818609E-02  0.8135286E-01
       -3   -1    0    0    0  501  0.00000000000E+00  0.00000000000E+00  0.17533520229E+04  0.17533520258E+04  0.10100000352E+00 0. -1.
        3   -1    0    0  501    0  0.00000000000E+00  0.00000000000E+00 -0.16586606169E+04  0.16586606200E+04  0.10100000352E+00 0.  1.
    10030    2    1    2    0    0  0.00000000000E+00  0.00000000000E+00  0.94691406001E+02  0.34120126458E+04  0.34106984377E+04 0.  0.
        1    1    3    3  502    0  0.75730274671E+03  0.13284125463E+04  0.80263901395E+03  0.17269674954E+04  0.50400001928E-02 0. -1.
       -1    1    3    3    0  502 -0.75730274671E+03 -0.13284125463E+04 -0.70794760794E+03  0.16850451504E+04  0.50400001928E-02 0.  1.
</event>
<event>
 5   0  0.4125758E-07  0.3345818E+04  0.7818609E-02  0.8151334E-01
       -1   -1    0    0    0  501  0.00000000000E+00  0.00000000000E+00  0.14044685321E+04  0.14044685321E+04  0.50400001928E-02 0.  1.
        1   -1    0    0  501    0  0.00000000000E+00  0.00000000000E+00 -0.19926572150E+04  0.19926572150E+04  0.50400001928E-02 0. -1.
    10030    2    1    2    0    0  0.00000000000E+00  0.00000000000E+00 -0.58818868296E+03  0.33971257471E+04  0.33458178992E+04 0.  0.
        2    1    3    3  502    0 -0.35015644311E+03 -0.87531787333E+03 -0.16972539331E+04  0.19415101924E+04  0.25500000920E-02 0. -1.
       -2    1    3    3    0  502  0.35015644311E+03  0.87531787333E+03  0.11090652501E+04  0.14556155547E+04  0.25500000920E-02 0.  1.
</event>
<event>
 5   0  0.4464951E-07  0.3317539E+04  0.7818609E-02  0.8158447E-01
       -1   -1    0    0    0  501  0.00000000000E+00  0.00000000000E+00  0.20336234724E+04  0.20336234724E+04  0.50400001928E-02 0. -1.
        1   -1    0    0  501    0  0.00000000000E+00  0.00000000000E+00 -0.13530113336E+04  0.13530113336E+04  0.50400001928E-02 0.  1.
    10030    2    1    2    0    0  0.00000000000E+00  0.00000000000E+00  0.68061213881E+03  0.33866348060E+04  0.33175386095E+04 0.  0.
        3    1    3    3  502    0 -0.14951499954E+04  0.20785377442E+03  0.10422605959E+04  0.18343892336E+04  0.10100000352E+00 0. -1.
       -3    1    3    3    0  502  0.14951499954E+04 -0.20785377442E+03 -0.36164845712E+03  0.15522455724E+04  0.10100000352E+00 0.  1.
</event>
<event>
 5   0  0.1268230E-06  0.3375300E+04  0.7818609E-02  0.8143995E-01
       -2   -1    0    0    0  501  0.00000000000E+00  0.00000000000E+00  0.18079352727E+04  0.18079352727E+04  0.25500000920E-02 0. -1.
        2   -1    0    0  501    0  0.00000000000E+00  0.00000000000E+00 -0.15753679045E+04  0.15753679045E+04  0.25500000920E-02 0.  1.
    10030    2    1    2    0    0  0.00000000000E+00  0.00000000000E+00  0.23256736820E+03  0.33833031771E+04  0.33753004026E+04 0.  0.
        2    1    3    3  502    0  0.24309742924E+03 -0.13562075318E+04 -0.86058738009E+03  0.16245017292E+04  0.25500000920E-02 0.  1.
       -2    1    3    3    0  502 -0.24309742924E+03  0.13562075318E+04  0.10931547483E+04  0.17588014479E+04  0.25500000920E-02 0. -1.
</event>
<event>
 5   0  0.1300176E-06  0.2844800E+04  0.7818609E-02  0.8289493E-01
        2   -1    0    0  501    0  0.00000000000E+00  0.00000000000E+00  0.13979270061E+04  0.13979270061E+04  0.25500000920E-02 0. -1.
       -2   -1    0    0    0  501  0.00000000000E+00  0.00000000000E+00 -0.14473015501E+04  0.14473015501E+04  0.25500000920E-02 0.  1.
    10030    2    1    2    0    0  0.00000000000E+00  0.00000000000E+00 -0.49374543991E+02  0.28452285562E+04  0.28448001145E+04 0.  0.
        1    1    3    3  502    0  0.44483135371E+03  0.12763851608E+03  0.13205265943E+04  0.13992701706E+04  0.50400001928E-02 0. -1.
       -1    1    3    3    0  502 -0.44483135371E+03 -0.12763851608E+03 -0.13699011383E+04  0.14459583856E+04  0.50400001928E-02 0.  1.
</event>
<event>
 5   0  0.4272633E-07  0.3375560E+04  0.7818609E-02  0.8143931E-01
       -1   -1    0    0    0  501  0.00000000000E+00  0.00000000000E+00  0.12359630480E+04  0.12359630480E+04  0.50400001928E-02 0. -1.
        1   -1    0    0  501    0  0.00000000000E+00  0.00000000000E+00 -0.23047630865E+04  0.23047630865E+04  0.50400001928E-02 0.  1.
    10030    2    1    2    0    0  0.00000000000E+00  0.00000000000E+00 -0.10688000385E+04  0.35407261345E+04  0.33755604035E+04 0.  0.
        1    1    3    3  502    0 -0.70651041799E+03  0.57146854824E+03  0.95746765584E+03  0.13200293877E+04  0.50400001928E-02 0. -1.
       -1    1    3    3    0  502  0.70651041799E+03 -0.57146854824E+03 -0.20262676943E+04  0.22206967468E+04  0.50400001928E-02 0.  1.
</event>
<event>
 5   0  0.1268230E-06  0.3154305E+04  0.7818609E-02  0.8200990E-01
       -2   -1    0    0    0  501  0.00000000000E+00  0.00000000000E+00  0.17509862191E+04  0.17509862191E+04  0.25500000920E-02 0.  1.
        2   -1    0    0  501    0  0.00000000000E+00  0.00000000000E+00 -0.14205767566E+04  0.14205767566E+04  0.25500000920E-02 0. -1.
    10030    2    1    2    0    0  0.00000000000E+00  0.00000000000E+00  0.33040946244E+03  0.31715629757E+04  0.31543052002E+04 0.  0.
        2    1    3    3  502    0  0.12519386676E+04 -0.32296535745E+03 -0.74292739629E+03  0.14911734191E+04  0.25500000920E-02 0. -1.
       -2    1    3    3    0  502 -0.12519386676E+04  0.32296535745E+03  0.10733368587E+04  0.16803895566E+04  0.25500000920E-02 0.  1.
</event>
<event>
 5   0  0.4289684E-07  0.3458039E+04  0.7818609E-02  0.8123807E-01
       -1   -1    0    0    0  501  0.00000000000E+00  0.00000000000E+00  0.23951508203E+04  0.23951508203E+04  0.50400001928E-02 0. -1.
        1   -1    0    0  501    0  0.00000000000E+00  0.00000000000E+00 -0.12481504056E+04  0.12481504056E+04  0.50400001928E-02 0.  1.
    10030    2    1    2    0    0  0.00000000000E+00  0.00000000000E+00  0.11470004147E+04  0.36433012259E+04  0.34580390211E+04 0.  0.
        4    1    3    3  502    0  0.40100837818E+03  0.16510664979E+04  0.23589816550E+03  0.17153652256E+04  0.12699999809E+01 0.  1.
       -4    1    3    3    0  502 -0.40100837818E+03 -0.16510664979E+04  0.91110224920E+03  0.19279360003E+04  0.12699999809E+01 0. -1.
</event>
<event>
 5   0  0.4464951E-07  0.3291846E+04  0.7818609E-02  0.8164973E-01
       -1   -1    0    0    0  501  0.00000000000E+00  0.00000000000E+00  0.16016396681E+04  0.16016396681E+04  0.50400001928E-02 0.  1.
        1   -1    0    0  501    0  0.00000000000E+00  0.00000000000E+00 -0.16914302014E+04  0.16914302014E+04  0.50400001928E-02 0. -1.
    10030    2    1    2    0    0  0.00000000000E+00  0.00000000000E+00 -0.89790533283E+02  0.32930698695E+04  0.32918455046E+04 0.  0.
        3    1    3    3  502    0 -0.10218986197E+04  0.68842052915E+03  0.10467768923E+04  0.16167688414E+04  0.10100000352E+00 0.  1.
       -3    1    3    3    0  502  0.10218986197E+04 -0.68842052915E+03 -0.11365674256E+04  0.16763010282E+04  0.10100000352E+00 0. -1.
</event>
<event>
 5   0  0.1269497E-06  0.3254747E+04  0.7818609E-02  0.8174506E-01
        2   -1    0    0  501    0  0.00000000000E+00  0.00000000000E+00  0.18058051196E+04  0.18058051196E+04  0.25500000920E-02 0. -1.
       -2   -1    0    0    0  501  0.00000000000E+00  0.00000000000E+00 -0.14665727077E+04  0.14665727077E+04  0.25500000920E-02 0.  1.
    10030    2    1    2    0    0  0.00000000000E+00  0.00000000000E+00  0.33923241185E+03  0.32723778273E+04  0.32547469972E+04 0.  0.
        5    1    3    3  502    0  0.15638837571E+04 -0.16010207595E+03 -0.25332547712E+03  0.15923444878E+04  0.46999998093E+01 0.  1.
       -5    1    3    3    0  502 -0.15638837571E+04  0.16010207595E+03  0.59255788896E+03  0.16800333396E+04  0.46999998093E+01 0. -1.
</event>
<event>
 5   0  0.1268230E-06  0.3422659E+04  0.7818609E-02  0.8132367E-01
        2   -1    0    0  501    0  0.00000000000E+00  0.00000000000E+00  0.17898697075E+04  0.17898697075E+04  0.25500000920E-02 0. -1.
       -2   -1    0    0    0  501  0.00000000000E+00  0.00000000000E+00 -0.16362356343E+04  0.16362356343E+04  0.25500000920E-02 0.  1.
    10030    2    1    2    0    0  0.00000000000E+00  0.00000000000E+00  0.15363407320E+03  0.34261053418E+04  0.34226589641E+04 0.  0.
        2    1    3    3  502    0 -0.12837805283E+04 -0.22095313484E+03 -0.10341364529E+04  0.16632350814E+04  0.25500000920E-02 0.  1.
       -2    1    3    3    0  502  0.12837805283E+04  0.22095313484E+03  0.11877705261E+04  0.17628702605E+04  0.25500000920E-02 0. -1.
</event>
<event>
 5   0  0.4060750E-07  0.3398565E+04  0.7818609E-02  0.8138259E-01
       -3   -1    0    0    0  501  0.00000000000E+00  0.00000000000E+00  0.15475025325E+04  0.15475025358E+04  0.10100000352E+00 0. -1.
        3   -1    0    0  501    0  0.00000000000E+00  0.00000000000E+00 -0.18659494336E+04  0.18659494364E+04  0.10100000352E+00 0.  1.
    10030    2    1    2    0    0  0.00000000000E+00  0.00000000000E+00 -0.31844690110E+03  0.34134519722E+04  0.33985652764E+04 0.  0.
        4    1    3    3  502    0  0.95978517167E+02 -0.16832616863E+04  0.53785911461E+02  0.16868539704E+04  0.12699999809E+01 0. -1.
       -4    1    3    3    0  502 -0.95978517167E+02  0.16832616863E+04 -0.37223281256E+03  0.17265980018E+04  0.12699999809E+01 0.  1.
</event>
<event>
 5   0  0.4125758E-07  0.3414194E+04  0.7818609E-02  0.8134431E-01
        1   -1    0    0  501    0  0.00000000000E+00  0.00000000000E+00  0.23913915626E+04  0.23913915626E+04  0.50400001928E-02 0.  1.
       -1   -1    0    0    0  501  0.00000000000E+00  0.00000000000E+00 -0.12186128463E+04  0.12186128463E+04  0.50400001928E-02 0. -1.
    10030    2    1    2    0    0  0.00000000000E+00  0.00000000000E+00  0.11727787163E+04  0.36100044088E+04  0.34141941823E+04 0.  0.
        2    1    3    3  502    0  0.40562011597E+03  0.92002988842E+03 -0.87229551193E+03  0.13311206310E+04  0.25500000920E-02 0. -1.
       -2    1    3    3    0  502 -0.40562011597E+03 -0.92002988842E+03  0.20450742282E+04  0.22788837779E+04  0.25500000920E-02 0.  1.
</event>
<event>
 5   0  0.4272633E-07  0.3403787E+04  0.7818609E-02  0.8136977E-01
        1   -1    0    0  501    0  0.00000000000E+00  0.00000000000E+00  0.23165855236E+04  0.23165855236E+04  0.50400001928E-02 0. -1.
       -1   -1    0    0    0  501  0.00000000000E+00  0.00000000000E+00 -0.12503065795E+04  0.12503065795E+04  0.50400001928E-02 0.  1.
    10030    2    1    2    0    0  0.00000000000E+00  0.00000000000E+00  0.10662789441E+04  0.35668921031E+04  0.34037873742E+04 0.  0.
        1    1    3    3  502    0 -0.13482670381E+04 -0.94703140729E+03  0.86389723546E+02  0.16498956563E+04  0.50400001928E-02 0.  1.
       -1    1    3    3    0  502  0.13482670381E+04  0.94703140729E+03  0.97988922057E+03  0.19169964468E+04  0.50400001928E-02 0. -1.
</event>
<event>
 5   0  0.1268230E-06  0.3407351E+04  0.7818609E-02  0.8136105E-01
       -2   -1    0    0    0  501  0.00000000000E+00  0.00000000000E+00  0.10592633888E+04  0.10592633888E+04  0.25500000920E-02 0. -1.
        2   -1    0    0  501    0  0.00000000000E+00  0.00000000000E+00 -0.27401211484E+04  0.27401211484E+04  0.25500000920E-02 0.  1.
    10030    2    1    2    0    0  0.00000000000E+00  0.00000000000E+00 -0.16808577595E+04  0.37993845372E+04  0.34073508850E+04 0.  0.
        2    1    3    3  502    0 -0.96622828346E+03  0.14011310094E+04 -0.92494397845E+03  0.19370819716E+04  0.25500000920E-02 0. -1.
       -2    1    3    3    0  502  0.96622828346E+03 -0.14011310094E+04 -0.75591378110E+03  0.18623025656E+04  0.25500000920E-02 0.  1.
</event>
<event>
 5   0  0.4272633E-07  0.3423929E+04  0.7818609E-02  0.8132058E-01
        1   -1    0    0  501    0  0.00000000000E+00  0.00000000000E+00  0.96207323552E+03  0.96207323553E+03  0.50400001928E-02 0.  1.
       -1   -1    0    0    0  501  0.00000000000E+00  0.00000000000E+00 -0.30463613942E+04  0.30463613942E+04  0.50400001928E-02 0. -1.
    10030    2    1    2    0    0  0.00000000000E+00  0.00000000000E+00 -0.20842881587E+04  0.40084346298E+04  0.34239291834E+04 0.  0.
        1    1    3    3  502    0 -0.98326676089E+03 -0.94131988230E+03 -0.22576148781E+04  0.26362324597E+04  0.50400001928E-02 0. -1.
       -1    1    3    3    0  502  0.98326676089E+03  0.94131988230E+03  0.17332671935E+03  0.13722021701E+04  0.50400001928E-02 0.  1.
</event>
<event>
 5   0  0.1269497E-06  0.3400657E+04  0.7818609E-02  0.8137745E-01
        2   -1    0    0  501    0  0.00000000000E+00  0.00000000000E+00  0.16161252978E+04  0.16161252978E+04  0.25500000920E-02 0.  1.
       -2   -1    0    0    0  501  0.00000000000E+00  0.00000000000E+00 -0.17889189741E+04  0.17889189741E+04  0.25500000920E-02 0. -1.
    10030    2    1    2    0    0  0.00000000000E+00  0.00000000000E+00 -0.17279367630E+03  0.34050442719E+04  0.34006571187E+04 0.  0.
        5    1    3    3  502    0  0.11103216093E+04 -0.63989330266E+03  0.10325499243E+04  0.16457396365E+04  0.46999998093E+01 0.  1.
       -5    1    3    3    0  502 -0.11103216093E+04  0.63989330266E+03 -0.12053436006E+04  0.17593046355E+04  0.46999998093E+01 0. -1.
</event>
<event>
 5   0  0.4464951E-07  0.3385926E+04  0.7818609E-02  0.8141369E-01
       -1   -1    0    0    0  501  0.00000000000E+00  0.00000000000E+00  0.14293554019E+04  0.14293554019E+04  0.50400001928E-02 0. -1.
        1   -1    0    0  501    0  0.00000000000E+00  0.00000000000E+00 -0.20051866731E+04  0.20051866731E+04  0.50400001928E-02 0.  1.
    10030    2    1    2    0    0  0.00000000000E+00  0.00000000000E+00 -0.57583127119E+03  0.34345420750E+04  0.33859264038E+04 0.  0.
        3    1    3    3  502    0 -0.12172678685E+04  0.30278968929E+03  0.86537958579E+03  0.15239109217E+04  0.10100000352E+00 0. -1.
       -3    1    3    3    0  502  0.12172678685E+04 -0.30278968929E+03 -0.14412108570E+04  0.19106311533E+04  0.10100000352E+00 0.  1.
</event>
<event>
 5   0  0.4109937E-07  0.3275116E+04  0.7818609E-02  0.8169256E-01
        1   -1    0    0  501    0  0.00000000000E+00  0.00000000000E+00  0.17285195252E+04  0.17285195252E+04  0.50400001928E-02 0.  1.
       -1   -1    0    0    0  501  0.00000000000E+00  0.00000000000E+00 -0.15513834405E+04  0.15513834405E+04  0.50400001928E-02 0. -1.
    10030    2    1    2    0    0  0.00000000000E+00  0.00000000000E+00  0.17713608467E+03  0.32799029658E+04  0.32751162227E+04 0.  0.
        5    1    3    3  502    0  0.16361685543E+04  0.67084256671E+02  0.83398846988E+02  0.16396723127E+04  0.46999998093E+01 0. -1.
       -5    1    3    3    0  502 -0.16361685543E+04 -0.67084256671E+02  0.93737237686E+02  0.16402306530E+04  0.46999998093E+01 0.  1.
</event>
<event>
 5   0  0.1268230E-06  0.3638292E+04  0.7818609E-02  0.8081776E-01
        2   -1    0    0  501    0  0.00000000000E+00  0.00000000000E+00  0.21094722965E+04  0.21094722965E+04  0.25500000920E-02 0.  1.
       -2   -1    0    0    0  501  0.00000000000E+00  0.00000000000E+00 -0.15687774520E+04  0.15687774520E+04  0.25500000920E-02 0. -1.
    10030    2    1    2    0    0  0.00000000000E+00  0.00000000000E+00  0.54069484451E+03  0.36782497486E+04  0.36382922227E+04 0.  0.
        2    1    3    3  502    0  0.46077215844E+03 -0.96718270929E+03  0.17567114760E+04  0.20576172105E+04  0.25500000920E-02 0.  1.
       -2    1    3    3    0  502 -0.46077215844E+03  0.96718270929E+03 -0.12160166315E+04  0.16206325380E+04  0.25500000920E-02 0. -1.
</event>
<event>
 5   0  0.4272633E-07  0.3402540E+04  0.7818609E-02  0.8137283E-01
       -1   -1    0    0    0  501  0.00000000000E+00  0.00000000000E+00  0.13000493887E+04  0.13000493887E+04  0.50400001928E-02 0.  1.
        1   -1    0    0  501    0  0.00000000000E+00  0.00000000000E+00 -0.22263148055E+04  0.22263148055E+04  0.50400001928E-02 0. -1.
    10030    2    1    2    0    0  0.00000000000E+00  0.00000000000E+00 -0.92626541671E+03  0.35263641942E+04  0.34025397585E+04 0.  0.
        1    1    3    3  502    0  0.11212661242E+04  0.30398760623E+03  0.82494550462E+03  0.14248442973E+04  0.50400001928E-02 0.  1.
       -1    1    3    3    0  502 -0.11212661242E+04 -0.30398760623E+03 -0.17512109213E+04  0.21015198969E+04  0.50400001928E-02 0. -1.
</event>
<event>
 5   0  0.1268230E-06  0.3168070E+04  0.7818609E-02  0.8197301E-01
       -2   -1    0    0    0  501  0.00000000000E+00  0.00000000000E+00  0.11463962149E+04  0.11463962149E+04  0.25500000920E-02 0.  1.
        2   -1    0    0  501    0  0.00000000000E+00  0.00000000000E+00 -0.21887424845E+04  0.21887424845E+04  0.25500000920E-02 0. -1.
    10030    2    1    2    0    0  0.00000000000E+00  0.00000000000E+00 -0.10423462696E+04  0.33351386995E+04  0.31680695067E+04 0.  0.
        2    1    3    3  502    0  0.98613488956E+03  0.11566853779E+04 -0.99053611867E+03  0.18142615264E+04  0.25500000920E-02 0. -1.
       -2    1    3    3    0  502 -0.98613488956E+03 -0.11566853779E+04 -0.51810150927E+02  0.15208771731E+04  0.25500000920E-02 0.  1.
</event>
<event>
 5   0  0.4125758E-07  0.3477433E+04  0.7818609E-02  0.8119159E-01
        1   -1    0    0  501    0  0.00000000000E+00  0.00000000000E+00  0.16899197471E+04  0.16899197471E+04  0.50400001928E-02 0. -1.
       -1   -1    0    0    0  501  0.00000000000E+00  0.00000000000E+00 -0.17889219945E+04  0.17889219945E+04  0.50400001928E-02 0.  1.
    10030    2    1    2    0    0  0.00000000000E+00  0.00000000000E+00 -0.99002247372E+02  0.34788417417E+04  0.34774327339E+04 0.  0.
        2    1    3    3  502    0  0.10612027578E+03 -0.12390168852E+04 -0.12651931808E+04  0.17740175138E+04  0.25500000920E-02 0.  1.
       -2    1    3    3    0  502 -0.10612027578E+03  0.12390168852E+04  0.11661909334E+04  0.17048242278E+04  0.25500000920E-02 0. -1.
</event>
<event>
 5   0  0.4125758E-07  0.3440654E+04  0.7818609E-02  0.8128000E-01
       -1   -1    0    0    0  501  0.00000000000E+00  0.00000000000E+00  0.10735321705E+04  0.10735321705E+04  0.50400001928E-02 0.  1.
        1   -1    0    0  501    0  0.00000000000E+00  0.00000000000E+00 -0.27568100858E+04  0.27568100858E+04  0.50400001928E-02 0. -1.
    10030    2    1    2    0    0  0.00000000000E+00  0.00000000000E+00 -0.16832779153E+04  0.38303422563E+04  0.34406536095E+04 0.  0.
        2    1    3    3  502    0 -0.20530686170E+02  0.11049993957E+04  0.62604113513E+03  0.12701860794E+04  0.25500000920E-02 0.  1.
       -2    1    3    3    0  502  0.20530686170E+02 -0.11049993957E+04 -0.23093190504E+04  0.25601561769E+04  0.25500000920E-02 0. -1.
</event>
<event>
 5   0  0.4289684E-07  0.3358418E+04  0.7818609E-02  0.8148188E-01
       -1   -1    0    0    0  501  0.00000000000E+00  0.00000000000E+00  0.21068247696E+04  0.21068247696E+04  0.50400001928E-02 0.  1.
        1   -1    0    0  501    0  0.00000000000E+00  0.00000000000E+00 -0.13383852241E+04  0.13383852241E+04  0.50400001928E-02 0. -1.
    10030    2    1    2    0    0  0.00000000000E+00  0.00000000000E+00  0.76843954548E+03  0.34452099937E+04  0.33584181642E+04 0.  0.
        4    1    3    3  502    0 -0.13448364396E+04  0.22768225671E+03 -0.62053958445E+03  0.14984976637E+04  0.12699999809E+01 0. -1.
       -4    1    3    3    0  502  0.13448364396E+04 -0.22768225671E+03  0.13889791299E+04  0.19467123300E+04  0.12699999809E+01 0.  1.
</event>
<event>
 5   0  0.4289684E-07  0.3331312E+04  0.7818609E-02  0.8154973E-01
        1   -1    0    0  501    0  0.00000000000E+00  0.00000000000E+00  0.24977439405E+04  0.24977439405E+04  0.50400001928E-02 0. -1.
       -1   -1    0    0    0  501  0.00000000000E+00  0.00000000000E+00 -0.11107665886E+04  0.11107665886E+04  0.50400001928E-02 0.  1.
    10030    2    1    2    0    0  0.00000000000E+00  0.00000000000E+00  0.13869773519E+04  0.36085105290E+04  0.33313123635E+04 0.  0.
        4    1    3    3  502    0  0.94209094757E+03  0.12883646527E+04  0.17740983840E+03  0.16058937373E+04  0.12699999809E+01 0.  1.
       -4    1    3    3    0  502 -0.94209094757E+03 -0.12883646527E+04  0.12095675135E+04  0.20026167917E+04  0.12699999809E+01 0. -1.
</event>
<event>
 5   0  0.4109937E-07  0.3384958E+04  0.7818609E-02  0.8141608E-01
        1   -1    0    0  501    0  0.00000000000E+00  0.00000000000E+00  0.16249093435E+04  0.16249093435E+04  0.50400001928E-02 0.  1.
       -1   -1    0    0    0  501  0.00000000000E+00  0.00000000000E+00 -0.17628580856E+04  0.17628580856E+04  0.50400001928E-02 0. -1.
    10030    2    1    2    0    0  0.00000000000E+00  0.00000000000E+00 -0.13794874211E+03  0.33877674290E+04  0.33849576508E+04 0.  0.
        5    1    3    3  502    0  0.13512271606E+04 -0.61576342415E+03  0.74378534079E+03  0.16607884144E+04  0.46999998093E+01 0.  1.
       -5    1    3    3    0  502 -0.13512271606E+04  0.61576342415E+03 -0.88173408289E+03  0.17269790147E+04  0.46999998093E+01 0. -1.
</event>
<event>
 5   0  0.4464951E-07  0.3401052E+04  0.7818609E-02  0.8137648E-01
       -1   -1    0    0    0  501  0.00000000000E+00  0.00000000000E+00  0.18145669307E+04  0.18145669307E+04  0.50400001928E-02 0. -1.
        1   -1    0    0  501    0  0.00000000000E+00  0.00000000000E+00 -0.15936521543E+04  0.15936521543E+04  0.50400001928E-02 0.  1.
    10030    2    1    2    0    0  0.00000000000E+00  0.00000000000E+00  0.22091477633E+03  0.34082190850E+04  0.34010518951E+04 0.  0.
        3    1    3    3  502    0 -0.13562453286E+04  0.77102280497E+03 -0.56765979715E+03  0.16601551773E+04  0.10100000352E+00 0.  1.
       -3    1    3    3    0  502  0.13562453286E+04 -0.77102280497E+03  0.78857457348E+03  0.17480639077E+04  0.10100000352E+00 0. -1.
</event>
<event>
 5   0  0.1269497E-06  0.3403192E+04  0.7818609E-02  0.8137123E-01
        2   -1    0    0  501    0  0.00000000000E+00  0.00000000000E+00  0.15548423145E+04  0.15548423145E+04  0.25500000920E-02 0. -1.
       -2   -1    0    0    0  501  0.00000000000E+00  0.00000000000E+00 -0.18622012919E+04  0.18622012919E+04  0.25500000920E-02 0.  1.
    10030    2    1    2    0    0  0.00000000000E+00  0.00000000000E+00 -0.30735897737E+03  0.34170436063E+04  0.34031922465E+04 0.  0.
        5    1    3    3  502    0 -0.14721507892E+04  0.40314897969E+03 -0.90883782713E+03  0.17764473907E+04  0.46999998093E+01 0.  1.
       -5    1    3    3    0  502  0.14721507892E+04 -0.40314897969E+03  0.60147884976E+03  0.16405962156E+04  0.46999998093E+01 0. -1.
</event>
<event>
 5   0  0.4109937E-07  0.2975010E+04  0.7818609E-02  0.8250903E-01
        1   -1    0    0  501    0  0.00000000000E+00  0.00000000000E+00  0.20984605420E+04  0.20984605420E+04  0.50400001928E-02 0.  1.
       -1   -1    0    0    0  501  0.00000000000E+00  0.00000000000E+00 -0.10544259288E+04  0.10544259288E+04  0.50400001928E-02 0. -1.
    10030    2    1    2    0    0  0.00000000000E+00  0.00000000000E+00  0.10440346132E+04  0.31528864708E+04  0.29750100545E+04 0.  0.
        5    1    3    3  502    0 -0.70087709379E+03  0.64797750474E+03  0.17310821247E+04  0.19768082759E+04  0.46999998093E+01 0.  1.
       -5    1    3    3    0  502  0.70087709379E+03 -0.64797750474E+03 -0.68704751156E+03  0.11760781948E+04  0.46999998093E+01 0. -1.
</event>
<event>
 5   0  0.1300176E-06  0.3494046E+04  0.7818609E-02  0.8115202E-01
       -2   -1    0    0    0  501  0.00000000000E+00  0.00000000000E+00  0.13563676137E+04  0.13563676137E+04  0.25500000920E-02 0. -1.
        2   -1    0    0  501    0  0.00000000000E+00  0.00000000000E+00 -0.22501935959E+04  0.22501935959E+04  0.25500000920E-02 0.  1.
    10030    2    1    2    0    0  0.00000000000E+00  0.00000000000E+00 -0.89382598221E+03  0.36065612096E+04  0.34940462034E+04 0.  0.
        1    1    3    3  502    0 -0.11939904312E+04 -0.91644644724E+03 -0.13623792004E+04  0.20301636205E+04  0.50400001928E-02 0.  1.
       -1    1    3    3    0  502  0.11939904312E+04  0.91644644724E+03  0.46855321816E+03  0.15763975890E+04  0.50400001928E-02 0. -1.
</event>
<event>
 5   0  0.4464951E-07  0.3391292E+04  0.7818609E-02  0.8140047E-01
       -1   -1    0    0    0  501  0.00000000000E+00  0.00000000000E+00  0.13287115220E+04  0.13287115220E+04  0.50400001928E-02 0. -1.
        1   -1    0    0  501    0  0.00000000000E+00  0.00000000000E+00 -0.21639124834E+04  0.21639124834E+04  0.50400001928E-02 0.  1.
    10030    2    1    2    0    0  0.00000000000E+00  0.00000000000E+00 -0.83520096140E+03  0.34926240053E+04  0.33912920542E+04 0.  0.
        3    1    3    3  502    0  0.15658061393E+04 -0.28783002127E+03  0.18346529864E+03  0.16025774592E+04  0.10100000352E+00 0. -1.
       -3    1    3    3    0  502 -0.15658061393E+04  0.28783002127E+03 -0.10186662600E+04  0.18900465461E+04  0.10100000352E+00 0.  1.
</event>
<event>
 5   0  0.4289684E-07  0.3565407E+04  0.7818609E-02  0.8098462E-01
       -1   -1    0    0    0  501  0.00000000000E+00  0.00000000000E+00  0.16235664882E+04  0.16235664882E+04  0.50400001928E-02 0.  1.
        1   -1    0    0  501    0  0.00000000000E+00  0.00000000000E+00 -0.19574388555E+04  0.19574388555E+04  0.50400001928E-02 0. -1.
    10030    2    1    2    0    0  0.00000000000E+00  0.00000000000E+00 -0.33387236731E+03  0.35810053436E+04  0.35654072016E+04 0.  0.
        4    1    3    3  502    0  0.34423137493E+01 -0.49746772202E+03  0.15524363877E+04  0.16301982501E+04  0.12699999809E+01 0.  1.
       -4    1    3    3    0  502 -0.34423137493E+01  0.49746772202E+03 -0.18863087550E+04  0.19508070935E+04  0.12699999809E+01 0. -1.
</event>
<event>
 5   0  0.1300176E-06  0.3410515E+04  0.7818609E-02  0.8135330E-01
       -2   -1    0    0    0  501  0.00000000000E+00  0.00000000000E+00  0.18964924255E+04  0.18964924255E+04  0.25500000920E-02 0.  1.
        2   -1    0    0  501    0  0.00000000000E+00  0.00000000000E+00 -0.15333059495E+04  0.15333059495E+04  0.25500000920E-02 0. -1.
    10030    2    1    2    0    0  0.00000000000E+00  0.00000000000E+00  0.36318647593E+03  0.34297983750E+04  0.34105149870E+04 0.  0.
        1    1    3    3  502    0 -0.38682069592E+03  0.48513398726E+03  0.17789436035E+04  0.18840450050E+04  0.50400001928E-02 0.  1.
       -1    1    3    3    0  502  0.38682069592E+03 -0.48513398726E+03 -0.14157571276E+04  0.15457533700E+04  0.50400001928E-02 0. -1.
</event>
<event>
 5   0  0.1256208E-06  0.3293267E+04  0.7818609E-02  0.8164611E-01
       -2   -1    0    0    0  501  0.00000000000E+00  0.00000000000E+00  0.12562662259E+04  0.12562662259E+04  0.25500000920E-02 0. -1.
        2   -1    0    0  501    0  0.00000000000E+00  0.00000000000E+00 -0.21583024130E+04  0.21583024130E+04  0.25500000920E-02 0.  1.
    10030    2    1    2    0    0  0.00000000000E+00  0.00000000000E+00 -0.90203618709E+03  0.34145686389E+04  0.32932673301E+04 0.  0.
        3    1    3    3  502    0 -0.89716237479E+03  0.13445351526E+04 -0.77680042002E+03  0.17933471516E+04  0.10100000352E+00 0. -1.
       -3    1    3    3    0  502  0.89716237479E+03 -0.13445351526E+04 -0.12523576707E+03  0.16212214873E+04  0.10100000352E+00 0.  1.
</event>
<event>
 5   0  0.1300176E-06  0.3471286E+04  0.7818609E-02  0.8120629E-01
       -2   -1    0    0    0  501  0.00000000000E+00  0.00000000000E+00  0.16803402603E+04  0.16803402603E+04  0.25500000920E-02 0.  1.
        2   -1    0    0  501    0  0.00000000000E+00  0.00000000000E+00 -0.17927656870E+04  0.17927656870E+04  0.25500000920E-02 0. -1.
    10030    2    1    2    0    0  0.00000000000E+00  0.00000000000E+00 -0.11242542662E+03  0.34731059473E+04  0.34712858489E+04 0.  0.
        1    1    3    3  502    0 -0.27400560076E+03 -0.16091939761E+04  0.53390332117E+03  0.17174507499E+04  0.50400001928E-02 0. -1.
       -1    1    3    3    0  502  0.27400560076E+03  0.16091939761E+04 -0.64632874780E+03  0.17556551974E+04  0.50400001928E-02 0.  1.
</event>
<event>
 5   0  0.1256208E-06  0.3407041E+04  0.7818609E-02  0.8136180E-01
        2   -1    0    0  501    0  0.00000000000E+00  0.00000000000E+00  0.97405093903E+03  0.97405093904E+03  0.25500000920E-02 0. -1.
       -2   -1    0    0    0  501  0.00000000000E+00  0.00000000000E+00 -0.29792923103E+04  0.29792923103E+04  0.25500000920E-02 0.  1.
    10030    2    1    2    0    0  0.00000000000E+00  0.00000000000E+00 -0.20052413712E+04  0.39533432493E+04  0.34070412222E+04 0.  0.
        3    1    3    3  502    0 -0.40416179350E+03  0.83990268811E+03 -0.26571600283E+04  0.28158982060E+04  0.10100000352E+00 0.  1.
       -3    1    3    3    0  502  0.40416179350E+03 -0.83990268811E+03  0.65191865704E+03  0.11374450433E+04  0.10100000352E+00 0. -1.
</event>
<event>
 5   0  0.1268230E-06  0.3402278E+04  0.7818609E-02  0.8137347E-01
       -2   -1    0    0    0  501  0.00000000000E+00  0.00000000000E+00  0.15932140141E+04  0.15932140141E+04  0.25500000920E-02 0.  1.
        2   -1    0    0  501    0  0.00000000000E+00  0.00000000000E+00 -0.18163750792E+04  0.18163750792E+04  0.25500000920E-02 0. -1.
    10030    2    1    2    0    0  0.00000000000E+00  0.00000000000E+00 -0.22316106510E+03  0.34095890933E+04  0.34022781962E+04 0.  0.
        2    1    3    3  502    0  0.54399605645E+03  0.12297148756E+03 -0.17221495359E+04  0.18102079218E+04  0.25500000920E-02 0. -1.
       -2    1    3    3    0  502 -0.54399605645E+03 -0.12297148756E+03  0.14989884708E+04  0.15993811715E+04  0.25500000920E-02 0.  1.
</event>
<event>
 5   0  0.1300176E-06  0.3419264E+04  0.7818609E-02  0.8133194E-01
        2   -1    0    0  501    0  0.00000000000E+00  0.00000000000E+00  0.16735843217E+04  0.16735843217E+04  0.25500000920E-02 0.  1.
       -2   -1    0    0    0  501  0.00000000000E+00  0.00000000000E+00 -0.17464563884E+04  0.17464563884E+04  0.25500000920E-02 0. -1.
    10030    2    1    2    0    0  0.00000000000E+00  0.00000000000E+00 -0.72872066704E+02  0.34200407100E+04  0.34192642659E+04 0.  0.
        1    1    3    3  502    0 -0.97329870787E+03  0.81055342803E+03  0.11120994200E+04  0.16855480872E+04  0.50400001928E-02 0.  1.
       -1    1    3    3    0  502  0.97329870787E+03 -0.81055342803E+03 -0.11849714867E+04  0.17344926228E+04  0.50400001928E-02 0. -1.
</event>
<event>
 5   0  0.4109937E-07  0.3378849E+04  0.7818609E-02  0.8143117E-01
       -1   -1    0    0    0  501  0.00000000000E+00  0.00000000000E+00  0.14655102926E+04  0.14655102926E+04  0.50400001928E-02 0. -1.
        1   -1    0    0  501    0  0.00000000000E+00  0.00000000000E+00 -0.19475503923E+04  0.19475503923E+04  0.50400001928E-02 0.  1.
    10030    2    1    2    0    0  0.00000000000E+00  0.00000000000E+00 -0.48204009972E+03  0.34130606849E+04  0.33788490024E+04 0.  0.
        5    1    3    3  502    0  0.10535850050E+04  0.12386023658E+04  0.22182885330E+03  0.16411603558E+04  0.46999998093E+01 0. -1.
       -5    1    3    3    0  502 -0.10535850050E+04 -0.12386023658E+04 -0.70386895301E+03  0.17719003291E+04  0.46999998093E+01 0.  1.
</event>
<event>
 5   0  0.4109937E-07  0.3399795E+04  0.7818609E-02  0.8137957E-01
        1   -1    0    0  501    0  0.00000000000E+00  0.00000000000E+00  0.11028988871E+04  0.11028988871E+04  0.50400001928E-02 0.  1.
       -1   -1    0    0    0  501  0.00000000000E+00  0.00000000000E+00 -0.26200509712E+04  0.26200509712E+04  0.50400001928E-02 0. -1.
    10030    2    1    2    0    0  0.00000000000E+00  0.00000000000E+00 -0.15171520841E+04  0.37229498583E+04  0.33997948763E+04 0.  0.
        5    1    3    3  502    0  0.42690041279E+03  0.26552498795E+03 -0.25367727319E+04  0.25861139699E+04  0.46999998093E+01 0. -1.
       -5    1    3    3    0  502 -0.42690041279E+03 -0.26552498795E+03  0.10196206478E+04  0.11368358884E+04  0.46999998093E+01 0.  1.
</event>
<event>
 5   0  0.1268230E-06  0.3323397E+04  0.7818609E-02  0.8156967E-01
        2   -1    0    0  501    0  0.00000000000E+00  0.00000000000E+00  0.15952955990E+04  0.15952955990E+04  0.25500000920E-02 0. -1.
       -2   -1    0    0    0  501  0.00000000000E+00  0.00000000000E+00 -0.17308655860E+04  0.17308655860E+04  0.25500000920E-02 0.  1.
    10030    2    1    2    0    0  0.00000000000E+00  0.00000000000E+00 -0.13556998695E+03  0.33261611850E+04  0.33233972087E+04 0.  0.
        2    1    3    3  502    0 -0.12054825069E+04 -0.19556842137E+03  0.10600093912E+04  0.16171131659E+04  0.25500000920E-02 0. -1.
       -2    1    3    3    0  502  0.12054825069E+04  0.19556842137E+03 -0.11955793781E+04  0.17090480191E+04  0.25500000920E-02 0.  1.
</event>
<event>
 5   0  0.4464951E-07  0.3398145E+04  0.7818609E-02  0.8138362E-01
        1   -1    0    0  501    0  0.00000000000E+00  0.00000000000E+00  0.21514341649E+04  0.21514341649E+04  0.50400001928E-02 0.  1.
       -1   -1    0    0    0  501  0.00000000000E+00  0.00000000000E+00 -0.13418248078E+04  0.13418248078E+04  0.50400001928E-02 0. -1.
    10030    2    1    2    0    0  0.00000000000E+00  0.00000000000E+00  0.80960935710E+03  0.34932589727E+04  0.33981452204E+04 0.  0.
        3    1    3    3  502    0  0.78982111026E+03  0.82489831023E+03  0.16980197002E+04  0.20463493154E+04  0.10100000352E+00 0.  1.
       -3    1    3    3    0  502 -0.78982111026E+03 -0.82489831023E+03 -0.88841034306E+03  0.14469096573E+04  0.10100000352E+00 0. -1.
</event>
<event>
 5   0  0.4109937E-07  0.3426753E+04  0.7818609E-02  0.8131371E-01
        1   -1    0    0  501    0  0.00000000000E+00  0.00000000000E+00  0.15693870892E+04  0.15693870892E+04  0.50400001928E-02 0.  1.
       -1   -1    0    0    0  501  0.00000000000E+00  0.00000000000E+00 -0.18705772719E+04  0.18705772720E+04  0.50400001928E-02 0. -1.
    10030    2    1    2    0    0  0.00000000000E+00  0.00000000000E+00 -0.30119018279E+03  0.34399643611E+04  0.34267534606E+04 0.  0.
        5    1    3    3  502    0 -0.25694251369E+03  0.16559498582E+04  0.20778029780E+03  0.16886041959E+04  0.46999998093E+01 0.  1.
       -5    1    3    3    0  502  0.25694251369E+03 -0.16559498582E+04 -0.50897048058E+03  0.17513601652E+04  0.46999998093E+01 0. -1.
</event>
<event>
 5   0  0.4060750E-07  0.3393317E+04  0.7818609E-02  0.8139548E-01
        4   -1    0    0  501    0  0.00000000000E+00  0.00000000000E+00  0.15861937651E+04  0.15861942735E+04  0.12699999809E+01 0.  1.
       -4   -1    0    0    0  501  0.00000000000E+00  0.00000000000E+00 -0.18148151642E+04  0.18148156086E+04  0.12699999809E+01 0. -1.
    10030    2    1    2    0    0  0.00000000000E+00  0.00000000000E+00 -0.22862139909E+03  0.34010098821E+04  0.33933170312E+04 0.  0.
        1    1    3    3  502    0  0.45991119268E+03  0.10613089750E+04 -0.13583962906E+04  0.17841343918E+04  0.50400001928E-02 0. -1.
       -1    1    3    3    0  502 -0.45991119268E+03 -0.10613089750E+04  0.11297748915E+04  0.16168754903E+04  0.50400001928E-02 0.  1.
</event>
<event>
 5   0  0.1256208E-06  0.3395131E+04  0.7818609E-02  0.8139102E-01
        2   -1    0    0  501    0  0.00000000000E+00  0.00000000000E+00  0.15051273818E+04  0.15051273818E+04  0.25500000920E-02 0. -1.
       -2   -1    0    0    0  501  0.00000000000E+00  0.00000000000E+00 -0.19146078709E+04  0.19146078709E+04  0.25500000920E-02 0.  1.
    10030    2    1    2    0    0  0.00000000000E+00  0.00000000000E+00 -0.40948048917E+03  0.34197352527E+04  0.33951310619E+04 0.  0.
        3    1    3    3  502    0 -0.16009424565E+04  0.27203039770E+03  0.29352784373E+03  0.16502048029E+04  0.10100000352E+00 0. -1.
       -3    1    3    3    0  502  0.16009424565E+04 -0.27203039770E+03 -0.70300833290E+03  0.17695304498E+04  0.10100000352E+00 0.  1.
</event>
<event>
 5   0  0.4060750E-07  0.3420904E+04  0.7818609E-02  0.8132795E-01
       -3   -1    0    0    0  501  0.00000000000E+00  0.00000000000E+00  0.13563112503E+04  0.13563112541E+04  0.10100000352E+00 0. -1.
        3   -1    0    0  501    0  0.00000000000E+00  0.00000000000E+00 -0.21570611373E+04  0.21570611396E+04  0.10100000352E+00 0.  1.
    10030    2    1    2    0    0  0.00000000000E+00  0.00000000000E+00 -0.80074988696E+03  0.35133723937E+04  0.34209041488E+04 0.  0.
        4    1    3    3  502    0 -0.43719768133E+03 -0.42278772058E+03 -0.20422600136E+04  0.21308962540E+04  0.12699999809E+01 0.  1.
       -4    1    3    3    0  502  0.43719768133E+03  0.42278772058E+03  0.12415101267E+04  0.13824761397E+04  0.12699999809E+01 0. -1.
</event>
<event>
 5   0  0.1268230E-06  0.3393447E+04  0.7818609E-02  0.8139517E-01
       -2   -1    0    0    0  501  0.00000000000E+00  0.00000000000E+00  0.11332921049E+04  0.11332921049E+04  0.25500000920E-02 0.  1.
        2   -1    0    0  501    0  0.00000000000E+00  0.00000000000E+00 -0.25402723997E+04  0.25402723997E+04  0.25500000920E-02 0. -1.
    10030    2    1    2    0    0  0.00000000000E+00  0.00000000000E+00 -0.14069802948E+04  0.36735645045E+04  0.33934470114E+04 0.  0.
        2    1    3    3  502    0 -0.14890069683E+04 -0.16715381761E+03 -0.15653145298E+04  0.21668621848E+04  0.25500000920E-02 0. -1.
       -2    1    3    3    0  502  0.14890069683E+04  0.16715381761E+03  0.15833423502E+03  0.15067023198E+04  0.25500000920E-02 0.  1.
</event>
<event>
 5   0  0.4272633E-07  0.3366874E+04  0.7818609E-02  0.8146085E-01
       -1   -1    0    0    0  501  0.00000000000E+00  0.00000000000E+00  0.12682188151E+04  0.12682188151E+04  0.50400001928E-02 0.  1.
        1   -1    0    0  501    0  0.00000000000E+00  0.00000000000E+00 -0.22345982981E+04  0.22345982981E+04  0.50400001928E-02 0. -1.
    10030    2    1    2    0    0  0.00000000000E+00  0.00000000000E+00 -0.96637948299E+03  0.35028171132E+04  0.33668736868E+04 0.  0.
        1    1    3    3  502    0 -0.14269642243E+04  0.45519535105E+03  0.31629758839E+03  0.15308409027E+04  0.50400001928E-02 0.  1.
       -1    1    3    3    0  502  0.14269642243E+04 -0.45519535105E+03 -0.12826770714E+04  0.19719762104E+04  0.50400001928E-02 0. -1.
</event>
<event>
 5   0  0.1256208E-06  0.3402368E+04  0.7818609E-02  0.8137325E-01
       -2   -1    0    0    0  501  0.00000000000E+00  0.00000000000E+00  0.95873574041E+03  0.95873574041E+03  0.25500000920E-02 0. -1.
        2   -1    0    0  501    0  0.00000000000E+00  0.00000000000E+00 -0.30185874654E+04  0.30185874654E+04  0.25500000920E-02 0.  1.
    10030    2    1    2    0    0  0.00000000000E+00  0.00000000000E+00 -0.20598517250E+04  0.39773232058E+04  0.34023684037E+04 0.  0.
        3    1    3    3  502    0 -0.59638652779E+03  0.12934640081E+04  0.57484113287E+02  0.14254930600E+04  0.10100000352E+00 0. -1.
       -3    1    3    3    0  502  0.59638652779E+03 -0.12934640081E+04 -0.21173358383E+04  0.25518301458E+04  0.10100000352E+00 0.  1.
</event>
<event>
 5   0  0.4125758E-07  0.3394438E+04  0.7818609E-02  0.8139273E-01
       -1   -1    0    0    0  501  0.00000000000E+00  0.00000000000E+00  0.18915175258E+04  0.18915175258E+04  0.50400001928E-02 0.  1.
        1   -1    0    0  501    0  0.00000000000E+00  0.00000000000E+00 -0.15228791333E+04  0.15228791333E+04  0.50400001928E-02 0. -1.
    10030    2    1    2    0    0  0.00000000000E+00  0.00000000000E+00  0.36863839254E+03  0.34143966591E+04  0.33944381393E+04 0.  0.
        2    1    3    3  502    0  0.12767180147E+04  0.66436714997E+03 -0.72050304954E+03  0.16095083856E+04  0.25500000920E-02 0. -1.
       -2    1    3    3    0  502 -0.12767180147E+04 -0.66436714997E+03  0.10891414421E+04  0.18048882735E+04  0.25500000920E-02 0.  1.
</event>
<event>
 5   0  0.4109937E-07  0.3716243E+04  0.7818609E-02  0.8064372E-01
        1   -1    0    0  501    0  0.00000000000E+00  0.00000000000E+00  0.15279248655E+04  0.15279248655E+04  0.50400001928E-02 0.  1.
       -1   -1    0    0    0  501  0.00000000000E+00  0.00000000000E+00 -0.22596757300E+04  0.22596757300E+04  0.50400001928E-02 0. -1.
    10030    2    1    2    0    0  0.00000000000E+00  0.00000000000E+00 -0.73175086451E+03  0.37876005955E+04  0.37162425840E+04 0.  0.
        5    1    3    3  502    0 -0.15806435070E+04  0.97583231747E+03 -0.41041860013E+03  0.19024058782E+04  0.46999998093E+01 0. -1.
       -5    1    3    3    0  502  0.15806435070E+04 -0.97583231747E+03 -0.32133226438E+03  0.18851947173E+04  0.46999998093E+01 0.  1.
</event>
<event>
 5   0  0.4109937E-07  0.3339726E+04  0.7818609E-02  0.8152860E-01
       -1   -1    0    0    0  501  0.00000000000E+00  0.00000000000E+00  0.24007608337E+04  0.24007608337E+04  0.50400001928E-02 0.  1.
        1   -1    0    0  501    0  0.00000000000E+00  0.00000000000E+00 -0.11614825103E+04  0.11614825103E+04  0.50400001928E-02 0. -1.
    10030    2    1    2    0    0  0.00000000000E+00  0.00000000000E+00  0.12392783234E+04  0.35622433440E+04  0.33397255694E+04 0.  0.
        5    1    3    3  502    0 -0.52437771195E+03  0.65183082148E+03 -0.92183666812E+03  0.12448535405E+04  0.46999998093E+01 0. -1.
       -5    1    3    3    0  502  0.52437771195E+03 -0.65183082148E+03  0.21611149915E+04  0.23173898035E+04  0.46999998093E+01 0.  1.
</event>
<event>
 5   0  0.4125758E-07  0.2806378E+04  0.7818609E-02  0.8301291E-01
       -1   -1    0    0    0  501  0.00000000000E+00  0.00000000000E+00  0.14422217873E+04  0.14422217873E+04  0.50400001928E-02 0.  1.
        1   -1    0    0  501    0  0.00000000000E+00  0.00000000000E+00 -0.13652122089E+04  0.13652122089E+04  0.50400001928E-02 0. -1.
    10030    2    1    2    0    0  0.00000000000E+00  0.00000000000E+00  0.77009578374E+02  0.28074339961E+04  0.28063775882E+04 0.  0.
        2    1    3    3  502    0  0.88052303032E+03  0.10212471911E+04  0.42681602572E+03  0.14143686054E+04  0.25500000920E-02 0. -1.
       -2    1    3    3    0  502 -0.88052303032E+03 -0.10212471911E+04 -0.34980644734E+03  0.13930653907E+04  0.25500000920E-02 0.  1.
</event>
<event>
 5   0  0.1277635E-06  0.3498596E+04  0.7818609E-02  0.8114123E-01
       -2   -1    0    0    0  501  0.00000000000E+00  0.00000000000E+00  0.15322724038E+04  0.15322724038E+04  0.25500000920E-02 0. -1.
        2   -1    0    0  501    0  0.00000000000E+00  0.00000000000E+00 -0.19970621719E+04  0.19970621719E+04  0.25500000920E-02 0.  1.
    10030    2    1    2    0    0  0.00000000000E+00  0.00000000000E+00 -0.46478976802E+03  0.35293345757E+04  0.34985958639E+04 0.  0.
        4    1    3    3  502    0  0.11459449929E+03 -0.15141822918E+04  0.64365996437E+03  0.16492967212E+04  0.12699999809E+01 0. -1.
       -4    1    3    3    0  502 -0.11459449929E+03  0.15141822918E+04 -0.11084497324E+04  0.18800378545E+04  0.12699999809E+01 0.  1.
</event>
<event>
 5   0  0.4289684E-07  0.3399464E+04  0.7818609E-02  0.8138038E-01
       -1   -1    0    0    0  501  0.00000000000E+00  0.00000000000E+00  0.22913151939E+04  0.22913151939E+04  0.50400001928E-02 0. -1.
        1   -1    0    0  501    0  0.00000000000E+00  0.00000000000E+00 -0.12608870053E+04  0.12608870053E+04  0.50400001928E-02 0.  1.
    10030    2    1    2    0    0  0.00000000000E+00  0.00000000000E+00  0.10304281886E+04  0.35522021992E+04  0.33994644008E+04 0.  0.
        4    1    3    3  502    0  0.12617574863E+04 -0.21437644110E+03  0.16839946352E+04  0.21151427273E+04  0.12699999809E+01 0. -1.
       -4    1    3    3    0  502 -0.12617574863E+04  0.21437644110E+03 -0.65356644655E+03  0.14370594719E+04  0.12699999809E+01 0.  1.
</event>
<event>
 5   0  0.4109937E-07  0.3411953E+04  0.7818609E-02  0.8134979E-01
       -1   -1    0    0    0  501  0.00000000000E+00  0.00000000000E+00  0.15662200621E+04  0.15662200621E+04  0.50400001928E-02 0.  1.
        1   -1    0    0  501    0  0.00000000000E+00  0.00000000000E+00 -0.18582038675E+04  0.18582038676E+04  0.50400001928E-02 0. -1.
    10030    2    1    2    0    0  0.00000000000E+00  0.00000000000E+00 -0.29198380544E+03  0.34244239297E+04  0.34119532100E+04 0.  0.
        5    1    3    3  502    0  0.10946104466E+04 -0.59383742539E+03  0.10242539863E+04  0.16124308469E+04  0.46999998093E+01 0.  1.
       -5    1    3    3    0  502 -0.10946104466E+04  0.59383742539E+03 -0.13162377918E+04  0.18119930828E+04  0.46999998093E+01 0. -1.
</event>
<event>
 5   0  0.4125758E-07  0.3428185E+04  0.7818609E-02  0.8131023E-01
        1   -1    0    0  501    0  0.00000000000E+00  0.00000000000E+00  0.20963697458E+04  0.20963697458E+04  0.50400001928E-02 0. -1.
       -1   -1    0    0    0  501  0.00000000000E+00  0.00000000000E+00 -0.14015242399E+04  0.14015242399E+04  0.50400001928E-02 0.  1.
    10030    2    1    2    0    0  0.00000000000E+00  0.00000000000E+00  0.69484550589E+03  0.34978939857E+04  0.34281849510E+04 0.  0.
        2    1    3    3  502    0 -0.10511870333E+04 -0.12139623306E+04 -0.26427948884E+03  0.16274342897E+04  0.25500000920E-02 0.  1.
       -2    1    3    3    0  502  0.10511870333E+04  0.12139623306E+04  0.95912499473E+03  0.18704596960E+04  0.25500000920E-02 0. -1.
</event>
<event>
 5   0  0.1300176E-06  0.3351578E+04  0.7818609E-02  0.8149894E-01
       -2   -1    0    0    0  501  0.00000000000E+00  0.00000000000E+00  0.13192093582E+04  0.13192093582E+04  0.25500000920E-02 0. -1.
        2   -1    0    0  501    0  0.00000000000E+00  0.00000000000E+00 -0.21287510964E+04  0.21287510964E+04  0.25500000920E-02 0.  1.
    10030    2    1    2    0    0  0.00000000000E+00  0.00000000000E+00 -0.80954173822E+03  0.34479604545E+04  0.33515777583E+04 0.  0.
        1    1    3    3  502    0  0.66291148895E+03 -0.13800133066E+04 -0.11058220571E+04  0.18885790400E+04  0.50400001928E-02 0.  1.
       -1    1    3    3    0  502 -0.66291148895E+03  0.13800133066E+04  0.29628031885E+03  0.15593814145E+04  0.50400001928E-02 0. -1.
</event>
<event>
 5   0  0.1256208E-06  0.3395970E+04  0.7818609E-02  0.8138896E-01
       -2   -1    0    0    0  501  0.00000000000E+00  0.00000000000E+00  0.11833390643E+04  0.11833390643E+04  0.25500000920E-02 0.  1.
        2   -1    0    0  501    0  0.00000000000E+00  0.00000000000E+00 -0.24364550262E+04  0.24364550262E+04  0.25500000920E-02 0. -1.
    10030    2    1    2    0    0  0.00000000000E+00  0.00000000000E+00 -0.12531159618E+04  0.36197940905E+04  0.33959696176E+04 0.  0.
        3    1    3    3  502    0 -0.50209556652E+03 -0.20514270756E+03  0.10885184878E+04  0.12161644613E+04  0.10100000352E+00 0.  1.
       -3    1    3    3    0  502  0.50209556652E+03  0.20514270756E+03 -0.23416344496E+04  0.24036296292E+04  0.10100000352E+00 0. -1.
</event>
<event>
 5   0  0.1256208E-06  0.3440438E+04  0.7818609E-02  0.8128052E-01
       -2   -1    0    0    0  501  0.00000000000E+00  0.00000000000E+00  0.13113136915E+04  0.13113136915E+04  0.25500000920E-02 0.  1.
        2   -1    0    0  501    0  0.00000000000E+00  0.00000000000E+00 -0.22566329566E+04  0.22566329566E+04  0.25500000920E-02 0. -1.
    10030    2    1    2    0    0  0.00000000000E+00  0.00000000000E+00 -0.94531926508E+03  0.35679466481E+04  0.34404381656E+04 0.  0.
        3    1    3    3  502    0  0.13051554113E+04 -0.11026181285E+04 -0.67995863575E+03  0.18388967186E+04  0.10100000352E+00 0.  1.
       -3    1    3    3    0  502 -0.13051554113E+04  0.11026181285E+04 -0.26536062933E+03  0.17290499296E+04  0.10100000352E+00 0. -1.
</event>
<event>
 5   0  0.4289684E-07  0.3273927E+04  0.7818609E-02  0.8169561E-01
        1   -1    0    0  501    0  0.00000000000E+00  0.00000000000E+00  0.15365362913E+04  0.15365362913E+04  0.50400001928E-02 0.  1.
       -1   -1    0    0    0  501  0.00000000000E+00  0.00000000000E+00 -0.17439547139E+04  0.17439547139E+04  0.50400001928E-02 0. -1.
    10030    2    1    2    0    0  0.00000000000E+00  0.00000000000E+00 -0.20741842259E+03  0.32804910053E+04  0.32739271271E+04 0.  0.
        4    1    3    3  502    0 -0.66519017454E+03 -0.12521777647E+04  0.71599018340E+03  0.15884176649E+04  0.12699999809E+01 0.  1.
       -4    1    3    3    0  502  0.66519017454E+03  0.12521777647E+04 -0.92340860600E+03  0.16920733404E+04  0.12699999809E+01 0. -1.
</event>
<event>
 5   0  0.1300176E-06  0.3396551E+04  0.7818609E-02  0.8138753E-01
       -2   -1    0    0    0  501  0.00000000000E+00  0.00000000000E+00  0.14008170407E+04  0.14008170407E+04  0.25500000920E-02 0.  1.
        2   -1    0    0  501    0  0.00000000000E+00  0.00000000000E+00 -0.20588986204E+04  0.20588986204E+04  0.25500000920E-02 0. -1.
    10030    2    1    2    0    0  0.00000000000E+00  0.00000000000E+00 -0.65808157970E+03  0.34597156611E+04  0.33965513525E+04 0.  0.
        1    1    3    3  502    0 -0.15815366993E+04  0.61835207013E+03 -0.35232766680E+03  0.17342872884E+04  0.50400001928E-02 0.  1.
       -1    1    3    3    0  502  0.15815366993E+04 -0.61835207013E+03 -0.30575391290E+03  0.17254283727E+04  0.50400001928E-02 0. -1.
</event>
<event>
 5   0  0.4125758E-07  0.3366682E+04  0.7818609E-02  0.8146132E-01
       -1   -1    0    0    0  501  0.00000000000E+00  0.00000000000E+00  0.11366692978E+04  0.11366692978E+04  0.50400001928E-02 0.  1.
        1   -1    0    0  501    0  0.00000000000E+00  0.00000000000E+00 -0.24929298576E+04  0.24929298576E+04  0.50400001928E-02 0. -1.
    10030    2    1    2    0    0  0.00000000000E+00  0.00000000000E+00 -0.13562605598E+04  0.36295991554E+04  0.33666819456E+04 0.  0.
        2    1    3    3  502    0 -0.12822144731E+04  0.23676971294E+03  0.46967418034E+03  0.13859032029E+04  0.25500000920E-02 0.  1.
       -2    1    3    3    0  502  0.12822144731E+04 -0.23676971294E+03 -0.18259347401E+04  0.22436959525E+04  0.25500000920E-02 0. -1.
</event>
<event>
 5   0  0.4464951E-07  0.3429175E+04  0.7818609E-02  0.8130783E-01
        1   -1    0    0  501    0  0.00000000000E+00  0.00000000000E+00  0.21182112907E+04  0.21182112907E+04  0.50400001928E-02 0. -1.
       -1   -1    0    0    0  501  0.00000000000E+00  0.00000000000E+00 -0.13878737527E+04  0.13878737527E+04  0.50400001928E-02 0.  1.
    10030    2    1    2    0    0  0.00000000000E+00  0.00000000000E+00  0.73033753806E+03  0.35060850434E+04  0.34291747421E+04 0.  0.
        3    1    3    3  502    0 -0.12258911722E+04 -0.72280274183E+03  0.13429421027E+04  0.19567182912E+04  0.10100000352E+00 0. -1.
       -3    1    3    3    0  502  0.12258911722E+04  0.72280274183E+03 -0.61260456467E+03  0.15493667521E+04  0.10100000352E+00 0.  1.
</event>
<event>
 5   0  0.4109937E-07  0.3395910E+04  0.7818609E-02  0.8138911E-01
        1   -1    0    0  501    0  0.00000000000E+00  0.00000000000E+00  0.10806802627E+04  0.10806802627E+04  0.50400001928E-02 0. -1.
       -1   -1    0    0    0  501  0.00000000000E+00  0.00000000000E+00 -0.26678117448E+04  0.26678117448E+04  0.50400001928E-02 0.  1.
    10030    2    1    2    0    0  0.00000000000E+00  0.00000000000E+00 -0.15871314821E+04  0.37484920075E+04  0.33959101856E+04 0.  0.
        5    1    3    3  502    0  0.12865497597E+03  0.12517554976E+04 -0.20519196964E+04  0.24070397710E+04  0.46999998093E+01 0.  1.
       -5    1    3    3    0  502 -0.12865497597E+03 -0.12517554976E+04  0.46478821427E+03  0.13414522365E+04  0.46999998093E+01 0. -1.
</event>
<event>
 5   0  0.1268230E-06  0.3364266E+04  0.7818609E-02  0.8146733E-01
       -2   -1    0    0    0  501  0.00000000000E+00  0.00000000000E+00  0.15499522867E+04  0.15499522867E+04  0.25500000920E-02 0.  1.
        2   -1    0    0  501    0  0.00000000000E+00  0.00000000000E+00 -0.18255866118E+04  0.18255866118E+04  0.25500000920E-02 0. -1.
    10030    2    1    2    0    0  0.00000000000E+00  0.00000000000E+00 -0.27563432508E+03  0.33755388985E+04  0.33642664244E+04 0.  0.
        2    1    3    3  502    0  0.68083977000E+03 -0.98086604951E+03  0.10510289441E+04  0.15906925664E+04  0.25500000920E-02 0.  1.
       -2    1    3    3    0  502 -0.68083977000E+03  0.98086604951E+03 -0.13266632692E+04  0.17848463321E+04  0.25500000920E-02 0. -1.
</event>
<event>
 5   0  0.1300176E-06  0.3548769E+04  0.7818609E-02  0.8102329E-01
        2   -1    0    0  501    0  0.00000000000E+00  0.00000000000E+00  0.18856646614E+04  0.18856646614E+04  0.25500000920E-02 0.  1.
       -2   -1    0    0    0  501  0.00000000000E+00  0.00000000000E+00 -0.16696710881E+04  0.16696710881E+04  0.25500000920E-02 0. -1.
    10030    2    1    2    0    0  0.00000000000E+00  0.00000000000E+00  0.21599357328E+03  0.35553357495E+04  0.35487686693E+04 0.  0.
        1    1    3    3  502    0 -0.10418463769E+04  0.11487688812E+04  0.97175577009E+03  0.18301429158E+04  0.50400001928E-02 0.  1.
       -1    1    3    3    0  502  0.10418463769E+04 -0.11487688812E+04 -0.75576219680E+03  0.17251928337E+04  0.50400001928E-02 0. -1.
</event>
<event>
 5   0  0.1269497E-06  0.3475542E+04  0.7818609E-02  0.8119611E-01
       -2   -1    0    0    0  501  0.00000000000E+00  0.00000000000E+00  0.15141634616E+04  0.15141634616E+04  0.25500000920E-02 0.  1.
        2   -1    0    0  501    0  0.00000000000E+00  0.00000000000E+00 -0.19944008249E+04  0.19944008249E+04  0.25500000920E-02 0. -1.
    10030    2    1    2    0    0  0.00000000000E+00  0.00000000000E+00 -0.48023736330E+03  0.35085642865E+04  0.34755424652E+04 0.  0.
        5    1    3    3  502    0 -0.10930382650E+04 -0.60383152660E+03  0.97986742509E+03  0.15872956316E+04  0.46999998093E+01 0.  1.
       -5    1    3    3    0  502  0.10930382650E+04  0.60383152660E+03 -0.14601047884E+04  0.19212686549E+04  0.46999998093E+01 0. -1.
</event>
<event>
 5   0  0.4125758E-07  0.3328339E+04  0.7818609E-02  0.8155722E-01
        1   -1    0    0  501    0  0.00000000000E+00  0.00000000000E+00  0.21740179884E+04  0.21740179884E+04  0.50400001928E-02 0.  1.
       -1   -1    0    0    0  501  0.00000000000E+00  0.00000000000E+00 -0.12738902120E+04  0.12738902120E+04  0.50400001928E-02 0. -1.
    10030    2    1    2    0    0  0.00000000000E+00  0.00000000000E+00  0.90012777644E+03  0.34479082004E+04  0.33283390669E+04 0.  0.
        2    1    3    3  502    0 -0.11216881074E+04  0.82763342013E+03  0.13917295447E+04  0.19697899416E+04  0.25500000920E-02 0.  1.
       -2    1    3    3    0  502  0.11216881074E+04 -0.82763342013E+03 -0.49160176822E+03  0.14781182588E+04  0.25500000920E-02 0. -1.
</event>
<event>
 5   0  0.1277635E-06  0.3382927E+04  0.7818609E-02  0.8142109E-01
        2   -1    0    0  501    0  0.00000000000E+00  0.00000000000E+00  0.16827548389E+04  0.16827548389E+04  0.25500000920E-02 0. -1.
       -2   -1    0    0    0  501  0.00000000000E+00  0.00000000000E+00 -0.17002168059E+04  0.17002168059E+04  0.25500000920E-02 0.  1.
    10030    2    1    2    0    0  0.00000000000E+00  0.00000000000E+00 -0.17461967000E+02  0.33829716448E+04  0.33829265776E+04 0.  0.
        4    1    3    3  502    0 -0.79410057035E+03  0.12287432974E+04 -0.85764784554E+03  0.16958676972E+04  0.12699999809E+01 0.  1.
       -4    1    3    3    0  502  0.79410057035E+03 -0.12287432974E+04  0.84018587854E+03  0.16871039476E+04  0.12699999809E+01 0. -1.
</event>
<event>
 5   0  0.1300176E-06  0.3400419E+04  0.7818609E-02  0.8137803E-01
       -2   -1    0    0    0  501  0.00000000000E+00  0.00000000000E+00  0.16387941935E+04  0.16387941935E+04  0.25500000920E-02 0. -1.
        2   -1    0    0  501    0  0.00000000000E+00  0.00000000000E+00 -0.17639264807E+04  0.17639264807E+04  0.25500000920E-02 0.  1.
    10030    2    1    2    0    0  0.00000000000E+00  0.00000000000E+00 -0.12513228716E+03  0.34027206742E+04  0.34004190767E+04 0.  0.
        1    1    3    3  502    0 -0.85137812451E+03 -0.54470109789E+03  0.13055346032E+04  0.16510495441E+04  0.50400001928E-02 0. -1.
       -1    1    3    3    0  502  0.85137812451E+03  0.54470109789E+03 -0.14306668903E+04  0.17516711301E+04  0.50400001928E-02 0.  1.
</event>
<event>
 5   0  0.4272633E-07  0.3375838E+04  0.7818609E-02  0.8143862E-01
       -1   -1    0    0    0  501  0.00000000000E+00  0.00000000000E+00  0.14897498654E+04  0.14897498654E+04  0.50400001928E-02 0.  1.
        1   -1    0    0  501    0  0.00000000000E+00  0.00000000000E+00 -0.19124485890E+04  0.19124485890E+04  0.50400001928E-02 0. -1.
    10030    2    1    2    0    0  0.00000000000E+00  0.00000000000E+00 -0.42269872362E+03  0.34021984544E+04  0.33758376904E+04 0.  0.
        1    1    3    3  502    0 -0.11615002842E+04  0.11972046580E+04 -0.47160631279E+03  0.17334342842E+04  0.50400001928E-02 0. -1.
       -1    1    3    3    0  502  0.11615002842E+04 -0.11972046580E+04  0.48907589166E+02  0.16687641702E+04  0.50400001928E-02 0.  1.
</event>
<event>
 5   0  0.4109937E-07  0.3353712E+04  0.7818609E-02  0.8149361E-01
       -1   -1    0    0    0  501  0.00000000000E+00  0.00000000000E+00  0.15510008957E+04  0.15510008957E+04  0.50400001928E-02 0. -1.
        1   -1    0    0  501    0  0.00000000000E+00  0.00000000000E+00 -0.18129240207E+04  0.18129240207E+04  0.50400001928E-02 0.  1.
    10030    2    1    2    0    0  0.00000000000E+00  0.00000000000E+00 -0.26192312500E+03  0.33639249164E+04  0.33537124384E+04 0.  0.
        5    1    3    3  502    0  0.76905742029E+03  0.25968320857E+02 -0.16253645012E+04  0.17983201943E+04  0.46999998093E+01 0.  1.
       -5    1    3    3    0  502 -0.76905742029E+03 -0.25968320857E+02  0.13634413762E+04  0.15656047221E+04  0.46999998093E+01 0. -1.
</event>
<event>
 5   0  0.1269497E-06  0.3501487E+04  0.7818609E-02  0.8113438E-01
        2   -1    0    0  501    0  0.00000000000E+00  0.00000000000E+00  0.18406744095E+04  0.18406744095E+04  0.25500000920E-02 0.  1.
       -2   -1    0    0    0  501  0.00000000000E+00  0.00000000000E+00 -0.16652065378E+04  0.16652065378E+04  0.25500000920E-02 0. -1.
    10030    2    1    2    0    0  0.00000000000E+00  0.00000000000E+00  0.17546787173E+03  0.35058809473E+04  0.35014871473E+04 0.  0.
        5    1    3    3  502    0 -0.13027641799E+04 -0.10514746137E+04 -0.42504893161E+03  0.17272759061E+04  0.46999998093E+01 0. -1.
       -5    1    3    3    0  502  0.13027641799E+04  0.10514746137E+04  0.60051680334E+03  0.17786050412E+04  0.46999998093E+01 0.  1.
</event>
<event>
 5   0  0.1269497E-06  0.3399765E+04  0.7818609E-02  0.8137964E-01
       -2   -1    0    0    0  501  0.00000000000E+00  0.00000000000E+00  0.18461586252E+04  0.18461586252E+04  0.25500000920E-02 0.  1.
        2   -1    0    0  501    0  0.00000000000E+00  0.00000000000E+00 -0.15651958286E+04  0.15651958286E+04  0.25500000920E-02 0. -1.
    10030    2    1    2    0    0  0.00000000000E+00  0.00000000000E+00  0.28096279665E+03  0.34113544538E+04  0.33997645677E+04 0.  0.
        5    1    3    3  502    0 -0.10097453991E+04  0.74057628643E+03  0.12939823128E+04  0.18006807943E+04  0.46999998093E+01 0. -1.
       -5    1    3    3    0  502  0.10097453991E+04 -0.74057628643E+03 -0.10130195162E+04  0.16106736595E+04  0.46999998093E+01 0.  1.
</event>
<event>
 5   0  0.1269497E-06  0.3363173E+04  0.7818609E-02  0.8147004E-01
        2   -1    0    0  501    0  0.00000000000E+00  0.00000000000E+00  0.12970609070E+04  0.12970609070E+04  0.25500000920E-02 0. -1.
       -2   -1    0    0    0  501  0.00000000000E+00  0.00000000000E+00 -0.21801087905E+04  0.21801087905E+04  0.25500000920E-02 0.  1.
    10030    2    1    2    0    0  0.00000000000E+00  0.00000000000E+00 -0.88304788342E+03  0.34771696975E+04  0.33631734330E+04 0.  0.
        5    1    3    3  502    0 -0.12553649536E+04  0.63981740380E+03  0.50741204046E+03  0.14975969237E+04  0.46999998093E+01 0. -1.
       -5    1    3    3    0  502  0.12553649536E+04 -0.63981740380E+03 -0.13904599239E+04  0.19795727738E+04  0.46999998093E+01 0.  1.
</event>
<event>
 5   0  0.1277635E-06  0.3367437E+04  0.7818609E-02  0.8145945E-01
        2   -1    0    0  501    0  0.00000000000E+00  0.00000000000E+00  0.14621882117E+04  0.14621882117E+04  0.25500000920E-02 0.  1.
       -2   -1    0    0    0  501  0.00000000000E+00  0.00000000000E+00 -0.19388114520E+04  0.19388114520E+04  0.25500000920E-02 0. -1.
    10030    2    1    2    0    0  0.00000000000E+00  0.00000000000E+00 -0.47662324033E+03  0.34009996638E+04  0.33674365621E+04 0.  0.
        4    1    3    3  502    0 -0.11708061246E+03  0.84020939859E+03 -0.17071959591E+04  0.19063523701E+04  0.12699999809E+01 0. -1.
       -4    1    3    3    0  502  0.11708061246E+03 -0.84020939859E+03  0.12305727188E+04  0.14946472936E+04  0.12699999809E+01 0.  1.
</event>
<event>
 5   0  0.1277635E-06  0.3410769E+04  0.7818609E-02  0.8135268E-01
        2   -1    0    0  501    0  0.00000000000E+00  0.00000000000E+00  0.17843621046E+04  0.17843621046E+04  0.25500000920E-02 0. -1.
       -2   -1    0    0    0  501  0.00000000000E+00  0.00000000000E+00 -0.16299029472E+04  0.16299029472E+04  0.25500000920E-02 0.  1.
    10030    2    1    2    0    0  0.00000000000E+00  0.00000000000E+00  0.15445915739E+03  0.34142650518E+04  0.34107694458E+04 0.  0.
        4    1    3    3  502    0  0.14271022510E+04  0.19379808020E+03  0.99148752678E+03  0.17484929681E+04  0.12699999809E+01 0. -1.
       -4    1    3    3    0  502 -0.14271022510E+04 -0.19379808020E+03 -0.83702836940E+03  0.16657720837E+04  0.12699999809E+01 0.  1.
</event>
<event>
 5   0  0.4109937E-07  0.3341524E+04  0.7818609E-02  0.8152409E-01
       -1   -1    0    0    0  501  0.00000000000E+00  0.00000000000E+00  0.18012037063E+04  0.18012037063E+04  0.50400001928E-02 0.  1.
        1   -1    0    0  501    0  0.00000000000E+00  0.00000000000E+00 -0.15497669520E+04  0.15497669520E+04  0.50400001928E-02 0. -1.
    10030    2    1    2    0    0  0.00000000000E+00  0.00000000000E+00  0.25143675433E+03  0.33509706583E+04  0.33415241898E+04 0.  0.
        5    1    3    3  502    0 -0.26375498432E+03 -0.16441180357E+04  0.26297414903E+03  0.16857841796E+04  0.46999998093E+01 0.  1.
       -5    1    3    3    0  502  0.26375498432E+03  0.16441180357E+04 -0.11537394690E+02  0.16651864787E+04  0.46999998093E+01 0. -1.
</event>
<event>
 5   0  0.1256208E-06  0.3403365E+04  0.7818609E-02  0.8137081E-01
       -2   -1    0    0    0  501  0.00000000000E+00  0.00000000000E+00  0.17683318731E+04  0.17683318731E+04  0.25500000920E-02 0.  1.
        2   -1    0    0  501    0  0.00000000000E+00  0.00000000000E+00 -0.16375454033E+04  0.16375454034E+04  0.25500000920E-02 0. -1.
    10030    2    1    2    0    0  0.00000000000E+00  0.00000000000E+00  0.13078646979E+03  0.34058772765E+04  0.34033652349E+04 0.  0.
        3    1    3    3  502    0 -0.15477780858E+04 -0.46546515876E+03  0.59818539710E+03  0.17233979797E+04  0.10100000352E+00 0. -1.
       -3    1    3    3    0  502  0.15477780858E+04  0.46546515876E+03 -0.46739892731E+03  0.16824792968E+04  0.10100000352E+00 0.  1.
</event>
<event>
 5   0  0.1268230E-06  0.3322959E+04  0.7818609E-02  0.8157078E-01
        2   -1    0    0  501    0  0.00000000000E+00  0.00000000000E+00  0.34049398461E+04  0.34049398461E+04  0.25500000920E-02 0.  1.
       -2   -1    0    0    0  501  0.00000000000E+00  0.00000000000E+00 -0.81073777042E+03  0.81073777043E+03  0.25500000920E-02 0. -1.
    10030    2    1    2    0    0  0.00000000000E+00  0.00000000000E+00  0.25942020757E+04  0.42156776166E+04  0.33229585247E+04 0.  0.
        2    1    3    3  502    0  0.20128587812E+03 -0.76978642459E+03 -0.55331644234E+03  0.96914716611E+03  0.25500000920E-02 0. -1.
       -2    1    3    3    0  502 -0.20128587812E+03  0.76978642459E+03  0.31475185181E+04  0.32465304505E+04  0.25500000920E-02 0.  1.
</event>
<event>
 5   0  0.4464951E-07  0.3391369E+04  0.7818609E-02  0.8140028E-01
       -1   -1    0    0    0  501  0.00000000000E+00  0.00000000000E+00  0.21085096183E+04  0.21085096183E+04  0.50400001928E-02 0.  1.
        1   -1    0    0  501    0  0.00000000000E+00  0.00000000000E+00 -0.13636863738E+04  0.13636863738E+04  0.50400001928E-02 0. -1.
    10030    2    1    2    0    0  0.00000000000E+00  0.00000000000E+00  0.74482324446E+03  0.34721959921E+04  0.33913689480E+04 0.  0.
        3    1    3    3  502    0  0.20165952416E+03 -0.81594091975E+03 -0.11354133318E+04  0.14126533872E+04  0.10100000352E+00 0. -1.
       -3    1    3    3    0  502 -0.20165952416E+03  0.81594091975E+03  0.18802365763E+04  0.20595426048E+04  0.10100000352E+00 0.  1.
</event>
<event>
 5   0  0.1269497E-06  0.3414298E+04  0.7818609E-02  0.8134406E-01
        2   -1    0    0  501    0  0.00000000000E+00  0.00000000000E+00  0.17268971640E+04  0.17268971640E+04  0.25500000920E-02 0.  1.
       -2   -1    0    0    0  501  0.00000000000E+00  0.00000000000E+00 -0.16876263569E+04  0.16876263569E+04  0.25500000920E-02 0. -1.
    10030    2    1    2    0    0  0.00000000000E+00  0.00000000000E+00  0.39270807099E+02  0.34145235208E+04  0.34142976844E+04 0.  0.
        5    1    3    3  502    0  0.11238572442E+04  0.11646289756E+04  0.56273607472E+03  0.17135080204E+04  0.46999998093E+01 0.  1.
       -5    1    3    3    0  502 -0.11238572442E+04 -0.11646289756E+04 -0.52346526762E+03  0.17010155004E+04  0.46999998093E+01 0. -1.
</event>
<event>
 5   0  0.1268230E-06  0.3372393E+04  0.7818609E-02  0.8144715E-01
       -2   -1    0    0    0  501  0.00000000000E+00  0.00000000000E+00  0.13186403207E+04  0.13186403207E+04  0.25500000920E-02 0. -1.
        2   -1    0    0  501    0  0.00000000000E+00  0.00000000000E+00 -0.21562044188E+04  0.21562044188E+04  0.25500000920E-02 0.  1.
    10030    2    1    2    0    0  0.00000000000E+00  0.00000000000E+00 -0.83756409817E+03  0.34748447395E+04  0.33723926736E+04 0.  0.
        2    1    3    3  502    0  0.16902649241E+03 -0.71316673734E+03 -0.19834946420E+04  0.21145750744E+04  0.25500000920E-02 0.  1.
       -2    1    3    3    0  502 -0.16902649241E+03  0.71316673734E+03  0.11459305439E+04  0.13602696651E+04  0.25500000920E-02 0. -1.
</event>
<event>
 5   0  0.4272633E-07  0.3370012E+04  0.7818609E-02  0.8145306E-01
        1   -1    0    0  501    0  0.00000000000E+00  0.00000000000E+00  0.26758257980E+04  0.26758257980E+04  0.50400001928E-02 0. -1.
       -1   -1    0    0    0  501  0.00000000000E+00  0.00000000000E+00 -0.10610722390E+04  0.10610722390E+04  0.50400001928E-02 0.  1.
    10030    2    1    2    0    0  0.00000000000E+00  0.00000000000E+00  0.16147535590E+04  0.37368980371E+04  0.33700115554E+04 0.  0.
        1    1    3    3  502    0 -0.18187622464E+03  0.70295802311E+03  0.24934453438E+04  0.25970172556E+04  0.50400001928E-02 0. -1.
       -1    1    3    3    0  502  0.18187622464E+03 -0.70295802311E+03 -0.87869178478E+03  0.11398807815E+04  0.50400001928E-02 0.  1.
</event>
<event>
 5   0  0.1269497E-06  0.3392918E+04  0.7818609E-02  0.8139647E-01
        2   -1    0    0  501    0  0.00000000000E+00  0.00000000000E+00  0.13886578478E+04  0.13886578478E+04  0.25500000920E-02 0.  1.
       -2   -1    0    0    0  501  0.00000000000E+00  0.00000000000E+00 -0.20724859021E+04  0.20724859021E+04  0.25500000920E-02 0. -1.
    10030    2    1    2    0    0  0.00000000000E+00  0.00000000000E+00 -0.68382805431E+03  0.34611437499E+04  0.33929183971E+04 0.  0.
        5    1    3    3  502    0  0.99029241411E+03 -0.80388436722E+03 -0.14829051573E+04  0.19560007507E+04  0.46999998093E+01 0. -1.
       -5    1    3    3    0  502 -0.99029241411E+03  0.80388436722E+03  0.79907710299E+03  0.15051429991E+04  0.46999998093E+01 0.  1.
</event>
<event>
 5   0  0.4060750E-07  0.3403291E+04  0.7818609E-02  0.8137099E-01
        4   -1    0    0  501    0  0.00000000000E+00  0.00000000000E+00  0.17333071486E+04  0.17333076139E+04  0.12699999809E+01 0. -1.
       -4   -1    0    0    0  501  0.00000000000E+00  0.00000000000E+00 -0.16705614810E+04  0.16705619637E+04  0.12699999809E+01 0.  1.
    10030    2    1    2    0    0  0.00000000000E+00  0.00000000000E+00  0.62745667669E+02  0.34038695776E+04  0.34032912133E+04 0.  0.
        4    1    3    3  502    0 -0.29908767844E+03  0.16241400975E+04 -0.37895492991E+03  0.16943709592E+04  0.12699999809E+01 0.  1.
       -4    1    3    3    0  502  0.29908767844E+03 -0.16241400975E+04  0.44170059758E+03  0.17094986184E+04  0.12699999809E+01 0. -1.
</event>
<event>
 5   0  0.1256208E-06  0.3234304E+04  0.7818609E-02  0.8179816E-01
       -2   -1    0    0    0  501  0.00000000000E+00  0.00000000000E+00  0.13387576189E+04  0.13387576189E+04  0.25500000920E-02 0.  1.
        2   -1    0    0  501    0  0.00000000000E+00  0.00000000000E+00 -0.19534385006E+04  0.19534385006E+04  0.25500000920E-02 0. -1.
    10030    2    1    2    0    0  0.00000000000E+00  0.00000000000E+00 -0.61468088168E+03  0.32921961195E+04  0.32343040523E+04 0.  0.
        3    1    3    3  502    0 -0.12534042737E+04  0.25860282492E+03 -0.13136115860E+04  0.18339773999E+04  0.10100000352E+00 0. -1.
       -3    1    3    3    0  502  0.12534042737E+04 -0.25860282492E+03  0.69893070433E+03  0.14582187196E+04  0.10100000352E+00 0.  1.
</event>
<event>
 5   0  0.4125758E-07  0.3380597E+04  0.7818609E-02  0.8142685E-01
        1   -1    0    0  501    0  0.00000000000E+00  0.00000000000E+00  0.12950264084E+04  0.12950264084E+04  0.50400001928E-02 0.  1.
       -1   -1    0    0    0  501  0.00000000000E+00  0.00000000000E+00 -0.22062165130E+04  0.22062165130E+04  0.50400001928E-02 0. -1.
    10030    2    1    2    0    0  0.00000000000E+00  0.00000000000E+00 -0.91119010466E+03  0.35012429214E+04  0.33805967799E+04 0.  0.
        2    1    3    3  502    0  0.21226057322E+03 -0.76258627649E+03  0.10911957031E+04  0.13480728624E+04  0.25500000920E-02 0.  1.
       -2    1    3    3    0  502 -0.21226057322E+03  0.76258627649E+03 -0.20023858077E+04  0.21531700590E+04  0.25500000920E-02 0. -1.
</event>
<event>
 5   0  0.4109937E-07  0.3405415E+04  0.7818609E-02  0.8136579E-01
       -1   -1    0    0    0  501  0.00000000000E+00  0.00000000000E+00  0.27247280827E+04  0.27247280827E+04  0.50400001928E-02 0.  1.
        1   -1    0    0  501    0  0.00000000000E+00  0.00000000000E+00 -0.10640372625E+04  0.10640372625E+04  0.50400001928E-02 0. -1.
    10030    2    1    2    0    0  0.00000000000E+00  0.00000000000E+00  0.16606908202E+04  0.37887653452E+04  0.34054146357E+04 0.  0.
        5    1    3    3  502    0 -0.32977449882E+00 -0.10871824218E+04 -0.62759990498E+03  0.12553363923E+04  0.46999998093E+01 0. -1.
       -5    1    3    3    0  502  0.32977449882E+00  0.10871824218E+04  0.22882907251E+04  0.25334289530E+04  0.46999998093E+01 0.  1.
</event>
<event>
 5   0  0.1268230E-06  0.3392872E+04  0.7818609E-02  0.8139658E-01
        2   -1    0    0  501    0  0.00000000000E+00  0.00000000000E+00  0.28556132721E+04  0.28556132721E+04  0.25500000920E-02 0. -1.
       -2   -1    0    0    0  501  0.00000000000E+00  0.00000000000E+00 -0.10078030672E+04  0.10078030672E+04  0.25500000920E-02 0.  1.
    10030    2    1    2    0    0  0.00000000000E+00  0.00000000000E+00  0.18478102049E+04  0.38634163393E+04  0.33928724199E+04 0.  0.
        2    1    3    3  502    0  0.64355253536E+03  0.91386276462E+03 -0.52924330674E+03  0.12366905418E+04  0.25500000920E-02 0.  1.
       -2    1    3    3    0  502 -0.64355253536E+03 -0.91386276462E+03  0.23770535117E+04  0.26267257976E+04  0.25500000920E-02 0. -1.
</event>
<event>
 5   0  0.1300176E-06  0.3378490E+04  0.7818609E-02  0.8143206E-01
        2   -1    0    0  501    0  0.00000000000E+00  0.00000000000E+00  0.16972770602E+04  0.16972770602E+04  0.25500000920E-02 0.  1.
       -2   -1    0    0    0  501  0.00000000000E+00  0.00000000000E+00 -0.16812513093E+04  0.16812513093E+04  0.25500000920E-02 0. -1.
    10030    2    1    2    0    0  0.00000000000E+00  0.00000000000E+00  0.16025750914E+02  0.33785283696E+04  0.33784903610E+04 0.  0.
        1    1    3    3  502    0  0.11771900977E+04  0.39665690850E+03 -0.11367427911E+04  0.16838341374E+04  0.50400001928E-02 0. -1.
       -1    1    3    3    0  502 -0.11771900977E+04 -0.39665690850E+03  0.11527685420E+04  0.16946942322E+04  0.50400001928E-02 0.  1.
</event>
<event>
 5   0  0.4289684E-07  0.3309915E+04  0.7818609E-02  0.8160377E-01
       -1   -1    0    0    0  501  0.00000000000E+00  0.00000000000E+00  0.19224392589E+04  0.19224392589E+04  0.50400001928E-02 0. -1.
        1   -1    0    0  501    0  0.00000000000E+00  0.00000000000E+00 -0.14246923654E+04  0.14246923654E+04  0.50400001928E-02 0.  1.
    10030    2    1    2    0    0  0.00000000000E+00  0.00000000000E+00  0.49774689353E+03  0.33471316243E+04  0.33099151258E+04 0.  0.
        4    1    3    3  502    0 -0.92853660709E+03  0.22270464564E+03 -0.11180296457E+04  0.14702957157E+04  0.12699999809E+01 0.  1.
       -4    1    3    3    0  502  0.92853660709E+03 -0.22270464564E+03  0.16157765393E+04  0.18768359086E+04  0.12699999809E+01 0. -1.
</event>
<event>
 5   0  0.4464951E-07  0.3383198E+04  0.7818609E-02  0.8142042E-01
       -1   -1    0    0    0  501  0.00000000000E+00  0.00000000000E+00  0.11588513515E+04  0.11588513516E+04  0.50400001928E-02 0. -1.
        1   -1    0    0  501    0  0.00000000000E+00  0.00000000000E+00 -0.24692613828E+04  0.24692613828E+04  0.50400001928E-02 0.  1.
    10030    2    1    2    0    0  0.00000000000E+00  0.00000000000E+00 -0.13104100313E+04  0.36281127344E+04  0.33831978309E+04 0.  0.
        3    1    3    3  502    0 -0.95385306101E+03 -0.12510690336E+04  0.11489249539E+02  0.15732582121E+04  0.10100000352E+00 0. -1.
       -3    1    3    3    0  502  0.95385306101E+03  0.12510690336E+04 -0.13218992808E+04  0.20548545223E+04  0.10100000352E+00 0.  1.
</event>
<event>
 5   0  0.1268230E-06  0.3433373E+04  0.7818609E-02  0.8129764E-01
        2   -1    0    0  501    0  0.00000000000E+00  0.00000000000E+00  0.12869472217E+04  0.12869472217E+04  0.25500000920E-02 0.  1.
       -2   -1    0    0    0  501  0.00000000000E+00  0.00000000000E+00 -0.22899245295E+04  0.22899245295E+04  0.25500000920E-02 0. -1.
    10030    2    1    2    0    0  0.00000000000E+00  0.00000000000E+00 -0.10029773078E+04  0.35768717513E+04  0.34333726924E+04 0.  0.
        2    1    3    3  502    0  0.13420201981E+04  0.83815967243E+03  0.19228930533E+03  0.15938961778E+04  0.25500000920E-02 0. -1.
       -2    1    3    3    0  502 -0.13420201981E+04 -0.83815967243E+03 -0.11952666131E+04  0.19829755735E+04  0.25500000920E-02 0.  1.
</event>
<event>
 5   0  0.4464951E-07  0.3355133E+04  0.7818609E-02  0.8149007E-01
       -1   -1    0    0    0  501  0.00000000000E+00  0.00000000000E+00  0.10622477123E+04  0.10622477124E+04  0.50400001928E-02 0. -1.
        1   -1    0    0  501    0  0.00000000000E+00  0.00000000000E+00 -0.26493152124E+04  0.26493152124E+04  0.50400001928E-02 0.  1.
    10030    2    1    2    0    0  0.00000000000E+00  0.00000000000E+00 -0.15870675000E+04  0.37115629247E+04  0.33551327984E+04 0.  0.
        3    1    3    3  502    0 -0.10621718000E+03  0.36612723831E+03 -0.26007623162E+04  0.26285539522E+04  0.10100000352E+00 0.  1.
       -3    1    3    3    0  502  0.10621718000E+03 -0.36612723831E+03  0.10136948162E+04  0.10830089725E+04  0.10100000352E+00 0. -1.
</event>
<event>
 5   0  0.4272633E-07  0.3186776E+04  0.7818609E-02  0.8192318E-01
       -1   -1    0    0    0  501  0.00000000000E+00  0.00000000000E+00  0.17125774466E+04  0.17125774466E+04  0.50400001928E-02 0. -1.
        1   -1    0    0  501    0  0.00000000000E+00  0.00000000000E+00 -0.14824932926E+04  0.14824932926E+04  0.50400001928E-02 0.  1.
    10030    2    1    2    0    0  0.00000000000E+00  0.00000000000E+00  0.23008415403E+03  0.31950707392E+04  0.31867755350E+04 0.  0.
        1    1    3    3  502    0 -0.99571862859E+03 -0.11557522034E+04  0.57631120106E+03  0.16307523857E+04  0.50400001928E-02 0. -1.
       -1    1    3    3    0  502  0.99571862859E+03  0.11557522034E+04 -0.34622704703E+03  0.15643183535E+04  0.50400001928E-02 0.  1.
</event>
<event>
 5   0  0.4125758E-07  0.3385890E+04  0.7818609E-02  0.8141378E-01
       -1   -1    0    0    0  501  0.00000000000E+00  0.00000000000E+00  0.90514550719E+03  0.90514550720E+03  0.50400001928E-02 0. -1.
        1   -1    0    0  501    0  0.00000000000E+00  0.00000000000E+00 -0.31664102434E+04  0.31664102434E+04  0.50400001928E-02 0.  1.
    10030    2    1    2    0    0  0.00000000000E+00  0.00000000000E+00 -0.22612647362E+04  0.40715557506E+04  0.33858895468E+04 0.  0.
        2    1    3    3  502    0  0.62483663687E+03 -0.32033037490E+03  0.72178643225E+03  0.10069796550E+04  0.25500000920E-02 0. -1.
       -2    1    3    3    0  502 -0.62483663687E+03  0.32033037490E+03 -0.29830511685E+04  0.30645760956E+04  0.25500000920E-02 0.  1.
</event>
<event>
 5   0  0.1277635E-06  0.3336486E+04  0.7818609E-02  0.8153673E-01
       -2   -1    0    0    0  501  0.00000000000E+00  0.00000000000E+00  0.11781780716E+04  0.11781780716E+04  0.25500000920E-02 0.  1.
        2   -1    0    0  501    0  0.00000000000E+00  0.00000000000E+00 -0.23621516042E+04  0.23621516042E+04  0.25500000920E-02 0. -1.
    10030    2    1    2    0    0  0.00000000000E+00  0.00000000000E+00 -0.11839735325E+04  0.35403296758E+04  0.33364863087E+04 0.  0.
        4    1    3    3  502    0  0.70466103037E+03  0.70547733454E+03 -0.20111547849E+04  0.22447696138E+04  0.12699999809E+01 0. -1.
       -4    1    3    3    0  502 -0.70466103037E+03 -0.70547733454E+03  0.82718125234E+03  0.12955600621E+04  0.12699999809E+01 0.  1.
</event>
<event>
 5   0  0.4125758E-07  0.3345145E+04  0.7818609E-02  0.8151502E-01
        1   -1    0    0  501    0  0.00000000000E+00  0.00000000000E+00  0.17113740321E+04  0.17113740321E+04  0.50400001928E-02 0. -1.
       -1   -1    0    0    0  501  0.00000000000E+00  0.00000000000E+00 -0.16346504832E+04  0.16346504832E+04  0.50400001928E-02 0.  1.
    10030    2    1    2    0    0  0.00000000000E+00  0.00000000000E+00  0.76723548915E+02  0.33460245153E+04  0.33451447733E+04 0.  0.
        2    1    3    3  502    0  0.59234152733E+03  0.12062045599E+04 -0.95774170806E+03  0.16501718410E+04  0.25500000920E-02 0.  1.
       -2    1    3    3    0  502 -0.59234152733E+03 -0.12062045599E+04  0.10344652570E+04  0.16958526744E+04  0.25500000920E-02 0. -1.
</event>
<event>
 5   0  0.1277635E-06  0.3426080E+04  0.7818609E-02  0.8131535E-01
       -2   -1    0    0    0  501  0.00000000000E+00  0.00000000000E+00  0.11635542487E+04  0.11635542487E+04  0.25500000920E-02 0.  1.
        2   -1    0    0  501    0  0.00000000000E+00  0.00000000000E+00 -0.25220185414E+04  0.25220185414E+04  0.25500000920E-02 0. -1.
    10030    2    1    2    0    0  0.00000000000E+00  0.00000000000E+00 -0.13584642926E+04  0.36855727901E+04  0.34260796192E+04 0.  0.
        4    1    3    3  502    0  0.66357240824E+03  0.15712303298E+04 -0.50775125347E+03  0.17795802985E+04  0.12699999809E+01 0.  1.
       -4    1    3    3    0  502 -0.66357240824E+03 -0.15712303298E+04 -0.85071303917E+03  0.19059924917E+04  0.12699999809E+01 0. -1.
</event>
<event>
 5   0  0.1300176E-06  0.3418164E+04  0.7818609E-02  0.8133463E-01
        2   -1    0    0  501    0  0.00000000000E+00  0.00000000000E+00  0.16593010554E+04  0.16593010554E+04  0.25500000920E-02 0. -1.
       -2   -1    0    0    0  501  0.00000000000E+00  0.00000000000E+00 -0.17603566592E+04  0.17603566592E+04  0.25500000920E-02 0.  1.
    10030    2    1    2    0    0  0.00000000000E+00  0.00000000000E+00 -0.10105560375E+03  0.34196577146E+04  0.34181642222E+04 0.  0.
        1    1    3    3  502    0  0.70734853899E+03 -0.14532450634E+04  0.50532137699E+03  0.16934027471E+04  0.50400001928E-02 0. -1.
       -1    1    3    3    0  502 -0.70734853899E+03  0.14532450634E+04 -0.60637698074E+03  0.17262549675E+04  0.50400001928E-02 0.  1.
</event>
<event>
 5   0  0.1269497E-06  0.3389626E+04  0.7818609E-02  0.8140457E-01
        2   -1    0    0  501    0  0.00000000000E+00  0.00000000000E+00  0.13233429005E+04  0.13233429005E+04  0.25500000920E-02 0.  1.
       -2   -1    0    0    0  501  0.00000000000E+00  0.00000000000E+00 -0.21705566705E+04  0.21705566706E+04  0.25500000920E-02 0. -1.
    10030    2    1    2    0    0  0.00000000000E+00  0.00000000000E+00 -0.84721377001E+03  0.34938995711E+04  0.33896257966E+04 0.  0.
        5    1    3    3  502    0 -0.11018064064E+04  0.10575284786E+04 -0.11810770397E+04  0.19306239675E+04  0.46999998093E+01 0.  1.
       -5    1    3    3    0  502  0.11018064064E+04 -0.10575284786E+04  0.33386326969E+03  0.15632756036E+04  0.46999998093E+01 0. -1.
</event>
<event>
 5   0  0.1256208E-06  0.3351660E+04  0.7818609E-02  0.8149873E-01
       -2   -1    0    0    0  501  0.00000000000E+00  0.00000000000E+00  0.14323316319E+04  0.14323316319E+04  0.25500000920E-02 0.  1.
        2   -1    0    0  501    0  0.00000000000E+00  0.00000000000E+00 -0.19607238055E+04  0.19607238055E+04  0.25500000920E-02 0. -1.
    10030    2    1    2    0    0  0.00000000000E+00  0.00000000000E+00 -0.52839217364E+03  0.33930554374E+04  0.33516603217E+04 0.  0.
        3    1    3    3  502    0  0.15828985352E+04  0.53058700451E+03 -0.41200058118E+03  0.17195449489E+04  0.10100000352E+00 0. -1.
       -3    1    3    3    0  502 -0.15828985352E+04 -0.53058700451E+03 -0.11639159246E+03  0.16735104885E+04  0.10100000352E+00 0.  1.
</event>
<event>
 5   0  0.1277635E-06  0.3416583E+04  0.7818609E-02  0.8133848E-01
        2   -1    0    0  501    0  0.00000000000E+00  0.00000000000E+00  0.17072038031E+04  0.17072038031E+04  0.25500000920E-02 0.  1.
       -2   -1    0    0    0  501  0.00000000000E+00  0.00000000000E+00 -0.17093796530E+04  0.17093796530E+04  0.25500000920E-02 0. -1.
    10030    2    1    2    0    0  0.00000000000E+00  0.00000000000E+00 -0.21758498858E+01  0.34165834561E+04  0.34165827632E+04 0.  0.
        4    1    3    3  502    0  0.10626230759E+04 -0.10914941286E+04 -0.77421847014E+03  0.17087840959E+04  0.12699999809E+01 0. -1.
       -4    1    3    3    0  502 -0.10626230759E+04  0.10914941286E+04  0.77204262026E+03  0.17077993601E+04  0.12699999809E+01 0.  1.
</event>
<event>
 5   0  0.4464951E-07  0.3409482E+04  0.7818609E-02  0.8135583E-01
        1   -1    0    0  501    0  0.00000000000E+00  0.00000000000E+00  0.86656762257E+03  0.86656762258E+03  0.50400001928E-02 0. -1.
       -1   -1    0    0    0  501  0.00000000000E+00  0.00000000000E+00 -0.33536238035E+04  0.33536238035E+04  0.50400001928E-02 0.  1.
    10030    2    1    2    0    0  0.00000000000E+00  0.00000000000E+00 -0.24870561809E+04  0.42201914261E+04  0.34094819585E+04 0.  0.
        3    1    3    3  502    0 -0.26291544599E+03 -0.86937279370E+03  0.54214321291E+03  0.10577584127E+04  0.10100000352E+00 0. -1.
       -3    1    3    3    0  502  0.26291544599E+03  0.86937279370E+03 -0.30291993938E+04  0.31624330133E+04  0.10100000352E+00 0.  1.
</event>
<event>
 5   0  0.4125758E-07  0.3397004E+04  0.7818609E-02  0.8138642E-01
        1   -1    0    0  501    0  0.00000000000E+00  0.00000000000E+00  0.19327057719E+04  0.19327057719E+04  0.50400001928E-02 0.  1.
       -1   -1    0    0    0  501  0.00000000000E+00  0.00000000000E+00 -0.14926792712E+04  0.14926792712E+04  0.50400001928E-02 0. -1.
    10030    2    1    2    0    0  0.00000000000E+00  0.00000000000E+00  0.44002650077E+03  0.34253850431E+04  0.33970044704E+04 0.  0.
        2    1    3    3  502    0  0.13805109384E+03 -0.13286699382E+04  0.12778189951E+04  0.18485787225E+04  0.25500000920E-02 0.  1.
       -2    1    3    3    0  502 -0.13805109384E+03  0.13286699382E+04 -0.83779249432E+03  0.15768063206E+04  0.25500000920E-02 0. -1.
</event>
<event>
 5   0  0.4109937E-07  0.3431987E+04  0.7818609E-02  0.8130100E-01
       -1   -1    0    0    0  501  0.00000000000E+00  0.00000000000E+00  0.34346831447E+04  0.34346831447E+04  0.50400001928E-02 0. -1.
        1   -1    0    0  501    0  0.00000000000E+00  0.00000000000E+00 -0.85732304245E+03  0.85732304247E+03  0.50400001928E-02 0.  1.
    10030    2    1    2    0    0  0.00000000000E+00  0.00000000000E+00  0.25773601023E+04  0.42920061872E+04  0.34319865988E+04 0.  0.
        5    1    3    3  502    0 -0.81269529222E+03 -0.14640221070E+04  0.81945638518E+03  0.18642331466E+04  0.46999998093E+01 0. -1.
       -5    1    3    3    0  502  0.81269529222E+03  0.14640221070E+04  0.17579037171E+04  0.24277730405E+04  0.46999998093E+01 0.  1.
</event>
<event>
 5   0  0.1277635E-06  0.3449083E+04  0.7818609E-02  0.8125964E-01
        2   -1    0    0  501    0  0.00000000000E+00  0.00000000000E+00  0.23673170632E+04  0.23673170632E+04  0.25500000920E-02 0. -1.
       -2   -1    0    0    0  501  0.00000000000E+00  0.00000000000E+00 -0.12562927913E+04  0.12562927913E+04  0.25500000920E-02 0.  1.
    10030    2    1    2    0    0  0.00000000000E+00  0.00000000000E+00  0.11110242719E+04  0.36236098546E+04  0.34490829861E+04 0.  0.
        4    1    3    3  502    0  0.71816409039E+03 -0.48140413802E+03  0.21231735646E+04  0.22924609491E+04  0.12699999809E+01 0. -1.
       -4    1    3    3    0  502 -0.71816409039E+03  0.48140413802E+03 -0.10121492927E+04  0.13311489054E+04  0.12699999809E+01 0.  1.
</event>
<event>
 5   0  0.4272633E-07  0.3217393E+04  0.7818609E-02  0.8184239E-01
       -1   -1    0    0    0  501  0.00000000000E+00  0.00000000000E+00  0.10279325767E+04  0.10279325767E+04  0.50400001928E-02 0.  1.
        1   -1    0    0  501    0  0.00000000000E+00  0.00000000000E+00 -0.25175816277E+04  0.25175816277E+04  0.50400001928E-02 0. -1.
    10030    2    1    2    0    0  0.00000000000E+00  0.00000000000E+00 -0.14896490510E+04  0.35455142044E+04  0.32173928387E+04 0.  0.
        1    1    3    3  502    0  0.48325331831E+03  0.92496979642E+03  0.60428486694E+03  0.12059283123E+04  0.50400001928E-02 0.  1.
       -1    1    3    3    0  502 -0.48325331831E+03 -0.92496979642E+03 -0.20939339179E+04  0.23395858921E+04  0.50400001928E-02 0. -1.
</event>
<event>
 5   0  0.4109937E-07  0.3423446E+04  0.7818609E-02  0.8132176E-01
       -1   -1    0    0    0  501  0.00000000000E+00  0.00000000000E+00  0.15799315577E+04  0.15799315577E+04  0.50400001928E-02 0.  1.
        1   -1    0    0  501    0  0.00000000000E+00  0.00000000000E+00 -0.18545081453E+04  0.18545081453E+04  0.50400001928E-02 0. -1.
    10030    2    1    2    0    0  0.00000000000E+00  0.00000000000E+00 -0.27457658762E+03  0.34344397031E+04  0.34234461835E+04 0.  0.
        5    1    3    3  502    0 -0.11430429136E+04 -0.35035245918E+02 -0.14150341857E+04  0.18193730809E+04  0.46999998093E+01 0. -1.
       -5    1    3    3    0  502  0.11430429136E+04  0.35035245918E+02  0.11404575981E+04  0.16150666221E+04  0.46999998093E+01 0.  1.
</event>
<event>
 5   0  0.4272633E-07  0.3459692E+04  0.7818609E-02  0.8123409E-01
       -1   -1    0    0    0  501  0.00000000000E+00  0.00000000000E+00  0.21248653929E+04  0.21248653929E+04  0.50400001928E-02 0.  1.
        1   -1    0    0  501    0  0.00000000000E+00  0.00000000000E+00 -0.14082623995E+04  0.14082623996E+04  0.50400001928E-02 0. -1.
    10030    2    1    2    0    0  0.00000000000E+00  0.00000000000E+00  0.71660299339E+03  0.35331277925E+04  0.34596924933E+04 0.  0.
        1    1    3    3  502    0 -0.27115087590E+03 -0.12285713030E+04 -0.85410396580E+03  0.15206590112E+04  0.50400001928E-02 0. -1.
       -1    1    3    3    0  502  0.27115087590E+03  0.12285713030E+04  0.15707069592E+04  0.20124687813E+04  0.50400001928E-02 0.  1.
</event>
<event>
 5   0  0.4125758E-07  0.3380697E+04  0.7818609E-02  0.8142660E-01
       -1   -1    0    0    0  501  0.00000000000E+00  0.00000000000E+00  0.20243184416E+04  0.20243184416E+04  0.50400001928E-02 0.  1.
        1   -1    0    0  501    0  0.00000000000E+00  0.00000000000E+00 -0.14114764596E+04  0.14114764596E+04  0.50400001928E-02 0. -1.
    10030    2    1    2    0    0  0.00000000000E+00  0.00000000000E+00  0.61284198195E+03  0.34357949012E+04  0.33806968673E+04 0.  0.
        2    1    3    3  502    0 -0.74113460433E+03  0.37978235162E+03  0.18013680520E+04  0.19845508296E+04  0.25500000920E-02 0.  1.
       -2    1    3    3    0  502  0.74113460433E+03 -0.37978235162E+03 -0.11885260700E+04  0.14512440717E+04  0.25500000920E-02 0. -1.
</event>
<event>
 5   0  0.1269497E-06  0.3377029E+04  0.7818609E-02  0.8143567E-01
       -2   -1    0    0    0  501  0.00000000000E+00  0.00000000000E+00  0.18834092004E+04  0.18834092004E+04  0.25500000920E-02 0.  1.
        2   -1    0    0  501    0  0.00000000000E+00  0.00000000000E+00 -0.15137874885E+04  0.15137874885E+04  0.25500000920E-02 0. -1.
    10030    2    1    2    0    0  0.00000000000E+00  0.00000000000E+00  0.36962171187E+03  0.33971966889E+04  0.33770290395E+04 0.  0.
        5    1    3    3  502    0  0.64374185680E+03 -0.15085039493E+04  0.58854472260E+03  0.17425253868E+04  0.46999998093E+01 0.  1.
       -5    1    3    3    0  502 -0.64374185680E+03  0.15085039493E+04 -0.21892301073E+03  0.16546713021E+04  0.46999998093E+01 0. -1.
</event>
<event>
 5   0  0.1277635E-06  0.3289252E+04  0.7818609E-02  0.8165636E-01
       -2   -1    0    0    0  501  0.00000000000E+00  0.00000000000E+00  0.88947719936E+03  0.88947719936E+03  0.25500000920E-02 0. -1.
        2   -1    0    0  501    0  0.00000000000E+00  0.00000000000E+00 -0.30408807845E+04  0.30408807845E+04  0.25500000920E-02 0.  1.
    10030    2    1    2    0    0  0.00000000000E+00  0.00000000000E+00 -0.21514035851E+04  0.39303579839E+04  0.32892516619E+04 0.  0.
        4    1    3    3  502    0  0.81401502072E+03  0.14287439889E+04 -0.11107977918E+04  0.19843898778E+04  0.12699999809E+01 0. -1.
       -4    1    3    3    0  502 -0.81401502072E+03 -0.14287439889E+04 -0.10406057934E+04  0.19459681061E+04  0.12699999809E+01 0.  1.
</event>
<event>
 5   0  0.4109937E-07  0.3420164E+04  0.7818609E-02  0.8132975E-01
        1   -1    0    0  501    0  0.00000000000E+00  0.00000000000E+00  0.94374578513E+03  0.94374578514E+03  0.50400001928E-02 0.  1.
       -1   -1    0    0    0  501  0.00000000000E+00  0.00000000000E+00 -0.30986944009E+04  0.30986944009E+04  0.50400001928E-02 0. -1.
    10030    2    1    2    0    0  0.00000000000E+00  0.00000000000E+00 -0.21549486158E+04  0.40424401861E+04  0.34201636103E+04 0.  0.
        5    1    3    3  502    0  0.16017290360E+04 -0.95400472093E+02 -0.17764422992E+04  0.23938267455E+04  0.46999998093E+01 0. -1.
       -5    1    3    3    0  502 -0.16017290360E+04  0.95400472093E+02 -0.37850631656E+03  0.16486134406E+04  0.46999998093E+01 0.  1.
</event>
<event>
 5   0  0.4125758E-07  0.3418271E+04  0.7818609E-02  0.8133436E-01
       -1   -1    0    0    0  501  0.00000000000E+00  0.00000000000E+00  0.95830242227E+03  0.95830242228E+03  0.50400001928E-02 0.  1.
        1   -1    0    0  501    0  0.00000000000E+00  0.00000000000E+00 -0.30482493917E+04  0.30482493917E+04  0.50400001928E-02 0. -1.
    10030    2    1    2    0    0  0.00000000000E+00  0.00000000000E+00 -0.20899469694E+04  0.40065518140E+04  0.34182713618E+04 0.  0.
        2    1    3    3  502    0  0.11568520099E+04  0.65573610937E+03  0.21351811106E+03  0.13468060000E+04  0.25500000920E-02 0. -1.
       -2    1    3    3    0  502 -0.11568520099E+04 -0.65573610937E+03 -0.23034650805E+04  0.26597458140E+04  0.25500000920E-02 0.  1.
</event>
<event>
 5   0  0.1277635E-06  0.3315333E+04  0.7818609E-02  0.8159005E-01
       -2   -1    0    0    0  501  0.00000000000E+00  0.00000000000E+00  0.14893089480E+04  0.14893089480E+04  0.25500000920E-02 0.  1.
        2   -1    0    0  501    0  0.00000000000E+00  0.00000000000E+00 -0.18450561820E+04  0.18450561820E+04  0.25500000920E-02 0. -1.
    10030    2    1    2    0    0  0.00000000000E+00  0.00000000000E+00 -0.35574723405E+03  0.33343651300E+04  0.33153332752E+04 0.  0.
        4    1    3    3  502    0 -0.53541931434E+03  0.10015685749E+04 -0.13923000763E+04  0.17967511146E+04  0.12699999809E+01 0. -1.
       -4    1    3    3    0  502  0.53541931434E+03 -0.10015685749E+04  0.10365528423E+04  0.15376140153E+04  0.12699999809E+01 0.  1.
</event>
<event>
 5   0  0.4272633E-07  0.3408408E+04  0.7818609E-02  0.8135846E-01
        1   -1    0    0  501    0  0.00000000000E+00  0.00000000000E+00  0.19776975561E+04  0.19776975561E+04  0.50400001928E-02 0. -1.
       -1   -1    0    0    0  501  0.00000000000E+00  0.00000000000E+00 -0.14685319317E+04  0.14685319317E+04  0.50400001928E-02 0.  1.
    10030    2    1    2    0    0  0.00000000000E+00  0.00000000000E+00  0.50916562440E+03  0.34462294879E+04  0.34084084336E+04 0.  0.
        1    1    3    3  502    0 -0.15728334576E+04 -0.24288355591E+03  0.87086618463E+03  0.18141679687E+04  0.50400001928E-02 0. -1.
       -1    1    3    3    0  502  0.15728334576E+04  0.24288355591E+03 -0.36170056024E+03  0.16320615192E+04  0.50400001928E-02 0.  1.
</event>
<event>
 5   0  0.1300176E-06  0.3309703E+04  0.7818609E-02  0.8160431E-01
       -2   -1    0    0    0  501  0.00000000000E+00  0.00000000000E+00  0.11963103932E+04  0.11963103932E+04  0.25500000920E-02 0. -1.
        2   -1    0    0  501    0  0.00000000000E+00  0.00000000000E+00 -0.22891491127E+04  0.22891491127E+04  0.25500000920E-02 0.  1.
    10030    2    1    2    0    0  0.00000000000E+00  0.00000000000E+00 -0.10928387195E+04  0.34854595060E+04  0.33097026303E+04 0.  0.
        1    1    3    3  502    0 -0.49489885585E+03 -0.41445975472E+01 -0.22093864763E+04  0.22641401584E+04  0.50400001928E-02 0.  1.
       -1    1    3    3    0  502  0.49489885585E+03  0.41445975472E+01  0.11165477569E+04  0.12213193475E+04  0.50400001928E-02 0. -1.
</event>
<event>
 5   0  0.4272633E-07  0.3352411E+04  0.7818609E-02  0.8149686E-01
       -1   -1    0    0    0  501  0.00000000000E+00  0.00000000000E+00  0.16774728626E+04  0.16774728626E+04  0.50400001928E-02 0. -1.
        1   -1    0    0  501    0  0.00000000000E+00  0.00000000000E+00 -0.16749386103E+04  0.16749386103E+04  0.50400001928E-02 0.  1.
    10030    2    1    2    0    0  0.00000000000E+00  0.00000000000E+00  0.25342522735E+01  0.33524114729E+04  0.33524105150E+04 0.  0.
        1    1    3    3  502    0  0.76630058967E+03 -0.13613073280E+04  0.60895951661E+03  0.16766651209E+04  0.50400001928E-02 0. -1.
       -1    1    3    3    0  502 -0.76630058967E+03  0.13613073280E+04 -0.60642526433E+03  0.16757463520E+04  0.50400001928E-02 0.  1.
</event>
<event>
 5   0  0.4272633E-07  0.3355526E+04  0.7818609E-02  0.8148909E-01
       -1   -1    0    0    0  501  0.00000000000E+00  0.00000000000E+00  0.12444581623E+04  0.12444581623E+04  0.50400001928E-02 0. -1.
        1   -1    0    0  501    0  0.00000000000E+00  0.00000000000E+00 -0.22619392059E+04  0.22619392059E+04  0.50400001928E-02 0.  1.
    10030    2    1    2    0    0  0.00000000000E+00  0.00000000000E+00 -0.10174810435E+04  0.35063973682E+04  0.33555260139E+04 0.  0.
        1    1    3    3  502    0  0.40480186862E+03  0.12077969277E+04  0.63225600188E+03  0.14221060521E+04  0.50400001928E-02 0. -1.
       -1    1    3    3    0  502 -0.40480186862E+03 -0.12077969277E+04 -0.16497370454E+04  0.20842913161E+04  0.50400001928E-02 0.  1.
</event>
<event>
 5   0  0.1256208E-06  0.3399676E+04  0.7818609E-02  0.8137986E-01
        2   -1    0    0  501    0  0.00000000000E+00  0.00000000000E+00  0.21535043407E+04  0.21535043407E+04  0.25500000920E-02 0. -1.
       -2   -1    0    0    0  501  0.00000000000E+00  0.00000000000E+00 -0.13417428443E+04  0.13417428443E+04  0.25500000920E-02 0.  1.
    10030    2    1    2    0    0  0.00000000000E+00  0.00000000000E+00  0.81176149641E+03  0.34952471850E+04  0.33996758900E+04 0.  0.
        3    1    3    3  502    0  0.59958578683E+03 -0.39992554442E+03  0.19886407029E+04  0.21152152166E+04  0.10100000352E+00 0. -1.
       -3    1    3    3    0  502 -0.59958578683E+03  0.39992554442E+03 -0.11768792065E+04  0.13800319684E+04  0.10100000352E+00 0.  1.
</event>
<event>
 5   0  0.4060750E-07  0.3270554E+04  0.7818609E-02  0.8170429E-01
       -3   -1    0    0    0  501  0.00000000000E+00  0.00000000000E+00  0.19399702713E+04  0.19399702739E+04  0.10100000352E+00 0.  1.
        3   -1    0    0  501    0  0.00000000000E+00  0.00000000000E+00 -0.13784390020E+04  0.13784390057E+04  0.10100000352E+00 0. -1.
    10030    2    1    2    0    0  0.00000000000E+00  0.00000000000E+00  0.56153126933E+03  0.33184092796E+04  0.32705538951E+04 0.  0.
        4    1    3    3  502    0 -0.26612809401E+03  0.23102049413E+03  0.19009824950E+04  0.19333728793E+04  0.12699999809E+01 0.  1.
       -4    1    3    3    0  502  0.26612809401E+03 -0.23102049413E+03 -0.13394512257E+04  0.13850364003E+04  0.12699999809E+01 0. -1.
</event>
<event>
 5   0  0.1256208E-06  0.3463768E+04  0.7818609E-02  0.8122431E-01
       -2   -1    0    0    0  501  0.00000000000E+00  0.00000000000E+00  0.16667780711E+04  0.16667780712E+04  0.25500000920E-02 0.  1.
        2   -1    0    0  501    0  0.00000000000E+00  0.00000000000E+00 -0.17995330248E+04  0.17995330248E+04  0.25500000920E-02 0. -1.
    10030    2    1    2    0    0  0.00000000000E+00  0.00000000000E+00 -0.13275495361E+03  0.34663110959E+04  0.34637679968E+04 0.  0.
        3    1    3    3  502    0 -0.14380657645E+04  0.76570832921E+03 -0.65424369169E+03  0.17556700165E+04  0.10100000352E+00 0. -1.
       -3    1    3    3    0  502  0.14380657645E+04 -0.76570832921E+03  0.52148873808E+03  0.17106410794E+04  0.10100000352E+00 0.  1.
</event>
<event>
 5   0  0.1277635E-06  0.3297211E+04  0.7818609E-02  0.8163606E-01
       -2   -1    0    0    0  501  0.00000000000E+00  0.00000000000E+00  0.11745933097E+04  0.11745933097E+04  0.25500000920E-02 0. -1.
        2   -1    0    0  501    0  0.00000000000E+00  0.00000000000E+00 -0.23139068289E+04  0.23139068289E+04  0.25500000920E-02 0.  1.
    10030    2    1    2    0    0  0.00000000000E+00  0.00000000000E+00 -0.11393135191E+04  0.34885001386E+04  0.32972106275E+04 0.  0.
        4    1    3    3  502    0  0.14451280682E+04 -0.68748110047E+03 -0.98870635102E+03  0.18811079870E+04  0.12699999809E+01 0.  1.
       -4    1    3    3    0  502 -0.14451280682E+04  0.68748110047E+03 -0.15060716812E+03  0.16073921516E+04  0.12699999809E+01 0. -1.
</event>
<event>
 5   0  0.1256208E-06  0.3396032E+04  0.7818609E-02  0.8138881E-01
        2   -1    0    0  501    0  0.00000000000E+00  0.00000000000E+00  0.26725203447E+04  0.26725203447E+04  0.25500000920E-02 0.  1.
       -2   -1    0    0    0  501  0.00000000000E+00  0.00000000000E+00 -0.10788535750E+04  0.10788535750E+04  0.25500000920E-02 0. -1.
    10030    2    1    2    0    0  0.00000000000E+00  0.00000000000E+00  0.15936667697E+04  0.37513739197E+04  0.33960318775E+04 0.  0.
        3    1    3    3  502    0  0.11559787547E+04 -0.46805275870E+03  0.20697528591E+04  0.24164513598E+04  0.10100000352E+00 0.  1.
       -3    1    3    3    0  502 -0.11559787547E+04  0.46805275870E+03 -0.47608608941E+03  0.13349225599E+04  0.10100000352E+00 0. -1.
</event>
<event>
 5   0  0.1300176E-06  0.3412441E+04  0.7818609E-02  0.8134860E-01
       -2   -1    0    0    0  501  0.00000000000E+00  0.00000000000E+00  0.10907365958E+04  0.10907365958E+04  0.25500000920E-02 0. -1.
        2   -1    0    0  501    0  0.00000000000E+00  0.00000000000E+00 -0.26690110258E+04  0.26690110258E+04  0.25500000920E-02 0.  1.
    10030    2    1    2    0    0  0.00000000000E+00  0.00000000000E+00 -0.15782744300E+04  0.37597476216E+04  0.34124407689E+04 0.  0.
        1    1    3    3  502    0  0.15713652817E+04  0.36718194472E+03 -0.13997805420E+04  0.21362108966E+04  0.50400001928E-02 0.  1.
       -1    1    3    3    0  502 -0.15713652817E+04 -0.36718194472E+03 -0.17849388796E+03  0.16235367249E+04  0.50400001928E-02 0. -1.
</event>
<event>
 5   0  0.4125758E-07  0.3219938E+04  0.7818609E-02  0.8183571E-01
        1   -1    0    0  501    0  0.00000000000E+00  0.00000000000E+00  0.94655470462E+03  0.94655470463E+03  0.50400001928E-02 0.  1.
       -1   -1    0    0    0  501  0.00000000000E+00  0.00000000000E+00 -0.27383527533E+04  0.27383527533E+04  0.50400001928E-02 0. -1.
    10030    2    1    2    0    0  0.00000000000E+00  0.00000000000E+00 -0.17917980486E+04  0.36849074579E+04  0.32199383109E+04 0.  0.
        2    1    3    3  502    0  0.11671662851E+04 -0.11087935666E+04 -0.91573291951E+03  0.18520980240E+04  0.25500000920E-02 0.  1.
       -2    1    3    3    0  502 -0.11671662851E+04  0.11087935666E+04 -0.87606512913E+03  0.18328094339E+04  0.25500000920E-02 0. -1.
</event>
<event>
 5   0  0.4289684E-07  0.3467797E+04  0.7818609E-02  0.8121464E-01
        1   -1    0    0  501    0  0.00000000000E+00  0.00000000000E+00  0.20770898278E+04  0.20770898278E+04  0.50400001928E-02 0. -1.
       -1   -1    0    0    0  501  0.00000000000E+00  0.00000000000E+00 -0.14474113540E+04  0.14474113540E+04  0.50400001928E-02 0.  1.
    10030    2    1    2    0    0  0.00000000000E+00  0.00000000000E+00  0.62967847379E+03  0.35245011818E+04  0.34677966492E+04 0.  0.
        4    1    3    3  502    0 -0.64278747822E+03 -0.85005893515E+03  0.17049119038E+04  0.20105974605E+04  0.12699999809E+01 0. -1.
       -4    1    3    3    0  502  0.64278747822E+03  0.85005893515E+03 -0.10752334301E+04  0.15139037213E+04  0.12699999809E+01 0.  1.
</event>
<event>
 5   0  0.1269497E-06  0.3371097E+04  0.7818609E-02  0.8145037E-01
        2   -1    0    0  501    0  0.00000000000E+00  0.00000000000E+00  0.21399738085E+04  0.21399738085E+04  0.25500000920E-02 0.  1.
       -2   -1    0    0    0  501  0.00000000000E+00  0.00000000000E+00 -0.13276210000E+04  0.13276210000E+04  0.25500000920E-02 0. -1.
    10030    2    1    2    0    0  0.00000000000E+00  0.00000000000E+00  0.81235280849E+03  0.34675948085E+04  0.33710972502E+04 0.  0.
        5    1    3    3  502    0 -0.10077781108E+04  0.11368868031E+04 -0.34473655929E+03  0.15578811601E+04  0.46999998093E+01 0. -1.
       -5    1    3    3    0  502  0.10077781108E+04 -0.11368868031E+04  0.11570893678E+04  0.19097136484E+04  0.46999998093E+01 0.  1.
</event>
<event>
 5   0  0.4272633E-07  0.3411216E+04  0.7818609E-02  0.8135159E-01
       -1   -1    0    0    0  501  0.00000000000E+00  0.00000000000E+00  0.25879835950E+04  0.25879835950E+04  0.50400001928E-02 0.  1.
        1   -1    0    0  501    0  0.00000000000E+00  0.00000000000E+00 -0.11240790861E+04  0.11240790861E+04  0.50400001928E-02 0. -1.
    10030    2    1    2    0    0  0.00000000000E+00  0.00000000000E+00  0.14639045089E+04  0.37120626812E+04  0.34112157566E+04 0.  0.
        1    1    3    3  502    0 -0.31513120681E+02 -0.82104938692E+03  0.23584222273E+04  0.24974528174E+04  0.50400001928E-02 0.  1.
       -1    1    3    3    0  502  0.31513120681E+02  0.82104938692E+03 -0.89451771847E+03  0.12146098638E+04  0.50400001928E-02 0. -1.
</event>
<event>
 5   0  0.4289684E-07  0.3391552E+04  0.7818609E-02  0.8139983E-01
       -1   -1    0    0    0  501  0.00000000000E+00  0.00000000000E+00  0.11797245337E+04  0.11797245337E+04  0.50400001928E-02 0.  1.
        1   -1    0    0  501    0  0.00000000000E+00  0.00000000000E+00 -0.24375655854E+04  0.24375655854E+04  0.50400001928E-02 0. -1.
    10030    2    1    2    0    0  0.00000000000E+00  0.00000000000E+00 -0.12578410517E+04  0.36172901192E+04  0.33915518122E+04 0.  0.
        4    1    3    3  502    0 -0.92910242715E+03  0.92992202435E+03 -0.17715173850E+04  0.22059605050E+04  0.12699999809E+01 0. -1.
       -4    1    3    3    0  502  0.92910242715E+03 -0.92992202435E+03  0.51367633327E+03  0.14113296141E+04  0.12699999809E+01 0.  1.
</event>
<event>
 5   0  0.4109937E-07  0.2857213E+04  0.7818609E-02  0.8285723E-01
       -1   -1    0    0    0  501  0.00000000000E+00  0.00000000000E+00  0.10494710684E+04  0.10494710685E+04  0.50400001928E-02 0.  1.
        1   -1    0    0  501    0  0.00000000000E+00  0.00000000000E+00 -0.19447101280E+04  0.19447101280E+04  0.50400001928E-02 0. -1.
    10030    2    1    2    0    0  0.00000000000E+00  0.00000000000E+00 -0.89523905957E+03  0.29941811965E+04  0.28572133388E+04 0.  0.
        5    1    3    3  502    0  0.83528660509E+03  0.33723489617E+03  0.71434611967E+03  0.11496710645E+04  0.46999998093E+01 0.  1.
       -5    1    3    3    0  502 -0.83528660509E+03 -0.33723489617E+03 -0.16095851792E+04  0.18445101320E+04  0.46999998093E+01 0. -1.
</event>
<event>
 5   0  0.1277635E-06  0.2855015E+04  0.7818609E-02  0.8286389E-01
        2   -1    0    0  501    0  0.00000000000E+00  0.00000000000E+00  0.20851889325E+04  0.20851889325E+04  0.25500000920E-02 0.  1.
       -2   -1    0    0    0  501  0.00000000000E+00  0.00000000000E+00 -0.97726256003E+03  0.97726256003E+03  0.25500000920E-02 0. -1.
    10030    2    1    2    0    0  0.00000000000E+00  0.00000000000E+00  0.11079263724E+04  0.30624514925E+04  0.28550145879E+04 0.  0.
        4    1    3    3  502    0 -0.39451530187E+03 -0.41890181226E+03  0.19552714412E+04  0.20381876934E+04  0.12699999809E+01 0.  1.
       -4    1    3    3    0  502  0.39451530187E+03  0.41890181226E+03 -0.84734506878E+03  0.10242637991E+04  0.12699999809E+01 0. -1.
</event>
<event>
 5   0  0.4272633E-07  0.2905683E+04  0.7818609E-02  0.8271189E-01
       -1   -1    0    0    0  501  0.00000000000E+00  0.00000000000E+00  0.10698002501E+04  0.10698002502E+04  0.50400001928E-02 0. -1.
        1   -1    0    0  501    0  0.00000000000E+00  0.00000000000E+00 -0.19730303490E+04  0.19730303490E+04  0.50400001928E-02 0.  1.
    10030    2    1    2    0    0  0.00000000000E+00  0.00000000000E+00 -0.90323009884E+03  0.30428305992E+04  0.29056829565E+04 0.  0.
        1    1    3    3  502    0 -0.17914042269E+03 -0.85854290765E+03 -0.16645423877E+04  0.18814591614E+04  0.50400001928E-02 0.  1.
       -1    1    3    3    0  502  0.17914042269E+03  0.85854290765E+03  0.76131228888E+03  0.11613714378E+04  0.50400001928E-02 0. -1.
</event>
<event>
 5   0  0.1268230E-06  0.3340709E+04  0.7818609E-02  0.8152614E-01
       -2   -1    0    0    0  501  0.00000000000E+00  0.00000000000E+00  0.20308170292E+04  0.20308170292E+04  0.25500000920E-02 0.  1.
        2   -1    0    0  501    0  0.00000000000E+00  0.00000000000E+00 -0.13738728965E+04  0.13738728965E+04  0.25500000920E-02 0. -1.
    10030    2    1    2    0    0  0.00000000000E+00  0.00000000000E+00  0.65694413266E+03  0.34046899257E+04  0.33407091907E+04 0.  0.
        2    1    3    3  502    0  0.88414948155E+03  0.11832906932E+04 -0.46632740344E+03  0.15489862548E+04  0.25500000920E-02 0. -1.
       -2    1    3    3    0  502 -0.88414948155E+03 -0.11832906932E+04  0.11232715361E+04  0.18557036709E+04  0.25500000920E-02 0.  1.
</event>
<event>
 5   0  0.1269497E-06  0.3396465E+04  0.7818609E-02  0.8138774E-01
       -2   -1    0    0    0  501  0.00000000000E+00  0.00000000000E+00  0.10232788312E+04  0.10232788312E+04  0.25500000920E-02 0.  1.
        2   -1    0    0  501    0  0.00000000000E+00  0.00000000000E+00 -0.28183849168E+04  0.28183849168E+04  0.25500000920E-02 0. -1.
    10030    2    1    2    0    0  0.00000000000E+00  0.00000000000E+00 -0.17951060856E+04  0.38416637480E+04  0.33964649997E+04 0.  0.
        5    1    3    3  502    0  0.14527311842E+04  0.62623780716E+03 -0.15960513905E+04  0.22472213545E+04  0.46999998093E+01 0.  1.
       -5    1    3    3    0  502 -0.14527311842E+04 -0.62623780716E+03 -0.19905469512E+03  0.15944423936E+04  0.46999998093E+01 0. -1.
</event>
<event>
 5   0  0.4464951E-07  0.3411223E+04  0.7818609E-02  0.8135157E-01
       -1   -1    0    0    0  501  0.00000000000E+00  0.00000000000E+00  0.30933551517E+04  0.30933551517E+04  0.50400001928E-02 0. -1.
        1   -1    0    0  501    0  0.00000000000E+00  0.00000000000E+00 -0.94043845693E+03  0.94043845694E+03  0.50400001928E-02 0.  1.
    10030    2    1    2    0    0  0.00000000000E+00  0.00000000000E+00  0.21529166948E+04  0.40337936087E+04  0.34112227401E+04 0.  0.
        3    1    3    3  502    0 -0.65336187858E+03  0.11755316834E+04  0.23168811465E+04  0.26789353745E+04  0.10100000352E+00 0. -1.
       -3    1    3    3    0  502  0.65336187858E+03 -0.11755316834E+04 -0.16396445176E+03  0.13548582342E+04  0.10100000352E+00 0.  1.
</event>
<event>
 5   0  0.4109937E-07  0.3424941E+04  0.7818609E-02  0.8131812E-01
        1   -1    0    0  501    0  0.00000000000E+00  0.00000000000E+00  0.11264590704E+04  0.11264590705E+04  0.50400001928E-02 0. -1.
       -1   -1    0    0    0  501  0.00000000000E+00  0.00000000000E+00 -0.26033399988E+04  0.26033399988E+04  0.50400001928E-02 0.  1.
    10030    2    1    2    0    0  0.00000000000E+00  0.00000000000E+00 -0.14768809283E+04  0.37297990692E+04  0.34249414331E+04 0.  0.
        5    1    3    3  502    0 -0.74575964008E+02 -0.16454506959E+04 -0.22827127450E+03  0.16628888814E+04  0.46999998093E+01 0. -1.
       -5    1    3    3    0  502  0.74575964008E+02  0.16454506959E+04 -0.12486096538E+04  0.20669101879E+04  0.46999998093E+01 0.  1.
</event>
<event>
 5   0  0.1268230E-06  0.3428222E+04  0.7818609E-02  0.8131014E-01
       -2   -1    0    0    0  501  0.00000000000E+00  0.00000000000E+00  0.10907949103E+04  0.10907949103E+04  0.25500000920E-02 0. -1.
        2   -1    0    0  501    0  0.00000000000E+00  0.00000000000E+00 -0.26936099963E+04  0.26936099963E+04  0.25500000920E-02 0.  1.
    10030    2    1    2    0    0  0.00000000000E+00  0.00000000000E+00 -0.16028150860E+04  0.37844049066E+04  0.34282217398E+04 0.  0.
        2    1    3    3  502    0 -0.77722073871E+03 -0.15177713428E+04 -0.99411320867E+03  0.19738193933E+04  0.25500000920E-02 0. -1.
       -2    1    3    3    0  502  0.77722073871E+03  0.15177713428E+04 -0.60870187730E+03  0.18105855133E+04  0.25500000920E-02 0.  1.
</event>
<event>
 5   0  0.4289684E-07  0.3450362E+04  0.7818609E-02  0.8125655E-01
       -1   -1    0    0    0  501  0.00000000000E+00  0.00000000000E+00  0.26515225440E+04  0.26515225440E+04  0.50400001928E-02 0.  1.
        1   -1    0    0  501    0  0.00000000000E+00  0.00000000000E+00 -0.11224682344E+04  0.11224682344E+04  0.50400001928E-02 0. -1.
    10030    2    1    2    0    0  0.00000000000E+00  0.00000000000E+00  0.15290543095E+04  0.37739907784E+04  0.34503622004E+04 0.  0.
        4    1    3    3  502    0 -0.12371188482E+04  0.62190559287E+03  0.18901371533E+04  0.23430428255E+04  0.12699999809E+01 0.  1.
       -4    1    3    3    0  502  0.12371188482E+04 -0.62190559287E+03 -0.36108284378E+03  0.14309479529E+04  0.12699999809E+01 0. -1.
</event>
<event>
 5   0  0.1256208E-06  0.3414031E+04  0.7818609E-02  0.8134471E-01
        2   -1    0    0  501    0  0.00000000000E+00  0.00000000000E+00  0.21773648312E+04  0.21773648312E+04  0.25500000920E-02 0. -1.
       -2   -1    0    0    0  501  0.00000000000E+00  0.00000000000E+00 -0.13382697556E+04  0.13382697556E+04  0.25500000920E-02 0.  1.
    10030    2    1    2    0    0  0.00000000000E+00  0.00000000000E+00  0.83909507558E+03  0.35156345867E+04  0.34140307558E+04 0.  0.
        3    1    3    3  502    0 -0.11003856184E+04  0.96140890190E+03  0.13282761177E+04  0.19747083432E+04  0.10100000352E+00 0. -1.
       -3    1    3    3    0  502  0.11003856184E+04 -0.96140890190E+03 -0.48918104214E+03  0.15409262435E+04  0.10100000352E+00 0.  1.
</event>
<event>
 5   0  0.1269497E-06  0.3407013E+04  0.7818609E-02  0.8136187E-01
       -2   -1    0    0    0  501  0.00000000000E+00  0.00000000000E+00  0.23899702280E+04  0.23899702280E+04  0.25500000920E-02 0.  1.
        2   -1    0    0  501    0  0.00000000000E+00  0.00000000000E+00 -0.12142139457E+04  0.12142139457E+04  0.25500000920E-02 0. -1.
    10030    2    1    2    0    0  0.00000000000E+00  0.00000000000E+00  0.11757562822E+04  0.36041841737E+04  0.34070134609E+04 0.  0.
        5    1    3    3  502    0 -0.82134834283E+03 -0.58774589684E+03  0.20390744858E+04  0.22755010850E+04  0.46999998093E+01 0.  1.
       -5    1    3    3    0  502  0.82134834283E+03  0.58774589684E+03 -0.86331820353E+03  0.13286830887E+04  0.46999998093E+01 0. -1.
</event>
<event>
 5   0  0.1300176E-06  0.3427905E+04  0.7818609E-02  0.8131091E-01
       -2   -1    0    0    0  501  0.00000000000E+00  0.00000000000E+00  0.12856974040E+04  0.12856974040E+04  0.25500000920E-02 0.  1.
        2   -1    0    0  501    0  0.00000000000E+00  0.00000000000E+00 -0.22848562769E+04  0.22848562769E+04  0.25500000920E-02 0. -1.
    10030    2    1    2    0    0  0.00000000000E+00  0.00000000000E+00 -0.99915887286E+03  0.35705536809E+04  0.34279053568E+04 0.  0.
        1    1    3    3  502    0 -0.12776826957E+04 -0.95103361457E+03 -0.11589265765E+04  0.19697839517E+04  0.50400001928E-02 0. -1.
       -1    1    3    3    0  502  0.12776826957E+04  0.95103361457E+03  0.15976770359E+03  0.16007697292E+04  0.50400001928E-02 0.  1.
</event>
<event>
 5   0  0.4272633E-07  0.3421072E+04  0.7818609E-02  0.8132754E-01
        1   -1    0    0  501    0  0.00000000000E+00  0.00000000000E+00  0.20018523304E+04  0.20018523304E+04  0.50400001928E-02 0.  1.
       -1   -1    0    0    0  501  0.00000000000E+00  0.00000000000E+00 -0.14616132929E+04  0.14616132929E+04  0.50400001928E-02 0. -1.
    10030    2    1    2    0    0  0.00000000000E+00  0.00000000000E+00  0.54023903751E+03  0.34634656233E+04  0.34210723328E+04 0.  0.
        1    1    3    3  502    0 -0.15630453403E+04  0.15666121260E+03 -0.41523347828E+03  0.16248299335E+04  0.50400001928E-02 0.  1.
       -1    1    3    3    0  502  0.15630453403E+04 -0.15666121260E+03  0.95547251579E+03  0.18386356898E+04  0.50400001928E-02 0. -1.
</event>
<event>
 5   0  0.1300176E-06  0.3415083E+04  0.7818609E-02  0.8134214E-01
        2   -1    0    0  501    0  0.00000000000E+00  0.00000000000E+00  0.19877470927E+04  0.19877470927E+04  0.25500000920E-02 0. -1.
       -2   -1    0    0    0  501  0.00000000000E+00  0.00000000000E+00 -0.14668351942E+04  0.14668351942E+04  0.25500000920E-02 0.  1.
    10030    2    1    2    0    0  0.00000000000E+00  0.00000000000E+00  0.52091189854E+03  0.34545822869E+04  0.34150826595E+04 0.  0.
        1    1    3    3  502    0  0.10553427388E+04  0.51711935553E+03  0.15135479489E+04  0.19162432304E+04  0.50400001928E-02 0. -1.
       -1    1    3    3    0  502 -0.10553427388E+04 -0.51711935553E+03 -0.99263605039E+03  0.15383390565E+04  0.50400001928E-02 0.  1.
</event>
<event>
 5   0  0.4272633E-07  0.3408933E+04  0.7818609E-02  0.8135717E-01
       -1   -1    0    0    0  501  0.00000000000E+00  0.00000000000E+00  0.23724180885E+04  0.23724180885E+04  0.50400001928E-02 0. -1.
        1   -1    0    0  501    0  0.00000000000E+00  0.00000000000E+00 -0.12245755842E+04  0.12245755842E+04  0.50400001928E-02 0.  1.
    10030    2    1    2    0    0  0.00000000000E+00  0.00000000000E+00  0.11478425043E+04  0.35969936728E+04  0.34089325407E+04 0.  0.
        1    1    3    3  502    0  0.94125834047E+03 -0.45608232900E+02 -0.92469767636E+03  0.13202701114E+04  0.50400001928E-02 0.  1.
       -1    1    3    3    0  502 -0.94125834047E+03  0.45608232900E+02  0.20725401806E+04  0.22767235613E+04  0.50400001928E-02 0. -1.
</event>
<event>
 5   0  0.1277635E-06  0.3438831E+04  0.7818609E-02  0.8128441E-01
       -2   -1    0    0    0  501  0.00000000000E+00  0.00000000000E+00  0.16532661275E+04  0.16532661275E+04  0.25500000920E-02 0.  1.
        2   -1    0    0  501    0  0.00000000000E+00  0.00000000000E+00 -0.17882119871E+04  0.17882119871E+04  0.25500000920E-02 0. -1.
    10030    2    1    2    0    0  0.00000000000E+00  0.00000000000E+00 -0.13494585952E+03  0.34414781146E+04  0.34388313754E+04 0.  0.
        4    1    3    3  502    0 -0.62302190769E+03 -0.15075289238E+04  0.47662643913E+03  0.16994040511E+04  0.12699999809E+01 0.  1.
       -4    1    3    3    0  502  0.62302190769E+03  0.15075289238E+04 -0.61157229865E+03  0.17420740635E+04  0.12699999809E+01 0. -1.
</event>
<event>
 5   0  0.4272633E-07  0.3397159E+04  0.7818609E-02  0.8138604E-01
       -1   -1    0    0    0  501  0.00000000000E+00  0.00000000000E+00  0.12792375409E+04  0.12792375409E+04  0.50400001928E-02 0.  1.
        1   -1    0    0  501    0  0.00000000000E+00  0.00000000000E+00 -0.22553839283E+04  0.22553839283E+04  0.50400001928E-02 0. -1.
    10030    2    1    2    0    0  0.00000000000E+00  0.00000000000E+00 -0.97614638741E+03  0.35346214692E+04  0.33971586894E+04 0.  0.
        1    1    3    3  502    0 -0.13404185109E+04  0.33427013853E+03 -0.15163514861E+04  0.20512874346E+04  0.50400001928E-02 0. -1.
       -1    1    3    3    0  502  0.13404185109E+04 -0.33427013853E+03  0.54020509868E+03  0.14833340347E+04  0.50400001928E-02 0.  1.
</event>
<event>
 5   0  0.1269497E-06  0.3357271E+04  0.7818609E-02  0.8148474E-01
       -2   -1    0    0    0  501  0.00000000000E+00  0.00000000000E+00  0.11655517947E+04  0.11655517947E+04  0.25500000920E-02 0.  1.
        2   -1    0    0  501    0  0.00000000000E+00  0.00000000000E+00 -0.24175818729E+04  0.24175818729E+04  0.25500000920E-02 0. -1.
    10030    2    1    2    0    0  0.00000000000E+00  0.00000000000E+00 -0.12520300782E+04  0.35831336675E+04  0.33572708504E+04 0.  0.
        5    1    3    3  502    0  0.10446899681E+04 -0.12948935823E+04 -0.38815789604E+03  0.17084540266E+04  0.46999998093E+01 0.  1.
       -5    1    3    3    0  502 -0.10446899681E+04  0.12948935823E+04 -0.86387218220E+03  0.18746796409E+04  0.46999998093E+01 0. -1.
</event>
<event>
 5   0  0.1269497E-06  0.3408392E+04  0.7818609E-02  0.8135850E-01
        2   -1    0    0  501    0  0.00000000000E+00  0.00000000000E+00  0.19557918114E+04  0.19557918114E+04  0.25500000920E-02 0.  1.
       -2   -1    0    0    0  501  0.00000000000E+00  0.00000000000E+00 -0.14849659727E+04  0.14849659727E+04  0.25500000920E-02 0. -1.
    10030    2    1    2    0    0  0.00000000000E+00  0.00000000000E+00  0.47082583872E+03  0.34407577841E+04  0.34083921662E+04 0.  0.
        5    1    3    3  502    0 -0.90905961371E+03  0.12310904182E+04 -0.52156709559E+03  0.16167953873E+04  0.46999998093E+01 0. -1.
       -5    1    3    3    0  502  0.90905961371E+03 -0.12310904182E+04  0.99239293431E+03  0.18239623969E+04  0.46999998093E+01 0.  1.
</event>
<event>
 5   0  0.1268230E-06  0.2990719E+04  0.7818609E-02  0.8246386E-01
       -2   -1    0    0    0  501  0.00000000000E+00  0.00000000000E+00  0.11783267400E+04  0.11783267400E+04  0.25500000920E-02 0. -1.
        2   -1    0    0  501    0  0.00000000000E+00  0.00000000000E+00 -0.18976903616E+04  0.18976903616E+04  0.25500000920E-02 0.  1.
    10030    2    1    2    0    0  0.00000000000E+00  0.00000000000E+00 -0.71936362163E+03  0.30760171016E+04  0.29907185072E+04 0.  0.
        2    1    3    3  502    0  0.41227440387E+03 -0.99573780962E+03 -0.14258942971E+04  0.17873551735E+04  0.25500000920E-02 0.  1.
       -2    1    3    3    0  502 -0.41227440387E+03  0.99573780962E+03  0.70653067552E+03  0.12886619281E+04  0.25500000920E-02 0. -1.
</event>
<event>
 5   0  0.1268230E-06  0.3376228E+04  0.7818609E-02  0.8143766E-01
       -2   -1    0    0    0  501  0.00000000000E+00  0.00000000000E+00  0.18272811424E+04  0.18272811424E+04  0.25500000920E-02 0.  1.
        2   -1    0    0  501    0  0.00000000000E+00  0.00000000000E+00 -0.15595456838E+04  0.15595456838E+04  0.25500000920E-02 0. -1.
    10030    2    1    2    0    0  0.00000000000E+00  0.00000000000E+00  0.26773545858E+03  0.33868268262E+04  0.33762277285E+04 0.  0.
        2    1    3    3  502    0 -0.26702320374E+03 -0.57925960170E+03  0.17017476577E+04  0.18173574684E+04  0.25500000920E-02 0.  1.
       -2    1    3    3    0  502  0.26702320374E+03  0.57925960170E+03 -0.14340121992E+04  0.15694693577E+04  0.25500000920E-02 0. -1.
</event>
<event>
 5   0  0.1300176E-06  0.3380595E+04  0.7818609E-02  0.8142686E-01
        2   -1    0    0  501    0  0.00000000000E+00  0.00000000000E+00  0.87891929633E+03  0.87891929633E+03  0.25500000920E-02 0. -1.
       -2   -1    0    0    0  501  0.00000000000E+00  0.00000000000E+00 -0.32507023341E+04  0.32507023341E+04  0.25500000920E-02 0.  1.
    10030    2    1    2    0    0  0.00000000000E+00  0.00000000000E+00 -0.23717830378E+04  0.41296216305E+04  0.33805946271E+04 0.  0.
        1    1    3    3  502    0 -0.31056268837E+03  0.29335888863E+03 -0.31836652209E+04  0.32122006257E+04  0.50400001928E-02 0.  1.
       -1    1    3    3    0  502  0.31056268837E+03 -0.29335888863E+03  0.81188218303E+03  0.91742100483E+03  0.50400001928E-02 0. -1.
</event>
<event>
 5   0  0.4109937E-07  0.3394116E+04  0.7818609E-02  0.8139352E-01
        1   -1    0    0  501    0  0.00000000000E+00  0.00000000000E+00  0.15108260112E+04  0.15108260112E+04  0.50400001928E-02 0. -1.
       -1   -1    0    0    0  501  0.00000000000E+00  0.00000000000E+00 -0.19062463694E+04  0.19062463694E+04  0.50400001928E-02 0.  1.
    10030    2    1    2    0    0  0.00000000000E+00  0.00000000000E+00 -0.39542035816E+03  0.34170723806E+04  0.33941164380E+04 0.  0.
        5    1    3    3  502    0  0.69071078779E+03  0.79497852809E+03 -0.15374669571E+04  0.18635715674E+04  0.46999998093E+01 0.  1.
       -5    1    3    3    0  502 -0.69071078779E+03 -0.79497852809E+03  0.11420465990E+04  0.15535008132E+04  0.46999998093E+01 0. -1.
</event>
<event>
 5   0  0.4464951E-07  0.3044213E+04  0.7818609E-02  0.8231217E-01
       -1   -1    0    0    0  501  0.00000000000E+00  0.00000000000E+00  0.11662030764E+04  0.11662030764E+04  0.50400001928E-02 0. -1.
        1   -1    0    0  501    0  0.00000000000E+00  0.00000000000E+00 -0.19866254835E+04  0.19866254835E+04  0.50400001928E-02 0.  1.
    10030    2    1    2    0    0  0.00000000000E+00  0.00000000000E+00 -0.82042240716E+03  0.31528285599E+04  0.30442133635E+04 0.  0.
        3    1    3    3  502    0 -0.72333718753E+02 -0.88371380163E+03 -0.16915379170E+04  0.19098384185E+04  0.10100000352E+00 0.  1.
       -3    1    3    3    0  502  0.72333718753E+02  0.88371380163E+03  0.87111550982E+03  0.12429901414E+04  0.10100000352E+00 0. -1.
</event>
<event>
 5   0  0.1256208E-06  0.3454768E+04  0.7818609E-02  0.8124594E-01
        2   -1    0    0  501    0  0.00000000000E+00  0.00000000000E+00  0.16995481693E+04  0.16995481694E+04  0.25500000920E-02 0.  1.
       -2   -1    0    0    0  501  0.00000000000E+00  0.00000000000E+00 -0.17556761817E+04  0.17556761817E+04  0.25500000920E-02 0. -1.
    10030    2    1    2    0    0  0.00000000000E+00  0.00000000000E+00 -0.56128012393E+02  0.34552243511E+04  0.34547684383E+04 0.  0.
        3    1    3    3  502    0  0.84535220254E+03  0.82500805539E+03  0.12324981314E+04  0.17071351124E+04  0.10100000352E+00 0.  1.
       -3    1    3    3    0  502 -0.84535220254E+03 -0.82500805539E+03 -0.12886261438E+04  0.17480892387E+04  0.10100000352E+00 0. -1.
</event>
<event>
 5   0  0.4272633E-07  0.3420373E+04  0.7818609E-02  0.8132924E-01
        1   -1    0    0  501    0  0.00000000000E+00  0.00000000000E+00  0.22532666639E+04  0.22532666639E+04  0.50400001928E-02 0.  1.
       -1   -1    0    0    0  501  0.00000000000E+00  0.00000000000E+00 -0.12979987432E+04  0.12979987432E+04  0.50400001928E-02 0. -1.
    10030    2    1    2    0    0  0.00000000000E+00  0.00000000000E+00  0.95526792071E+03  0.35512654071E+04  0.34203726685E+04 0.  0.
        1    1    3    3  502    0 -0.43583507237E+03 -0.29608516658E+03  0.21668936097E+04  0.22300328589E+04  0.50400001928E-02 0.  1.
       -1    1    3    3    0  502  0.43583507237E+03  0.29608516658E+03 -0.12116256890E+04  0.13212325482E+04  0.50400001928E-02 0. -1.
</event>
<event>
 5   0  0.1268230E-06  0.3393622E+04  0.7818609E-02  0.8139474E-01
        2   -1    0    0  501    0  0.00000000000E+00  0.00000000000E+00  0.15184989790E+04  0.15184989790E+04  0.25500000920E-02 0.  1.
       -2   -1    0    0    0  501  0.00000000000E+00  0.00000000000E+00 -0.18960613298E+04  0.18960613298E+04  0.25500000920E-02 0. -1.
    10030    2    1    2    0    0  0.00000000000E+00  0.00000000000E+00 -0.37756235079E+03  0.34145603088E+04  0.33936217782E+04 0.  0.
        2    1    3    3  502    0  0.53675355388E+03 -0.15052057483E+04  0.38519312800E+03  0.16438133921E+04  0.25500000920E-02 0.  1.
       -2    1    3    3    0  502 -0.53675355388E+03  0.15052057483E+04 -0.76275547879E+03  0.17707469166E+04  0.25500000920E-02 0. -1.
</event>
<event>
 5   0  0.4289684E-07  0.3410653E+04  0.7818609E-02  0.8135297E-01
       -1   -1    0    0    0  501  0.00000000000E+00  0.00000000000E+00  0.17633579967E+04  0.17633579967E+04  0.50400001928E-02 0. -1.
        1   -1    0    0  501    0  0.00000000000E+00  0.00000000000E+00 -0.16492044454E+04  0.16492044454E+04  0.50400001928E-02 0.  1.
    10030    2    1    2    0    0  0.00000000000E+00  0.00000000000E+00  0.11415355132E+03  0.34125624422E+04  0.34106526338E+04 0.  0.
        4    1    3    3  502    0 -0.16526967310E+04 -0.38561167386E+03 -0.11044871534E+03  0.17006773296E+04  0.12699999809E+01 0. -1.
       -4    1    3    3    0  502  0.16526967310E+04  0.38561167386E+03  0.22460226666E+03  0.17118851126E+04  0.12699999809E+01 0.  1.
</event>
<event>
 5   0  0.4272633E-07  0.3451945E+04  0.7818609E-02  0.8125274E-01
        1   -1    0    0  501    0  0.00000000000E+00  0.00000000000E+00  0.24505002464E+04  0.24505002464E+04  0.50400001928E-02 0. -1.
       -1   -1    0    0    0  501  0.00000000000E+00  0.00000000000E+00 -0.12156623754E+04  0.12156623755E+04  0.50400001928E-02 0.  1.
    10030    2    1    2    0    0  0.00000000000E+00  0.00000000000E+00  0.12348378709E+04  0.36661626218E+04  0.34519449304E+04 0.  0.
        1    1    3    3  502    0  0.10332223885E+04  0.13659940852E+04  0.39089282296E+03  0.17567827254E+04  0.50400001928E-02 0.  1.
       -1    1    3    3    0  502 -0.10332223885E+04 -0.13659940852E+04  0.84394504798E+03  0.19093798965E+04  0.50400001928E-02 0. -1.
</event>
<event>
 5   0  0.4125758E-07  0.3379897E+04  0.7818609E-02  0.8142858E-01
       -1   -1    0    0    0  501  0.00000000000E+00  0.00000000000E+00  0.14661723882E+04  0.14661723882E+04  0.50400001928E-02 0.  1.
        1   -1    0    0  501    0  0.00000000000E+00  0.00000000000E+00 -0.19478788268E+04  0.19478788268E+04  0.50400001928E-02 0. -1.
    10030    2    1    2    0    0  0.00000000000E+00  0.00000000000E+00 -0.48170643858E+03  0.34140512150E+04  0.33798971295E+04 0.  0.
        2    1    3    3  502    0  0.13357494725E+04 -0.47961055781E+03 -0.11675513816E+04  0.18377783242E+04  0.25500000920E-02 0. -1.
       -2    1    3    3    0  502 -0.13357494725E+04  0.47961055781E+03  0.68584494299E+03  0.15762728908E+04  0.25500000920E-02 0.  1.
</event>
<event>
 5   0  0.4109937E-07  0.3393380E+04  0.7818609E-02  0.8139533E-01
        1   -1    0    0  501    0  0.00000000000E+00  0.00000000000E+00  0.20669952709E+04  0.20669952709E+04  0.50400001928E-02 0.  1.
       -1   -1    0    0    0  501  0.00000000000E+00  0.00000000000E+00 -0.13927252744E+04  0.13927252744E+04  0.50400001928E-02 0. -1.
    10030    2    1    2    0    0  0.00000000000E+00  0.00000000000E+00  0.67426999651E+03  0.34597205453E+04  0.33933797641E+04 0.  0.
        5    1    3    3  502    0 -0.31552903118E+03  0.53239595899E+02  0.20359457181E+04  0.20609439782E+04  0.46999998093E+01 0.  1.
       -5    1    3    3    0  502  0.31552903118E+03 -0.53239595899E+02 -0.13616757216E+04  0.13987765672E+04  0.46999998093E+01 0. -1.
</event>
<event>
 5   0  0.1277635E-06  0.3384790E+04  0.7818609E-02  0.8141649E-01
        2   -1    0    0  501    0  0.00000000000E+00  0.00000000000E+00  0.23236649762E+04  0.23236649763E+04  0.25500000920E-02 0. -1.
       -2   -1    0    0    0  501  0.00000000000E+00  0.00000000000E+00 -0.12326223213E+04  0.12326223213E+04  0.25500000920E-02 0.  1.
    10030    2    1    2    0    0  0.00000000000E+00  0.00000000000E+00  0.10910426550E+04  0.35562872975E+04  0.33847902841E+04 0.  0.
        4    1    3    3  502    0 -0.14476120560E+04 -0.62504830142E+03  0.11914325936E+04  0.19763044507E+04  0.12699999809E+01 0. -1.
       -4    1    3    3    0  502  0.14476120560E+04  0.62504830142E+03 -0.10038993866E+03  0.15799828468E+04  0.12699999809E+01 0.  1.
</event>
<event>
 5   0  0.1277635E-06  0.3404943E+04  0.7818609E-02  0.8136694E-01
       -2   -1    0    0    0  501  0.00000000000E+00  0.00000000000E+00  0.19851366693E+04  0.19851366693E+04  0.25500000920E-02 0. -1.
        2   -1    0    0  501    0  0.00000000000E+00  0.00000000000E+00 -0.14600554307E+04  0.14600554307E+04  0.25500000920E-02 0.  1.
    10030    2    1    2    0    0  0.00000000000E+00  0.00000000000E+00  0.52508123862E+03  0.34451921000E+04  0.34049432152E+04 0.  0.
        4    1    3    3  502    0  0.35410621447E+03 -0.75386474839E+03  0.17649171212E+04  0.19515730393E+04  0.12699999809E+01 0. -1.
       -4    1    3    3    0  502 -0.35410621447E+03  0.75386474839E+03 -0.12398358826E+04  0.14936190607E+04  0.12699999809E+01 0.  1.
</event>
<event>
 5   0  0.4125758E-07  0.3341606E+04  0.7818609E-02  0.8152389E-01
       -1   -1    0    0    0  501  0.00000000000E+00  0.00000000000E+00  0.12360792656E+04  0.12360792656E+04  0.50400001928E-02 0. -1.
        1   -1    0    0  501    0  0.00000000000E+00  0.00000000000E+00 -0.22584173154E+04  0.22584173154E+04  0.50400001928E-02 0.  1.
    10030    2    1    2    0    0  0.00000000000E+00  0.00000000000E+00 -0.10223380498E+04  0.34944965810E+04  0.33416060909E+04 0.  0.
        2    1    3    3  502    0 -0.55501011818E+03 -0.15669962334E+04 -0.33596428416E+03  0.16959909867E+04  0.25500000920E-02 0. -1.
       -2    1    3    3    0  502  0.55501011818E+03  0.15669962334E+04 -0.68637376562E+03  0.17985055943E+04  0.25500000920E-02 0.  1.
</event>
<event>
 5   0  0.1277635E-06  0.3411915E+04  0.7818609E-02  0.8134988E-01
        2   -1    0    0  501    0  0.00000000000E+00  0.00000000000E+00  0.24957285359E+04  0.24957285359E+04  0.25500000920E-02 0.  1.
       -2   -1    0    0    0  501  0.00000000000E+00  0.00000000000E+00 -0.11661084602E+04  0.11661084602E+04  0.25500000920E-02 0. -1.
    10030    2    1    2    0    0  0.00000000000E+00  0.00000000000E+00  0.13296200758E+04  0.36618369961E+04  0.34119145124E+04 0.  0.
        4    1    3    3  502    0 -0.47136601424E+03 -0.10883548288E+04 -0.65121775334E+03  0.13530662689E+04  0.12699999809E+01 0. -1.
       -4    1    3    3    0  502  0.47136601424E+03  0.10883548288E+04  0.19808378291E+04  0.23087707272E+04  0.12699999809E+01 0.  1.
</event>
<event>
 5   0  0.1300176E-06  0.3414886E+04  0.7818609E-02  0.8134262E-01
       -2   -1    0    0    0  501  0.00000000000E+00  0.00000000000E+00  0.17450516041E+04  0.17450516041E+04  0.25500000920E-02 0.  1.
        2   -1    0    0  501    0  0.00000000000E+00  0.00000000000E+00 -0.16706449152E+04  0.16706449152E+04  0.25500000920E-02 0. -1.
    10030    2    1    2    0    0  0.00000000000E+00  0.00000000000E+00  0.74406688866E+02  0.34156965193E+04  0.34148859946E+04 0.  0.
        1    1    3    3  502    0  0.27854502803E+03 -0.13469332295E+04  0.10491475460E+04  0.17298922020E+04  0.50400001928E-02 0.  1.
       -1    1    3    3    0  502 -0.27854502803E+03  0.13469332295E+04 -0.97474085712E+03  0.16858043172E+04  0.50400001928E-02 0. -1.
</event>
<event>
 5   0  0.1277635E-06  0.3385380E+04  0.7818609E-02  0.8141504E-01
        2   -1    0    0  501    0  0.00000000000E+00  0.00000000000E+00  0.18642245812E+04  0.18642245812E+04  0.25500000920E-02 0. -1.
       -2   -1    0    0    0  501  0.00000000000E+00  0.00000000000E+00 -0.15369389691E+04  0.15369389691E+04  0.25500000920E-02 0.  1.
    10030    2    1    2    0    0  0.00000000000E+00  0.00000000000E+00  0.32728561210E+03  0.34011635503E+04  0.33853799823E+04 0.  0.
        4    1    3    3  502    0  0.11992595319E+04 -0.11807771449E+04 -0.18141948429E+02  0.16830890749E+04  0.12699999809E+01 0.  1.
       -4    1    3    3    0  502 -0.11992595319E+04  0.11807771449E+04  0.34542756053E+03  0.17180744755E+04  0.12699999809E+01 0. -1.
</event>
<event>
 5   0  0.4109937E-07  0.3138153E+04  0.7818609E-02  0.8205344E-01
       -1   -1    0    0    0  501  0.00000000000E+00  0.00000000000E+00  0.12168891308E+04  0.12168891308E+04  0.50400001928E-02 0. -1.
        1   -1    0    0  501    0  0.00000000000E+00  0.00000000000E+00 -0.20231929627E+04  0.20231929627E+04  0.50400001928E-02 0.  1.
    10030    2    1    2    0    0  0.00000000000E+00  0.00000000000E+00 -0.80630383191E+03  0.32400820936E+04  0.31381532951E+04 0.  0.
        5    1    3    3  502    0 -0.13165374403E+04 -0.84205692124E+03 -0.25842501068E+03  0.15840253364E+04  0.46999998093E+01 0.  1.
       -5    1    3    3    0  502  0.13165374403E+04  0.84205692124E+03 -0.54787882123E+03  0.16560567572E+04  0.46999998093E+01 0. -1.
</event>
<event>
 5   0  0.1269497E-06  0.3418742E+04  0.7818609E-02  0.8133322E-01
        2   -1    0    0  501    0  0.00000000000E+00  0.00000000000E+00  0.14739420866E+04  0.14739420866E+04  0.25500000920E-02 0. -1.
       -2   -1    0    0    0  501  0.00000000000E+00  0.00000000000E+00 -0.19824048100E+04  0.19824048100E+04  0.25500000920E-02 0.  1.
    10030    2    1    2    0    0  0.00000000000E+00  0.00000000000E+00 -0.50846272336E+03  0.34563468966E+04  0.34187423899E+04 0.  0.
        5    1    3    3  502    0 -0.25358207465E+02  0.14098371418E+04  0.72264949555E+03  0.15844646378E+04  0.46999998093E+01 0. -1.
       -5    1    3    3    0  502  0.25358207465E+02 -0.14098371418E+04 -0.12311122189E+04  0.18718822588E+04  0.46999998093E+01 0.  1.
</event>
<event>
 5   0  0.4109937E-07  0.3236345E+04  0.7818609E-02  0.8179284E-01
        1   -1    0    0  501    0  0.00000000000E+00  0.00000000000E+00  0.12303286033E+04  0.12303286033E+04  0.50400001928E-02 0. -1.
       -1   -1    0    0    0  501  0.00000000000E+00  0.00000000000E+00 -0.21282791340E+04  0.21282791340E+04  0.50400001928E-02 0.  1.
    10030    2    1    2    0    0  0.00000000000E+00  0.00000000000E+00 -0.89795053072E+03  0.33586077373E+04  0.32363452810E+04 0.  0.
        5    1    3    3  502    0  0.56504151561E+03  0.38421133564E+03 -0.19712120375E+04  0.20862859947E+04  0.46999998093E+01 0.  1.
       -5    1    3    3    0  502 -0.56504151561E+03 -0.38421133564E+03  0.10732615068E+04  0.12723217426E+04  0.46999998093E+01 0. -1.
</event>
<event>
 5   0  0.4464951E-07  0.3348359E+04  0.7818609E-02  0.8150698E-01
        1   -1    0    0  501    0  0.00000000000E+00  0.00000000000E+00  0.11554660312E+04  0.11554660312E+04  0.50400001928E-02 0.  1.
       -1   -1    0    0    0  501  0.00000000000E+00  0.00000000000E+00 -0.24257551745E+04  0.24257551745E+04  0.50400001928E-02 0. -1.
    10030    2    1    2    0    0  0.00000000000E+00  0.00000000000E+00 -0.12702891432E+04  0.35812212057E+04  0.33483594217E+04 0.  0.
        3    1    3    3  502    0  0.48984359072E+03 -0.63479460424E+03  0.93674709417E+03  0.12330474693E+04  0.10100000352E+00 0.  1.
       -3    1    3    3    0  502 -0.48984359072E+03  0.63479460424E+03 -0.22070362374E+04  0.23481737364E+04  0.10100000352E+00 0. -1.
</event>
<event>
 5   0  0.1256208E-06  0.3379776E+04  0.7818609E-02  0.8142888E-01
       -2   -1    0    0    0  501  0.00000000000E+00  0.00000000000E+00  0.19004244101E+04  0.19004244101E+04  0.25500000920E-02 0.  1.
        2   -1    0    0  501    0  0.00000000000E+00  0.00000000000E+00 -0.15026760370E+04  0.15026760370E+04  0.25500000920E-02 0. -1.
    10030    2    1    2    0    0  0.00000000000E+00  0.00000000000E+00  0.39774837306E+03  0.34031004471E+04  0.33797764548E+04 0.  0.
        3    1    3    3  502    0 -0.13660838108E+04  0.51488323571E+03  0.10558839127E+04  0.18017160075E+04  0.10100000352E+00 0.  1.
       -3    1    3    3    0  502  0.13660838108E+04 -0.51488323571E+03 -0.65813553960E+03  0.16013844395E+04  0.10100000352E+00 0. -1.
</event>
<event>
 5   0  0.4272633E-07  0.3024634E+04  0.7818609E-02  0.8236731E-01
        1   -1    0    0  501    0  0.00000000000E+00  0.00000000000E+00  0.83587806879E+03  0.83587806881E+03  0.50400001928E-02 0.  1.
       -1   -1    0    0    0  501  0.00000000000E+00  0.00000000000E+00 -0.27361670643E+04  0.27361670643E+04  0.50400001928E-02 0. -1.
    10030    2    1    2    0    0  0.00000000000E+00  0.00000000000E+00 -0.19002889955E+04  0.35720451331E+04  0.30246335591E+04 0.  0.
        1    1    3    3  502    0 -0.96382042056E+03  0.11581728009E+04 -0.79712609170E+03  0.17046184459E+04  0.50400001928E-02 0. -1.
       -1    1    3    3    0  502  0.96382042056E+03 -0.11581728009E+04 -0.11031629038E+04  0.18674266873E+04  0.50400001928E-02 0.  1.
</event>
<event>
 5   0  0.4289684E-07  0.3417904E+04  0.7818609E-02  0.8133526E-01
       -1   -1    0    0    0  501  0.00000000000E+00  0.00000000000E+00  0.18068651009E+04  0.18068651009E+04  0.50400001928E-02 0.  1.
        1   -1    0    0  501    0  0.00000000000E+00  0.00000000000E+00 -0.16163443505E+04  0.16163443505E+04  0.50400001928E-02 0. -1.
    10030    2    1    2    0    0  0.00000000000E+00  0.00000000000E+00  0.19052075039E+03  0.34232094514E+04  0.34179035668E+04 0.  0.
        4    1    3    3  502    0 -0.80877555128E+03  0.86205034517E+03  0.13313829179E+04  0.17804018583E+04  0.12699999809E+01 0.  1.
       -4    1    3    3    0  502  0.80877555128E+03 -0.86205034517E+03 -0.11408621675E+04  0.16428075931E+04  0.12699999809E+01 0. -1.
</event>
<event>
 5   0  0.4109937E-07  0.3396899E+04  0.7818609E-02  0.8138668E-01
        1   -1    0    0  501    0  0.00000000000E+00  0.00000000000E+00  0.28810122550E+04  0.28810122550E+04  0.50400001928E-02 0. -1.
       -1   -1    0    0    0  501  0.00000000000E+00  0.00000000000E+00 -0.10012909258E+04  0.10012909258E+04  0.50400001928E-02 0.  1.
    10030    2    1    2    0    0  0.00000000000E+00  0.00000000000E+00  0.18797213292E+04  0.38823031808E+04  0.33968994263E+04 0.  0.
        5    1    3    3  502    0 -0.13822019032E+04  0.28647651488E+03 -0.13965203051E+03  0.14184765329E+04  0.46999998093E+01 0.  1.
       -5    1    3    3    0  502  0.13822019032E+04 -0.28647651488E+03  0.20193733597E+04  0.24638266479E+04  0.46999998093E+01 0. -1.
</event>
<event>
 5   0  0.4272633E-07  0.3407360E+04  0.7818609E-02  0.8136102E-01
       -1   -1    0    0    0  501  0.00000000000E+00  0.00000000000E+00  0.20764064272E+04  0.20764064272E+04  0.50400001928E-02 0.  1.
        1   -1    0    0  501    0  0.00000000000E+00  0.00000000000E+00 -0.13978600822E+04  0.13978600822E+04  0.50400001928E-02 0. -1.
    10030    2    1    2    0    0  0.00000000000E+00  0.00000000000E+00  0.67854634503E+03  0.34742665094E+04  0.34073600684E+04 0.  0.
        1    1    3    3  502    0 -0.47818019562E+03  0.27273457448E+03  0.19832238213E+04  0.20582072717E+04  0.50400001928E-02 0.  1.
       -1    1    3    3    0  502  0.47818019562E+03 -0.27273457448E+03 -0.13046774763E+04  0.14160592377E+04  0.50400001928E-02 0. -1.
</event>
<event>
 5   0  0.4272633E-07  0.3398615E+04  0.7818609E-02  0.8138246E-01
        1   -1    0    0  501    0  0.00000000000E+00  0.00000000000E+00  0.16756723475E+04  0.16756723476E+04  0.50400001928E-02 0.  1.
       -1   -1    0    0    0  501  0.00000000000E+00  0.00000000000E+00 -0.17232762276E+04  0.17232762276E+04  0.50400001928E-02 0. -1.
    10030    2    1    2    0    0  0.00000000000E+00  0.00000000000E+00 -0.47603880095E+02  0.33989485752E+04  0.33986152014E+04 0.  0.
        1    1    3    3  502    0  0.11148154470E+04  0.11505932656E+04  0.54279399140E+03  0.16915388440E+04  0.50400001928E-02 0.  1.
       -1    1    3    3    0  502 -0.11148154470E+04 -0.11505932656E+04 -0.59039787150E+03  0.17074097312E+04  0.50400001928E-02 0. -1.
</event>
<event>
 5   0  0.1277635E-06  0.3140394E+04  0.7818609E-02  0.8204739E-01
       -2   -1    0    0    0  501  0.00000000000E+00  0.00000000000E+00  0.11872217207E+04  0.11872217207E+04  0.25500000920E-02 0. -1.
        2   -1    0    0  501    0  0.00000000000E+00  0.00000000000E+00 -0.20767130905E+04  0.20767130905E+04  0.25500000920E-02 0.  1.
    10030    2    1    2    0    0  0.00000000000E+00  0.00000000000E+00 -0.88949136977E+03  0.32639348113E+04  0.31403941720E+04 0.  0.
        4    1    3    3  502    0  0.14446034657E+04 -0.28029239080E+03 -0.10140856871E+04  0.17871246155E+04  0.12699999809E+01 0. -1.
       -4    1    3    3    0  502 -0.14446034657E+04  0.28029239080E+03  0.12459431730E+03  0.14768101958E+04  0.12699999809E+01 0.  1.
</event>
<event>
 5   0  0.4289684E-07  0.3419512E+04  0.7818609E-02  0.8133134E-01
        1   -1    0    0  501    0  0.00000000000E+00  0.00000000000E+00  0.21990609993E+04  0.21990609993E+04  0.50400001928E-02 0.  1.
       -1   -1    0    0    0  501  0.00000000000E+00  0.00000000000E+00 -0.13293243300E+04  0.13293243300E+04  0.50400001928E-02 0. -1.
    10030    2    1    2    0    0  0.00000000000E+00  0.00000000000E+00  0.86973666928E+03  0.35283853293E+04  0.34195118304E+04 0.  0.
        4    1    3    3  502    0  0.23639704591E+03 -0.29483686400E+03  0.21554272421E+04  0.21883054057E+04  0.12699999809E+01 0.  1.
       -4    1    3    3    0  502 -0.23639704591E+03  0.29483686400E+03 -0.12856905728E+04  0.13400799236E+04  0.12699999809E+01 0. -1.
</event>
<event>
 5   0  0.4272633E-07  0.3330802E+04  0.7818609E-02  0.8155102E-01
        1   -1    0    0  501    0  0.00000000000E+00  0.00000000000E+00  0.17488289453E+04  0.17488289453E+04  0.50400001928E-02 0.  1.
       -1   -1    0    0    0  501  0.00000000000E+00  0.00000000000E+00 -0.15859526970E+04  0.15859526970E+04  0.50400001928E-02 0. -1.
    10030    2    1    2    0    0  0.00000000000E+00  0.00000000000E+00  0.16287624836E+03  0.33347816423E+04  0.33308016948E+04 0.  0.
        1    1    3    3  502    0  0.87091421025E+03  0.13916335318E+04  0.36181655345E+03  0.16810849672E+04  0.50400001928E-02 0.  1.
       -1    1    3    3    0  502 -0.87091421025E+03 -0.13916335318E+04 -0.19894030509E+03  0.16536966752E+04  0.50400001928E-02 0. -1.
</event>
<event>
 5   0  0.4464951E-07  0.3812882E+04  0.7818609E-02  0.8043396E-01
       -1   -1    0    0    0  501  0.00000000000E+00  0.00000000000E+00  0.16494724248E+04  0.16494724248E+04  0.50400001928E-02 0.  1.
        1   -1    0    0  501    0  0.00000000000E+00  0.00000000000E+00 -0.22034418664E+04  0.22034418664E+04  0.50400001928E-02 0. -1.
    10030    2    1    2    0    0  0.00000000000E+00  0.00000000000E+00 -0.55396944164E+03  0.38529142912E+04  0.38128816390E+04 0.  0.
        3    1    3    3  502    0 -0.18630280398E+04 -0.14245427180E+03 -0.65957568444E+03  0.19814658186E+04  0.10100000352E+00 0. -1.
       -3    1    3    3    0  502  0.18630280398E+04  0.14245427180E+03  0.10560624279E+03  0.18714484726E+04  0.10100000352E+00 0.  1.
</event>
<event>
 5   0  0.4109937E-07  0.3349129E+04  0.7818609E-02  0.8150506E-01
        1   -1    0    0  501    0  0.00000000000E+00  0.00000000000E+00  0.16343944206E+04  0.16343944206E+04  0.50400001928E-02 0. -1.
       -1   -1    0    0    0  501  0.00000000000E+00  0.00000000000E+00 -0.17157220918E+04  0.17157220918E+04  0.50400001928E-02 0.  1.
    10030    2    1    2    0    0  0.00000000000E+00  0.00000000000E+00 -0.81327671197E+02  0.33501165124E+04  0.33491292087E+04 0.  0.
        5    1    3    3  502    0 -0.41564758825E+03 -0.14443465714E+04  0.69796063287E+03  0.16571273551E+04  0.46999998093E+01 0. -1.
       -5    1    3    3    0  502  0.41564758825E+03  0.14443465714E+04 -0.77928830407E+03  0.16929891573E+04  0.46999998093E+01 0.  1.
</event>
<event>
 5   0  0.1277635E-06  0.3370467E+04  0.7818609E-02  0.8145193E-01
       -2   -1    0    0    0  501  0.00000000000E+00  0.00000000000E+00  0.18015118689E+04  0.18015118689E+04  0.25500000920E-02 0.  1.
        2   -1    0    0  501    0  0.00000000000E+00  0.00000000000E+00 -0.15764606174E+04  0.15764606174E+04  0.25500000920E-02 0. -1.
    10030    2    1    2    0    0  0.00000000000E+00  0.00000000000E+00  0.22505125146E+03  0.33779724863E+04  0.33704673344E+04 0.  0.
        4    1    3    3  502    0  0.16396327477E+04  0.38492565655E+03  0.17137256878E+03  0.16929068133E+04  0.12699999809E+01 0. -1.
       -4    1    3    3    0  502 -0.16396327477E+04 -0.38492565655E+03  0.53678682684E+02  0.16850656730E+04  0.12699999809E+01 0.  1.
</event>
<event>
 5   0  0.4125758E-07  0.3441481E+04  0.7818609E-02  0.8127800E-01
       -1   -1    0    0    0  501  0.00000000000E+00  0.00000000000E+00  0.17227481242E+04  0.17227481242E+04  0.50400001928E-02 0. -1.
        1   -1    0    0  501    0  0.00000000000E+00  0.00000000000E+00 -0.17187355634E+04  0.17187355634E+04  0.50400001928E-02 0.  1.
    10030    2    1    2    0    0  0.00000000000E+00  0.00000000000E+00  0.40125607937E+01  0.34414836877E+04  0.34414813485E+04 0.  0.
        2    1    3    3  502    0 -0.36474947510E+03  0.16325648769E+04 -0.40127827428E+03  0.17202716386E+04  0.25500000920E-02 0.  1.
       -2    1    3    3    0  502  0.36474947510E+03 -0.16325648769E+04  0.40529083507E+03  0.17212120491E+04  0.25500000920E-02 0. -1.
</event>
<event>
 5   0  0.4289684E-07  0.3323698E+04  0.7818609E-02  0.8156891E-01
        1   -1    0    0  501    0  0.00000000000E+00  0.00000000000E+00  0.16831597196E+04  0.16831597196E+04  0.50400001928E-02 0.  1.
       -1   -1    0    0    0  501  0.00000000000E+00  0.00000000000E+00 -0.16408081688E+04  0.16408081689E+04  0.50400001928E-02 0. -1.
    10030    2    1    2    0    0  0.00000000000E+00  0.00000000000E+00  0.42351550725E+02  0.33239678884E+04  0.33236980714E+04 0.  0.
        4    1    3    3  502    0 -0.43532201518E+03  0.15959760405E+04  0.17960525589E+03  0.16640025360E+04  0.12699999809E+01 0. -1.
       -4    1    3    3    0  502  0.43532201518E+03 -0.15959760405E+04 -0.13725370517E+03  0.16599653525E+04  0.12699999809E+01 0.  1.
</event>
<event>
 5   0  0.1277635E-06  0.3415077E+04  0.7818609E-02  0.8134216E-01
        2   -1    0    0  501    0  0.00000000000E+00  0.00000000000E+00  0.20487725380E+04  0.20487725380E+04  0.25500000920E-02 0.  1.
       -2   -1    0    0    0  501  0.00000000000E+00  0.00000000000E+00 -0.14231384904E+04  0.14231384904E+04  0.25500000920E-02 0. -1.
    10030    2    1    2    0    0  0.00000000000E+00  0.00000000000E+00  0.62563404758E+03  0.34719110283E+04  0.34150766063E+04 0.  0.
        4    1    3    3  502    0 -0.10322148577E+04 -0.93704931306E+03  0.13152058873E+04  0.19165847402E+04  0.12699999809E+01 0.  1.
       -4    1    3    3    0  502  0.10322148577E+04  0.93704931306E+03 -0.68957183973E+03  0.15553262881E+04  0.12699999809E+01 0. -1.
</event>
<event>
 5   0  0.1269497E-06  0.3500609E+04  0.7818609E-02  0.8113646E-01
        2   -1    0    0  501    0  0.00000000000E+00  0.00000000000E+00  0.12102482975E+04  0.12102482975E+04  0.25500000920E-02 0. -1.
       -2   -1    0    0    0  501  0.00000000000E+00  0.00000000000E+00 -0.25313534247E+04  0.25313534247E+04  0.25500000920E-02 0.  1.
    10030    2    1    2    0    0  0.00000000000E+00  0.00000000000E+00 -0.13211051272E+04  0.37416017222E+04  0.35006091885E+04 0.  0.
        5    1    3    3  502    0  0.76906337135E+03  0.15709425602E+04 -0.59107705811E+03  0.18462700710E+04  0.46999998093E+01 0. -1.
       -5    1    3    3    0  502 -0.76906337135E+03 -0.15709425602E+04 -0.73002806911E+03  0.18953316512E+04  0.46999998093E+01 0.  1.
</event>
<event>
 5   0  0.4289684E-07  0.3396955E+04  0.7818609E-02  0.8138654E-01
       -1   -1    0    0    0  501  0.00000000000E+00  0.00000000000E+00  0.14968244970E+04  0.14968244970E+04  0.50400001928E-02 0.  1.
        1   -1    0    0  501    0  0.00000000000E+00  0.00000000000E+00 -0.19272969718E+04  0.19272969718E+04  0.50400001928E-02 0. -1.
    10030    2    1    2    0    0  0.00000000000E+00  0.00000000000E+00 -0.43047247486E+03  0.34241214688E+04  0.33969547070E+04 0.  0.
        4    1    3    3  502    0 -0.13465289927E+04 -0.93484984376E+03  0.23299873321E+03  0.16557096911E+04  0.12699999809E+01 0.  1.
       -4    1    3    3    0  502  0.13465289927E+04  0.93484984376E+03 -0.66347120808E+03  0.17684117777E+04  0.12699999809E+01 0. -1.
</event>
<event>
 5   0  0.1277635E-06  0.3416177E+04  0.7818609E-02  0.8133947E-01
       -2   -1    0    0    0  501  0.00000000000E+00  0.00000000000E+00  0.23584673225E+04  0.23584673225E+04  0.25500000920E-02 0. -1.
        2   -1    0    0  501    0  0.00000000000E+00  0.00000000000E+00 -0.12370600454E+04  0.12370600454E+04  0.25500000920E-02 0.  1.
    10030    2    1    2    0    0  0.00000000000E+00  0.00000000000E+00  0.11214072771E+04  0.35955273679E+04  0.34161766307E+04 0.  0.
        4    1    3    3  502    0  0.32722115828E+03 -0.11067913069E+04 -0.76457094717E+03  0.13844244398E+04  0.12699999809E+01 0.  1.
       -4    1    3    3    0  502 -0.32722115828E+03  0.11067913069E+04  0.18859782242E+04  0.22111029281E+04  0.12699999809E+01 0. -1.
</event>
<event>
 5   0  0.1256208E-06  0.3131875E+04  0.7818609E-02  0.8207044E-01
       -2   -1    0    0    0  501  0.00000000000E+00  0.00000000000E+00  0.11991942629E+04  0.11991942629E+04  0.25500000920E-02 0.  1.
        2   -1    0    0  501    0  0.00000000000E+00  0.00000000000E+00 -0.20448397969E+04  0.20448397969E+04  0.25500000920E-02 0. -1.
    10030    2    1    2    0    0  0.00000000000E+00  0.00000000000E+00 -0.84564553400E+03  0.32440340598E+04  0.31318749356E+04 0.  0.
        3    1    3    3  502    0  0.10059164395E+04  0.11598858538E+04 -0.74200935737E+03  0.17052216787E+04  0.10100000352E+00 0. -1.
       -3    1    3    3    0  502 -0.10059164395E+04 -0.11598858538E+04 -0.10363617663E+03  0.15388123811E+04  0.10100000352E+00 0.  1.
</event>
<event>
 5   0  0.4109937E-07  0.3196662E+04  0.7818609E-02  0.8189699E-01
        1   -1    0    0  501    0  0.00000000000E+00  0.00000000000E+00  0.17063412332E+04  0.17063412332E+04  0.50400001928E-02 0.  1.
       -1   -1    0    0    0  501  0.00000000000E+00  0.00000000000E+00 -0.14971574948E+04  0.14971574948E+04  0.50400001928E-02 0. -1.
    10030    2    1    2    0    0  0.00000000000E+00  0.00000000000E+00  0.20918373845E+03  0.32034987280E+04  0.31966617375E+04 0.  0.
        5    1    3    3  502    0  0.69732894901E+03  0.44500348756E+03 -0.12659382517E+04  0.15122557701E+04  0.46999998093E+01 0. -1.
       -5    1    3    3    0  502 -0.69732894901E+03 -0.44500348756E+03  0.14751219901E+04  0.16912429579E+04  0.46999998093E+01 0.  1.
</event>
<event>
 5   0  0.1268230E-06  0.3392315E+04  0.7818609E-02  0.8139795E-01
       -2   -1    0    0    0  501  0.00000000000E+00  0.00000000000E+00  0.21495450336E+04  0.21495450336E+04  0.25500000920E-02 0.  1.
        2   -1    0    0  501    0  0.00000000000E+00  0.00000000000E+00 -0.13383997746E+04  0.13383997746E+04  0.25500000920E-02 0. -1.
    10030    2    1    2    0    0  0.00000000000E+00  0.00000000000E+00  0.81114525907E+03  0.34879448082E+04  0.33923151908E+04 0.  0.
        2    1    3    3  502    0 -0.14533642462E+04  0.47688931985E+02  0.13033472729E+04  0.19527559961E+04  0.25500000920E-02 0. -1.
       -2    1    3    3    0  502  0.14533642462E+04 -0.47688931985E+02 -0.49220201387E+03  0.15351888121E+04  0.25500000920E-02 0.  1.
</event>
<event>
 5   0  0.4060750E-07  0.3377492E+04  0.7818609E-02  0.8143453E-01
       -3   -1    0    0    0  501  0.00000000000E+00  0.00000000000E+00  0.29001112075E+04  0.29001112092E+04  0.10100000352E+00 0.  1.
        3   -1    0    0  501    0  0.00000000000E+00  0.00000000000E+00 -0.98336359629E+03  0.98336360147E+03  0.10100000352E+00 0. -1.
    10030    2    1    2    0    0  0.00000000000E+00  0.00000000000E+00  0.19167476112E+04  0.38834748107E+04  0.33774924427E+04 0.  0.
        3    1    3    3  502    0  0.14441274271E+04  0.87540804449E+03  0.95316529022E+03  0.19391666640E+04  0.10100000352E+00 0.  1.
       -3    1    3    3    0  502 -0.14441274271E+04 -0.87540804449E+03  0.96358232095E+03  0.19443081467E+04  0.10100000352E+00 0. -1.
</event>
<event>
 5   0  0.1268230E-06  0.3379221E+04  0.7818609E-02  0.8143025E-01
       -2   -1    0    0    0  501  0.00000000000E+00  0.00000000000E+00  0.15405720350E+04  0.15405720350E+04  0.25500000920E-02 0. -1.
        2   -1    0    0  501    0  0.00000000000E+00  0.00000000000E+00 -0.18530667615E+04  0.18530667615E+04  0.25500000920E-02 0.  1.
    10030    2    1    2    0    0  0.00000000000E+00  0.00000000000E+00 -0.31249472653E+03  0.33936387965E+04  0.33792205206E+04 0.  0.
        2    1    3    3  502    0  0.44992416910E+03 -0.10675840797E+04  0.10788845062E+04  0.15830853744E+04  0.25500000920E-02 0. -1.
       -2    1    3    3    0  502 -0.44992416910E+03  0.10675840797E+04 -0.13913792327E+04  0.18105534221E+04  0.25500000920E-02 0.  1.
</event>
<event>
 5   0  0.4464951E-07  0.3433997E+04  0.7818609E-02  0.8129612E-01
       -1   -1    0    0    0  501  0.00000000000E+00  0.00000000000E+00  0.16469241385E+04  0.16469241385E+04  0.50400001928E-02 0. -1.
        1   -1    0    0  501    0  0.00000000000E+00  0.00000000000E+00 -0.17900540250E+04  0.17900540250E+04  0.50400001928E-02 0.  1.
    10030    2    1    2    0    0  0.00000000000E+00  0.00000000000E+00 -0.14312988653E+03  0.34369781635E+04  0.34339966121E+04 0.  0.
        3    1    3    3  502    0  0.10601818896E+04 -0.23256153706E+02 -0.14231287222E+04  0.17747737484E+04  0.10100000352E+00 0.  1.
       -3    1    3    3    0  502 -0.10601818896E+04  0.23256153706E+02  0.12799988357E+04  0.16622044151E+04  0.10100000352E+00 0. -1.
</event>
<event>
 5   0  0.1256208E-06  0.3421487E+04  0.7818609E-02  0.8132653E-01
       -2   -1    0    0    0  501  0.00000000000E+00  0.00000000000E+00  0.12380048104E+04  0.12380048104E+04  0.25500000920E-02 0. -1.
        2   -1    0    0  501    0  0.00000000000E+00  0.00000000000E+00 -0.23639995424E+04  0.23639995424E+04  0.25500000920E-02 0.  1.
    10030    2    1    2    0    0  0.00000000000E+00  0.00000000000E+00 -0.11259947320E+04  0.36020043529E+04  0.34214866975E+04 0.  0.
        3    1    3    3  502    0 -0.47106983449E+03  0.15691399558E+04 -0.44534914985E+02  0.16389296381E+04  0.10100000352E+00 0. -1.
       -3    1    3    3    0  502  0.47106983449E+03 -0.15691399558E+04 -0.10814598170E+04  0.19630747148E+04  0.10100000352E+00 0.  1.
</event>
<event>
 5   0  0.4289684E-07  0.3421581E+04  0.7818609E-02  0.8132630E-01
       -1   -1    0    0    0  501  0.00000000000E+00  0.00000000000E+00  0.13310578460E+04  0.13310578460E+04  0.50400001928E-02 0. -1.
        1   -1    0    0  501    0  0.00000000000E+00  0.00000000000E+00 -0.21988555839E+04  0.21988555839E+04  0.50400001928E-02 0.  1.
    10030    2    1    2    0    0  0.00000000000E+00  0.00000000000E+00 -0.86779773791E+03  0.35299134300E+04  0.34215809079E+04 0.  0.
        4    1    3    3  502    0  0.95329894198E+03  0.23143070701E+02 -0.18992533911E+04  0.21252010566E+04  0.12699999809E+01 0.  1.
       -4    1    3    3    0  502 -0.95329894198E+03 -0.23143070701E+02  0.10314556532E+04  0.14047123734E+04  0.12699999809E+01 0. -1.
</event>
<event>
 5   0  0.4272633E-07  0.3326753E+04  0.7818609E-02  0.8156121E-01
       -1   -1    0    0    0  501  0.00000000000E+00  0.00000000000E+00  0.17094977679E+04  0.17094977680E+04  0.50400001928E-02 0. -1.
        1   -1    0    0  501    0  0.00000000000E+00  0.00000000000E+00 -0.16184998449E+04  0.16184998449E+04  0.50400001928E-02 0.  1.
    10030    2    1    2    0    0  0.00000000000E+00  0.00000000000E+00  0.90997923029E+02  0.33279976129E+04  0.33267532955E+04 0.  0.
        1    1    3    3  502    0  0.32154227023E+03 -0.76853682570E+02  0.16763007066E+04  0.17085900559E+04  0.50400001928E-02 0. -1.
       -1    1    3    3    0  502 -0.32154227023E+03  0.76853682570E+02 -0.15853027836E+04  0.16194075570E+04  0.50400001928E-02 0.  1.
</event>
<event>
 5   0  0.1268230E-06  0.3423448E+04  0.7818609E-02  0.8132175E-01
        2   -1    0    0  501    0  0.00000000000E+00  0.00000000000E+00  0.25252953078E+04  0.25252953078E+04  0.25500000920E-02 0. -1.
       -2   -1    0    0    0  501  0.00000000000E+00  0.00000000000E+00 -0.11602602407E+04  0.11602602407E+04  0.25500000920E-02 0.  1.
    10030    2    1    2    0    0  0.00000000000E+00  0.00000000000E+00  0.13650350671E+04  0.36855555486E+04  0.34234484029E+04 0.  0.
        2    1    3    3  502    0 -0.92502679270E+03  0.12426660711E+04  0.14663452578E+04  0.21330874213E+04  0.25500000920E-02 0. -1.
       -2    1    3    3    0  502  0.92502679270E+03 -0.12426660711E+04 -0.10131019072E+03  0.15524681273E+04  0.25500000920E-02 0.  1.
</event>
<event>
 5   0  0.4109937E-07  0.3413194E+04  0.7818609E-02  0.8134676E-01
        1   -1    0    0  501    0  0.00000000000E+00  0.00000000000E+00  0.21031791347E+04  0.21031791347E+04  0.50400001928E-02 0.  1.
       -1   -1    0    0    0  501  0.00000000000E+00  0.00000000000E+00 -0.13847960217E+04  0.13847960217E+04  0.50400001928E-02 0. -1.
    10030    2    1    2    0    0  0.00000000000E+00  0.00000000000E+00  0.71838311301E+03  0.34879751564E+04  0.34131944560E+04 0.  0.
        5    1    3    3  502    0  0.15641827324E+04  0.60936489826E+03  0.45116400307E+02  0.16793006815E+04  0.46999998093E+01 0. -1.
       -5    1    3    3    0  502 -0.15641827324E+04 -0.60936489826E+03  0.67326671270E+03  0.18086744748E+04  0.46999998093E+01 0.  1.
</event>
<event>
 5   0  0.1277635E-06  0.3413472E+04  0.7818609E-02  0.8134608E-01
        2   -1    0    0  501    0  0.00000000000E+00  0.00000000000E+00  0.10935430067E+04  0.10935430067E+04  0.25500000920E-02 0.  1.
       -2   -1    0    0    0  501  0.00000000000E+00  0.00000000000E+00 -0.26637707560E+04  0.26637707560E+04  0.25500000920E-02 0. -1.
    10030    2    1    2    0    0  0.00000000000E+00  0.00000000000E+00 -0.15702277493E+04  0.37573137626E+04  0.34134720632E+04 0.  0.
        4    1    3    3  502    0  0.11280083341E+04 -0.11024607656E+04 -0.67420755001E+02  0.15787240774E+04  0.12699999809E+01 0.  1.
       -4    1    3    3    0  502 -0.11280083341E+04  0.11024607656E+04 -0.15028069943E+04  0.21785896852E+04  0.12699999809E+01 0. -1.
</event>
<event>
 5   0  0.1256208E-06  0.3461412E+04  0.7818609E-02  0.8122996E-01
       -2   -1    0    0    0  501  0.00000000000E+00  0.00000000000E+00  0.16370560251E+04  0.16370560251E+04  0.25500000920E-02 0. -1.
        2   -1    0    0  501    0  0.00000000000E+00  0.00000000000E+00 -0.18297129942E+04  0.18297129942E+04  0.25500000920E-02 0.  1.
    10030    2    1    2    0    0  0.00000000000E+00  0.00000000000E+00 -0.19265696905E+03  0.34667690193E+04  0.34614116665E+04 0.  0.
        3    1    3    3  502    0 -0.81160187999E+03  0.14558951986E+04  0.37024038683E+03  0.17074561181E+04  0.10100000352E+00 0. -1.
       -3    1    3    3    0  502  0.81160187999E+03 -0.14558951986E+04 -0.56289735588E+03  0.17593129012E+04  0.10100000352E+00 0.  1.
</event>
<event>
 5   0  0.1269497E-06  0.3420247E+04  0.7818609E-02  0.8132955E-01
        2   -1    0    0  501    0  0.00000000000E+00  0.00000000000E+00  0.11061094613E+04  0.11061094613E+04  0.25500000920E-02 0.  1.
       -2   -1    0    0    0  501  0.00000000000E+00  0.00000000000E+00 -0.26439720037E+04  0.26439720037E+04  0.25500000920E-02 0. -1.
    10030    2    1    2    0    0  0.00000000000E+00  0.00000000000E+00 -0.15378625424E+04  0.37500814649E+04  0.34202470370E+04 0.  0.
        5    1    3    3  502    0 -0.90197431112E+03  0.91638831926E+03  0.46726071501E+03  0.13680935185E+04  0.46999998093E+01 0.  1.
       -5    1    3    3    0  502  0.90197431112E+03 -0.91638831926E+03 -0.20051232574E+04  0.23819879464E+04  0.46999998093E+01 0. -1.
</event>
<event>
 5   0  0.4289684E-07  0.3048575E+04  0.7818609E-02  0.8229995E-01
        1   -1    0    0  501    0  0.00000000000E+00  0.00000000000E+00  0.16589817829E+04  0.16589817829E+04  0.50400001928E-02 0.  1.
       -1   -1    0    0    0  501  0.00000000000E+00  0.00000000000E+00 -0.14005289116E+04  0.14005289117E+04  0.50400001928E-02 0. -1.
    10030    2    1    2    0    0  0.00000000000E+00  0.00000000000E+00  0.25845287126E+03  0.30595106946E+04  0.30485747167E+04 0.  0.
        4    1    3    3  502    0 -0.14764530434E+04 -0.25061113883E+03 -0.15592448354E+03  0.15056671576E+04  0.12699999809E+01 0. -1.
       -4    1    3    3    0  502  0.14764530434E+04  0.25061113883E+03  0.41437735479E+03  0.15538435369E+04  0.12699999809E+01 0.  1.
</event>
<event>
 5   0  0.4464951E-07  0.3373675E+04  0.7818609E-02  0.8144398E-01
        1   -1    0    0  501    0  0.00000000000E+00  0.00000000000E+00  0.19138752945E+04  0.19138752945E+04  0.50400001928E-02 0. -1.
       -1   -1    0    0    0  501  0.00000000000E+00  0.00000000000E+00 -0.14867327960E+04  0.14867327960E+04  0.50400001928E-02 0.  1.
    10030    2    1    2    0    0  0.00000000000E+00  0.00000000000E+00  0.42714249854E+03  0.34006080906E+04  0.33736752469E+04 0.  0.
        3    1    3    3  502    0 -0.79764087993E+03 -0.84048893717E+02  0.17093742088E+04  0.18881883873E+04  0.10100000352E+00 0. -1.
       -3    1    3    3    0  502  0.79764087993E+03  0.84048893717E+02 -0.12822317103E+04  0.15124197033E+04  0.10100000352E+00 0.  1.
</event>
<event>
 5   0  0.4109937E-07  0.3413712E+04  0.7818609E-02  0.8134549E-01
       -1   -1    0    0    0  501  0.00000000000E+00  0.00000000000E+00  0.14723349313E+04  0.14723349313E+04  0.50400001928E-02 0. -1.
        1   -1    0    0  501    0  0.00000000000E+00  0.00000000000E+00 -0.19787327901E+04  0.19787327901E+04  0.50400001928E-02 0.  1.
    10030    2    1    2    0    0  0.00000000000E+00  0.00000000000E+00 -0.50639785873E+03  0.34510677214E+04  0.34137120011E+04 0.  0.
        5    1    3    3  502    0  0.11204303177E+04  0.12674916508E+04 -0.48247607465E+03  0.17591772038E+04  0.46999998093E+01 0.  1.
       -5    1    3    3    0  502 -0.11204303177E+04 -0.12674916508E+04 -0.23921784079E+02  0.16918905176E+04  0.46999998093E+01 0. -1.
</event>
<event>
 5   0  0.1277635E-06  0.3379066E+04  0.7818609E-02  0.8143063E-01
       -2   -1    0    0    0  501  0.00000000000E+00  0.00000000000E+00  0.10951736942E+04  0.10951736942E+04  0.25500000920E-02 0.  1.
        2   -1    0    0  501    0  0.00000000000E+00  0.00000000000E+00 -0.26064563015E+04  0.26064563015E+04  0.25500000920E-02 0. -1.
    10030    2    1    2    0    0  0.00000000000E+00  0.00000000000E+00 -0.15112826072E+04  0.37016299957E+04  0.33790663661E+04 0.  0.
        4    1    3    3  502    0  0.57094438224E+03  0.13843286398E+04 -0.16127481486E+04  0.22007502072E+04  0.12699999809E+01 0. -1.
       -4    1    3    3    0  502 -0.57094438224E+03 -0.13843286398E+04  0.10146554140E+03  0.15008797885E+04  0.12699999809E+01 0.  1.
</event>
<event>
 5   0  0.1300176E-06  0.3457430E+04  0.7818609E-02  0.8123953E-01
       -2   -1    0    0    0  501  0.00000000000E+00  0.00000000000E+00  0.12720484010E+04  0.12720484010E+04  0.25500000920E-02 0. -1.
        2   -1    0    0  501    0  0.00000000000E+00  0.00000000000E+00 -0.23493257041E+04  0.23493257041E+04  0.25500000920E-02 0.  1.
    10030    2    1    2    0    0  0.00000000000E+00  0.00000000000E+00 -0.10772773031E+04  0.36213741051E+04  0.34574302627E+04 0.  0.
        1    1    3    3  502    0  0.14960609686E+04 -0.41023008287E+03  0.26040377087E+03  0.15729899130E+04  0.50400001928E-02 0. -1.
       -1    1    3    3    0  502 -0.14960609686E+04  0.41023008287E+03 -0.13376810740E+04  0.20483841921E+04  0.50400001928E-02 0.  1.
</event>
<event>
 5   0  0.1269497E-06  0.3389523E+04  0.7818609E-02  0.8140483E-01
        2   -1    0    0  501    0  0.00000000000E+00  0.00000000000E+00  0.16160610463E+04  0.16160610463E+04  0.25500000920E-02 0.  1.
       -2   -1    0    0    0  501  0.00000000000E+00  0.00000000000E+00 -0.17772941909E+04  0.17772941909E+04  0.25500000920E-02 0. -1.
    10030    2    1    2    0    0  0.00000000000E+00  0.00000000000E+00 -0.16123314459E+03  0.33933552373E+04  0.33895226271E+04 0.  0.
        5    1    3    3  502    0 -0.94462635597E+03  0.73574207245E+03  0.11201388279E+04  0.16396244793E+04  0.46999998093E+01 0.  1.
       -5    1    3    3    0  502  0.94462635597E+03 -0.73574207245E+03 -0.12813719725E+04  0.17537307579E+04  0.46999998093E+01 0. -1.
</event>
<event>
 5   0  0.1277635E-06  0.3403227E+04  0.7818609E-02  0.8137115E-01
        2   -1    0    0  501    0  0.00000000000E+00  0.00000000000E+00  0.29591646609E+04  0.29591646609E+04  0.25500000920E-02 0.  1.
       -2   -1    0    0    0  501  0.00000000000E+00  0.00000000000E+00 -0.97848183082E+03  0.97848183083E+03  0.25500000920E-02 0. -1.
    10030    2    1    2    0    0  0.00000000000E+00  0.00000000000E+00  0.19806828300E+04  0.39376464917E+04  0.34032272067E+04 0.  0.
        4    1    3    3  502    0  0.67917525634E+03 -0.31231779056E+03  0.27590003064E+04  0.28584796195E+04  0.12699999809E+01 0.  1.
       -4    1    3    3    0  502 -0.67917525634E+03  0.31231779056E+03 -0.77831747640E+03  0.10791668722E+04  0.12699999809E+01 0. -1.
</event>
<event>
 5   0  0.1268230E-06  0.3337888E+04  0.7818609E-02  0.8153321E-01
        2   -1    0    0  501    0  0.00000000000E+00  0.00000000000E+00  0.22432016531E+04  0.22432016531E+04  0.25500000920E-02 0.  1.
       -2   -1    0    0    0  501  0.00000000000E+00  0.00000000000E+00 -0.12416956767E+04  0.12416956767E+04  0.25500000920E-02 0. -1.
    10030    2    1    2    0    0  0.00000000000E+00  0.00000000000E+00  0.10015059764E+04  0.34848973298E+04  0.33378878319E+04 0.  0.
        2    1    3    3  502    0 -0.15722292512E+04  0.94470818201E+02  0.10769134403E+04  0.19080283310E+04  0.25500000920E-02 0. -1.
       -2    1    3    3    0  502  0.15722292512E+04 -0.94470818201E+02 -0.75407463960E+02  0.15768689988E+04  0.25500000920E-02 0.  1.
</event>
<event>
 5   0  0.1269497E-06  0.3354574E+04  0.7818609E-02  0.8149146E-01
        2   -1    0    0  501    0  0.00000000000E+00  0.00000000000E+00  0.15597666913E+04  0.15597666913E+04  0.25500000920E-02 0.  1.
       -2   -1    0    0    0  501  0.00000000000E+00  0.00000000000E+00 -0.18036616668E+04  0.18036616668E+04  0.25500000920E-02 0. -1.
    10030    2    1    2    0    0  0.00000000000E+00  0.00000000000E+00 -0.24389497550E+03  0.33634283581E+04  0.33545738270E+04 0.  0.
        5    1    3    3  502    0 -0.34004518431E+03  0.10992661761E+03  0.15211443172E+04  0.15625673465E+04  0.46999998093E+01 0.  1.
       -5    1    3    3    0  502  0.34004518431E+03 -0.10992661761E+03 -0.17650392927E+04  0.18008610116E+04  0.46999998093E+01 0. -1.
</event>
<event>
 5   0  0.1269497E-06  0.3383373E+04  0.7818609E-02  0.8141999E-01
        2   -1    0    0  501    0  0.00000000000E+00  0.00000000000E+00  0.22561335397E+04  0.22561335397E+04  0.25500000920E-02 0. -1.
       -2   -1    0    0    0  501  0.00000000000E+00  0.00000000000E+00 -0.12684545983E+04  0.12684545983E+04  0.25500000920E-02 0.  1.
    10030    2    1    2    0    0  0.00000000000E+00  0.00000000000E+00  0.98767894136E+03  0.35245881380E+04  0.33833728514E+04 0.  0.
        5    1    3    3  502    0 -0.52528324621E+03  0.14999946874E+04  0.10975752529E+04  0.19314761393E+04  0.46999998093E+01 0. -1.
       -5    1    3    3    0  502  0.52528324621E+03 -0.14999946874E+04 -0.10989631157E+03  0.15931119987E+04  0.46999998093E+01 0.  1.
</event>
<event>
 5   0  0.4125758E-07  0.3482804E+04  0.7818609E-02  0.8117877E-01
       -1   -1    0    0    0  501  0.00000000000E+00  0.00000000000E+00  0.15506049735E+04  0.15506049735E+04  0.50400001928E-02 0. -1.
        1   -1    0    0  501    0  0.00000000000E+00  0.00000000000E+00 -0.19556762091E+04  0.19556762091E+04  0.50400001928E-02 0.  1.
    10030    2    1    2    0    0  0.00000000000E+00  0.00000000000E+00 -0.40507123561E+03  0.35062811826E+04  0.34828041899E+04 0.  0.
        2    1    3    3  502    0 -0.98372614877E+03 -0.13817947270E+04  0.19433925545E+03  0.17072907045E+04  0.25500000920E-02 0.  1.
       -2    1    3    3    0  502  0.98372614877E+03  0.13817947270E+04 -0.59941049106E+03  0.17989904781E+04  0.25500000920E-02 0. -1.
</event>
<event>
 5   0  0.4125758E-07  0.3425919E+04  0.7818609E-02  0.8131574E-01
        1   -1    0    0  501    0  0.00000000000E+00  0.00000000000E+00  0.16558076046E+04  0.16558076046E+04  0.50400001928E-02 0.  1.
       -1   -1    0    0    0  501  0.00000000000E+00  0.00000000000E+00 -0.17720835449E+04  0.17720835449E+04  0.50400001928E-02 0. -1.
    10030    2    1    2    0    0  0.00000000000E+00  0.00000000000E+00 -0.11627594029E+03  0.34278911494E+04  0.34259185101E+04 0.  0.
        2    1    3    3  502    0 -0.37968711418E+03 -0.12059307118E+04 -0.12145708336E+04  0.17531724091E+04  0.25500000920E-02 0. -1.
       -2    1    3    3    0  502  0.37968711418E+03  0.12059307118E+04  0.10982948933E+04  0.16747187403E+04  0.25500000920E-02 0.  1.
</event>
<event>
 5   0  0.4125758E-07  0.3277563E+04  0.7818609E-02  0.8168628E-01
       -1   -1    0    0    0  501  0.00000000000E+00  0.00000000000E+00  0.13669164857E+04  0.13669164857E+04  0.50400001928E-02 0. -1.
        1   -1    0    0  501    0  0.00000000000E+00  0.00000000000E+00 -0.19647169539E+04  0.19647169539E+04  0.50400001928E-02 0.  1.
    10030    2    1    2    0    0  0.00000000000E+00  0.00000000000E+00 -0.59780046822E+03  0.33316334396E+04  0.32775625053E+04 0.  0.
        2    1    3    3  502    0  0.83091451246E+03 -0.67492837659E+02  0.11352725560E+04  0.14084807370E+04  0.25500000920E-02 0. -1.
       -2    1    3    3    0  502 -0.83091451246E+03  0.67492837659E+02 -0.17330730242E+04  0.19231527026E+04  0.25500000920E-02 0.  1.
</event>
<event>
 5   0  0.4109937E-07  0.3383652E+04  0.7818609E-02  0.8141930E-01
        1   -1    0    0  501    0  0.00000000000E+00  0.00000000000E+00  0.14337035192E+04  0.14337035192E+04  0.50400001928E-02 0.  1.
       -1   -1    0    0    0  501  0.00000000000E+00  0.00000000000E+00 -0.19964202856E+04  0.19964202856E+04  0.50400001928E-02 0. -1.
    10030    2    1    2    0    0  0.00000000000E+00  0.00000000000E+00 -0.56271676639E+03  0.34301238047E+04  0.33836517487E+04 0.  0.
        5    1    3    3  502    0  0.12840973089E+04  0.98630822550E+03  0.21582933824E+03  0.16334975383E+04  0.46999998093E+01 0. -1.
       -5    1    3    3    0  502 -0.12840973089E+04 -0.98630822550E+03 -0.77854610463E+03  0.17966262665E+04  0.46999998093E+01 0.  1.
</event>
<event>
 5   0  0.1256208E-06  0.3459077E+04  0.7818609E-02  0.8123557E-01
       -2   -1    0    0    0  501  0.00000000000E+00  0.00000000000E+00  0.16099579979E+04  0.16099579979E+04  0.25500000920E-02 0.  1.
        2   -1    0    0  501    0  0.00000000000E+00  0.00000000000E+00 -0.18580006207E+04  0.18580006207E+04  0.25500000920E-02 0. -1.
    10030    2    1    2    0    0  0.00000000000E+00  0.00000000000E+00 -0.24804262281E+03  0.34679586185E+04  0.34590767319E+04 0.  0.
        3    1    3    3  502    0  0.64422414662E+03  0.16030775894E+04 -0.20435470558E+03  0.17397250831E+04  0.10100000352E+00 0. -1.
       -3    1    3    3    0  502 -0.64422414662E+03 -0.16030775894E+04 -0.43687917232E+02  0.17282335355E+04  0.10100000352E+00 0.  1.
</event>
<event>
 5   0  0.4464951E-07  0.3339516E+04  0.7818609E-02  0.8152913E-01
        1   -1    0    0  501    0  0.00000000000E+00  0.00000000000E+00  0.12807678028E+04  0.12807678029E+04  0.50400001928E-02 0. -1.
       -1   -1    0    0    0  501  0.00000000000E+00  0.00000000000E+00 -0.21768905785E+04  0.21768905785E+04  0.50400001928E-02 0.  1.
    10030    2    1    2    0    0  0.00000000000E+00  0.00000000000E+00 -0.89612277564E+03  0.34576583814E+04  0.33395157513E+04 0.  0.
        3    1    3    3  502    0 -0.85032586565E+03 -0.84234707030E+03 -0.16535039876E+04  0.20412442558E+04  0.10100000352E+00 0.  1.
       -3    1    3    3    0  502  0.85032586565E+03  0.84234707030E+03  0.75738121196E+03  0.14164141256E+04  0.10100000352E+00 0. -1.
</event>
<event>
 5   0  0.4125758E-07  0.3393039E+04  0.7818609E-02  0.8139617E-01
        1   -1    0    0  501    0  0.00000000000E+00  0.00000000000E+00  0.24154368435E+04  0.24154368435E+04  0.50400001928E-02 0. -1.
       -1   -1    0    0    0  501  0.00000000000E+00  0.00000000000E+00 -0.11915765563E+04  0.11915765563E+04  0.50400001928E-02 0.  1.
    10030    2    1    2    0    0  0.00000000000E+00  0.00000000000E+00  0.12238602873E+04  0.36070133998E+04  0.33930387065E+04 0.  0.
        2    1    3    3  502    0 -0.72903784247E+02  0.22913161635E+03  0.23972307094E+04  0.24092594990E+04  0.25500000920E-02 0. -1.
       -2    1    3    3    0  502  0.72903784247E+02 -0.22913161635E+03 -0.11733704221E+04  0.11977539008E+04  0.25500000920E-02 0.  1.
</event>
<event>
 5   0  0.4109937E-07  0.3429869E+04  0.7818609E-02  0.8130614E-01
        1   -1    0    0  501    0  0.00000000000E+00  0.00000000000E+00  0.26167882306E+04  0.26167882306E+04  0.50400001928E-02 0. -1.
       -1   -1    0    0    0  501  0.00000000000E+00  0.00000000000E+00 -0.11238967848E+04  0.11238967848E+04  0.50400001928E-02 0.  1.
    10030    2    1    2    0    0  0.00000000000E+00  0.00000000000E+00  0.14928914458E+04  0.37406850154E+04  0.34298687316E+04 0.  0.
        5    1    3    3  502    0  0.98372759641E+03  0.14006321846E+04  0.62955436469E+03  0.18236916649E+04  0.46999998093E+01 0.  1.
       -5    1    3    3    0  502 -0.98372759641E+03 -0.14006321846E+04  0.86333708113E+03  0.19169933506E+04  0.46999998093E+01 0. -1.
</event>
<event>
 5   0  0.1268230E-06  0.3410687E+04  0.7818609E-02  0.8135288E-01
        2   -1    0    0  501    0  0.00000000000E+00  0.00000000000E+00  0.19094590621E+04  0.19094590621E+04  0.25500000920E-02 0.  1.
       -2   -1    0    0    0  501  0.00000000000E+00  0.00000000000E+00 -0.15230476723E+04  0.15230476723E+04  0.25500000920E-02 0. -1.
    10030    2    1    2    0    0  0.00000000000E+00  0.00000000000E+00  0.38641138977E+03  0.34325067344E+04  0.34106874262E+04 0.  0.
        2    1    3    3  502    0  0.15850995061E+04  0.37617665328E+03  0.70056158584E+03  0.17733685049E+04  0.25500000920E-02 0.  1.
       -2    1    3    3    0  502 -0.15850995061E+04 -0.37617665328E+03 -0.31415019608E+03  0.16591382295E+04  0.25500000920E-02 0. -1.
</event>
<event>
 5   0  0.1277635E-06  0.3407371E+04  0.7818609E-02  0.8136100E-01
       -2   -1    0    0    0  501  0.00000000000E+00  0.00000000000E+00  0.13980606060E+04  0.13980606060E+04  0.25500000920E-02 0.  1.
        2   -1    0    0  501    0  0.00000000000E+00  0.00000000000E+00 -0.20761220655E+04  0.20761220655E+04  0.25500000920E-02 0. -1.
    10030    2    1    2    0    0  0.00000000000E+00  0.00000000000E+00 -0.67806145950E+03  0.34741826715E+04  0.34073711116E+04 0.  0.
        4    1    3    3  502    0 -0.60947601115E+03  0.14850251994E+03  0.12760195249E+04  0.14218795474E+04  0.12699999809E+01 0.  1.
       -4    1    3    3    0  502  0.60947601115E+03 -0.14850251994E+03 -0.19540809844E+04  0.20523031241E+04  0.12699999809E+01 0. -1.
</event>
<event>
 5   0  0.4464951E-07  0.3391616E+04  0.7818609E-02  0.8139967E-01
       -1   -1    0    0    0  501  0.00000000000E+00  0.00000000000E+00  0.18009524371E+04  0.18009524371E+04  0.50400001928E-02 0. -1.
        1   -1    0    0  501    0  0.00000000000E+00  0.00000000000E+00 -0.15968019289E+04  0.15968019289E+04  0.50400001928E-02 0.  1.
    10030    2    1    2    0    0  0.00000000000E+00  0.00000000000E+00  0.20415050820E+03  0.33977543661E+04  0.33916157362E+04 0.  0.
        3    1    3    3  502    0 -0.13188845922E+04  0.82990909344E+03  0.77228434194E+03  0.17391459933E+04  0.10100000352E+00 0. -1.
       -3    1    3    3    0  502  0.13188845922E+04 -0.82990909344E+03 -0.56813383374E+03  0.16586083728E+04  0.10100000352E+00 0.  1.
</event>
<event>
 5   0  0.1268230E-06  0.3408089E+04  0.7818609E-02  0.8135924E-01
        2   -1    0    0  501    0  0.00000000000E+00  0.00000000000E+00  0.22116537862E+04  0.22116537862E+04  0.25500000920E-02 0. -1.
       -2   -1    0    0    0  501  0.00000000000E+00  0.00000000000E+00 -0.13129396962E+04  0.13129396962E+04  0.25500000920E-02 0.  1.
    10030    2    1    2    0    0  0.00000000000E+00  0.00000000000E+00  0.89871408998E+03  0.35245934823E+04  0.34080892301E+04 0.  0.
        2    1    3    3  502    0  0.98346815769E+03  0.12128541217E+04 -0.25627472023E+03  0.15823721022E+04  0.25500000920E-02 0.  1.
       -2    1    3    3    0  502 -0.98346815769E+03 -0.12128541217E+04  0.11549888102E+04  0.19422213801E+04  0.25500000920E-02 0. -1.
</event>
<event>
 5   0  0.4109937E-07  0.3396166E+04  0.7818609E-02  0.8138848E-01
       -1   -1    0    0    0  501  0.00000000000E+00  0.00000000000E+00  0.18900851444E+04  0.18900851444E+04  0.50400001928E-02 0. -1.
        1   -1    0    0  501    0  0.00000000000E+00  0.00000000000E+00 -0.15255851328E+04  0.15255851328E+04  0.50400001928E-02 0.  1.
    10030    2    1    2    0    0  0.00000000000E+00  0.00000000000E+00  0.36450001166E+03  0.34156702772E+04  0.33961659536E+04 0.  0.
        5    1    3    3  502    0  0.70914148404E+03  0.11540115942E+04 -0.84776016490E+03  0.15979185809E+04  0.46999998093E+01 0.  1.
       -5    1    3    3    0  502 -0.70914148404E+03 -0.11540115942E+04  0.12122601766E+04  0.18177516964E+04  0.46999998093E+01 0. -1.
</event>
<event>
 5   0  0.4289684E-07  0.2971967E+04  0.7818609E-02  0.8251781E-01
       -1   -1    0    0    0  501  0.00000000000E+00  0.00000000000E+00  0.16891129833E+04  0.16891129833E+04  0.50400001928E-02 0. -1.
        1   -1    0    0  501    0  0.00000000000E+00  0.00000000000E+00 -0.13072818735E+04  0.13072818735E+04  0.50400001928E-02 0.  1.
    10030    2    1    2    0    0  0.00000000000E+00  0.00000000000E+00  0.38183110984E+03  0.29963948568E+04  0.29719668809E+04 0.  0.
        4    1    3    3  502    0 -0.47539330925E+02 -0.38405532727E+03  0.16374159614E+04  0.16825252229E+04  0.12699999809E+01 0. -1.
       -4    1    3    3    0  502  0.47539330925E+02  0.38405532727E+03 -0.12555848515E+04  0.13138696338E+04  0.12699999809E+01 0.  1.
</event>
<event>
 5   0  0.4125758E-07  0.3350034E+04  0.7818609E-02  0.8150280E-01
        1   -1    0    0  501    0  0.00000000000E+00  0.00000000000E+00  0.18805551345E+04  0.18805551345E+04  0.50400001928E-02 0.  1.
       -1   -1    0    0    0  501  0.00000000000E+00  0.00000000000E+00 -0.14919437461E+04  0.14919437461E+04  0.50400001928E-02 0. -1.
    10030    2    1    2    0    0  0.00000000000E+00  0.00000000000E+00  0.38861138844E+03  0.33724988806E+04  0.33500343115E+04 0.  0.
        2    1    3    3  502    0  0.59594368961E+03  0.11462232433E+02 -0.13815674217E+04  0.15046623557E+04  0.25500000920E-02 0. -1.
       -2    1    3    3    0  502 -0.59594368961E+03 -0.11462232433E+02  0.17701788101E+04  0.18678365249E+04  0.25500000920E-02 0.  1.
</event>
<event>
 5   0  0.4109937E-07  0.3390076E+04  0.7818609E-02  0.8140346E-01
        1   -1    0    0  501    0  0.00000000000E+00  0.00000000000E+00  0.22402522294E+04  0.22402522294E+04  0.50400001928E-02 0. -1.
       -1   -1    0    0    0  501  0.00000000000E+00  0.00000000000E+00 -0.12825137278E+04  0.12825137278E+04  0.50400001928E-02 0.  1.
    10030    2    1    2    0    0  0.00000000000E+00  0.00000000000E+00  0.95773850162E+03  0.35227659572E+04  0.33900762457E+04 0.  0.
        5    1    3    3  502    0  0.99726068965E+03  0.87267842174E+03  0.15771360101E+04  0.20599700472E+04  0.46999998093E+01 0. -1.
       -5    1    3    3    0  502 -0.99726068965E+03 -0.87267842174E+03 -0.61939750845E+03  0.14627959100E+04  0.46999998093E+01 0.  1.
</event>
<event>
 5   0  0.4272633E-07  0.3038487E+04  0.7818609E-02  0.8232825E-01
        1   -1    0    0  501    0  0.00000000000E+00  0.00000000000E+00  0.19759473989E+04  0.19759473989E+04  0.50400001928E-02 0. -1.
       -1   -1    0    0    0  501  0.00000000000E+00  0.00000000000E+00 -0.11680984789E+04  0.11680984789E+04  0.50400001928E-02 0.  1.
    10030    2    1    2    0    0  0.00000000000E+00  0.00000000000E+00  0.80784891999E+03  0.31440458778E+04  0.30384872230E+04 0.  0.
        1    1    3    3  502    0  0.99864589190E+03  0.10568121933E+04 -0.51779218301E+02  0.14549318599E+04  0.50400001928E-02 0.  1.
       -1    1    3    3    0  502 -0.99864589190E+03 -0.10568121933E+04  0.85962813829E+03  0.16891140179E+04  0.50400001928E-02 0. -1.
</event>
<event>
 5   0  0.1256208E-06  0.3467654E+04  0.7818609E-02  0.8121498E-01
       -2   -1    0    0    0  501  0.00000000000E+00  0.00000000000E+00  0.16742069456E+04  0.16742069456E+04  0.25500000920E-02 0.  1.
        2   -1    0    0  501    0  0.00000000000E+00  0.00000000000E+00 -0.17955706590E+04  0.17955706590E+04  0.25500000920E-02 0. -1.
    10030    2    1    2    0    0  0.00000000000E+00  0.00000000000E+00 -0.12136371340E+03  0.34697776046E+04  0.34676544629E+04 0.  0.
        3    1    3    3  502    0 -0.45818190394E+02  0.85387340446E+02 -0.17928589086E+04  0.17954758091E+04  0.10100000352E+00 0. -1.
       -3    1    3    3    0  502  0.45818190394E+02 -0.85387340446E+02  0.16714951953E+04  0.16743017955E+04  0.10100000352E+00 0.  1.
</event>
<event>
 5   0  0.1256208E-06  0.3346887E+04  0.7818609E-02  0.8151066E-01
        2   -1    0    0  501    0  0.00000000000E+00  0.00000000000E+00  0.15465837782E+04  0.15465837782E+04  0.25500000920E-02 0. -1.
       -2   -1    0    0    0  501  0.00000000000E+00  0.00000000000E+00 -0.18107095150E+04  0.18107095150E+04  0.25500000920E-02 0.  1.
    10030    2    1    2    0    0  0.00000000000E+00  0.00000000000E+00 -0.26412573681E+03  0.33572932932E+04  0.33468874871E+04 0.  0.
        3    1    3    3  502    0  0.13821969485E+03  0.11327743791E+04  0.10957244242E+04  0.15820538872E+04  0.10100000352E+00 0. -1.
       -3    1    3    3    0  502 -0.13821969485E+03 -0.11327743791E+04 -0.13598501610E+04  0.17752394060E+04  0.10100000352E+00 0.  1.
</event>
<event>
 5   0  0.4109937E-07  0.3423733E+04  0.7818609E-02  0.8132106E-01
       -1   -1    0    0    0  501  0.00000000000E+00  0.00000000000E+00  0.24079708074E+04  0.24079708074E+04  0.50400001928E-02 0.  1.
        1   -1    0    0  501    0  0.00000000000E+00  0.00000000000E+00 -0.12169942683E+04  0.12169942683E+04  0.50400001928E-02 0. -1.
    10030    2    1    2    0    0  0.00000000000E+00  0.00000000000E+00  0.11909765391E+04  0.36249650756E+04  0.34237328580E+04 0.  0.
        5    1    3    3  502    0  0.71628789626E+03  0.12943511511E+04 -0.31656652195E+03  0.15128283794E+04  0.46999998093E+01 0. -1.
       -5    1    3    3    0  502 -0.71628789626E+03 -0.12943511511E+04  0.15075430611E+04  0.21121366962E+04  0.46999998093E+01 0.  1.
</event>
<event>
 5   0  0.4464951E-07  0.3333536E+04  0.7818609E-02  0.8154414E-01
       -1   -1    0    0    0  501  0.00000000000E+00  0.00000000000E+00  0.13053816500E+04  0.13053816500E+04  0.50400001928E-02 0.  1.
        1   -1    0    0  501    0  0.00000000000E+00  0.00000000000E+00 -0.21282012675E+04  0.21282012675E+04  0.50400001928E-02 0. -1.
    10030    2    1    2    0    0  0.00000000000E+00  0.00000000000E+00 -0.82281961753E+03  0.34335829175E+04  0.33335355897E+04 0.  0.
        3    1    3    3  502    0  0.96261053356E+03 -0.82309595369E+03 -0.15274456319E+04  0.19842369206E+04  0.10100000352E+00 0. -1.
       -3    1    3    3    0  502 -0.96261053356E+03  0.82309595369E+03  0.70462601440E+03  0.14493459969E+04  0.10100000352E+00 0.  1.
</event>
<event>
 5   0  0.4464951E-07  0.3383556E+04  0.7818609E-02  0.8141954E-01
        1   -1    0    0  501    0  0.00000000000E+00  0.00000000000E+00  0.19067758241E+04  0.19067758241E+04  0.50400001928E-02 0.  1.
       -1   -1    0    0    0  501  0.00000000000E+00  0.00000000000E+00 -0.15010224520E+04  0.15010224520E+04  0.50400001928E-02 0. -1.
    10030    2    1    2    0    0  0.00000000000E+00  0.00000000000E+00  0.40575337212E+03  0.34077982761E+04  0.33835563084E+04 0.  0.
        3    1    3    3  502    0  0.11724701597E+04  0.10612489851E+04  0.80816305245E+03  0.17759682467E+04  0.10100000352E+00 0.  1.
       -3    1    3    3    0  502 -0.11724701597E+04 -0.10612489851E+04 -0.40240968033E+03  0.16318300294E+04  0.10100000352E+00 0. -1.
</event>
<event>
 5   0  0.1268230E-06  0.3430187E+04  0.7818609E-02  0.8130537E-01
        2   -1    0    0  501    0  0.00000000000E+00  0.00000000000E+00  0.13462278387E+04  0.13462278387E+04  0.25500000920E-02 0. -1.
       -2   -1    0    0    0  501  0.00000000000E+00  0.00000000000E+00 -0.21850283739E+04  0.21850283739E+04  0.25500000920E-02 0.  1.
    10030    2    1    2    0    0  0.00000000000E+00  0.00000000000E+00 -0.83880053515E+03  0.35312562126E+04  0.34301871816E+04 0.  0.
        2    1    3    3  502    0  0.29142976484E+03 -0.73074395151E+02 -0.21577251681E+04  0.21785428791E+04  0.25500000920E-02 0.  1.
       -2    1    3    3    0  502 -0.29142976484E+03  0.73074395151E+02  0.13189246330E+04  0.13527133335E+04  0.25500000920E-02 0. -1.
</event>
<event>
 5   0  0.1268230E-06  0.3698793E+04  0.7818609E-02  0.8068229E-01
        2   -1    0    0  501    0  0.00000000000E+00  0.00000000000E+00  0.27406134094E+04  0.27406134094E+04  0.25500000920E-02 0.  1.
       -2   -1    0    0    0  501  0.00000000000E+00  0.00000000000E+00 -0.12479937003E+04  0.12479937003E+04  0.25500000920E-02 0. -1.
    10030    2    1    2    0    0  0.00000000000E+00  0.00000000000E+00  0.14926197091E+04  0.39886071097E+04  0.36987934627E+04 0.  0.
        2    1    3    3  502    0  0.34905027052E+03 -0.12388052748E+04  0.21784485111E+04  0.25302396163E+04  0.25500000920E-02 0.  1.
       -2    1    3    3    0  502 -0.34905027052E+03  0.12388052748E+04 -0.68582880195E+03  0.14583674934E+04  0.25500000920E-02 0. -1.
</event>
<event>
 5   0  0.4289684E-07  0.3411980E+04  0.7818609E-02  0.8134972E-01
       -1   -1    0    0    0  501  0.00000000000E+00  0.00000000000E+00  0.13284304115E+04  0.13284304116E+04  0.50400001928E-02 0. -1.
        1   -1    0    0  501    0  0.00000000000E+00  0.00000000000E+00 -0.21908580839E+04  0.21908580839E+04  0.50400001928E-02 0.  1.
    10030    2    1    2    0    0  0.00000000000E+00  0.00000000000E+00 -0.86242767232E+03  0.35192884954E+04  0.34119803669E+04 0.  0.
        4    1    3    3  502    0 -0.71051923817E+03 -0.14718553278E+04 -0.93568187239E+03  0.18832678707E+04  0.12699999809E+01 0.  1.
       -4    1    3    3    0  502  0.71051923817E+03  0.14718553278E+04  0.73254200070E+02  0.16360206247E+04  0.12699999809E+01 0. -1.
</event>
<event>
 5   0  0.1300176E-06  0.3410399E+04  0.7818609E-02  0.8135359E-01
        2   -1    0    0  501    0  0.00000000000E+00  0.00000000000E+00  0.14405174761E+04  0.14405174761E+04  0.25500000920E-02 0. -1.
       -2   -1    0    0    0  501  0.00000000000E+00  0.00000000000E+00 -0.20185140619E+04  0.20185140619E+04  0.25500000920E-02 0.  1.
    10030    2    1    2    0    0  0.00000000000E+00  0.00000000000E+00 -0.57799658572E+03  0.34590315380E+04  0.34103986758E+04 0.  0.
        1    1    3    3  502    0  0.44562254844E+03 -0.11696187024E+04  0.88558216808E+03  0.15332459494E+04  0.50400001928E-02 0. -1.
       -1    1    3    3    0  502 -0.44562254844E+03  0.11696187024E+04 -0.14635787538E+04  0.19257855886E+04  0.50400001928E-02 0.  1.
</event>
<event>
 5   0  0.1269497E-06  0.2844434E+04  0.7818609E-02  0.8289605E-01
       -2   -1    0    0    0  501  0.00000000000E+00  0.00000000000E+00  0.13195513081E+04  0.13195513081E+04  0.25500000920E-02 0.  1.
        2   -1    0    0  501    0  0.00000000000E+00  0.00000000000E+00 -0.15328700769E+04  0.15328700769E+04  0.25500000920E-02 0. -1.
    10030    2    1    2    0    0  0.00000000000E+00  0.00000000000E+00 -0.21331876881E+03  0.28524213849E+04  0.28444336625E+04 0.  0.
        5    1    3    3  502    0  0.93604960227E+03  0.10649225574E+04 -0.21846109330E+03  0.14345718003E+04  0.46999998093E+01 0. -1.
       -5    1    3    3    0  502 -0.93604960227E+03 -0.10649225574E+04  0.51423244865E+01  0.14178495846E+04  0.46999998093E+01 0.  1.
</event>
<event>
 5   0  0.1269497E-06  0.3385626E+04  0.7818609E-02  0.8141443E-01
       -2   -1    0    0    0  501  0.00000000000E+00  0.00000000000E+00  0.16058309316E+04  0.16058309316E+04  0.25500000920E-02 0.  1.
        2   -1    0    0  501    0  0.00000000000E+00  0.00000000000E+00 -0.17845070928E+04  0.17845070928E+04  0.25500000920E-02 0. -1.
    10030    2    1    2    0    0  0.00000000000E+00  0.00000000000E+00 -0.17867616119E+03  0.33903380244E+04  0.33856264929E+04 0.  0.
        5    1    3    3  502    0 -0.11744867959E+04 -0.98828509458E+03 -0.80410160887E+03  0.17328381775E+04  0.46999998093E+01 0. -1.
       -5    1    3    3    0  502  0.11744867959E+04  0.98828509458E+03  0.62542544767E+03  0.16574998469E+04  0.46999998093E+01 0.  1.
</event>
<event>
 5   0  0.1268230E-06  0.3331087E+04  0.7818609E-02  0.8155030E-01
       -2   -1    0    0    0  501  0.00000000000E+00  0.00000000000E+00  0.12107156646E+04  0.12107156646E+04  0.25500000920E-02 0.  1.
        2   -1    0    0  501    0  0.00000000000E+00  0.00000000000E+00 -0.22912365430E+04  0.22912365430E+04  0.25500000920E-02 0. -1.
    10030    2    1    2    0    0  0.00000000000E+00  0.00000000000E+00 -0.10805208785E+04  0.35019522076E+04  0.33310874945E+04 0.  0.
        2    1    3    3  502    0 -0.11691499478E+04  0.38250408925E+03 -0.17207165847E+04  0.21152036648E+04  0.25500000920E-02 0. -1.
       -2    1    3    3    0  502  0.11691499478E+04 -0.38250408925E+03  0.64019570620E+03  0.13867485428E+04  0.25500000920E-02 0.  1.
</event>
<event>
 5   0  0.4060750E-07  0.3397457E+04  0.7818609E-02  0.8138531E-01
        3   -1    0    0  501    0  0.00000000000E+00  0.00000000000E+00  0.13714558654E+04  0.13714558692E+04  0.10100000352E+00 0. -1.
       -3   -1    0    0    0  501  0.00000000000E+00  0.00000000000E+00 -0.21040984450E+04  0.21040984475E+04  0.10100000352E+00 0.  1.
    10030    2    1    2    0    0  0.00000000000E+00  0.00000000000E+00 -0.73264257958E+03  0.34755543166E+04  0.33974567927E+04 0.  0.
        4    1    3    3  502    0  0.77681940150E+03  0.11354366847E+04  0.65308502970E+03  0.15228875587E+04  0.12699999809E+01 0. -1.
       -4    1    3    3    0  502 -0.77681940150E+03 -0.11354366847E+04 -0.13857276093E+04  0.19526667579E+04  0.12699999809E+01 0.  1.
</event>
<event>
 5   0  0.1256208E-06  0.3426712E+04  0.7818609E-02  0.8131381E-01
       -2   -1    0    0    0  501  0.00000000000E+00  0.00000000000E+00  0.11029747192E+04  0.11029747192E+04  0.25500000920E-02 0. -1.
        2   -1    0    0  501    0  0.00000000000E+00  0.00000000000E+00 -0.26615201388E+04  0.26615201388E+04  0.25500000920E-02 0.  1.
    10030    2    1    2    0    0  0.00000000000E+00  0.00000000000E+00 -0.15585454196E+04  0.37644948579E+04  0.34267123764E+04 0.  0.
        3    1    3    3  502    0  0.39791933016E+03 -0.83216787263E+03  0.80691892942E+03  0.12255453196E+04  0.10100000352E+00 0. -1.
       -3    1    3    3    0  502 -0.39791933016E+03  0.83216787263E+03 -0.23654643490E+04  0.25389495383E+04  0.10100000352E+00 0.  1.
</event>
<event>
 5   0  0.4464951E-07  0.3352256E+04  0.7818609E-02  0.8149725E-01
        1   -1    0    0  501    0  0.00000000000E+00  0.00000000000E+00  0.29908866293E+04  0.29908866293E+04  0.50400001928E-02 0. -1.
       -1   -1    0    0    0  501  0.00000000000E+00  0.00000000000E+00 -0.93932172756E+03  0.93932172757E+03  0.50400001928E-02 0.  1.
    10030    2    1    2    0    0  0.00000000000E+00  0.00000000000E+00  0.20515649018E+04  0.39302083569E+04  0.33522558349E+04 0.  0.
        3    1    3    3  502    0 -0.53863445333E+03  0.13081702771E+04 -0.28059695745E+02  0.14149996131E+04  0.10100000352E+00 0.  1.
       -3    1    3    3    0  502  0.53863445333E+03 -0.13081702771E+04  0.20796245975E+04  0.25152087438E+04  0.10100000352E+00 0. -1.
</event>
<event>
 5   0  0.1277635E-06  0.3395825E+04  0.7818609E-02  0.8138932E-01
        2   -1    0    0  501    0  0.00000000000E+00  0.00000000000E+00  0.16167277539E+04  0.16167277540E+04  0.25500000920E-02 0. -1.
       -2   -1    0    0    0  501  0.00000000000E+00  0.00000000000E+00 -0.17831739951E+04  0.17831739951E+04  0.25500000920E-02 0.  1.
    10030    2    1    2    0    0  0.00000000000E+00  0.00000000000E+00 -0.16644624116E+03  0.33999017491E+04  0.33958250179E+04 0.  0.
        4    1    3    3  502    0 -0.63116681961E+03  0.15464594057E+04  0.22209712067E+03  0.16850035583E+04  0.12699999809E+01 0. -1.
       -4    1    3    3    0  502  0.63116681961E+03 -0.15464594057E+04 -0.38854336182E+03  0.17148981907E+04  0.12699999809E+01 0.  1.
</event>
<event>
 5   0  0.4125758E-07  0.3383887E+04  0.7818609E-02  0.8141872E-01
       -1   -1    0    0    0  501  0.00000000000E+00  0.00000000000E+00  0.20392772706E+04  0.20392772706E+04  0.50400001928E-02 0. -1.
        1   -1    0    0  501    0  0.00000000000E+00  0.00000000000E+00 -0.14037680385E+04  0.14037680385E+04  0.50400001928E-02 0.  1.
    10030    2    1    2    0    0  0.00000000000E+00  0.00000000000E+00  0.63550923214E+03  0.34430453091E+04  0.33838866731E+04 0.  0.
        2    1    3    3  502    0  0.66594643467E+03 -0.12536103942E+04  0.12545286566E+04  0.18944302110E+04  0.25500000920E-02 0. -1.
       -2    1    3    3    0  502 -0.66594643467E+03  0.12536103942E+04 -0.61901942442E+03  0.15486150981E+04  0.25500000920E-02 0.  1.
</event>
<event>
 5   0  0.4272633E-07  0.3411753E+04  0.7818609E-02  0.8135028E-01
        1   -1    0    0  501    0  0.00000000000E+00  0.00000000000E+00  0.20490588728E+04  0.20490588728E+04  0.50400001928E-02 0.  1.
       -1   -1    0    0    0  501  0.00000000000E+00  0.00000000000E+00 -0.14201709576E+04  0.14201709576E+04  0.50400001928E-02 0. -1.
    10030    2    1    2    0    0  0.00000000000E+00  0.00000000000E+00  0.62888791520E+03  0.34692298304E+04  0.34117525711E+04 0.  0.
        1    1    3    3  502    0  0.25977447011E+03 -0.38663965802E+03  0.19831391674E+04  0.20371092159E+04  0.50400001928E-02 0.  1.
       -1    1    3    3    0  502 -0.25977447011E+03  0.38663965802E+03 -0.13542512522E+04  0.14321206145E+04  0.50400001928E-02 0. -1.
</event>
<event>
 5   0  0.1269497E-06  0.3428522E+04  0.7818609E-02  0.8130941E-01
       -2   -1    0    0    0  501  0.00000000000E+00  0.00000000000E+00  0.10892359019E+04  0.10892359019E+04  0.25500000920E-02 0. -1.
        2   -1    0    0  501    0  0.00000000000E+00  0.00000000000E+00 -0.26979375631E+04  0.26979375631E+04  0.25500000920E-02 0.  1.
    10030    2    1    2    0    0  0.00000000000E+00  0.00000000000E+00 -0.16087016612E+04  0.37871734650E+04  0.34285218126E+04 0.  0.
        5    1    3    3  502    0 -0.75515171837E+03 -0.13608200727E+04 -0.10427935769E+02  0.15563470757E+04  0.46999998093E+01 0. -1.
       -5    1    3    3    0  502  0.75515171837E+03  0.13608200727E+04 -0.15982737254E+04  0.22308263894E+04  0.46999998093E+01 0.  1.
</event>
<event>
 5   0  0.4109937E-07  0.2936678E+04  0.7818609E-02  0.8262048E-01
        1   -1    0    0  501    0  0.00000000000E+00  0.00000000000E+00  0.18861511835E+04  0.18861511835E+04  0.50400001928E-02 0. -1.
       -1   -1    0    0    0  501  0.00000000000E+00  0.00000000000E+00 -0.11430785040E+04  0.11430785040E+04  0.50400001928E-02 0.  1.
    10030    2    1    2    0    0  0.00000000000E+00  0.00000000000E+00  0.74307267945E+03  0.30292296875E+04  0.29366776283E+04 0.  0.
        5    1    3    3  502    0 -0.58747871351E+03  0.13264136862E+04  0.60560699993E+03  0.15720325805E+04  0.46999998093E+01 0. -1.
       -5    1    3    3    0  502  0.58747871351E+03 -0.13264136862E+04  0.13746567952E+03  0.14571971070E+04  0.46999998093E+01 0.  1.
</event>
<event>
 5   0  0.1256208E-06  0.3443669E+04  0.7818609E-02  0.8127271E-01
       -2   -1    0    0    0  501  0.00000000000E+00  0.00000000000E+00  0.13439874853E+04  0.13439874854E+04  0.25500000920E-02 0. -1.
        2   -1    0    0  501    0  0.00000000000E+00  0.00000000000E+00 -0.22059095065E+04  0.22059095065E+04  0.25500000920E-02 0.  1.
    10030    2    1    2    0    0  0.00000000000E+00  0.00000000000E+00 -0.86192202119E+03  0.35498969919E+04  0.34436694212E+04 0.  0.
        3    1    3    3  502    0  0.85951757890E+02 -0.13568286898E+04 -0.15201246048E+04  0.20393995740E+04  0.10100000352E+00 0.  1.
       -3    1    3    3    0  502 -0.85951757890E+02  0.13568286898E+04  0.65820258363E+03  0.15104974179E+04  0.10100000352E+00 0. -1.
</event>
<event>
 5   0  0.1300176E-06  0.3395825E+04  0.7818609E-02  0.8138932E-01
       -2   -1    0    0    0  501  0.00000000000E+00  0.00000000000E+00  0.13112593064E+04  0.13112593064E+04  0.25500000920E-02 0. -1.
        2   -1    0    0  501    0  0.00000000000E+00  0.00000000000E+00 -0.21985789998E+04  0.21985789998E+04  0.25500000920E-02 0.  1.
    10030    2    1    2    0    0  0.00000000000E+00  0.00000000000E+00 -0.88731969342E+03  0.35098383062E+04  0.33958251866E+04 0.  0.
        1    1    3    3  502    0  0.13137041283E+04 -0.10180332269E+04 -0.84580854108E+02  0.16641406517E+04  0.50400001928E-02 0.  1.
       -1    1    3    3    0  502 -0.13137041283E+04  0.10180332269E+04 -0.80273883932E+03  0.18456976545E+04  0.50400001928E-02 0. -1.
</event>
<event>
 5   0  0.4125758E-07  0.3387780E+04  0.7818609E-02  0.8140912E-01
        1   -1    0    0  501    0  0.00000000000E+00  0.00000000000E+00  0.22835523464E+04  0.22835523464E+04  0.50400001928E-02 0.  1.
       -1   -1    0    0    0  501  0.00000000000E+00  0.00000000000E+00 -0.12564908155E+04  0.12564908155E+04  0.50400001928E-02 0. -1.
    10030    2    1    2    0    0  0.00000000000E+00  0.00000000000E+00  0.10270615309E+04  0.35400431620E+04  0.33877795383E+04 0.  0.
        2    1    3    3  502    0 -0.52700940410E+03  0.14288818470E+04  0.12883560848E+04  0.19948192013E+04  0.25500000920E-02 0.  1.
       -2    1    3    3    0  502  0.52700940410E+03 -0.14288818470E+04 -0.26129455388E+03  0.15452239607E+04  0.25500000920E-02 0. -1.
</event>
<event>
 5   0  0.4125758E-07  0.3429929E+04  0.7818609E-02  0.8130599E-01
       -1   -1    0    0    0  501  0.00000000000E+00  0.00000000000E+00  0.16821854055E+04  0.16821854055E+04  0.50400001928E-02 0.  1.
        1   -1    0    0  501    0  0.00000000000E+00  0.00000000000E+00 -0.17483827590E+04  0.17483827590E+04  0.50400001928E-02 0. -1.
    10030    2    1    2    0    0  0.00000000000E+00  0.00000000000E+00 -0.66197353553E+02  0.34305681645E+04  0.34299294223E+04 0.  0.
        2    1    3    3  502    0  0.15768577629E+04  0.19479986220E+03 -0.67872378177E+03  0.17277422732E+04  0.25500000920E-02 0. -1.
       -2    1    3    3    0  502 -0.15768577629E+04 -0.19479986220E+03  0.61252642822E+03  0.17028258913E+04  0.25500000920E-02 0.  1.
</event>
<event>
 5   0  0.1256208E-06  0.3434708E+04  0.7818609E-02  0.8129440E-01
        2   -1    0    0  501    0  0.00000000000E+00  0.00000000000E+00  0.86846715487E+03  0.86846715488E+03  0.25500000920E-02 0. -1.
       -2   -1    0    0    0  501  0.00000000000E+00  0.00000000000E+00 -0.33959879906E+04  0.33959879906E+04  0.25500000920E-02 0.  1.
    10030    2    1    2    0    0  0.00000000000E+00  0.00000000000E+00 -0.25275208357E+04  0.42644551455E+04  0.34347075731E+04 0.  0.
        3    1    3    3  502    0  0.31445602737E+03  0.15376859692E+04 -0.21292594283E+04  0.26452044262E+04  0.10100000352E+00 0.  1.
       -3    1    3    3    0  502 -0.31445602737E+03 -0.15376859692E+04 -0.39826140739E+03  0.16192507193E+04  0.10100000352E+00 0. -1.
</event>
<event>
 5   0  0.1269497E-06  0.3384317E+04  0.7818609E-02  0.8141766E-01
       -2   -1    0    0    0  501  0.00000000000E+00  0.00000000000E+00  0.14907431729E+04  0.14907431729E+04  0.25500000920E-02 0. -1.
        2   -1    0    0  501    0  0.00000000000E+00  0.00000000000E+00 -0.19207866371E+04  0.19207866371E+04  0.25500000920E-02 0.  1.
    10030    2    1    2    0    0  0.00000000000E+00  0.00000000000E+00 -0.43004346418E+03  0.34115298100E+04  0.33843165134E+04 0.  0.
        5    1    3    3  502    0  0.11927026114E+04 -0.10199297659E+03  0.99060347757E+03  0.15537887328E+04  0.46999998093E+01 0. -1.
       -5    1    3    3    0  502 -0.11927026114E+04  0.10199297659E+03 -0.14206469418E+04  0.18577410771E+04  0.46999998093E+01 0.  1.
</event>
<event>
 5   0  0.4289684E-07  0.3356528E+04  0.7818609E-02  0.8148659E-01
       -1   -1    0    0    0  501  0.00000000000E+00  0.00000000000E+00  0.93086637533E+03  0.93086637535E+03  0.50400001928E-02 0. -1.
        1   -1    0    0  501    0  0.00000000000E+00  0.00000000000E+00 -0.30257511593E+04  0.30257511594E+04  0.50400001928E-02 0.  1.
    10030    2    1    2    0    0  0.00000000000E+00  0.00000000000E+00 -0.20948847840E+04  0.39566175347E+04  0.33565279766E+04 0.  0.
        4    1    3    3  502    0 -0.82802228708E+03 -0.13573336718E+04 -0.16806943533E+04  0.23135926017E+04  0.12699999809E+01 0.  1.
       -4    1    3    3    0  502  0.82802228708E+03  0.13573336718E+04 -0.41419043070E+03  0.16430249330E+04  0.12699999809E+01 0. -1.
</event>
<event>
 5   0  0.4289684E-07  0.3420004E+04  0.7818609E-02  0.8133014E-01
       -1   -1    0    0    0  501  0.00000000000E+00  0.00000000000E+00  0.12785030816E+04  0.12785030816E+04  0.50400001928E-02 0. -1.
        1   -1    0    0  501    0  0.00000000000E+00  0.00000000000E+00 -0.22871338451E+04  0.22871338451E+04  0.50400001928E-02 0.  1.
    10030    2    1    2    0    0  0.00000000000E+00  0.00000000000E+00 -0.10086307635E+04  0.35656369267E+04  0.34200044848E+04 0.  0.
        4    1    3    3  502    0  0.19779051116E+02  0.16203331942E+04  0.65048459280E+02  0.16217594723E+04  0.12699999809E+01 0.  1.
       -4    1    3    3    0  502 -0.19779051116E+02 -0.16203331942E+04 -0.10736792227E+04  0.19438774543E+04  0.12699999809E+01 0. -1.
</event>
<event>
 5   0  0.4272633E-07  0.3407544E+04  0.7818609E-02  0.8136057E-01
       -1   -1    0    0    0  501  0.00000000000E+00  0.00000000000E+00  0.27316514316E+04  0.27316514316E+04  0.50400001928E-02 0. -1.
        1   -1    0    0  501    0  0.00000000000E+00  0.00000000000E+00 -0.10626680889E+04  0.10626680889E+04  0.50400001928E-02 0.  1.
    10030    2    1    2    0    0  0.00000000000E+00  0.00000000000E+00  0.16689833426E+04  0.37943195205E+04  0.34075438699E+04 0.  0.
        1    1    3    3  502    0  0.11933864346E+04 -0.19669877244E+03  0.21706879402E+04  0.24849039666E+04  0.50400001928E-02 0. -1.
       -1    1    3    3    0  502 -0.11933864346E+04  0.19669877244E+03 -0.50170459759E+03  0.13094155539E+04  0.50400001928E-02 0.  1.
</event>
<event>
 5   0  0.4272633E-07  0.3397967E+04  0.7818609E-02  0.8138405E-01
        1   -1    0    0  501    0  0.00000000000E+00  0.00000000000E+00  0.23898287937E+04  0.23898287938E+04  0.50400001928E-02 0.  1.
       -1   -1    0    0    0  501  0.00000000000E+00  0.00000000000E+00 -0.12078461488E+04  0.12078461488E+04  0.50400001928E-02 0. -1.
    10030    2    1    2    0    0  0.00000000000E+00  0.00000000000E+00  0.11819826450E+04  0.35976749425E+04  0.33979673364E+04 0.  0.
        1    1    3    3  502    0  0.13770786318E+04 -0.51406255772E+03  0.14930877759E+04  0.20952128718E+04  0.50400001928E-02 0.  1.
       -1    1    3    3    0  502 -0.13770786318E+04  0.51406255772E+03 -0.31110513091E+03  0.15024620707E+04  0.50400001928E-02 0. -1.
</event>
<event>
 5   0  0.4125758E-07  0.3365562E+04  0.7818609E-02  0.8146411E-01
       -1   -1    0    0    0  501  0.00000000000E+00  0.00000000000E+00  0.15524404258E+04  0.15524404258E+04  0.50400001928E-02 0. -1.
        1   -1    0    0  501    0  0.00000000000E+00  0.00000000000E+00 -0.18240650067E+04  0.18240650067E+04  0.50400001928E-02 0.  1.
    10030    2    1    2    0    0  0.00000000000E+00  0.00000000000E+00 -0.27162458082E+03  0.33765054325E+04  0.33655622150E+04 0.  0.
        2    1    3    3  502    0  0.15996039537E+04  0.51789549895E+03 -0.66278208582E+02  0.16826590141E+04  0.25500000920E-02 0.  1.
       -2    1    3    3    0  502 -0.15996039537E+04 -0.51789549895E+03 -0.20534637223E+03  0.16938464184E+04  0.25500000920E-02 0. -1.
</event>
<event>
 5   0  0.4109937E-07  0.3390370E+04  0.7818609E-02  0.8140274E-01
        1   -1    0    0  501    0  0.00000000000E+00  0.00000000000E+00  0.26326457603E+04  0.26326457603E+04  0.50400001928E-02 0.  1.
       -1   -1    0    0    0  501  0.00000000000E+00  0.00000000000E+00 -0.10915452435E+04  0.10915452435E+04  0.50400001928E-02 0. -1.
    10030    2    1    2    0    0  0.00000000000E+00  0.00000000000E+00  0.15411005167E+04  0.37241910038E+04  0.33903698663E+04 0.  0.
        5    1    3    3  502    0  0.78370479146E+03  0.11524690962E+03 -0.87573356504E+03  0.11808498708E+04  0.46999998093E+01 0. -1.
       -5    1    3    3    0  502 -0.78370479146E+03 -0.11524690962E+03  0.24168340818E+04  0.25433411330E+04  0.46999998093E+01 0.  1.
</event>
<event>
 5   0  0.4125758E-07  0.3412932E+04  0.7818609E-02  0.8134740E-01
        1   -1    0    0  501    0  0.00000000000E+00  0.00000000000E+00  0.21577099133E+04  0.21577099133E+04  0.50400001928E-02 0.  1.
       -1   -1    0    0    0  501  0.00000000000E+00  0.00000000000E+00 -0.13495909650E+04  0.13495909650E+04  0.50400001928E-02 0. -1.
    10030    2    1    2    0    0  0.00000000000E+00  0.00000000000E+00  0.80811894828E+03  0.35073008782E+04  0.34129317626E+04 0.  0.
        2    1    3    3  502    0 -0.78902671078E+03  0.65246145415E+03 -0.99888353133E+03  0.14303976400E+04  0.25500000920E-02 0. -1.
       -2    1    3    3    0  502  0.78902671078E+03 -0.65246145415E+03  0.18070024796E+04  0.20769032382E+04  0.25500000920E-02 0.  1.
</event>
<event>
 5   0  0.1300176E-06  0.3442800E+04  0.7818609E-02  0.8127481E-01
       -2   -1    0    0    0  501  0.00000000000E+00  0.00000000000E+00  0.17138144990E+04  0.17138144990E+04  0.25500000920E-02 0. -1.
        2   -1    0    0  501    0  0.00000000000E+00  0.00000000000E+00 -0.17290193234E+04  0.17290193234E+04  0.25500000920E-02 0.  1.
    10030    2    1    2    0    0  0.00000000000E+00  0.00000000000E+00 -0.15204824451E+02  0.34428338224E+04  0.34428002471E+04 0.  0.
        1    1    3    3  502    0  0.83923356772E+03 -0.20103066363E+03  0.14818724441E+04  0.17148388407E+04  0.50400001928E-02 0. -1.
       -1    1    3    3    0  502 -0.83923356772E+03  0.20103066363E+03 -0.14970772685E+04  0.17279949817E+04  0.50400001928E-02 0.  1.
</event>
<event>
 5   0  0.1300176E-06  0.3360289E+04  0.7818609E-02  0.8147722E-01
        2   -1    0    0  501    0  0.00000000000E+00  0.00000000000E+00  0.13279412645E+04  0.13279412645E+04  0.25500000920E-02 0. -1.
       -2   -1    0    0    0  501  0.00000000000E+00  0.00000000000E+00 -0.21257608170E+04  0.21257608170E+04  0.25500000920E-02 0.  1.
    10030    2    1    2    0    0  0.00000000000E+00  0.00000000000E+00 -0.79781955259E+03  0.34537020815E+04  0.33602889800E+04 0.  0.
        1    1    3    3  502    0 -0.14562107017E+04  0.13054421779E+02 -0.12601572927E+04  0.19258028009E+04  0.50400001928E-02 0.  1.
       -1    1    3    3    0  502  0.14562107017E+04 -0.13054421779E+02  0.46233774013E+03  0.15278992806E+04  0.50400001928E-02 0. -1.
</event>
<event>
 5   0  0.1268230E-06  0.3550658E+04  0.7818609E-02  0.8101889E-01
        2   -1    0    0  501    0  0.00000000000E+00  0.00000000000E+00  0.21596405455E+04  0.21596405455E+04  0.25500000920E-02 0.  1.
       -2   -1    0    0    0  501  0.00000000000E+00  0.00000000000E+00 -0.14594059923E+04  0.14594059923E+04  0.25500000920E-02 0. -1.
    10030    2    1    2    0    0  0.00000000000E+00  0.00000000000E+00  0.70023455318E+03  0.36190465377E+04  0.35506576029E+04 0.  0.
        2    1    3    3  502    0  0.11135117688E+03  0.83373524839E+03 -0.12434145590E+04  0.15011972937E+04  0.25500000920E-02 0. -1.
       -2    1    3    3    0  502 -0.11135117688E+03 -0.83373524839E+03  0.19436491122E+04  0.21178492440E+04  0.25500000920E-02 0.  1.
</event>
<event>
 5   0  0.4289684E-07  0.3271297E+04  0.7818609E-02  0.8170237E-01
       -1   -1    0    0    0  501  0.00000000000E+00  0.00000000000E+00  0.20486430822E+04  0.20486430822E+04  0.50400001928E-02 0. -1.
        1   -1    0    0  501    0  0.00000000000E+00  0.00000000000E+00 -0.13059114032E+04  0.13059114032E+04  0.50400001928E-02 0.  1.
    10030    2    1    2    0    0  0.00000000000E+00  0.00000000000E+00  0.74273167899E+03  0.33545544854E+04  0.32712972119E+04 0.  0.
        4    1    3    3  502    0 -0.99524144946E+02  0.31236905635E+03  0.20146057075E+04  0.20411068694E+04  0.12699999809E+01 0. -1.
       -4    1    3    3    0  502  0.99524144946E+02 -0.31236905635E+03 -0.12718740285E+04  0.13134476160E+04  0.12699999809E+01 0.  1.
</event>
<event>
 5   0  0.4289684E-07  0.3359115E+04  0.7818609E-02  0.8148014E-01
        1   -1    0    0  501    0  0.00000000000E+00  0.00000000000E+00  0.16239879263E+04  0.16239879263E+04  0.50400001928E-02 0.  1.
       -1   -1    0    0    0  501  0.00000000000E+00  0.00000000000E+00 -0.17370283076E+04  0.17370283076E+04  0.50400001928E-02 0. -1.
    10030    2    1    2    0    0  0.00000000000E+00  0.00000000000E+00 -0.11304038124E+03  0.33610162339E+04  0.33591147639E+04 0.  0.
        4    1    3    3  502    0 -0.11207018183E+04 -0.12216684236E+04 -0.32586596564E+03  0.16895669691E+04  0.12699999809E+01 0. -1.
       -4    1    3    3    0  502  0.11207018183E+04  0.12216684236E+04  0.21282558440E+03  0.16714492648E+04  0.12699999809E+01 0.  1.
</event>
<event>
 5   0  0.4272633E-07  0.3436606E+04  0.7818609E-02  0.8128980E-01
        1   -1    0    0  501    0  0.00000000000E+00  0.00000000000E+00  0.17490108782E+04  0.17490108782E+04  0.50400001928E-02 0. -1.
       -1   -1    0    0    0  501  0.00000000000E+00  0.00000000000E+00 -0.16881339349E+04  0.16881339349E+04  0.50400001928E-02 0.  1.
    10030    2    1    2    0    0  0.00000000000E+00  0.00000000000E+00  0.60876943314E+02  0.34371448132E+04  0.34366056603E+04 0.  0.
        1    1    3    3  502    0 -0.28082928530E+03 -0.16919817453E+04 -0.73968048949E+02  0.17167232119E+04  0.50400001928E-02 0.  1.
       -1    1    3    3    0  502  0.28082928530E+03  0.16919817453E+04  0.13484499226E+03  0.17204216012E+04  0.50400001928E-02 0. -1.
</event>
<event>
 5   0  0.4125758E-07  0.3405833E+04  0.7818609E-02  0.8136476E-01
        1   -1    0    0  501    0  0.00000000000E+00  0.00000000000E+00  0.17075129727E+04  0.17075129727E+04  0.50400001928E-02 0. -1.
       -1   -1    0    0    0  501  0.00000000000E+00  0.00000000000E+00 -0.16983321478E+04  0.16983321478E+04  0.50400001928E-02 0.  1.
    10030    2    1    2    0    0  0.00000000000E+00  0.00000000000E+00  0.91808248626E+01  0.34058451205E+04  0.34058327466E+04 0.  0.
        2    1    3    3  502    0  0.87517890882E+03 -0.13770866057E+03 -0.14497265218E+04  0.16990022913E+04  0.25500000920E-02 0.  1.
       -2    1    3    3    0  502 -0.87517890882E+03  0.13770866057E+03  0.14589073467E+04  0.17068428293E+04  0.25500000920E-02 0. -1.
</event>
<event>
 5   0  0.4125758E-07  0.3392556E+04  0.7818609E-02  0.8139736E-01
       -1   -1    0    0    0  501  0.00000000000E+00  0.00000000000E+00  0.15168135916E+04  0.15168135916E+04  0.50400001928E-02 0. -1.
        1   -1    0    0  501    0  0.00000000000E+00  0.00000000000E+00 -0.18969761196E+04  0.18969761196E+04  0.50400001928E-02 0.  1.
    10030    2    1    2    0    0  0.00000000000E+00  0.00000000000E+00 -0.38016252797E+03  0.34137897112E+04  0.33925560635E+04 0.  0.
        2    1    3    3  502    0 -0.17359023825E+03 -0.14605111365E+04 -0.10404342191E+04  0.18015908845E+04  0.25500000920E-02 0.  1.
       -2    1    3    3    0  502  0.17359023825E+03  0.14605111365E+04  0.66027169117E+03  0.16121988267E+04  0.25500000920E-02 0. -1.
</event>
<event>
 5   0  0.1256208E-06  0.3387230E+04  0.7818609E-02  0.8141048E-01
       -2   -1    0    0    0  501  0.00000000000E+00  0.00000000000E+00  0.11155218614E+04  0.11155218614E+04  0.25500000920E-02 0.  1.
        2   -1    0    0  501    0  0.00000000000E+00  0.00000000000E+00 -0.25712910475E+04  0.25712910475E+04  0.25500000920E-02 0. -1.
    10030    2    1    2    0    0  0.00000000000E+00  0.00000000000E+00 -0.14557691861E+04  0.36868129089E+04  0.33872297682E+04 0.  0.
        3    1    3    3  502    0 -0.68573736807E+03 -0.98146705893E+03  0.57589703262E+03  0.13285972784E+04  0.10100000352E+00 0.  1.
       -3    1    3    3    0  502  0.68573736807E+03  0.98146705893E+03 -0.20316662187E+04  0.23582156306E+04  0.10100000352E+00 0. -1.
</event>
<event>
 5   0  0.1300176E-06  0.3473055E+04  0.7818609E-02  0.8120205E-01
       -2   -1    0    0    0  501  0.00000000000E+00  0.00000000000E+00  0.14022083768E+04  0.14022083768E+04  0.25500000920E-02 0.  1.
        2   -1    0    0  501    0  0.00000000000E+00  0.00000000000E+00 -0.21505558065E+04  0.21505558065E+04  0.25500000920E-02 0. -1.
    10030    2    1    2    0    0  0.00000000000E+00  0.00000000000E+00 -0.74834742962E+03  0.35527641833E+04  0.34730547745E+04 0.  0.
        1    1    3    3  502    0 -0.47717881156E+03  0.19976318346E+03  0.13215573756E+04  0.14191965490E+04  0.50400001928E-02 0.  1.
       -1    1    3    3    0  502  0.47717881156E+03 -0.19976318346E+03 -0.20699048052E+04  0.21335676343E+04  0.50400001928E-02 0. -1.
</event>
<event>
 5   0  0.1256208E-06  0.3383302E+04  0.7818609E-02  0.8142017E-01
        2   -1    0    0  501    0  0.00000000000E+00  0.00000000000E+00  0.20783234313E+04  0.20783234313E+04  0.25500000920E-02 0. -1.
       -2   -1    0    0    0  501  0.00000000000E+00  0.00000000000E+00 -0.13769188894E+04  0.13769188894E+04  0.25500000920E-02 0.  1.
    10030    2    1    2    0    0  0.00000000000E+00  0.00000000000E+00  0.70140454186E+03  0.34552423207E+04  0.33833018138E+04 0.  0.
        3    1    3    3  502    0  0.64678043724E+03 -0.51909272443E+02  0.19461835105E+04  0.20514993964E+04  0.10100000352E+00 0. -1.
       -3    1    3    3    0  502 -0.64678043724E+03  0.51909272443E+02 -0.12447789686E+04  0.14037429243E+04  0.10100000352E+00 0.  1.
</event>
<event>
 5   0  0.4272633E-07  0.3380688E+04  0.7818609E-02  0.8142662E-01
        1   -1    0    0  501    0  0.00000000000E+00  0.00000000000E+00  0.15117173083E+04  0.15117173083E+04  0.50400001928E-02 0.  1.
       -1   -1    0    0    0  501  0.00000000000E+00  0.00000000000E+00 -0.18900773453E+04  0.18900773453E+04  0.50400001928E-02 0. -1.
    10030    2    1    2    0    0  0.00000000000E+00  0.00000000000E+00 -0.37836003701E+03  0.34017946536E+04  0.33806878808E+04 0.  0.
        1    1    3    3  502    0 -0.15272880378E+03  0.47256944656E+03 -0.18150072911E+04  0.18817277794E+04  0.50400001928E-02 0. -1.
       -1    1    3    3    0  502  0.15272880378E+03 -0.47256944656E+03  0.14366472540E+04  0.15200668742E+04  0.50400001928E-02 0.  1.
</event>
<event>
 5   0  0.1268230E-06  0.3384429E+04  0.7818609E-02  0.8141739E-01
        2   -1    0    0  501    0  0.00000000000E+00  0.00000000000E+00  0.26465475041E+04  0.26465475041E+04  0.25500000920E-02 0. -1.
       -2   -1    0    0    0  501  0.00000000000E+00  0.00000000000E+00 -0.10820093419E+04  0.10820093419E+04  0.25500000920E-02 0.  1.
    10030    2    1    2    0    0  0.00000000000E+00  0.00000000000E+00  0.15645381621E+04  0.37285568460E+04  0.33844285327E+04 0.  0.
        2    1    3    3  502    0 -0.31949406496E+03 -0.13084957114E+04  0.19108064481E+04  0.23378235106E+04  0.25500000920E-02 0. -1.
       -2    1    3    3    0  502  0.31949406496E+03  0.13084957114E+04 -0.34626828601E+03  0.13907333354E+04  0.25500000920E-02 0.  1.
</event>
<event>
 5   0  0.1268230E-06  0.3371869E+04  0.7818609E-02  0.8144845E-01
       -2   -1    0    0    0  501  0.00000000000E+00  0.00000000000E+00  0.16421976672E+04  0.16421976672E+04  0.25500000920E-02 0.  1.
        2   -1    0    0  501    0  0.00000000000E+00  0.00000000000E+00 -0.17308361720E+04  0.17308361720E+04  0.25500000920E-02 0. -1.
    10030    2    1    2    0    0  0.00000000000E+00  0.00000000000E+00 -0.88638504799E+02  0.33730338392E+04  0.33718689915E+04 0.  0.
        2    1    3    3  502    0 -0.12652325288E+04  0.36686406465E+02 -0.11583537756E+04  0.17157921535E+04  0.25500000920E-02 0. -1.
       -2    1    3    3    0  502  0.12652325288E+04 -0.36686406465E+02  0.10697152708E+04  0.16572416858E+04  0.25500000920E-02 0.  1.
</event>
<event>
 5   0  0.4272633E-07  0.3178844E+04  0.7818609E-02  0.8194427E-01
        1   -1    0    0  501    0  0.00000000000E+00  0.00000000000E+00  0.16041154350E+04  0.16041154350E+04  0.50400001928E-02 0.  1.
       -1   -1    0    0    0  501  0.00000000000E+00  0.00000000000E+00 -0.15748634820E+04  0.15748634820E+04  0.50400001928E-02 0. -1.
    10030    2    1    2    0    0  0.00000000000E+00  0.00000000000E+00  0.29251952984E+02  0.31789789169E+04  0.31788443305E+04 0.  0.
        1    1    3    3  502    0 -0.12556036823E+04  0.43159079809E+03 -0.85916818860E+03  0.15814490825E+04  0.50400001928E-02 0. -1.
       -1    1    3    3    0  502  0.12556036823E+04 -0.43159079809E+03  0.88842014158E+03  0.15975298345E+04  0.50400001928E-02 0.  1.
</event>
<event>
 5   0  0.4289684E-07  0.3396049E+04  0.7818609E-02  0.8138877E-01
       -1   -1    0    0    0  501  0.00000000000E+00  0.00000000000E+00  0.15955986243E+04  0.15955986243E+04  0.50400001928E-02 0.  1.
        1   -1    0    0  501    0  0.00000000000E+00  0.00000000000E+00 -0.18070249285E+04  0.18070249285E+04  0.50400001928E-02 0. -1.
    10030    2    1    2    0    0  0.00000000000E+00  0.00000000000E+00 -0.21142630412E+03  0.34026235528E+04  0.33960485804E+04 0.  0.
        4    1    3    3  502    0  0.13795667543E+04  0.87481258398E+03  0.35863140204E+03  0.16724591421E+04  0.12699999809E+01 0.  1.
       -4    1    3    3    0  502 -0.13795667543E+04 -0.87481258398E+03 -0.57005770616E+03  0.17301644107E+04  0.12699999809E+01 0. -1.
</event>
<event>
 5   0  0.4109937E-07  0.3383476E+04  0.7818609E-02  0.8141974E-01
        1   -1    0    0  501    0  0.00000000000E+00  0.00000000000E+00  0.10498407408E+04  0.10498407408E+04  0.50400001928E-02 0. -1.
       -1   -1    0    0    0  501  0.00000000000E+00  0.00000000000E+00 -0.27261059596E+04  0.27261059596E+04  0.50400001928E-02 0.  1.
    10030    2    1    2    0    0  0.00000000000E+00  0.00000000000E+00 -0.16762652188E+04  0.37759467004E+04  0.33834757868E+04 0.  0.
        5    1    3    3  502    0 -0.11863945181E+03 -0.11605898436E+04 -0.22053583904E+04  0.24949292224E+04  0.46999998093E+01 0.  1.
       -5    1    3    3    0  502  0.11863945181E+03  0.11605898436E+04  0.52909317155E+03  0.12810174780E+04  0.46999998093E+01 0. -1.
</event>
<event>
 5   0  0.1277635E-06  0.3361470E+04  0.7818609E-02  0.8147428E-01
        2   -1    0    0  501    0  0.00000000000E+00  0.00000000000E+00  0.23518846523E+04  0.23518846523E+04  0.25500000920E-02 0.  1.
       -2   -1    0    0    0  501  0.00000000000E+00  0.00000000000E+00 -0.12011094348E+04  0.12011094348E+04  0.25500000920E-02 0. -1.
    10030    2    1    2    0    0  0.00000000000E+00  0.00000000000E+00  0.11507752174E+04  0.35529940871E+04  0.33614704196E+04 0.  0.
        4    1    3    3  502    0  0.10529558792E+04  0.55905740111E+03  0.18276291416E+04  0.21820841307E+04  0.12699999809E+01 0.  1.
       -4    1    3    3    0  502 -0.10529558792E+04 -0.55905740111E+03 -0.67685392416E+03  0.13709099565E+04  0.12699999809E+01 0. -1.
</event>
<event>
 5   0  0.4109937E-07  0.3410267E+04  0.7818609E-02  0.8135391E-01
        1   -1    0    0  501    0  0.00000000000E+00  0.00000000000E+00  0.13491415872E+04  0.13491415872E+04  0.50400001928E-02 0. -1.
       -1   -1    0    0    0  501  0.00000000000E+00  0.00000000000E+00 -0.21550591092E+04  0.21550591092E+04  0.50400001928E-02 0.  1.
    10030    2    1    2    0    0  0.00000000000E+00  0.00000000000E+00 -0.80591752201E+03  0.35042006964E+04  0.34102667738E+04 0.  0.
        5    1    3    3  502    0  0.39698643603E+03 -0.16559174514E+04 -0.49369123101E+03  0.17729675569E+04  0.46999998093E+01 0.  1.
       -5    1    3    3    0  502 -0.39698643603E+03  0.16559174514E+04 -0.31222629099E+03  0.17312331394E+04  0.46999998093E+01 0. -1.
</event>
<event>
 5   0  0.1256208E-06  0.3403721E+04  0.7818609E-02  0.8136994E-01
       -2   -1    0    0    0  501  0.00000000000E+00  0.00000000000E+00  0.16223058260E+04  0.16223058260E+04  0.25500000920E-02 0.  1.
        2   -1    0    0  501    0  0.00000000000E+00  0.00000000000E+00 -0.17853159608E+04  0.17853159608E+04  0.25500000920E-02 0. -1.
    10030    2    1    2    0    0  0.00000000000E+00  0.00000000000E+00 -0.16301013480E+03  0.34076217868E+04  0.34037206022E+04 0.  0.
        3    1    3    3  502    0  0.20954410943E+03  0.12480223787E+04 -0.12207283988E+04  0.17583078301E+04  0.10100000352E+00 0. -1.
       -3    1    3    3    0  502 -0.20954410943E+03 -0.12480223787E+04  0.10577182640E+04  0.16493139567E+04  0.10100000352E+00 0.  1.
</event>
<event>
 5   0  0.4109937E-07  0.3049337E+04  0.7818609E-02  0.8229781E-01
        1   -1    0    0  501    0  0.00000000000E+00  0.00000000000E+00  0.14878853753E+04  0.14878853753E+04  0.50400001928E-02 0.  1.
       -1   -1    0    0    0  501  0.00000000000E+00  0.00000000000E+00 -0.15623611205E+04  0.15623611205E+04  0.50400001928E-02 0. -1.
    10030    2    1    2    0    0  0.00000000000E+00  0.00000000000E+00 -0.74475745277E+02  0.30502464958E+04  0.30493371491E+04 0.  0.
        5    1    3    3  502    0 -0.11387916810E+04 -0.73922548298E+03  0.65672067118E+03  0.15081793452E+04  0.46999998093E+01 0.  1.
       -5    1    3    3    0  502  0.11387916810E+04  0.73922548298E+03 -0.73119641645E+03  0.15420671506E+04  0.46999998093E+01 0. -1.
</event>
<event>
 5   0  0.4464951E-07  0.3372088E+04  0.7818609E-02  0.8144791E-01
       -1   -1    0    0    0  501  0.00000000000E+00  0.00000000000E+00  0.12359879645E+04  0.12359879646E+04  0.50400001928E-02 0. -1.
        1   -1    0    0  501    0  0.00000000000E+00  0.00000000000E+00 -0.22999770863E+04  0.22999770863E+04  0.50400001928E-02 0.  1.
    10030    2    1    2    0    0  0.00000000000E+00  0.00000000000E+00 -0.10639891217E+04  0.35359650508E+04  0.33720877790E+04 0.  0.
        3    1    3    3  502    0 -0.11536916752E+04  0.13254080451E+03 -0.18137626450E+04  0.21536727906E+04  0.10100000352E+00 0.  1.
       -3    1    3    3    0  502  0.11536916752E+04 -0.13254080451E+03  0.74977352329E+03  0.13822922602E+04  0.10100000352E+00 0. -1.
</event>
<event>
 5   0  0.4464951E-07  0.3398603E+04  0.7818609E-02  0.8138249E-01
        1   -1    0    0  501    0  0.00000000000E+00  0.00000000000E+00  0.11653068606E+04  0.11653068606E+04  0.50400001928E-02 0. -1.
       -1   -1    0    0    0  501  0.00000000000E+00  0.00000000000E+00 -0.24779957934E+04  0.24779957934E+04  0.50400001928E-02 0.  1.
    10030    2    1    2    0    0  0.00000000000E+00  0.00000000000E+00 -0.13126889328E+04  0.36433026541E+04  0.33986029475E+04 0.  0.
        3    1    3    3  502    0 -0.63503408124E+03  0.10142819514E+04 -0.19496890592E+04  0.22876458640E+04  0.10100000352E+00 0.  1.
       -3    1    3    3    0  502  0.63503408124E+03 -0.10142819514E+04  0.63700012637E+03  0.13556567901E+04  0.10100000352E+00 0. -1.
</event>
<event>
 5   0  0.4060750E-07  0.3391792E+04  0.7818609E-02  0.8139924E-01
       -3   -1    0    0    0  501  0.00000000000E+00  0.00000000000E+00  0.17176956326E+04  0.17176956356E+04  0.10100000352E+00 0.  1.
        3   -1    0    0  501    0  0.00000000000E+00  0.00000000000E+00 -0.16743725414E+04  0.16743725444E+04  0.10100000352E+00 0. -1.
    10030    2    1    2    0    0  0.00000000000E+00  0.00000000000E+00  0.43323091277E+02  0.33920681800E+04  0.33917915101E+04 0.  0.
        2    1    3    3  502    0  0.16925590179E+04  0.24931781114E+02  0.12503723118E+03  0.16973543920E+04  0.25500000920E-02 0. -1.
       -2    1    3    3    0  502 -0.16925590179E+04 -0.24931781114E+02 -0.81714139907E+02  0.16947137881E+04  0.25500000920E-02 0.  1.
</event>
<event>
 5   0  0.1277635E-06  0.3404130E+04  0.7818609E-02  0.8136893E-01
        2   -1    0    0  501    0  0.00000000000E+00  0.00000000000E+00  0.19662443797E+04  0.19662443797E+04  0.25500000920E-02 0. -1.
       -2   -1    0    0    0  501  0.00000000000E+00  0.00000000000E+00 -0.14733804405E+04  0.14733804405E+04  0.25500000920E-02 0.  1.
    10030    2    1    2    0    0  0.00000000000E+00  0.00000000000E+00  0.49286393918E+03  0.34396248202E+04  0.34041304383E+04 0.  0.
        4    1    3    3  502    0 -0.63860774313E+03 -0.10165599781E+04 -0.97271842588E+03  0.15451203149E+04  0.12699999809E+01 0.  1.
       -4    1    3    3    0  502  0.63860774313E+03  0.10165599781E+04  0.14655823651E+04  0.18945045052E+04  0.12699999809E+01 0. -1.
</event>
<event>
 5   0  0.1256208E-06  0.3432781E+04  0.7818609E-02  0.8129907E-01
       -2   -1    0    0    0  501  0.00000000000E+00  0.00000000000E+00  0.13218345350E+04  0.13218345350E+04  0.25500000920E-02 0. -1.
        2   -1    0    0  501    0  0.00000000000E+00  0.00000000000E+00 -0.22287184586E+04  0.22287184586E+04  0.25500000920E-02 0.  1.
    10030    2    1    2    0    0  0.00000000000E+00  0.00000000000E+00 -0.90688392357E+03  0.35505529936E+04  0.34327813955E+04 0.  0.
        3    1    3    3  502    0 -0.17073838136E+04  0.16861591388E+03 -0.50417794039E+03  0.17882355044E+04  0.10100000352E+00 0.  1.
       -3    1    3    3    0  502  0.17073838136E+04 -0.16861591388E+03 -0.40270598317E+03  0.17623174892E+04  0.10100000352E+00 0. -1.
</event>
<event>
 5   0  0.1268230E-06  0.3396721E+04  0.7818609E-02  0.8138712E-01
        2   -1    0    0  501    0  0.00000000000E+00  0.00000000000E+00  0.21654382581E+04  0.21654382581E+04  0.25500000920E-02 0.  1.
       -2   -1    0    0    0  501  0.00000000000E+00  0.00000000000E+00 -0.13320299272E+04  0.13320299272E+04  0.25500000920E-02 0. -1.
    10030    2    1    2    0    0  0.00000000000E+00  0.00000000000E+00  0.83340833086E+03  0.34974681853E+04  0.33967211044E+04 0.  0.
        2    1    3    3  502    0  0.11157217628E+04  0.77823875736E+03 -0.63028242912E+03  0.14992486638E+04  0.25500000920E-02 0. -1.
       -2    1    3    3    0  502 -0.11157217628E+04 -0.77823875736E+03  0.14636907600E+04  0.19982195215E+04  0.25500000920E-02 0.  1.
</event>
<event>
 5   0  0.1300176E-06  0.2854298E+04  0.7818609E-02  0.8286606E-01
       -2   -1    0    0    0  501  0.00000000000E+00  0.00000000000E+00  0.18820895115E+04  0.18820895115E+04  0.25500000920E-02 0. -1.
        2   -1    0    0  501    0  0.00000000000E+00  0.00000000000E+00 -0.10821774016E+04  0.10821774016E+04  0.25500000920E-02 0.  1.
    10030    2    1    2    0    0  0.00000000000E+00  0.00000000000E+00  0.79991210997E+03  0.29642669131E+04  0.28542983285E+04 0.  0.
        1    1    3    3  502    0 -0.92818616252E+03 -0.10371404096E+04  0.72260013260E+02  0.13937041619E+04  0.50400001928E-02 0. -1.
       -1    1    3    3    0  502  0.92818616252E+03  0.10371404096E+04  0.72765209671E+03  0.15705627511E+04  0.50400001928E-02 0.  1.
</event>
<event>
 5   0  0.1269497E-06  0.3231849E+04  0.7818609E-02  0.8180456E-01
        2   -1    0    0  501    0  0.00000000000E+00  0.00000000000E+00  0.21834714186E+04  0.21834714186E+04  0.25500000920E-02 0.  1.
       -2   -1    0    0    0  501  0.00000000000E+00  0.00000000000E+00 -0.11958996348E+04  0.11958996348E+04  0.25500000920E-02 0. -1.
    10030    2    1    2    0    0  0.00000000000E+00  0.00000000000E+00  0.98757178380E+03  0.33793710534E+04  0.32318494223E+04 0.  0.
        5    1    3    3  502    0  0.19424401468E+02  0.16113380774E+04  0.36829582309E+03  0.16530128888E+04  0.46999998093E+01 0. -1.
       -5    1    3    3    0  502 -0.19424401468E+02 -0.16113380774E+04  0.61927596070E+03  0.17263581646E+04  0.46999998093E+01 0.  1.
</event>
<event>
 5   0  0.1256208E-06  0.3379469E+04  0.7818609E-02  0.8142964E-01
        2   -1    0    0  501    0  0.00000000000E+00  0.00000000000E+00  0.19196303478E+04  0.19196303478E+04  0.25500000920E-02 0.  1.
       -2   -1    0    0    0  501  0.00000000000E+00  0.00000000000E+00 -0.14873714525E+04  0.14873714525E+04  0.25500000920E-02 0. -1.
    10030    2    1    2    0    0  0.00000000000E+00  0.00000000000E+00  0.43225889524E+03  0.34070018003E+04  0.33794694132E+04 0.  0.
        3    1    3    3  502    0  0.96170188143E+03  0.16459912875E+03 -0.11746895677E+04  0.15270425575E+04  0.10100000352E+00 0. -1.
       -3    1    3    3    0  502 -0.96170188143E+03 -0.16459912875E+03  0.16069484629E+04  0.18799592428E+04  0.10100000352E+00 0.  1.
</event>
<event>
 5   0  0.4464951E-07  0.3353507E+04  0.7818609E-02  0.8149412E-01
       -1   -1    0    0    0  501  0.00000000000E+00  0.00000000000E+00  0.15367278863E+04  0.15367278864E+04  0.50400001928E-02 0. -1.
        1   -1    0    0  501    0  0.00000000000E+00  0.00000000000E+00 -0.18295380622E+04  0.18295380622E+04  0.50400001928E-02 0.  1.
    10030    2    1    2    0    0  0.00000000000E+00  0.00000000000E+00 -0.29281017589E+03  0.33662659486E+04  0.33535069163E+04 0.  0.
        3    1    3    3  502    0  0.12503006197E+04  0.14593591604E+03  0.96548848431E+03  0.15864163876E+04  0.10100000352E+00 0. -1.
       -3    1    3    3    0  502 -0.12503006197E+04 -0.14593591604E+03 -0.12582986602E+04  0.17798495610E+04  0.10100000352E+00 0.  1.
</event>
<event>
 5   0  0.4464951E-07  0.3396433E+04  0.7818609E-02  0.8138782E-01
        1   -1    0    0  501    0  0.00000000000E+00  0.00000000000E+00  0.22503347882E+04  0.22503347882E+04  0.50400001928E-02 0.  1.
       -1   -1    0    0    0  501  0.00000000000E+00  0.00000000000E+00 -0.12815600098E+04  0.12815600098E+04  0.50400001928E-02 0. -1.
    10030    2    1    2    0    0  0.00000000000E+00  0.00000000000E+00  0.96877477838E+03  0.35318947981E+04  0.33964328778E+04 0.  0.
        3    1    3    3  502    0  0.14223317907E+04  0.90140623540E+03  0.71311010641E+03  0.18286844884E+04  0.10100000352E+00 0. -1.
       -3    1    3    3    0  502 -0.14223317907E+04 -0.90140623540E+03  0.25566467198E+03  0.17032103096E+04  0.10100000352E+00 0.  1.
</event>
<event>
 5   0  0.4109937E-07  0.3496764E+04  0.7818609E-02  0.8114557E-01
       -1   -1    0    0    0  501  0.00000000000E+00  0.00000000000E+00  0.29419891560E+04  0.29419891560E+04  0.50400001928E-02 0. -1.
        1   -1    0    0  501    0  0.00000000000E+00  0.00000000000E+00 -0.10390385260E+04  0.10390385260E+04  0.50400001928E-02 0.  1.
    10030    2    1    2    0    0  0.00000000000E+00  0.00000000000E+00  0.19029506300E+04  0.39810276820E+04  0.34967642621E+04 0.  0.
        5    1    3    3  502    0  0.12791140308E+04 -0.40251883890E+03  0.22287482949E+04  0.26010565490E+04  0.46999998093E+01 0. -1.
       -5    1    3    3    0  502 -0.12791140308E+04  0.40251883890E+03 -0.32579766489E+03  0.13799711330E+04  0.46999998093E+01 0.  1.
</event>
<event>
 5   0  0.4464951E-07  0.3365929E+04  0.7818609E-02  0.8146320E-01
       -1   -1    0    0    0  501  0.00000000000E+00  0.00000000000E+00  0.18567519602E+04  0.18567519602E+04  0.50400001928E-02 0.  1.
        1   -1    0    0  501    0  0.00000000000E+00  0.00000000000E+00 -0.15254427331E+04  0.15254427331E+04  0.50400001928E-02 0. -1.
    10030    2    1    2    0    0  0.00000000000E+00  0.00000000000E+00  0.33130922708E+03  0.33821946932E+04  0.33659285701E+04 0.  0.
        3    1    3    3  502    0  0.14035829636E+04 -0.70063794242E+03 -0.44674127087E+03  0.16311089587E+04  0.10100000352E+00 0. -1.
       -3    1    3    3    0  502 -0.14035829636E+04  0.70063794242E+03  0.77805049794E+03  0.17510857345E+04  0.10100000352E+00 0.  1.
</event>
<event>
 5   0  0.1268230E-06  0.3342122E+04  0.7818609E-02  0.8152259E-01
        2   -1    0    0  501    0  0.00000000000E+00  0.00000000000E+00  0.10652297025E+04  0.10652297025E+04  0.25500000920E-02 0.  1.
       -2   -1    0    0    0  501  0.00000000000E+00  0.00000000000E+00 -0.26214480263E+04  0.26214480263E+04  0.25500000920E-02 0. -1.
    10030    2    1    2    0    0  0.00000000000E+00  0.00000000000E+00 -0.15562183239E+04  0.36866777288E+04  0.33421216621E+04 0.  0.
        2    1    3    3  502    0 -0.42903845734E+03  0.90457204218E+03  0.69778073187E+03  0.12203370547E+04  0.25500000920E-02 0.  1.
       -2    1    3    3    0  502  0.42903845734E+03 -0.90457204218E+03 -0.22539990557E+04  0.24663406741E+04  0.25500000920E-02 0. -1.
</event>
<event>
 5   0  0.1256208E-06  0.3368266E+04  0.7818609E-02  0.8145739E-01
        2   -1    0    0  501    0  0.00000000000E+00  0.00000000000E+00  0.24641631553E+04  0.24641631553E+04  0.25500000920E-02 0. -1.
       -2   -1    0    0    0  501  0.00000000000E+00  0.00000000000E+00 -0.11510212694E+04  0.11510212694E+04  0.25500000920E-02 0.  1.
    10030    2    1    2    0    0  0.00000000000E+00  0.00000000000E+00  0.13131418859E+04  0.36151844247E+04  0.33682661433E+04 0.  0.
        3    1    3    3  502    0  0.49262954986E+03  0.10955736170E+04 -0.61035846761E+03  0.13474059867E+04  0.10100000352E+00 0.  1.
       -3    1    3    3    0  502 -0.49262954986E+03 -0.10955736170E+04  0.19235003536E+04  0.22677784380E+04  0.10100000352E+00 0. -1.
</event>
<event>
 5   0  0.4464951E-07  0.3396321E+04  0.7818609E-02  0.8138810E-01
        1   -1    0    0  501    0  0.00000000000E+00  0.00000000000E+00  0.19600049010E+04  0.19600049010E+04  0.50400001928E-02 0. -1.
       -1   -1    0    0    0  501  0.00000000000E+00  0.00000000000E+00 -0.14712969074E+04  0.14712969074E+04  0.50400001928E-02 0.  1.
    10030    2    1    2    0    0  0.00000000000E+00  0.00000000000E+00  0.48870799362E+03  0.34313018085E+04  0.33963210387E+04 0.  0.
        3    1    3    3  502    0  0.92278100634E+03  0.93563789109E+03  0.13309809343E+04  0.18704152765E+04  0.10100000352E+00 0. -1.
       -3    1    3    3    0  502 -0.92278100634E+03 -0.93563789109E+03 -0.84227294067E+03  0.15608865320E+04  0.10100000352E+00 0.  1.
</event>
<event>
 5   0  0.4125758E-07  0.3366650E+04  0.7818609E-02  0.8146140E-01
       -1   -1    0    0    0  501  0.00000000000E+00  0.00000000000E+00  0.93656076163E+03  0.93656076165E+03  0.50400001928E-02 0. -1.
        1   -1    0    0  501    0  0.00000000000E+00  0.00000000000E+00 -0.30255191439E+04  0.30255191439E+04  0.50400001928E-02 0.  1.
    10030    2    1    2    0    0  0.00000000000E+00  0.00000000000E+00 -0.20889583822E+04  0.39620799055E+04  0.33666496781E+04 0.  0.
        2    1    3    3  502    0 -0.15721064518E+03  0.10564623254E+04  0.48668694046E+03  0.11737512556E+04  0.25500000920E-02 0. -1.
       -2    1    3    3    0  502  0.15721064518E+03 -0.10564623254E+04 -0.25756453227E+04  0.27883286500E+04  0.25500000920E-02 0.  1.
</event>
<event>
 5   0  0.1268230E-06  0.3535697E+04  0.7818609E-02  0.8105382E-01
       -2   -1    0    0    0  501  0.00000000000E+00  0.00000000000E+00  0.20076728995E+04  0.20076728995E+04  0.25500000920E-02 0.  1.
        2   -1    0    0  501    0  0.00000000000E+00  0.00000000000E+00 -0.15566724426E+04  0.15566724426E+04  0.25500000920E-02 0. -1.
    10030    2    1    2    0    0  0.00000000000E+00  0.00000000000E+00  0.45100045686E+03  0.35643453421E+04  0.35356974285E+04 0.  0.
        2    1    3    3  502    0  0.76632816628E+03  0.13411712961E+04  0.10922865149E+04  0.18918480739E+04  0.25500000920E-02 0.  1.
       -2    1    3    3    0  502 -0.76632816628E+03 -0.13411712961E+04 -0.64128605807E+03  0.16724972682E+04  0.25500000920E-02 0. -1.
</event>
<event>
 5   0  0.4289684E-07  0.3387490E+04  0.7818609E-02  0.8140984E-01
        1   -1    0    0  501    0  0.00000000000E+00  0.00000000000E+00  0.21463967123E+04  0.21463967123E+04  0.50400001928E-02 0.  1.
       -1   -1    0    0    0  501  0.00000000000E+00  0.00000000000E+00 -0.13365523584E+04  0.13365523584E+04  0.50400001928E-02 0. -1.
    10030    2    1    2    0    0  0.00000000000E+00  0.00000000000E+00  0.80984435389E+03  0.34829490707E+04  0.33874896829E+04 0.  0.
        4    1    3    3  502    0 -0.12833756202E+04  0.10010876492E+04  0.88667745144E+03  0.18534907552E+04  0.12699999809E+01 0. -1.
       -4    1    3    3    0  502  0.12833756202E+04 -0.10010876492E+04 -0.76833097547E+02  0.16294583154E+04  0.12699999809E+01 0.  1.
</event>
<event>
 5   0  0.1300176E-06  0.3474314E+04  0.7818609E-02  0.8119904E-01
        2   -1    0    0  501    0  0.00000000000E+00  0.00000000000E+00  0.14541935965E+04  0.14541935965E+04  0.25500000920E-02 0.  1.
       -2   -1    0    0    0  501  0.00000000000E+00  0.00000000000E+00 -0.20751809323E+04  0.20751809323E+04  0.25500000920E-02 0. -1.
    10030    2    1    2    0    0  0.00000000000E+00  0.00000000000E+00 -0.62098733581E+03  0.35293745288E+04  0.34743142191E+04 0.  0.
        1    1    3    3  502    0  0.22009726400E+02  0.47284314797E+03 -0.20084035329E+04  0.20634315645E+04  0.50400001928E-02 0. -1.
       -1    1    3    3    0  502 -0.22009726400E+02 -0.47284314797E+03  0.13874161970E+04  0.14659429643E+04  0.50400001928E-02 0.  1.
</event>
<event>
 5   0  0.4289684E-07  0.3399134E+04  0.7818609E-02  0.8138119E-01
        1   -1    0    0  501    0  0.00000000000E+00  0.00000000000E+00  0.19656722218E+04  0.19656722219E+04  0.50400001928E-02 0. -1.
       -1   -1    0    0    0  501  0.00000000000E+00  0.00000000000E+00 -0.14694865176E+04  0.14694865176E+04  0.50400001928E-02 0.  1.
    10030    2    1    2    0    0  0.00000000000E+00  0.00000000000E+00  0.49618570429E+03  0.34351587394E+04  0.33991344945E+04 0.  0.
        4    1    3    3  502    0 -0.10632296258E+04  0.70165988954E+03 -0.88888313834E+03  0.15533507924E+04  0.12699999809E+01 0.  1.
       -4    1    3    3    0  502  0.10632296258E+04 -0.70165988954E+03  0.13850688426E+04  0.18818079470E+04  0.12699999809E+01 0. -1.
</event>
<event>
 5   0  0.4464951E-07  0.3435807E+04  0.7818609E-02  0.8129174E-01
        1   -1    0    0  501    0  0.00000000000E+00  0.00000000000E+00  0.10595829489E+04  0.10595829489E+04  0.50400001928E-02 0. -1.
       -1   -1    0    0    0  501  0.00000000000E+00  0.00000000000E+00 -0.27852404223E+04  0.27852404223E+04  0.50400001928E-02 0.  1.
    10030    2    1    2    0    0  0.00000000000E+00  0.00000000000E+00 -0.17256574735E+04  0.38448233712E+04  0.34358074801E+04 0.  0.
        3    1    3    3  502    0  0.78958738108E+03 -0.96202116296E+03  0.46231165457E+03  0.13276539559E+04  0.10100000352E+00 0. -1.
       -3    1    3    3    0  502 -0.78958738108E+03  0.96202116296E+03 -0.21879691280E+04  0.25171694154E+04  0.10100000352E+00 0.  1.
</event>
<event>
 5   0  0.4125758E-07  0.3389801E+04  0.7818609E-02  0.8140414E-01
       -1   -1    0    0    0  501  0.00000000000E+00  0.00000000000E+00  0.21290614069E+04  0.21290614069E+04  0.50400001928E-02 0. -1.
        1   -1    0    0  501    0  0.00000000000E+00  0.00000000000E+00 -0.13492741705E+04  0.13492741705E+04  0.50400001928E-02 0.  1.
    10030    2    1    2    0    0  0.00000000000E+00  0.00000000000E+00  0.77978723634E+03  0.34783355774E+04  0.33898009167E+04 0.  0.
        2    1    3    3  502    0  0.37736721133E+03 -0.15160032352E+04  0.10643394459E+04  0.18903677625E+04  0.25500000920E-02 0. -1.
       -2    1    3    3    0  502 -0.37736721133E+03  0.15160032352E+04 -0.28455220958E+03  0.15879678149E+04  0.25500000920E-02 0.  1.
</event>
<event>
 5   0  0.1300176E-06  0.3367824E+04  0.7818609E-02  0.8145849E-01
       -2   -1    0    0    0  501  0.00000000000E+00  0.00000000000E+00  0.33512384901E+04  0.33512384901E+04  0.25500000920E-02 0.  1.
        2   -1    0    0  501    0  0.00000000000E+00  0.00000000000E+00 -0.84612304374E+03  0.84612304375E+03  0.25500000920E-02 0. -1.
    10030    2    1    2    0    0  0.00000000000E+00  0.00000000000E+00  0.25051154464E+04  0.41973615339E+04  0.33678242897E+04 0.  0.
        1    1    3    3  502    0 -0.13615491610E+03 -0.78076878431E+03  0.31042535257E+04  0.32038302089E+04  0.50400001928E-02 0.  1.
       -1    1    3    3    0  502  0.13615491610E+03  0.78076878431E+03 -0.59913807926E+03  0.99353132501E+03  0.50400001928E-02 0. -1.
</event>
<event>
 5   0  0.1269497E-06  0.3404599E+04  0.7818609E-02  0.8136779E-01
       -2   -1    0    0    0  501  0.00000000000E+00  0.00000000000E+00  0.19221787506E+04  0.19221787506E+04  0.25500000920E-02 0.  1.
        2   -1    0    0  501    0  0.00000000000E+00  0.00000000000E+00 -0.15075722250E+04  0.15075722250E+04  0.25500000920E-02 0. -1.
    10030    2    1    2    0    0  0.00000000000E+00  0.00000000000E+00  0.41460652565E+03  0.34297509756E+04  0.34045988286E+04 0.  0.
        5    1    3    3  502    0  0.96818825036E+02 -0.15583429190E+04 -0.47593635595E+03  0.16322818515E+04  0.46999998093E+01 0. -1.
       -5    1    3    3    0  502 -0.96818825036E+02  0.15583429190E+04  0.89054288160E+03  0.17974691241E+04  0.46999998093E+01 0.  1.
</event>
<event>
 5   0  0.4109937E-07  0.3372063E+04  0.7818609E-02  0.8144797E-01
       -1   -1    0    0    0  501  0.00000000000E+00  0.00000000000E+00  0.94547435945E+03  0.94547435946E+03  0.50400001928E-02 0. -1.
        1   -1    0    0  501    0  0.00000000000E+00  0.00000000000E+00 -0.30066418109E+04  0.30066418109E+04  0.50400001928E-02 0.  1.
    10030    2    1    2    0    0  0.00000000000E+00  0.00000000000E+00 -0.20611674514E+04  0.39521161703E+04  0.33720633092E+04 0.  0.
        5    1    3    3  502    0 -0.75084448467E+03 -0.80506334477E+03 -0.25272759379E+04  0.27566356642E+04  0.46999998093E+01 0.  1.
       -5    1    3    3    0  502  0.75084448467E+03  0.80506334477E+03  0.46610848646E+03  0.11954805061E+04  0.46999998093E+01 0. -1.
</event>
<event>
 5   0  0.1277635E-06  0.3353514E+04  0.7818609E-02  0.8149411E-01
        2   -1    0    0  501    0  0.00000000000E+00  0.00000000000E+00  0.22485684179E+04  0.22485684179E+04  0.25500000920E-02 0.  1.
       -2   -1    0    0    0  501  0.00000000000E+00  0.00000000000E+00 -0.12503571605E+04  0.12503571605E+04  0.25500000920E-02 0. -1.
    10030    2    1    2    0    0  0.00000000000E+00  0.00000000000E+00  0.99821125740E+03  0.34989255785E+04  0.33535137527E+04 0.  0.
        4    1    3    3  502    0 -0.26479602506E+03  0.50542480051E+03 -0.11459478033E+04  0.12801441890E+04  0.12699999809E+01 0. -1.
       -4    1    3    3    0  502  0.26479602506E+03 -0.50542480051E+03  0.21441590607E+04  0.22187813895E+04  0.12699999809E+01 0.  1.
</event>
<event>
 5   0  0.4272633E-07  0.3417491E+04  0.7818609E-02  0.8133627E-01
       -1   -1    0    0    0  501  0.00000000000E+00  0.00000000000E+00  0.22028331314E+04  0.22028331314E+04  0.50400001928E-02 0.  1.
        1   -1    0    0  501    0  0.00000000000E+00  0.00000000000E+00 -0.13254803443E+04  0.13254803443E+04  0.50400001928E-02 0. -1.
    10030    2    1    2    0    0  0.00000000000E+00  0.00000000000E+00  0.87735278707E+03  0.35283134757E+04  0.34174914879E+04 0.  0.
        1    1    3    3  502    0  0.15895332108E+04  0.61717372563E+03  0.55314458018E+03  0.17926204737E+04  0.50400001928E-02 0. -1.
       -1    1    3    3    0  502 -0.15895332108E+04 -0.61717372563E+03  0.32420820689E+03  0.17356930021E+04  0.50400001928E-02 0.  1.
</event>
<event>
 5   0  0.4109937E-07  0.3407752E+04  0.7818609E-02  0.8136006E-01
        1   -1    0    0  501    0  0.00000000000E+00  0.00000000000E+00  0.21079784564E+04  0.21079784564E+04  0.50400001928E-02 0. -1.
       -1   -1    0    0    0  501  0.00000000000E+00  0.00000000000E+00 -0.13772409588E+04  0.13772409588E+04  0.50400001928E-02 0.  1.
    10030    2    1    2    0    0  0.00000000000E+00  0.00000000000E+00  0.73073749757E+03  0.34852194152E+04  0.34077524971E+04 0.  0.
        5    1    3    3  502    0 -0.12534936077E+04  0.10707168720E+03  0.15406044329E+04  0.19890185217E+04  0.46999998093E+01 0. -1.
       -5    1    3    3    0  502  0.12534936077E+04 -0.10707168720E+03 -0.80986693537E+03  0.14962008935E+04  0.46999998093E+01 0.  1.
</event>
<event>
 5   0  0.4125758E-07  0.3322919E+04  0.7818609E-02  0.8157088E-01
        1   -1    0    0  501    0  0.00000000000E+00  0.00000000000E+00  0.20425684174E+04  0.20425684174E+04  0.50400001928E-02 0. -1.
       -1   -1    0    0    0  501  0.00000000000E+00  0.00000000000E+00 -0.13514594635E+04  0.13514594635E+04  0.50400001928E-02 0.  1.
    10030    2    1    2    0    0  0.00000000000E+00  0.00000000000E+00  0.69110895389E+03  0.33940278810E+04  0.33229194499E+04 0.  0.
        2    1    3    3  502    0 -0.16017387847E+04 -0.44100528948E+03  0.32523869327E+03  0.16928771389E+04  0.25500000920E-02 0.  1.
       -2    1    3    3    0  502  0.16017387847E+04  0.44100528948E+03  0.36587026062E+03  0.17011507421E+04  0.25500000920E-02 0. -1.
</event>
<event>
 5   0  0.4125758E-07  0.3389231E+04  0.7818609E-02  0.8140554E-01
        1   -1    0    0  501    0  0.00000000000E+00  0.00000000000E+00  0.22926406939E+04  0.22926406939E+04  0.50400001928E-02 0.  1.
       -1   -1    0    0    0  501  0.00000000000E+00  0.00000000000E+00 -0.12525828191E+04  0.12525828191E+04  0.50400001928E-02 0. -1.
    10030    2    1    2    0    0  0.00000000000E+00  0.00000000000E+00  0.10400578748E+04  0.35452235130E+04  0.33892313840E+04 0.  0.
        2    1    3    3  502    0  0.14641634751E+04 -0.62254836781E+03  0.11303033747E+04  0.19516472199E+04  0.25500000920E-02 0. -1.
       -2    1    3    3    0  502 -0.14641634751E+04  0.62254836781E+03 -0.90245499859E+02  0.15935762932E+04  0.25500000920E-02 0.  1.
</event>
<event>
 5   0  0.4060750E-07  0.3334663E+04  0.7818609E-02  0.8154131E-01
        3   -1    0    0  501    0  0.00000000000E+00  0.00000000000E+00  0.13537428158E+04  0.13537428196E+04  0.10100000352E+00 0.  1.
       -3   -1    0    0    0  501  0.00000000000E+00  0.00000000000E+00 -0.20535613397E+04  0.20535613422E+04  0.10100000352E+00 0. -1.
    10030    2    1    2    0    0  0.00000000000E+00  0.00000000000E+00 -0.69981852389E+03  0.34073041618E+04  0.33346627542E+04 0.  0.
        4    1    3    3  502    0 -0.90901089131E+03  0.11008939198E+04  0.53008567958E+03  0.15229119028E+04  0.12699999809E+01 0.  1.
       -4    1    3    3    0  502  0.90901089131E+03 -0.11008939198E+04 -0.12299042035E+04  0.18843922590E+04  0.12699999809E+01 0. -1.
</event>
<event>
 5   0  0.4060750E-07  0.3307605E+04  0.7818609E-02  0.8160963E-01
        3   -1    0    0  501    0  0.00000000000E+00  0.00000000000E+00  0.22566579875E+04  0.22566579898E+04  0.10100000352E+00 0.  1.
       -3   -1    0    0    0  501  0.00000000000E+00  0.00000000000E+00 -0.12119968447E+04  0.12119968490E+04  0.10100000352E+00 0. -1.
    10030    2    1    2    0    0  0.00000000000E+00  0.00000000000E+00  0.10446611428E+04  0.34686548387E+04  0.33076047961E+04 0.  0.
        2    1    3    3  502    0 -0.43523642933E+02  0.11032506553E+04 -0.76888258049E+03  0.13454503850E+04  0.25500000920E-02 0. -1.
       -2    1    3    3    0  502  0.43523642933E+02 -0.11032506553E+04  0.18135437233E+04  0.21232044537E+04  0.25500000920E-02 0.  1.
</event>
<event>
 5   0  0.4125758E-07  0.3368560E+04  0.7818609E-02  0.8145666E-01
       -1   -1    0    0    0  501  0.00000000000E+00  0.00000000000E+00  0.13871647432E+04  0.13871647432E+04  0.50400001928E-02 0.  1.
        1   -1    0    0  501    0  0.00000000000E+00  0.00000000000E+00 -0.20450339953E+04  0.20450339953E+04  0.50400001928E-02 0. -1.
    10030    2    1    2    0    0  0.00000000000E+00  0.00000000000E+00 -0.65786925209E+03  0.34321987385E+04  0.33685599635E+04 0.  0.
        2    1    3    3  502    0  0.80304827912E+03  0.62835943852E+03  0.10369420209E+04  0.14542939446E+04  0.25500000920E-02 0.  1.
       -2    1    3    3    0  502 -0.80304827912E+03 -0.62835943852E+03 -0.16948112730E+04  0.19779047939E+04  0.25500000920E-02 0. -1.
</event>
<event>
 5   0  0.4125758E-07  0.2972566E+04  0.7818609E-02  0.8251608E-01
       -1   -1    0    0    0  501  0.00000000000E+00  0.00000000000E+00  0.10495163252E+04  0.10495163252E+04  0.50400001928E-02 0. -1.
        1   -1    0    0  501    0  0.00000000000E+00  0.00000000000E+00 -0.21048144474E+04  0.21048144474E+04  0.50400001928E-02 0.  1.
    10030    2    1    2    0    0  0.00000000000E+00  0.00000000000E+00 -0.10552981223E+04  0.31543307726E+04  0.29725659785E+04 0.  0.
        2    1    3    3  502    0 -0.75711401297E+03  0.11842147768E+04 -0.14937079001E+02  0.14056348681E+04  0.25500000920E-02 0. -1.
       -2    1    3    3    0  502  0.75711401297E+03 -0.11842147768E+04 -0.10403610433E+04  0.17486959045E+04  0.25500000920E-02 0.  1.
</event>
<event>
 5   0  0.4125758E-07  0.3392785E+04  0.7818609E-02  0.8139679E-01
       -1   -1    0    0    0  501  0.00000000000E+00  0.00000000000E+00  0.13372002740E+04  0.13372002741E+04  0.50400001928E-02 0. -1.
        1   -1    0    0  501    0  0.00000000000E+00  0.00000000000E+00 -0.21520686024E+04  0.21520686024E+04  0.50400001928E-02 0.  1.
    10030    2    1    2    0    0  0.00000000000E+00  0.00000000000E+00 -0.81486832839E+03  0.34892688765E+04  0.33927845349E+04 0.  0.
        2    1    3    3  502    0  0.73960932553E+03 -0.38004304801E+03 -0.19280945934E+04  0.20997627089E+04  0.25500000920E-02 0.  1.
       -2    1    3    3    0  502 -0.73960932553E+03  0.38004304801E+03  0.11132262650E+04  0.13895061676E+04  0.25500000920E-02 0. -1.
</event>
<event>
 5   0  0.1300176E-06  0.3411718E+04  0.7818609E-02  0.8135036E-01
        2   -1    0    0  501    0  0.00000000000E+00  0.00000000000E+00  0.22017799898E+04  0.22017799898E+04  0.25500000920E-02 0.  1.
       -2   -1    0    0    0  501  0.00000000000E+00  0.00000000000E+00 -0.13216371165E+04  0.13216371165E+04  0.25500000920E-02 0. -1.
    10030    2    1    2    0    0  0.00000000000E+00  0.00000000000E+00  0.88014287327E+03  0.35234171063E+04  0.34117175480E+04 0.  0.
        1    1    3    3  502    0 -0.58075675641E+03  0.23565282508E+03  0.20785658922E+04  0.21710013432E+04  0.50400001928E-02 0.  1.
       -1    1    3    3    0  502  0.58075675641E+03 -0.23565282508E+03 -0.11984230189E+04  0.13524157631E+04  0.50400001928E-02 0. -1.
</event>
<event>
 5   0  0.4109937E-07  0.2914334E+04  0.7818609E-02  0.8268626E-01
        1   -1    0    0  501    0  0.00000000000E+00  0.00000000000E+00  0.19662699553E+04  0.19662699553E+04  0.50400001928E-02 0.  1.
       -1   -1    0    0    0  501  0.00000000000E+00  0.00000000000E+00 -0.10798796848E+04  0.10798796848E+04  0.50400001928E-02 0. -1.
    10030    2    1    2    0    0  0.00000000000E+00  0.00000000000E+00  0.88639027046E+03  0.30461496401E+04  0.29143335290E+04 0.  0.
        5    1    3    3  502    0 -0.11066402714E+04  0.90176659546E+03  0.74878373009E+03  0.16119971611E+04  0.46999998093E+01 0.  1.
       -5    1    3    3    0  502  0.11066402714E+04 -0.90176659546E+03  0.13760654038E+03  0.14341524790E+04  0.46999998093E+01 0. -1.
</event>
<event>
 5   0  0.4125758E-07  0.3201276E+04  0.7818609E-02  0.8188480E-01
       -1   -1    0    0    0  501  0.00000000000E+00  0.00000000000E+00  0.14425333064E+04  0.14425333065E+04  0.50400001928E-02 0. -1.
        1   -1    0    0  501    0  0.00000000000E+00  0.00000000000E+00 -0.17760713830E+04  0.17760713830E+04  0.50400001928E-02 0.  1.
    10030    2    1    2    0    0  0.00000000000E+00  0.00000000000E+00 -0.33353807651E+03  0.32186046894E+04  0.32012760734E+04 0.  0.
        2    1    3    3  502    0 -0.71935128461E+03  0.14246938233E+04 -0.28917931953E+03  0.16219874967E+04  0.25500000920E-02 0.  1.
       -2    1    3    3    0  502  0.71935128461E+03 -0.14246938233E+04 -0.44358756989E+02  0.15966171927E+04  0.25500000920E-02 0. -1.
</event>
<event>
 5   0  0.4272633E-07  0.3425064E+04  0.7818609E-02  0.8131782E-01
       -1   -1    0    0    0  501  0.00000000000E+00  0.00000000000E+00  0.11293283570E+04  0.11293283570E+04  0.50400001928E-02 0.  1.
        1   -1    0    0  501    0  0.00000000000E+00  0.00000000000E+00 -0.25969113688E+04  0.25969113688E+04  0.50400001928E-02 0. -1.
    10030    2    1    2    0    0  0.00000000000E+00  0.00000000000E+00 -0.14675830118E+04  0.37262397258E+04  0.34250638823E+04 0.  0.
        1    1    3    3  502    0  0.27164700260E+03 -0.12196295718E+03  0.11009481133E+04  0.11405059426E+04  0.50400001928E-02 0.  1.
       -1    1    3    3    0  502 -0.27164700260E+03  0.12196295718E+03 -0.25685311251E+04  0.25857337832E+04  0.50400001928E-02 0. -1.
</event>
<event>
 5   0  0.1269497E-06  0.3410723E+04  0.7818609E-02  0.8135280E-01
       -2   -1    0    0    0  501  0.00000000000E+00  0.00000000000E+00  0.19617512472E+04  0.19617512472E+04  0.25500000920E-02 0. -1.
        2   -1    0    0  501    0  0.00000000000E+00  0.00000000000E+00 -0.14824801750E+04  0.14824801750E+04  0.25500000920E-02 0.  1.
    10030    2    1    2    0    0  0.00000000000E+00  0.00000000000E+00  0.47927107222E+03  0.34442314222E+04  0.34107226990E+04 0.  0.
        5    1    3    3  502    0  0.45800425055E+02  0.11052037792E+04 -0.10710615226E+04  0.15397298294E+04  0.46999998093E+01 0.  1.
       -5    1    3    3    0  502 -0.45800425055E+02 -0.11052037792E+04  0.15503325948E+04  0.19045015928E+04  0.46999998093E+01 0. -1.
</event>
<event>
 5   0  0.1269497E-06  0.3397963E+04  0.7818609E-02  0.8138407E-01
        2   -1    0    0  501    0  0.00000000000E+00  0.00000000000E+00  0.22382243888E+04  0.22382243888E+04  0.25500000920E-02 0. -1.
       -2   -1    0    0    0  501  0.00000000000E+00  0.00000000000E+00 -0.12896551550E+04  0.12896551550E+04  0.25500000920E-02 0.  1.
    10030    2    1    2    0    0  0.00000000000E+00  0.00000000000E+00  0.94856923377E+03  0.35278795438E+04  0.33979626961E+04 0.  0.
        5    1    3    3  502    0 -0.32230432441E+03  0.96091722690E+02 -0.12547414494E+04  0.12990426827E+04  0.46999998093E+01 0.  1.
       -5    1    3    3    0  502  0.32230432441E+03 -0.96091722690E+02  0.22033106832E+04  0.22288368611E+04  0.46999998093E+01 0. -1.
</event>
<event>
 5   0  0.1277635E-06  0.3389766E+04  0.7818609E-02  0.8140423E-01
       -2   -1    0    0    0  501  0.00000000000E+00  0.00000000000E+00  0.19544255402E+04  0.19544255402E+04  0.25500000920E-02 0.  1.
        2   -1    0    0  501    0  0.00000000000E+00  0.00000000000E+00 -0.14698071666E+04  0.14698071666E+04  0.25500000920E-02 0. -1.
    10030    2    1    2    0    0  0.00000000000E+00  0.00000000000E+00  0.48461837356E+03  0.34242327068E+04  0.33897661663E+04 0.  0.
        4    1    3    3  502    0  0.57817239518E+03 -0.44308419060E+03  0.17882356898E+04  0.19309053352E+04  0.12699999809E+01 0.  1.
       -4    1    3    3    0  502 -0.57817239518E+03  0.44308419060E+03 -0.13036173162E+04  0.14933273715E+04  0.12699999809E+01 0. -1.
</event>
<event>
 5   0  0.4109937E-07  0.3420561E+04  0.7818609E-02  0.8132878E-01
       -1   -1    0    0    0  501  0.00000000000E+00  0.00000000000E+00  0.23805442090E+04  0.23805442090E+04  0.50400001928E-02 0. -1.
        1   -1    0    0  501    0  0.00000000000E+00  0.00000000000E+00 -0.12287359457E+04  0.12287359457E+04  0.50400001928E-02 0.  1.
    10030    2    1    2    0    0  0.00000000000E+00  0.00000000000E+00  0.11518082633E+04  0.36092801547E+04  0.34205614978E+04 0.  0.
        5    1    3    3  502    0 -0.88811724849E+02 -0.27617042421E+03  0.23543869561E+04  0.23721967994E+04  0.46999998093E+01 0. -1.
       -5    1    3    3    0  502  0.88811724849E+02  0.27617042421E+03 -0.12025786929E+04  0.12370833554E+04  0.46999998093E+01 0.  1.
</event>
<event>
 5   0  0.1268230E-06  0.3032737E+04  0.7818609E-02  0.8234444E-01
       -2   -1    0    0    0  501  0.00000000000E+00  0.00000000000E+00  0.10856361675E+04  0.10856361675E+04  0.25500000920E-02 0.  1.
        2   -1    0    0  501    0  0.00000000000E+00  0.00000000000E+00 -0.21179958518E+04  0.21179958518E+04  0.25500000920E-02 0. -1.
    10030    2    1    2    0    0  0.00000000000E+00  0.00000000000E+00 -0.10323596842E+04  0.32036320193E+04  0.30327366516E+04 0.  0.
        2    1    3    3  502    0 -0.13613333351E+03 -0.62268923033E+03  0.93725162552E+03  0.11334525890E+04  0.25500000920E-02 0.  1.
       -2    1    3    3    0  502  0.13613333351E+03  0.62268923033E+03 -0.19696113098E+04  0.20701794303E+04  0.25500000920E-02 0. -1.
</event>
<event>
 5   0  0.4125758E-07  0.3004448E+04  0.7818609E-02  0.8242462E-01
        1   -1    0    0  501    0  0.00000000000E+00  0.00000000000E+00  0.15450670574E+04  0.15450670574E+04  0.50400001928E-02 0.  1.
       -1   -1    0    0    0  501  0.00000000000E+00  0.00000000000E+00 -0.14605687479E+04  0.14605687479E+04  0.50400001928E-02 0. -1.
    10030    2    1    2    0    0  0.00000000000E+00  0.00000000000E+00  0.84498309494E+02  0.30056358054E+04  0.30044478079E+04 0.  0.
        2    1    3    3  502    0  0.11288770248E+04  0.54661509754E+03 -0.78483361741E+03  0.14795658853E+04  0.25500000920E-02 0.  1.
       -2    1    3    3    0  502 -0.11288770248E+04 -0.54661509754E+03  0.86933192691E+03  0.15260699201E+04  0.25500000920E-02 0. -1.
</event>
<event>
 5   0  0.1268230E-06  0.3407856E+04  0.7818609E-02  0.8135981E-01
       -2   -1    0    0    0  501  0.00000000000E+00  0.00000000000E+00  0.14431846237E+04  0.14431846237E+04  0.25500000920E-02 0. -1.
        2   -1    0    0  501    0  0.00000000000E+00  0.00000000000E+00 -0.20117803231E+04  0.20117803231E+04  0.25500000920E-02 0.  1.
    10030    2    1    2    0    0  0.00000000000E+00  0.00000000000E+00 -0.56859569938E+03  0.34549649469E+04  0.34078558823E+04 0.  0.
        2    1    3    3  502    0  0.38496783627E+03  0.16594435090E+04 -0.32246711912E+03  0.17337641240E+04  0.25500000920E-02 0.  1.
       -2    1    3    3    0  502 -0.38496783627E+03 -0.16594435090E+04 -0.24612858025E+03  0.17212008229E+04  0.25500000920E-02 0. -1.
</event>
<event>
 5   0  0.4109937E-07  0.3336921E+04  0.7818609E-02  0.8153564E-01
       -1   -1    0    0    0  501  0.00000000000E+00  0.00000000000E+00  0.13309665979E+04  0.13309665979E+04  0.50400001928E-02 0.  1.
        1   -1    0    0  501    0  0.00000000000E+00  0.00000000000E+00 -0.20915325870E+04  0.20915325870E+04  0.50400001928E-02 0. -1.
    10030    2    1    2    0    0  0.00000000000E+00  0.00000000000E+00 -0.76056598907E+03  0.34224991849E+04  0.33369207433E+04 0.  0.
        5    1    3    3  502    0 -0.49674407029E+03  0.10004330765E+04 -0.16514704450E+04  0.19937396351E+04  0.46999998093E+01 0. -1.
       -5    1    3    3    0  502  0.49674407029E+03 -0.10004330765E+04  0.89090445589E+03  0.14287595499E+04  0.46999998093E+01 0.  1.
</event>
<event>
 5   0  0.1277635E-06  0.3401356E+04  0.7818609E-02  0.8137574E-01
       -2   -1    0    0    0  501  0.00000000000E+00  0.00000000000E+00  0.14038649523E+04  0.14038649523E+04  0.25500000920E-02 0.  1.
        2   -1    0    0  501    0  0.00000000000E+00  0.00000000000E+00 -0.20602446256E+04  0.20602446256E+04  0.25500000920E-02 0. -1.
    10030    2    1    2    0    0  0.00000000000E+00  0.00000000000E+00 -0.65637967330E+03  0.34641095779E+04  0.34013557432E+04 0.  0.
        4    1    3    3  502    0  0.10998891469E+04  0.57531979099E+03 -0.15122025462E+04  0.19564015823E+04  0.12699999809E+01 0. -1.
       -4    1    3    3    0  502 -0.10998891469E+04 -0.57531979099E+03  0.85582287290E+03  0.15077079956E+04  0.12699999809E+01 0.  1.
</event>
<event>
 5   0  0.4272633E-07  0.3420743E+04  0.7818609E-02  0.8132834E-01
        1   -1    0    0  501    0  0.00000000000E+00  0.00000000000E+00  0.16379376547E+04  0.16379376547E+04  0.50400001928E-02 0. -1.
       -1   -1    0    0    0  501  0.00000000000E+00  0.00000000000E+00 -0.17860085782E+04  0.17860085782E+04  0.50400001928E-02 0.  1.
    10030    2    1    2    0    0  0.00000000000E+00  0.00000000000E+00 -0.14807092344E+03  0.34239462329E+04  0.34207430198E+04 0.  0.
        1    1    3    3  502    0  0.13340303995E+04 -0.55275032456E+03 -0.99151840583E+03  0.17516503011E+04  0.50400001928E-02 0.  1.
       -1    1    3    3    0  502 -0.13340303995E+04  0.55275032456E+03  0.84344748239E+03  0.16722959319E+04  0.50400001928E-02 0. -1.
</event>
<event>
 5   0  0.4109937E-07  0.3462368E+04  0.7818609E-02  0.8122767E-01
        1   -1    0    0  501    0  0.00000000000E+00  0.00000000000E+00  0.25464871971E+04  0.25464871971E+04  0.50400001928E-02 0.  1.
       -1   -1    0    0    0  501  0.00000000000E+00  0.00000000000E+00 -0.11769146113E+04  0.11769146113E+04  0.50400001928E-02 0. -1.
    10030    2    1    2    0    0  0.00000000000E+00  0.00000000000E+00  0.13695725858E+04  0.37234018083E+04  0.34623679698E+04 0.  0.
        5    1    3    3  502    0 -0.67098301216E+03  0.12526525139E+04  0.17480759373E+04  0.22528089346E+04  0.46999998093E+01 0.  1.
       -5    1    3    3    0  502  0.67098301216E+03 -0.12526525139E+04 -0.37850335151E+03  0.14705928737E+04  0.46999998093E+01 0. -1.
</event>
<event>
 5   0  0.4272633E-07  0.3366729E+04  0.7818609E-02  0.8146121E-01
        1   -1    0    0  501    0  0.00000000000E+00  0.00000000000E+00  0.11183660907E+04  0.11183660907E+04  0.50400001928E-02 0. -1.
       -1   -1    0    0    0  501  0.00000000000E+00  0.00000000000E+00 -0.25338005309E+04  0.25338005309E+04  0.50400001928E-02 0.  1.
    10030    2    1    2    0    0  0.00000000000E+00  0.00000000000E+00 -0.14154344402E+04  0.36521666217E+04  0.33667293295E+04 0.  0.
        1    1    3    3  502    0 -0.69864256211E+03  0.12552457740E+04  0.24415836703E+03  0.14571742143E+04  0.50400001928E-02 0. -1.
       -1    1    3    3    0  502  0.69864256211E+03 -0.12552457740E+04 -0.16595928072E+04  0.21949924073E+04  0.50400001928E-02 0.  1.
</event>
<event>
 5   0  0.1268230E-06  0.3371615E+04  0.7818609E-02  0.8144908E-01
        2   -1    0    0  501    0  0.00000000000E+00  0.00000000000E+00  0.11143376666E+04  0.11143376666E+04  0.25500000920E-02 0. -1.
       -2   -1    0    0    0  501  0.00000000000E+00  0.00000000000E+00 -0.25503465428E+04  0.25503465428E+04  0.25500000920E-02 0.  1.
    10030    2    1    2    0    0  0.00000000000E+00  0.00000000000E+00 -0.14360088762E+04  0.36646842094E+04  0.33716151711E+04 0.  0.
        2    1    3    3  502    0 -0.16017739570E+04 -0.40660373645E+03 -0.10800341540E+04  0.19742036829E+04  0.25500000920E-02 0. -1.
       -2    1    3    3    0  502  0.16017739570E+04  0.40660373645E+03 -0.35597472224E+03  0.16904805265E+04  0.25500000920E-02 0.  1.
</event>
<event>
 5   0  0.1256208E-06  0.3416077E+04  0.7818609E-02  0.8133972E-01
        2   -1    0    0  501    0  0.00000000000E+00  0.00000000000E+00  0.15391637907E+04  0.15391637907E+04  0.25500000920E-02 0. -1.
       -2   -1    0    0    0  501  0.00000000000E+00  0.00000000000E+00 -0.18954415133E+04  0.18954415133E+04  0.25500000920E-02 0.  1.
    10030    2    1    2    0    0  0.00000000000E+00  0.00000000000E+00 -0.35627772265E+03  0.34346053040E+04  0.34160766646E+04 0.  0.
        3    1    3    3  502    0  0.96541755749E+03  0.13950924821E+04  0.20622139589E+02  0.16966848195E+04  0.10100000352E+00 0.  1.
       -3    1    3    3    0  502 -0.96541755749E+03 -0.13950924821E+04 -0.37689986224E+03  0.17379204845E+04  0.10100000352E+00 0. -1.
</event>
<event>
 5   0  0.4109937E-07  0.3428379E+04  0.7818609E-02  0.8130976E-01
       -1   -1    0    0    0  501  0.00000000000E+00  0.00000000000E+00  0.31109309239E+04  0.31109309239E+04  0.50400001928E-02 0.  1.
        1   -1    0    0  501    0  0.00000000000E+00  0.00000000000E+00 -0.94455486481E+03  0.94455486482E+03  0.50400001928E-02 0. -1.
    10030    2    1    2    0    0  0.00000000000E+00  0.00000000000E+00  0.21663760591E+04  0.40554857887E+04  0.34283785895E+04 0.  0.
        5    1    3    3  502    0  0.75195060638E+03  0.15160143946E+04  0.75989563813E+03  0.18550452366E+04  0.46999998093E+01 0.  1.
       -5    1    3    3    0  502 -0.75195060638E+03 -0.15160143946E+04  0.14064804209E+04  0.22004405521E+04  0.46999998093E+01 0. -1.
</event>
<event>
 5   0  0.1269497E-06  0.3439443E+04  0.7818609E-02  0.8128293E-01
       -2   -1    0    0    0  501  0.00000000000E+00  0.00000000000E+00  0.99824296133E+03  0.99824296133E+03  0.25500000920E-02 0. -1.
        2   -1    0    0  501    0  0.00000000000E+00  0.00000000000E+00 -0.29626470960E+04  0.29626470960E+04  0.25500000920E-02 0.  1.
    10030    2    1    2    0    0  0.00000000000E+00  0.00000000000E+00 -0.19644041346E+04  0.39608900573E+04  0.34394427516E+04 0.  0.
        5    1    3    3  502    0 -0.15236513151E+04 -0.43400090714E+02 -0.18991761897E+04  0.24352185092E+04  0.46999998093E+01 0.  1.
       -5    1    3    3    0  502  0.15236513151E+04  0.43400090714E+02 -0.65227944900E+02  0.15256715481E+04  0.46999998093E+01 0. -1.
</event>
<event>
 5   0  0.1269497E-06  0.3703463E+04  0.7818609E-02  0.8067195E-01
        2   -1    0    0  501    0  0.00000000000E+00  0.00000000000E+00  0.21045544365E+04  0.21045544366E+04  0.25500000920E-02 0. -1.
       -2   -1    0    0    0  501  0.00000000000E+00  0.00000000000E+00 -0.16292809263E+04  0.16292809263E+04  0.25500000920E-02 0.  1.
    10030    2    1    2    0    0  0.00000000000E+00  0.00000000000E+00  0.47527351028E+03  0.37338353628E+04  0.37034634610E+04 0.  0.
        5    1    3    3  502    0  0.12623739467E+04 -0.40054192190E+03 -0.10671429660E+04  0.17008345047E+04  0.46999998093E+01 0.  1.
       -5    1    3    3    0  502 -0.12623739467E+04  0.40054192190E+03  0.15424164763E+04  0.20330008581E+04  0.46999998093E+01 0. -1.
</event>
<event>
 5   0  0.1269497E-06  0.3335045E+04  0.7818609E-02  0.8154035E-01
        2   -1    0    0  501    0  0.00000000000E+00  0.00000000000E+00  0.21801438738E+04  0.21801438738E+04  0.25500000920E-02 0.  1.
       -2   -1    0    0    0  501  0.00000000000E+00  0.00000000000E+00 -0.12754350431E+04  0.12754350431E+04  0.25500000920E-02 0. -1.
    10030    2    1    2    0    0  0.00000000000E+00  0.00000000000E+00  0.90470883070E+03  0.34555789169E+04  0.33350453644E+04 0.  0.
        5    1    3    3  502    0 -0.84306606229E+03  0.81237233150E+03 -0.77795208879E+03  0.14056815901E+04  0.46999998093E+01 0. -1.
       -5    1    3    3    0  502  0.84306606229E+03 -0.81237233150E+03  0.16826609195E+04  0.20498973268E+04  0.46999998093E+01 0.  1.
</event>
<event>
 5   0  0.4272633E-07  0.3398411E+04  0.7818609E-02  0.8138296E-01
        1   -1    0    0  501    0  0.00000000000E+00  0.00000000000E+00  0.21425639365E+04  0.21425639365E+04  0.50400001928E-02 0. -1.
       -1   -1    0    0    0  501  0.00000000000E+00  0.00000000000E+00 -0.13475908374E+04  0.13475908374E+04  0.50400001928E-02 0.  1.
    10030    2    1    2    0    0  0.00000000000E+00  0.00000000000E+00  0.79497309914E+03  0.34901547740E+04  0.33984111167E+04 0.  0.
        1    1    3    3  502    0  0.10157383081E+04  0.37756493542E+03 -0.94667039391E+03  0.14389108470E+04  0.50400001928E-02 0.  1.
       -1    1    3    3    0  502 -0.10157383081E+04 -0.37756493542E+03  0.17416434930E+04  0.20512439269E+04  0.50400001928E-02 0. -1.
</event>
<event>
 5   0  0.1277635E-06  0.3422806E+04  0.7818609E-02  0.8132331E-01
       -2   -1    0    0    0  501  0.00000000000E+00  0.00000000000E+00  0.11944711205E+04  0.11944711205E+04  0.25500000920E-02 0. -1.
        2   -1    0    0  501    0  0.00000000000E+00  0.00000000000E+00 -0.24520484022E+04  0.24520484022E+04  0.25500000920E-02 0.  1.
    10030    2    1    2    0    0  0.00000000000E+00  0.00000000000E+00 -0.12575772817E+04  0.36465195226E+04  0.34228064522E+04 0.  0.
        4    1    3    3  502    0 -0.69752636274E+03  0.30571342549E+03 -0.22615701150E+04  0.23863580459E+04  0.12699999809E+01 0.  1.
       -4    1    3    3    0  502  0.69752636274E+03 -0.30571342549E+03  0.10039928333E+04  0.12601614767E+04  0.12699999809E+01 0. -1.
</event>
<event>
 5   0  0.4272633E-07  0.3377264E+04  0.7818609E-02  0.8143509E-01
        1   -1    0    0  501    0  0.00000000000E+00  0.00000000000E+00  0.16227820318E+04  0.16227820318E+04  0.50400001928E-02 0.  1.
       -1   -1    0    0    0  501  0.00000000000E+00  0.00000000000E+00 -0.17571539704E+04  0.17571539704E+04  0.50400001928E-02 0. -1.
    10030    2    1    2    0    0  0.00000000000E+00  0.00000000000E+00 -0.13437193861E+03  0.33799360022E+04  0.33772639164E+04 0.  0.
        1    1    3    3  502    0  0.12186218965E+04  0.30108852300E+03  0.10632138982E+04  0.16450280906E+04  0.50400001928E-02 0.  1.
       -1    1    3    3    0  502 -0.12186218965E+04 -0.30108852300E+03 -0.11975858368E+04  0.17349079117E+04  0.50400001928E-02 0. -1.
</event>
<event>
 5   0  0.4464951E-07  0.3416921E+04  0.7818609E-02  0.8133766E-01
        1   -1    0    0  501    0  0.00000000000E+00  0.00000000000E+00  0.18342279473E+04  0.18342279473E+04  0.50400001928E-02 0. -1.
       -1   -1    0    0    0  501  0.00000000000E+00  0.00000000000E+00 -0.15913161924E+04  0.15913161924E+04  0.50400001928E-02 0.  1.
    10030    2    1    2    0    0  0.00000000000E+00  0.00000000000E+00  0.24291175491E+03  0.34255441398E+04  0.34169206214E+04 0.  0.
        3    1    3    3  502    0 -0.27518600879E+02 -0.10569865514E+04  0.14668034732E+04  0.18081731893E+04  0.10100000352E+00 0. -1.
       -3    1    3    3    0  502  0.27518600879E+02  0.10569865514E+04 -0.12238917182E+04  0.16173709505E+04  0.10100000352E+00 0.  1.
</event>
<event>
 5   0  0.4125758E-07  0.3353020E+04  0.7818609E-02  0.8149534E-01
        1   -1    0    0  501    0  0.00000000000E+00  0.00000000000E+00  0.28095308603E+04  0.28095308604E+04  0.50400001928E-02 0. -1.
       -1   -1    0    0    0  501  0.00000000000E+00  0.00000000000E+00 -0.10004108080E+04  0.10004108080E+04  0.50400001928E-02 0.  1.
    10030    2    1    2    0    0  0.00000000000E+00  0.00000000000E+00  0.18091200524E+04  0.38099416683E+04  0.33530195574E+04 0.  0.
        2    1    3    3  502    0  0.12331840586E+04  0.67195424083E+03  0.19449902382E+04  0.23990107234E+04  0.25500000920E-02 0. -1.
       -2    1    3    3    0  502 -0.12331840586E+04 -0.67195424083E+03 -0.13587018582E+03  0.14109309450E+04  0.25500000920E-02 0.  1.
</event>
<event>
 5   0  0.1277635E-06  0.3431826E+04  0.7818609E-02  0.8130139E-01
       -2   -1    0    0    0  501  0.00000000000E+00  0.00000000000E+00  0.13114829790E+04  0.13114829790E+04  0.25500000920E-02 0. -1.
        2   -1    0    0  501    0  0.00000000000E+00  0.00000000000E+00 -0.22450589295E+04  0.22450589295E+04  0.25500000920E-02 0.  1.
    10030    2    1    2    0    0  0.00000000000E+00  0.00000000000E+00 -0.93357595050E+03  0.35565419086E+04  0.34318255043E+04 0.  0.
        4    1    3    3  502    0 -0.10359385476E+04 -0.33525816832E+03 -0.18411764684E+04  0.21390416346E+04  0.12699999809E+01 0.  1.
       -4    1    3    3    0  502  0.10359385476E+04  0.33525816832E+03  0.90760051791E+03  0.14175002740E+04  0.12699999809E+01 0. -1.
</event>
<event>
 5   0  0.4289684E-07  0.3424905E+04  0.7818609E-02  0.8131821E-01
        1   -1    0    0  501    0  0.00000000000E+00  0.00000000000E+00  0.21587223205E+04  0.21587223205E+04  0.50400001928E-02 0.  1.
       -1   -1    0    0    0  501  0.00000000000E+00  0.00000000000E+00 -0.13584391889E+04  0.13584391889E+04  0.50400001928E-02 0. -1.
    10030    2    1    2    0    0  0.00000000000E+00  0.00000000000E+00  0.80028313161E+03  0.35171615094E+04  0.34249046691E+04 0.  0.
        4    1    3    3  502    0 -0.11270521766E+04  0.12265867502E+04  0.80799168282E+03  0.18513816022E+04  0.12699999809E+01 0. -1.
       -4    1    3    3    0  502  0.11270521766E+04 -0.12265867502E+04 -0.77085512131E+01  0.16657799072E+04  0.12699999809E+01 0.  1.
</event>
<event>
 5   0  0.4464951E-07  0.3265402E+04  0.7818609E-02  0.8171755E-01
        1   -1    0    0  501    0  0.00000000000E+00  0.00000000000E+00  0.19062245849E+04  0.19062245849E+04  0.50400001928E-02 0. -1.
       -1   -1    0    0    0  501  0.00000000000E+00  0.00000000000E+00 -0.13984251175E+04  0.13984251175E+04  0.50400001928E-02 0.  1.
    10030    2    1    2    0    0  0.00000000000E+00  0.00000000000E+00  0.50779946743E+03  0.33046497024E+04  0.32654018676E+04 0.  0.
        3    1    3    3  502    0 -0.13824797460E+04  0.58692584225E+03 -0.39409309789E+03  0.15527529013E+04  0.10100000352E+00 0. -1.
       -3    1    3    3    0  502  0.13824797460E+04 -0.58692584225E+03  0.90189256533E+03  0.17518968012E+04  0.10100000352E+00 0.  1.
</event>
<event>
 5   0  0.1300176E-06  0.3513039E+04  0.7818609E-02  0.8110707E-01
        2   -1    0    0  501    0  0.00000000000E+00  0.00000000000E+00  0.20988253315E+04  0.20988253315E+04  0.25500000920E-02 0.  1.
       -2   -1    0    0    0  501  0.00000000000E+00  0.00000000000E+00 -0.14700415434E+04  0.14700415434E+04  0.25500000920E-02 0. -1.
    10030    2    1    2    0    0  0.00000000000E+00  0.00000000000E+00  0.62878378815E+03  0.35688668749E+04  0.35130388154E+04 0.  0.
        1    1    3    3  502    0  0.21843926262E+03  0.51506457928E+03 -0.13771068483E+04  0.14864153202E+04  0.50400001928E-02 0. -1.
       -1    1    3    3    0  502 -0.21843926262E+03 -0.51506457928E+03  0.20058906365E+04  0.20824515547E+04  0.50400001928E-02 0.  1.
</event>
<event>
 5   0  0.1269497E-06  0.3364925E+04  0.7818609E-02  0.8146569E-01
        2   -1    0    0  501    0  0.00000000000E+00  0.00000000000E+00  0.14407217045E+04  0.14407217045E+04  0.25500000920E-02 0.  1.
       -2   -1    0    0    0  501  0.00000000000E+00  0.00000000000E+00 -0.19647649248E+04  0.19647649248E+04  0.25500000920E-02 0. -1.
    10030    2    1    2    0    0  0.00000000000E+00  0.00000000000E+00 -0.52404322029E+03  0.34054866292E+04  0.33649246478E+04 0.  0.
        5    1    3    3  502    0  0.15794121162E+04 -0.35054341703E+03 -0.72936071849E+03  0.17746584087E+04  0.46999998093E+01 0. -1.
       -5    1    3    3    0  502 -0.15794121162E+04  0.35054341703E+03  0.20531749820E+03  0.16308282205E+04  0.46999998093E+01 0.  1.
</event>
<event>
 5   0  0.4289684E-07  0.3381529E+04  0.7818609E-02  0.8142455E-01
        1   -1    0    0  501    0  0.00000000000E+00  0.00000000000E+00  0.13672542813E+04  0.13672542813E+04  0.50400001928E-02 0.  1.
       -1   -1    0    0    0  501  0.00000000000E+00  0.00000000000E+00 -0.20908215781E+04  0.20908215781E+04  0.50400001928E-02 0. -1.
    10030    2    1    2    0    0  0.00000000000E+00  0.00000000000E+00 -0.72356729680E+03  0.34580758594E+04  0.33815290944E+04 0.  0.
        4    1    3    3  502    0 -0.17006661381E+03 -0.49233950643E+03 -0.20067234553E+04  0.20732248989E+04  0.12699999809E+01 0. -1.
       -4    1    3    3    0  502  0.17006661381E+03  0.49233950643E+03  0.12831561585E+04  0.13848509605E+04  0.12699999809E+01 0.  1.
</event>
<event>
 5   0  0.1277635E-06  0.3398556E+04  0.7818609E-02  0.8138261E-01
       -2   -1    0    0    0  501  0.00000000000E+00  0.00000000000E+00  0.12358185584E+04  0.12358185584E+04  0.25500000920E-02 0.  1.
        2   -1    0    0  501    0  0.00000000000E+00  0.00000000000E+00 -0.23365456089E+04  0.23365456089E+04  0.25500000920E-02 0. -1.
    10030    2    1    2    0    0  0.00000000000E+00  0.00000000000E+00 -0.11007270505E+04  0.35723641673E+04  0.33985564147E+04 0.  0.
        4    1    3    3  502    0  0.44755694939E+02  0.13885509347E+04 -0.15789087324E+04  0.21031003706E+04  0.12699999809E+01 0.  1.
       -4    1    3    3    0  502 -0.44755694939E+02 -0.13885509347E+04  0.47818168193E+03  0.14692637967E+04  0.12699999809E+01 0. -1.
</event>
<event>
 5   0  0.1268230E-06  0.3382234E+04  0.7818609E-02  0.8142280E-01
        2   -1    0    0  501    0  0.00000000000E+00  0.00000000000E+00  0.24439847454E+04  0.24439847454E+04  0.25500000920E-02 0.  1.
       -2   -1    0    0    0  501  0.00000000000E+00  0.00000000000E+00 -0.11701698620E+04  0.11701698620E+04  0.25500000920E-02 0. -1.
    10030    2    1    2    0    0  0.00000000000E+00  0.00000000000E+00  0.12738148834E+04  0.36141546075E+04  0.33822343457E+04 0.  0.
        2    1    3    3  502    0 -0.26881913409E+03  0.16692836519E+04  0.60137599632E+03  0.17945541859E+04  0.25500000920E-02 0. -1.
       -2    1    3    3    0  502  0.26881913409E+03 -0.16692836519E+04  0.67243888704E+03  0.18196004215E+04  0.25500000920E-02 0.  1.
</event>
<event>
 5   0  0.4272633E-07  0.3386894E+04  0.7818609E-02  0.8141131E-01
        1   -1    0    0  501    0  0.00000000000E+00  0.00000000000E+00  0.22567590373E+04  0.22567590373E+04  0.50400001928E-02 0.  1.
       -1   -1    0    0    0  501  0.00000000000E+00  0.00000000000E+00 -0.12707435820E+04  0.12707435821E+04  0.50400001928E-02 0. -1.
    10030    2    1    2    0    0  0.00000000000E+00  0.00000000000E+00  0.98601545522E+03  0.35275026193E+04  0.33868935991E+04 0.  0.
        1    1    3    3  502    0  0.59319519511E+03 -0.67328519024E+03 -0.10027800839E+04  0.13456453409E+04  0.50400001928E-02 0. -1.
       -1    1    3    3    0  502 -0.59319519511E+03  0.67328519024E+03  0.19887955391E+04  0.21818572784E+04  0.50400001928E-02 0.  1.
</event>
<event>
 5   0  0.1268230E-06  0.3397520E+04  0.7818609E-02  0.8138515E-01
       -2   -1    0    0    0  501  0.00000000000E+00  0.00000000000E+00  0.10459904174E+04  0.10459904174E+04  0.25500000920E-02 0.  1.
        2   -1    0    0  501    0  0.00000000000E+00  0.00000000000E+00 -0.27589028926E+04  0.27589028926E+04  0.25500000920E-02 0. -1.
    10030    2    1    2    0    0  0.00000000000E+00  0.00000000000E+00 -0.17129124752E+04  0.38048933100E+04  0.33975202652E+04 0.  0.
        2    1    3    3  502    0 -0.56516765627E+03  0.14873955157E+04 -0.19011289825E+03  0.16024677263E+04  0.25500000920E-02 0.  1.
       -2    1    3    3    0  502  0.56516765627E+03 -0.14873955157E+04 -0.15227995770E+04  0.22024255837E+04  0.25500000920E-02 0. -1.
</event>
<event>
 5   0  0.4125758E-07  0.3386180E+04  0.7818609E-02  0.8141306E-01
        1   -1    0    0  501    0  0.00000000000E+00  0.00000000000E+00  0.28484968840E+04  0.28484968840E+04  0.50400001928E-02 0.  1.
       -1   -1    0    0    0  501  0.00000000000E+00  0.00000000000E+00 -0.10063392891E+04  0.10063392891E+04  0.50400001928E-02 0. -1.
    10030    2    1    2    0    0  0.00000000000E+00  0.00000000000E+00  0.18421575948E+04  0.38548361731E+04  0.33861803433E+04 0.  0.
        2    1    3    3  502    0 -0.37035975501E+03 -0.10007418722E+04  0.24175060434E+04  0.26425340325E+04  0.25500000920E-02 0.  1.
       -2    1    3    3    0  502  0.37035975501E+03  0.10007418722E+04 -0.57534844862E+03  0.12123021406E+04  0.25500000920E-02 0. -1.
</event>
<event>
 5   0  0.4272633E-07  0.3430998E+04  0.7818609E-02  0.8130340E-01
       -1   -1    0    0    0  501  0.00000000000E+00  0.00000000000E+00  0.15157112337E+04  0.15157112337E+04  0.50400001928E-02 0. -1.
        1   -1    0    0  501    0  0.00000000000E+00  0.00000000000E+00 -0.19416215988E+04  0.19416215988E+04  0.50400001928E-02 0.  1.
    10030    2    1    2    0    0  0.00000000000E+00  0.00000000000E+00 -0.42591036516E+03  0.34573328325E+04  0.34309984954E+04 0.  0.
        1    1    3    3  502    0 -0.11210366043E+03 -0.12049722097E+04 -0.14381875546E+04  0.18796033356E+04  0.50400001928E-02 0.  1.
       -1    1    3    3    0  502  0.11210366043E+03  0.12049722097E+04  0.10122771895E+04  0.15777294969E+04  0.50400001928E-02 0. -1.
</event>
<event>
 5   0  0.1300176E-06  0.3414345E+04  0.7818609E-02  0.8134394E-01
       -2   -1    0    0    0  501  0.00000000000E+00  0.00000000000E+00  0.16072317248E+04  0.16072317248E+04  0.25500000920E-02 0.  1.
        2   -1    0    0  501    0  0.00000000000E+00  0.00000000000E+00 -0.18133282731E+04  0.18133282731E+04  0.25500000920E-02 0. -1.
    10030    2    1    2    0    0  0.00000000000E+00  0.00000000000E+00 -0.20609654831E+03  0.34205599979E+04  0.34143454588E+04 0.  0.
        1    1    3    3  502    0 -0.48833823663E+03  0.12250787053E+04 -0.11890631836E+04  0.17757148764E+04  0.50400001928E-02 0. -1.
       -1    1    3    3    0  502  0.48833823663E+03 -0.12250787053E+04  0.98296663528E+03  0.16448451215E+04  0.50400001928E-02 0.  1.
</event>
<event>
 5   0  0.1268230E-06  0.3391988E+04  0.7818609E-02  0.8139876E-01
        2   -1    0    0  501    0  0.00000000000E+00  0.00000000000E+00  0.24742466125E+04  0.24742466125E+04  0.25500000920E-02 0.  1.
       -2   -1    0    0    0  501  0.00000000000E+00  0.00000000000E+00 -0.11625339637E+04  0.11625339637E+04  0.25500000920E-02 0. -1.
    10030    2    1    2    0    0  0.00000000000E+00  0.00000000000E+00  0.13117126488E+04  0.36367805762E+04  0.33919880434E+04 0.  0.
        2    1    3    3  502    0 -0.14540544129E+04 -0.85926554488E+03  0.82120744606E+03  0.18780290684E+04  0.25500000920E-02 0.  1.
       -2    1    3    3    0  502  0.14540544129E+04  0.85926554488E+03  0.49050520275E+03  0.17587515078E+04  0.25500000920E-02 0. -1.
</event>
<event>
 5   0  0.4272633E-07  0.3391566E+04  0.7818609E-02  0.8139979E-01
       -1   -1    0    0    0  501  0.00000000000E+00  0.00000000000E+00  0.13713721217E+04  0.13713721217E+04  0.50400001928E-02 0. -1.
        1   -1    0    0  501    0  0.00000000000E+00  0.00000000000E+00 -0.20969368151E+04  0.20969368151E+04  0.50400001928E-02 0.  1.
    10030    2    1    2    0    0  0.00000000000E+00  0.00000000000E+00 -0.72556469336E+03  0.34683089368E+04  0.33915664164E+04 0.  0.
        1    1    3    3  502    0  0.51064802934E+03 -0.14999438645E+04 -0.98067927935E+03  0.18634175204E+04  0.50400001928E-02 0.  1.
       -1    1    3    3    0  502 -0.51064802934E+03  0.14999438645E+04  0.25511458599E+03  0.16048914164E+04  0.50400001928E-02 0. -1.
</event>
<event>
 5   0  0.4125758E-07  0.3474825E+04  0.7818609E-02  0.8119782E-01
       -1   -1    0    0    0  501  0.00000000000E+00  0.00000000000E+00  0.13484909194E+04  0.13484909194E+04  0.50400001928E-02 0. -1.
        1   -1    0    0  501    0  0.00000000000E+00  0.00000000000E+00 -0.22385035693E+04  0.22385035693E+04  0.50400001928E-02 0.  1.
    10030    2    1    2    0    0  0.00000000000E+00  0.00000000000E+00 -0.89001264994E+03  0.35869944887E+04  0.34748247358E+04 0.  0.
        2    1    3    3  502    0  0.22214438413E+03 -0.77707830962E+03 -0.20326402421E+04  0.21874243257E+04  0.25500000920E-02 0.  1.
       -2    1    3    3    0  502 -0.22214438413E+03  0.77707830962E+03  0.11426275922E+04  0.13995701630E+04  0.25500000920E-02 0. -1.
</event>
<event>
 5   0  0.1300176E-06  0.3413642E+04  0.7818609E-02  0.8134566E-01
       -2   -1    0    0    0  501  0.00000000000E+00  0.00000000000E+00  0.20911382774E+04  0.20911382774E+04  0.25500000920E-02 0.  1.
        2   -1    0    0  501    0  0.00000000000E+00  0.00000000000E+00 -0.13931346380E+04  0.13931346380E+04  0.25500000920E-02 0. -1.
    10030    2    1    2    0    0  0.00000000000E+00  0.00000000000E+00  0.69800363944E+03  0.34842729154E+04  0.34136415553E+04 0.  0.
        1    1    3    3  502    0  0.14197902379E+03 -0.83366204076E+03 -0.11642690083E+04  0.14389832401E+04  0.50400001928E-02 0. -1.
       -1    1    3    3    0  502 -0.14197902379E+03  0.83366204076E+03  0.18622726478E+04  0.20452896753E+04  0.50400001928E-02 0.  1.
</event>
<event>
 5   0  0.4125758E-07  0.3370739E+04  0.7818609E-02  0.8145126E-01
        1   -1    0    0  501    0  0.00000000000E+00  0.00000000000E+00  0.23740611242E+04  0.23740611242E+04  0.50400001928E-02 0.  1.
       -1   -1    0    0    0  501  0.00000000000E+00  0.00000000000E+00 -0.11964602107E+04  0.11964602107E+04  0.50400001928E-02 0. -1.
    10030    2    1    2    0    0  0.00000000000E+00  0.00000000000E+00  0.11776009134E+04  0.35705213349E+04  0.33707385973E+04 0.  0.
        2    1    3    3  502    0  0.32432218498E+03  0.10289953862E+04  0.19603209049E+04  0.22376046198E+04  0.25500000920E-02 0.  1.
       -2    1    3    3    0  502 -0.32432218498E+03 -0.10289953862E+04 -0.78271999144E+03  0.13329167151E+04  0.25500000920E-02 0. -1.
</event>
<event>
 5   0  0.4464951E-07  0.3366053E+04  0.7818609E-02  0.8146289E-01
       -1   -1    0    0    0  501  0.00000000000E+00  0.00000000000E+00  0.13411395713E+04  0.13411395713E+04  0.50400001928E-02 0.  1.
        1   -1    0    0  501    0  0.00000000000E+00  0.00000000000E+00 -0.21120679183E+04  0.21120679183E+04  0.50400001928E-02 0. -1.
    10030    2    1    2    0    0  0.00000000000E+00  0.00000000000E+00 -0.77092834701E+03  0.34532074896E+04  0.33660527997E+04 0.  0.
        3    1    3    3  502    0  0.62507128618E+03 -0.13139258683E+04 -0.12532153354E+04  0.19203291352E+04  0.10100000352E+00 0. -1.
       -3    1    3    3    0  502 -0.62507128618E+03  0.13139258683E+04  0.48228698842E+03  0.15328783545E+04  0.10100000352E+00 0.  1.
</event>
<event>
 5   0  0.1277635E-06  0.3415763E+04  0.7818609E-02  0.8134048E-01
        2   -1    0    0  501    0  0.00000000000E+00  0.00000000000E+00  0.26934218369E+04  0.26934218369E+04  0.25500000920E-02 0.  1.
       -2   -1    0    0    0  501  0.00000000000E+00  0.00000000000E+00 -0.10829565518E+04  0.10829565518E+04  0.25500000920E-02 0. -1.
    10030    2    1    2    0    0  0.00000000000E+00  0.00000000000E+00  0.16104652851E+04  0.37763783887E+04  0.34157627699E+04 0.  0.
        4    1    3    3  502    0 -0.29136613829E+03 -0.27224868745E+03 -0.10307671280E+04  0.11052131285E+04  0.12699999809E+01 0. -1.
       -4    1    3    3    0  502  0.29136613829E+03  0.27224868745E+03  0.26412324131E+04  0.26711652602E+04  0.12699999809E+01 0.  1.
</event>
<event>
 5   0  0.1277635E-06  0.3386915E+04  0.7818609E-02  0.8141125E-01
        2   -1    0    0  501    0  0.00000000000E+00  0.00000000000E+00  0.22216052997E+04  0.22216052997E+04  0.25500000920E-02 0.  1.
       -2   -1    0    0    0  501  0.00000000000E+00  0.00000000000E+00 -0.12908673102E+04  0.12908673102E+04  0.25500000920E-02 0. -1.
    10030    2    1    2    0    0  0.00000000000E+00  0.00000000000E+00  0.93073798947E+03  0.35124726099E+04  0.33869146181E+04 0.  0.
        4    1    3    3  502    0  0.91062473731E+03  0.12693110609E+04 -0.21263156629E+03  0.15765791377E+04  0.12699999809E+01 0. -1.
       -4    1    3    3    0  502 -0.91062473731E+03 -0.12693110609E+04  0.11433695558E+04  0.19358934722E+04  0.12699999809E+01 0.  1.
</event>
<event>
 5   0  0.1277635E-06  0.3394488E+04  0.7818609E-02  0.8139261E-01
       -2   -1    0    0    0  501  0.00000000000E+00  0.00000000000E+00  0.17664817650E+04  0.17664817650E+04  0.25500000920E-02 0. -1.
        2   -1    0    0  501    0  0.00000000000E+00  0.00000000000E+00 -0.16307197853E+04  0.16307197853E+04  0.25500000920E-02 0.  1.
    10030    2    1    2    0    0  0.00000000000E+00  0.00000000000E+00  0.13576197967E+03  0.33972015503E+04  0.33944877461E+04 0.  0.
        4    1    3    3  502    0  0.79808350482E+03 -0.35615588355E+03 -0.13882223528E+04  0.16404106827E+04  0.12699999809E+01 0.  1.
       -4    1    3    3    0  502 -0.79808350482E+03  0.35615588355E+03  0.15239843325E+04  0.17567908676E+04  0.12699999809E+01 0. -1.
</event>
<event>
 5   0  0.1256208E-06  0.3341814E+04  0.7818609E-02  0.8152337E-01
       -2   -1    0    0    0  501  0.00000000000E+00  0.00000000000E+00  0.15191234000E+04  0.15191234000E+04  0.25500000920E-02 0.  1.
        2   -1    0    0  501    0  0.00000000000E+00  0.00000000000E+00 -0.18378561369E+04  0.18378561369E+04  0.25500000920E-02 0. -1.
    10030    2    1    2    0    0  0.00000000000E+00  0.00000000000E+00 -0.31873273691E+03  0.33569795368E+04  0.33418140363E+04 0.  0.
        3    1    3    3  502    0 -0.22702028417E+03 -0.96041197327E+03  0.11950851371E+04  0.15498896293E+04  0.10100000352E+00 0.  1.
       -3    1    3    3    0  502  0.22702028417E+03  0.96041197327E+03 -0.15138178741E+04  0.18070899075E+04  0.10100000352E+00 0. -1.
</event>
<event>
 5   0  0.4272633E-07  0.3229296E+04  0.7818609E-02  0.8181123E-01
        1   -1    0    0  501    0  0.00000000000E+00  0.00000000000E+00  0.16169483396E+04  0.16169483396E+04  0.50400001928E-02 0.  1.
       -1   -1    0    0    0  501  0.00000000000E+00  0.00000000000E+00 -0.16123506827E+04  0.16123506827E+04  0.50400001928E-02 0. -1.
    10030    2    1    2    0    0  0.00000000000E+00  0.00000000000E+00  0.45976568497E+01  0.32292990223E+04  0.32292957494E+04 0.  0.
        1    1    3    3  502    0  0.13074185234E+03  0.15904280139E+04 -0.24373609303E+03  0.16142992233E+04  0.50400001928E-02 0. -1.
       -1    1    3    3    0  502 -0.13074185234E+03 -0.15904280139E+04  0.24833374988E+03  0.16149997990E+04  0.50400001928E-02 0.  1.
</event>
<event>
 5   0  0.1268230E-06  0.3379964E+04  0.7818609E-02  0.8142841E-01
       -2   -1    0    0    0  501  0.00000000000E+00  0.00000000000E+00  0.23212146914E+04  0.23212146914E+04  0.25500000920E-02 0. -1.
        2   -1    0    0  501    0  0.00000000000E+00  0.00000000000E+00 -0.12304073925E+04  0.12304073925E+04  0.25500000920E-02 0.  1.
    10030    2    1    2    0    0  0.00000000000E+00  0.00000000000E+00  0.10908072989E+04  0.35516220840E+04  0.33799643288E+04 0.  0.
        2    1    3    3  502    0 -0.83655377353E+03 -0.46131665783E+03 -0.91945670863E+03  0.13259094667E+04  0.25500000920E-02 0.  1.
       -2    1    3    3    0  502  0.83655377353E+03  0.46131665783E+03  0.20102640075E+04  0.22257126173E+04  0.25500000920E-02 0. -1.
</event>
<event>
 5   0  0.1300176E-06  0.3327782E+04  0.7818609E-02  0.8155862E-01
       -2   -1    0    0    0  501  0.00000000000E+00  0.00000000000E+00  0.17646265107E+04  0.17646265107E+04  0.25500000920E-02 0. -1.
        2   -1    0    0  501    0  0.00000000000E+00  0.00000000000E+00 -0.15689063172E+04  0.15689063172E+04  0.25500000920E-02 0.  1.
    10030    2    1    2    0    0  0.00000000000E+00  0.00000000000E+00  0.19572019347E+03  0.33335328280E+04  0.33277822526E+04 0.  0.
        1    1    3    3  502    0 -0.44449042193E+03  0.12502622393E+03  0.16991625348E+04  0.17607829541E+04  0.50400001928E-02 0. -1.
       -1    1    3    3    0  502  0.44449042193E+03 -0.12502622393E+03 -0.15034423413E+04  0.15727498738E+04  0.50400001928E-02 0.  1.
</event>
<event>
 5   0  0.4125758E-07  0.3315773E+04  0.7818609E-02  0.8158894E-01
       -1   -1    0    0    0  501  0.00000000000E+00  0.00000000000E+00  0.13835997917E+04  0.13835997917E+04  0.50400001928E-02 0.  1.
        1   -1    0    0  501    0  0.00000000000E+00  0.00000000000E+00 -0.19865477903E+04  0.19865477903E+04  0.50400001928E-02 0. -1.
    10030    2    1    2    0    0  0.00000000000E+00  0.00000000000E+00 -0.60294799864E+03  0.33701475820E+04  0.33157726754E+04 0.  0.
        2    1    3    3  502    0  0.85869020387E+03  0.13756332648E+04  0.48957222736E+02  0.16223786719E+04  0.25500000920E-02 0.  1.
       -2    1    3    3    0  502 -0.85869020387E+03 -0.13756332648E+04 -0.65190522138E+03  0.17477689101E+04  0.25500000920E-02 0. -1.
</event>
<event>
 5   0  0.4125758E-07  0.3359239E+04  0.7818609E-02  0.8147983E-01
       -1   -1    0    0    0  501  0.00000000000E+00  0.00000000000E+00  0.25823804058E+04  0.25823804058E+04  0.50400001928E-02 0. -1.
        1   -1    0    0  501    0  0.00000000000E+00  0.00000000000E+00 -0.10924502342E+04  0.10924502342E+04  0.50400001928E-02 0.  1.
    10030    2    1    2    0    0  0.00000000000E+00  0.00000000000E+00  0.14899301716E+04  0.36748306401E+04  0.33592392467E+04 0.  0.
        2    1    3    3  502    0 -0.87989767033E+03 -0.55807315984E+03  0.21860954260E+04  0.24217098863E+04  0.25500000920E-02 0. -1.
       -2    1    3    3    0  502  0.87989767033E+03  0.55807315984E+03 -0.69616525439E+03  0.12531207537E+04  0.25500000920E-02 0.  1.
</event>
<event>
 5   0  0.1300176E-06  0.3405457E+04  0.7818609E-02  0.8136568E-01
       -2   -1    0    0    0  501  0.00000000000E+00  0.00000000000E+00  0.16463411915E+04  0.16463411915E+04  0.25500000920E-02 0. -1.
        2   -1    0    0  501    0  0.00000000000E+00  0.00000000000E+00 -0.17610470014E+04  0.17610470014E+04  0.25500000920E-02 0.  1.
    10030    2    1    2    0    0  0.00000000000E+00  0.00000000000E+00 -0.11470580985E+03  0.34073881929E+04  0.34054569259E+04 0.  0.
        1    1    3    3  502    0  0.97349416330E+03  0.13893781406E+04  0.88406458403E+02  0.16987872749E+04  0.50400001928E-02 0. -1.
       -1    1    3    3    0  502 -0.97349416330E+03 -0.13893781406E+04 -0.20311226825E+03  0.17086009180E+04  0.50400001928E-02 0.  1.
</event>
<event>
 5   0  0.1277635E-06  0.3422150E+04  0.7818609E-02  0.8132491E-01
       -2   -1    0    0    0  501  0.00000000000E+00  0.00000000000E+00  0.23907275864E+04  0.23907275864E+04  0.25500000920E-02 0.  1.
        2   -1    0    0  501    0  0.00000000000E+00  0.00000000000E+00 -0.12246389200E+04  0.12246389200E+04  0.25500000920E-02 0. -1.
    10030    2    1    2    0    0  0.00000000000E+00  0.00000000000E+00  0.11660886664E+04  0.36153665065E+04  0.34221502302E+04 0.  0.
        4    1    3    3  502    0 -0.86949697547E+03 -0.10281655050E+03 -0.97005327104E+03  0.13067521551E+04  0.12699999809E+01 0. -1.
       -4    1    3    3    0  502  0.86949697547E+03  0.10281655050E+03  0.21361419374E+04  0.23086143513E+04  0.12699999809E+01 0.  1.
</event>
<event>
 5   0  0.1277635E-06  0.3370095E+04  0.7818609E-02  0.8145285E-01
       -2   -1    0    0    0  501  0.00000000000E+00  0.00000000000E+00  0.14727095456E+04  0.14727095456E+04  0.25500000920E-02 0. -1.
        2   -1    0    0  501    0  0.00000000000E+00  0.00000000000E+00 -0.19280006304E+04  0.19280006305E+04  0.25500000920E-02 0.  1.
    10030    2    1    2    0    0  0.00000000000E+00  0.00000000000E+00 -0.45529108489E+03  0.34007101760E+04  0.33700949140E+04 0.  0.
        4    1    3    3  502    0 -0.62759163052E+03  0.11521803439E+04 -0.12946025928E+04  0.18432005549E+04  0.12699999809E+01 0.  1.
       -4    1    3    3    0  502  0.62759163052E+03 -0.11521803439E+04  0.83931150793E+03  0.15575096211E+04  0.12699999809E+01 0. -1.
</event>
<event>
 5   0  0.4464951E-07  0.3456638E+04  0.7818609E-02  0.8124144E-01
       -1   -1    0    0    0  501  0.00000000000E+00  0.00000000000E+00  0.35498331747E+04  0.35498331747E+04  0.50400001928E-02 0. -1.
        1   -1    0    0  501    0  0.00000000000E+00  0.00000000000E+00 -0.84147230797E+03  0.84147230798E+03  0.50400001928E-02 0.  1.
    10030    2    1    2    0    0  0.00000000000E+00  0.00000000000E+00  0.27083608668E+04  0.43913054827E+04  0.34566378546E+04 0.  0.
        3    1    3    3  502    0 -0.13398591074E+03  0.11797520465E+04  0.29496905478E+04  0.31796920375E+04  0.10100000352E+00 0. -1.
       -3    1    3    3    0  502  0.13398591074E+03 -0.11797520465E+04 -0.24132968100E+03  0.12116134452E+04  0.10100000352E+00 0.  1.
</event>
<event>
 5   0  0.4109937E-07  0.3423691E+04  0.7818609E-02  0.8132116E-01
        1   -1    0    0  501    0  0.00000000000E+00  0.00000000000E+00  0.17553013867E+04  0.17553013867E+04  0.50400001928E-02 0.  1.
       -1   -1    0    0    0  501  0.00000000000E+00  0.00000000000E+00 -0.16694651430E+04  0.16694651430E+04  0.50400001928E-02 0. -1.
    10030    2    1    2    0    0  0.00000000000E+00  0.00000000000E+00  0.85836243669E+02  0.34247665297E+04  0.34236906873E+04 0.  0.
        5    1    3    3  502    0 -0.11386977904E+04 -0.82603993004E+03 -0.93279484698E+03  0.16879285946E+04  0.46999998093E+01 0. -1.
       -5    1    3    3    0  502  0.11386977904E+04  0.82603993004E+03  0.10186310906E+04  0.17368379351E+04  0.46999998093E+01 0.  1.
</event>
<event>
 5   0  0.1268230E-06  0.3388787E+04  0.7818609E-02  0.8140664E-01
        2   -1    0    0  501    0  0.00000000000E+00  0.00000000000E+00  0.22034267764E+04  0.22034267764E+04  0.25500000920E-02 0.  1.
       -2   -1    0    0    0  501  0.00000000000E+00  0.00000000000E+00 -0.13029566666E+04  0.13029566666E+04  0.25500000920E-02 0. -1.
    10030    2    1    2    0    0  0.00000000000E+00  0.00000000000E+00  0.90047010977E+03  0.35063834430E+04  0.33887871622E+04 0.  0.
        2    1    3    3  502    0  0.25564673154E+03  0.12338157310E+04  0.16223802921E+04  0.20542089284E+04  0.25500000920E-02 0.  1.
       -2    1    3    3    0  502 -0.25564673154E+03 -0.12338157310E+04 -0.72191018237E+03  0.14521745146E+04  0.25500000920E-02 0. -1.
</event>
<event>
 5   0  0.4125758E-07  0.3151876E+04  0.7818609E-02  0.8201644E-01
       -1   -1    0    0    0  501  0.00000000000E+00  0.00000000000E+00  0.16935649265E+04  0.16935649265E+04  0.50400001928E-02 0.  1.
        1   -1    0    0  501    0  0.00000000000E+00  0.00000000000E+00 -0.14664807066E+04  0.14664807066E+04  0.50400001928E-02 0. -1.
    10030    2    1    2    0    0  0.00000000000E+00  0.00000000000E+00  0.22708421989E+03  0.31600456332E+04  0.31518758162E+04 0.  0.
        2    1    3    3  502    0  0.87313867221E+02 -0.15577578047E+04 -0.10917599192E+03  0.15640180583E+04  0.25500000920E-02 0. -1.
       -2    1    3    3    0  502 -0.87313867221E+02  0.15577578047E+04  0.33626021182E+03  0.15960275748E+04  0.25500000920E-02 0.  1.
</event>
<event>
 5   0  0.4125758E-07  0.3289031E+04  0.7818609E-02  0.8165692E-01
        1   -1    0    0  501    0  0.00000000000E+00  0.00000000000E+00  0.11207353999E+04  0.11207353999E+04  0.50400001928E-02 0.  1.
       -1   -1    0    0    0  501  0.00000000000E+00  0.00000000000E+00 -0.24130861725E+04  0.24130861725E+04  0.50400001928E-02 0. -1.
    10030    2    1    2    0    0  0.00000000000E+00  0.00000000000E+00 -0.12923507726E+04  0.35338215724E+04  0.32890309190E+04 0.  0.
        2    1    3    3  502    0 -0.45204639156E+01  0.45841965878E+03  0.10506912217E+04  0.11463511946E+04  0.25500000920E-02 0.  1.
       -2    1    3    3    0  502  0.45204639156E+01 -0.45841965878E+03 -0.23430419942E+04  0.23874703778E+04  0.25500000920E-02 0. -1.
</event>
<event>
 5   0  0.4272633E-07  0.3395691E+04  0.7818609E-02  0.8138965E-01
       -1   -1    0    0    0  501  0.00000000000E+00  0.00000000000E+00  0.22349130655E+04  0.22349130655E+04  0.50400001928E-02 0. -1.
        1   -1    0    0  501    0  0.00000000000E+00  0.00000000000E+00 -0.12898394001E+04  0.12898394001E+04  0.50400001928E-02 0.  1.
    10030    2    1    2    0    0  0.00000000000E+00  0.00000000000E+00  0.94507366537E+03  0.35247524657E+04  0.33956907561E+04 0.  0.
        1    1    3    3  502    0  0.93433773013E+03  0.24252140861E+02 -0.99876465685E+03  0.13678837670E+04  0.50400001928E-02 0.  1.
       -1    1    3    3    0  502 -0.93433773013E+03 -0.24252140861E+02  0.19438383222E+04  0.21568686987E+04  0.50400001928E-02 0. -1.
</event>
<event>
 5   0  0.1268230E-06  0.3429264E+04  0.7818609E-02  0.8130761E-01
       -2   -1    0    0    0  501  0.00000000000E+00  0.00000000000E+00  0.10242477214E+04  0.10242477215E+04  0.25500000920E-02 0. -1.
        2   -1    0    0  501    0  0.00000000000E+00  0.00000000000E+00 -0.28703637018E+04  0.28703637018E+04  0.25500000920E-02 0.  1.
    10030    2    1    2    0    0  0.00000000000E+00  0.00000000000E+00 -0.18461159803E+04  0.38946114232E+04  0.34292643417E+04 0.  0.
        2    1    3    3  502    0  0.15420439089E+04 -0.64810800676E+03 -0.13510523441E+04  0.21501827462E+04  0.25500000920E-02 0.  1.
       -2    1    3    3    0  502 -0.15420439089E+04  0.64810800676E+03 -0.49506363626E+03  0.17444286771E+04  0.25500000920E-02 0. -1.
</event>
<event>
 5   0  0.1277635E-06  0.3408420E+04  0.7818609E-02  0.8135843E-01
        2   -1    0    0  501    0  0.00000000000E+00  0.00000000000E+00  0.18402134686E+04  0.18402134686E+04  0.25500000920E-02 0.  1.
       -2   -1    0    0    0  501  0.00000000000E+00  0.00000000000E+00 -0.15782583700E+04  0.15782583700E+04  0.25500000920E-02 0. -1.
    10030    2    1    2    0    0  0.00000000000E+00  0.00000000000E+00  0.26195509859E+03  0.34184718386E+04  0.34084203434E+04 0.  0.
        4    1    3    3  502    0  0.41006657572E+03  0.31420617889E+03  0.17597897841E+04  0.18340506581E+04  0.12699999809E+01 0.  1.
       -4    1    3    3    0  502 -0.41006657572E+03 -0.31420617889E+03 -0.14978346855E+04  0.15844211805E+04  0.12699999809E+01 0. -1.
</event>
<event>
 5   0  0.4464951E-07  0.3416525E+04  0.7818609E-02  0.8133862E-01
       -1   -1    0    0    0  501  0.00000000000E+00  0.00000000000E+00  0.22013193591E+04  0.22013193591E+04  0.50400001928E-02 0.  1.
        1   -1    0    0  501    0  0.00000000000E+00  0.00000000000E+00 -0.13256418790E+04  0.13256418790E+04  0.50400001928E-02 0. -1.
    10030    2    1    2    0    0  0.00000000000E+00  0.00000000000E+00  0.87567748013E+03  0.35269612381E+04  0.34165252122E+04 0.  0.
        3    1    3    3  502    0 -0.13438464994E+04 -0.76035525652E+03 -0.31660414372E+03  0.15761667818E+04  0.10100000352E+00 0. -1.
       -3    1    3    3    0  502  0.13438464994E+04  0.76035525652E+03  0.11922816238E+04  0.19507944563E+04  0.10100000352E+00 0.  1.
</event>
<event>
 5   0  0.1300176E-06  0.3414495E+04  0.7818609E-02  0.8134358E-01
       -2   -1    0    0    0  501  0.00000000000E+00  0.00000000000E+00  0.14867540661E+04  0.14867540661E+04  0.25500000920E-02 0.  1.
        2   -1    0    0  501    0  0.00000000000E+00  0.00000000000E+00 -0.19604415464E+04  0.19604415464E+04  0.25500000920E-02 0. -1.
    10030    2    1    2    0    0  0.00000000000E+00  0.00000000000E+00 -0.47368748035E+03  0.34471956125E+04  0.34144952427E+04 0.  0.
        1    1    3    3  502    0 -0.59535115207E+03 -0.12436181204E+03 -0.18473596315E+04  0.19449026872E+04  0.50400001928E-02 0. -1.
       -1    1    3    3    0  502  0.59535115207E+03  0.12436181204E+03  0.13736721512E+04  0.15022929253E+04  0.50400001928E-02 0.  1.
</event>
<event>
 5   0  0.4125758E-07  0.3414667E+04  0.7818609E-02  0.8134316E-01
        1   -1    0    0  501    0  0.00000000000E+00  0.00000000000E+00  0.24561389267E+04  0.24561389268E+04  0.50400001928E-02 0.  1.
       -1   -1    0    0    0  501  0.00000000000E+00  0.00000000000E+00 -0.11868171011E+04  0.11868171012E+04  0.50400001928E-02 0. -1.
    10030    2    1    2    0    0  0.00000000000E+00  0.00000000000E+00  0.12693218256E+04  0.36429560279E+04  0.34146670005E+04 0.  0.
        2    1    3    3  502    0  0.13362740449E+04  0.21024848644E+03  0.17460124280E+04  0.22087082532E+04  0.25500000920E-02 0.  1.
       -2    1    3    3    0  502 -0.13362740449E+04 -0.21024848644E+03 -0.47669060235E+03  0.14342477747E+04  0.25500000920E-02 0. -1.
</event>
<event>
 5   0  0.4272633E-07  0.3401468E+04  0.7818609E-02  0.8137546E-01
        1   -1    0    0  501    0  0.00000000000E+00  0.00000000000E+00  0.10946060913E+04  0.10946060913E+04  0.50400001928E-02 0.  1.
       -1   -1    0    0    0  501  0.00000000000E+00  0.00000000000E+00 -0.26424992914E+04  0.26424992914E+04  0.50400001928E-02 0. -1.
    10030    2    1    2    0    0  0.00000000000E+00  0.00000000000E+00 -0.15478932001E+04  0.37371053827E+04  0.34014678129E+04 0.  0.
        1    1    3    3  502    0  0.46958337925E+03 -0.52974375657E+03  0.92504547216E+03  0.11648373806E+04  0.50400001928E-02 0.  1.
       -1    1    3    3    0  502 -0.46958337925E+03  0.52974375657E+03 -0.24729386723E+04  0.25722680021E+04  0.50400001928E-02 0. -1.
</event>
<event>
 5   0  0.4464951E-07  0.3384685E+04  0.7818609E-02  0.8141675E-01
       -1   -1    0    0    0  501  0.00000000000E+00  0.00000000000E+00  0.16616875520E+04  0.16616875521E+04  0.50400001928E-02 0. -1.
        1   -1    0    0  501    0  0.00000000000E+00  0.00000000000E+00 -0.17235630909E+04  0.17235630909E+04  0.50400001928E-02 0.  1.
    10030    2    1    2    0    0  0.00000000000E+00  0.00000000000E+00 -0.61875538847E+02  0.33852506430E+04  0.33846851158E+04 0.  0.
        3    1    3    3  502    0 -0.14504600968E+04 -0.13301456698E+03  0.83088825417E+03  0.16768728838E+04  0.10100000352E+00 0. -1.
       -3    1    3    3    0  502  0.14504600968E+04  0.13301456698E+03 -0.89276379302E+03  0.17083777591E+04  0.10100000352E+00 0.  1.
</event>
<event>
 5   0  0.4272633E-07  0.3403448E+04  0.7818609E-02  0.8137061E-01
        1   -1    0    0  501    0  0.00000000000E+00  0.00000000000E+00  0.25198322840E+04  0.25198322840E+04  0.50400001928E-02 0.  1.
       -1   -1    0    0    0  501  0.00000000000E+00  0.00000000000E+00 -0.11492289746E+04  0.11492289747E+04  0.50400001928E-02 0. -1.
    10030    2    1    2    0    0  0.00000000000E+00  0.00000000000E+00  0.13706033093E+04  0.36690612586E+04  0.34034478236E+04 0.  0.
        1    1    3    3  502    0  0.99099771129E+03  0.25813673159E+03 -0.77986601943E+03  0.12872070712E+04  0.50400001928E-02 0. -1.
       -1    1    3    3    0  502 -0.99099771129E+03 -0.25813673159E+03  0.21504693288E+04  0.23818541874E+04  0.50400001928E-02 0.  1.
</event>
<event>
 5   0  0.4272633E-07  0.3397701E+04  0.7818609E-02  0.8138471E-01
       -1   -1    0    0    0  501  0.00000000000E+00  0.00000000000E+00  0.86089823358E+03  0.86089823359E+03  0.50400001928E-02 0. -1.
        1   -1    0    0  501    0  0.00000000000E+00  0.00000000000E+00 -0.33524200990E+04  0.33524200990E+04  0.50400001928E-02 0.  1.
    10030    2    1    2    0    0  0.00000000000E+00  0.00000000000E+00 -0.24915218654E+04  0.42133183326E+04  0.33977007175E+04 0.  0.
        1    1    3    3  502    0 -0.13679681899E+04 -0.36971659615E+03 -0.83770542114E+02  0.14195227486E+04  0.50400001928E-02 0.  1.
       -1    1    3    3    0  502  0.13679681899E+04  0.36971659615E+03 -0.24077513233E+04  0.27937955840E+04  0.50400001928E-02 0. -1.
</event>
<event>
 5   0  0.4125758E-07  0.3429523E+04  0.7818609E-02  0.8130698E-01
       -1   -1    0    0    0  501  0.00000000000E+00  0.00000000000E+00  0.18053126245E+04  0.18053126245E+04  0.50400001928E-02 0. -1.
        1   -1    0    0  501    0  0.00000000000E+00  0.00000000000E+00 -0.16287523263E+04  0.16287523263E+04  0.50400001928E-02 0.  1.
    10030    2    1    2    0    0  0.00000000000E+00  0.00000000000E+00  0.17656029819E+03  0.34340649509E+04  0.34295230788E+04 0.  0.
        2    1    3    3  502    0  0.16433464132E+04  0.35194666261E+03 -0.25268990476E+03  0.16995017137E+04  0.25500000920E-02 0. -1.
       -2    1    3    3    0  502 -0.16433464132E+04 -0.35194666261E+03  0.42925020295E+03  0.17345632372E+04  0.25500000920E-02 0.  1.
</event>
<event>
 5   0  0.4272633E-07  0.3108302E+04  0.7818609E-02  0.8213463E-01
        1   -1    0    0  501    0  0.00000000000E+00  0.00000000000E+00  0.28265177120E+04  0.28265177120E+04  0.50400001928E-02 0. -1.
       -1   -1    0    0    0  501  0.00000000000E+00  0.00000000000E+00 -0.85454483174E+03  0.85454483175E+03  0.50400001928E-02 0.  1.
    10030    2    1    2    0    0  0.00000000000E+00  0.00000000000E+00  0.19719728803E+04  0.36810625438E+04  0.31083024966E+04 0.  0.
        1    1    3    3  502    0 -0.36552172820E+03  0.14815569528E+04  0.63714174259E+03  0.16536525447E+04  0.50400001928E-02 0. -1.
       -1    1    3    3    0  502  0.36552172820E+03 -0.14815569528E+04  0.13348311377E+04  0.20274099991E+04  0.50400001928E-02 0.  1.
</event>
<event>
 5   0  0.1268230E-06  0.3399294E+04  0.7818609E-02  0.8138080E-01
        2   -1    0    0  501    0  0.00000000000E+00  0.00000000000E+00  0.25550664129E+04  0.25550664129E+04  0.25500000920E-02 0. -1.
       -2   -1    0    0    0  501  0.00000000000E+00  0.00000000000E+00 -0.11306162945E+04  0.11306162945E+04  0.25500000920E-02 0.  1.
    10030    2    1    2    0    0  0.00000000000E+00  0.00000000000E+00  0.14244501184E+04  0.36856827074E+04  0.33992938796E+04 0.  0.
        2    1    3    3  502    0 -0.53455332802E+03 -0.10720168232E+04 -0.59510847957E+03  0.13375804395E+04  0.25500000920E-02 0.  1.
       -2    1    3    3    0  502  0.53455332802E+03  0.10720168232E+04  0.20195585980E+04  0.23481022679E+04  0.25500000920E-02 0. -1.
</event>
<event>
 5   0  0.4125758E-07  0.3377131E+04  0.7818609E-02  0.8143542E-01
       -1   -1    0    0    0  501  0.00000000000E+00  0.00000000000E+00  0.15979407679E+04  0.15979407679E+04  0.50400001928E-02 0.  1.
        1   -1    0    0  501    0  0.00000000000E+00  0.00000000000E+00 -0.17843300220E+04  0.17843300220E+04  0.50400001928E-02 0. -1.
    10030    2    1    2    0    0  0.00000000000E+00  0.00000000000E+00 -0.18638925410E+03  0.33822707899E+04  0.33771311408E+04 0.  0.
        2    1    3    3  502    0  0.50327018106E+03 -0.16617835820E+03 -0.16988680562E+04  0.17796204073E+04  0.25500000920E-02 0. -1.
       -2    1    3    3    0  502 -0.50327018106E+03  0.16617835820E+03  0.15124788021E+04  0.16026503825E+04  0.25500000920E-02 0.  1.
</event>
<event>
 5   0  0.4109937E-07  0.3340481E+04  0.7818609E-02  0.8152671E-01
       -1   -1    0    0    0  501  0.00000000000E+00  0.00000000000E+00  0.11254684352E+04  0.11254684353E+04  0.50400001928E-02 0.  1.
        1   -1    0    0  501    0  0.00000000000E+00  0.00000000000E+00 -0.24787034781E+04  0.24787034781E+04  0.50400001928E-02 0. -1.
    10030    2    1    2    0    0  0.00000000000E+00  0.00000000000E+00 -0.13532350429E+04  0.36041719134E+04  0.33404805193E+04 0.  0.
        5    1    3    3  502    0 -0.33325147412E+03 -0.13579289950E+04 -0.16623282077E+04  0.21721843523E+04  0.46999998093E+01 0. -1.
       -5    1    3    3    0  502  0.33325147412E+03  0.13579289950E+04  0.30909316482E+03  0.14319875610E+04  0.46999998093E+01 0.  1.
</event>
<event>
 5   0  0.1300176E-06  0.3395297E+04  0.7818609E-02  0.8139062E-01
        2   -1    0    0  501    0  0.00000000000E+00  0.00000000000E+00  0.29906735669E+04  0.29906735669E+04  0.25500000920E-02 0.  1.
       -2   -1    0    0    0  501  0.00000000000E+00  0.00000000000E+00 -0.96366588399E+03  0.96366588399E+03  0.25500000920E-02 0. -1.
    10030    2    1    2    0    0  0.00000000000E+00  0.00000000000E+00  0.20270076829E+04  0.39543394509E+04  0.33952967980E+04 0.  0.
        1    1    3    3  502    0 -0.14500150074E+03  0.14526103410E+04  0.42752967858E+01  0.14598357840E+04  0.50400001928E-02 0. -1.
       -1    1    3    3    0  502  0.14500150074E+03 -0.14526103410E+04  0.20227323861E+04  0.24945036669E+04  0.50400001928E-02 0.  1.
</event>
<event>
 5   0  0.1300176E-06  0.3452368E+04  0.7818609E-02  0.8125172E-01
        2   -1    0    0  501    0  0.00000000000E+00  0.00000000000E+00  0.19801263084E+04  0.19801263084E+04  0.25500000920E-02 0. -1.
       -2   -1    0    0    0  501  0.00000000000E+00  0.00000000000E+00 -0.15048087350E+04  0.15048087350E+04  0.25500000920E-02 0.  1.
    10030    2    1    2    0    0  0.00000000000E+00  0.00000000000E+00  0.47531757346E+03  0.34849350434E+04  0.34523680946E+04 0.  0.
        1    1    3    3  502    0 -0.15754746010E+04 -0.51698308594E+03 -0.24678464915E+03  0.16763932691E+04  0.50400001928E-02 0. -1.
       -1    1    3    3    0  502  0.15754746010E+04  0.51698308594E+03  0.72210222261E+03  0.18085417743E+04  0.50400001928E-02 0.  1.
</event>
<event>
 5   0  0.1268230E-06  0.3375356E+04  0.7818609E-02  0.8143981E-01
        2   -1    0    0  501    0  0.00000000000E+00  0.00000000000E+00  0.20061112471E+04  0.20061112471E+04  0.25500000920E-02 0. -1.
       -2   -1    0    0    0  501  0.00000000000E+00  0.00000000000E+00 -0.14197902287E+04  0.14197902287E+04  0.25500000920E-02 0.  1.
    10030    2    1    2    0    0  0.00000000000E+00  0.00000000000E+00  0.58632101840E+03  0.34259014758E+04  0.33753560680E+04 0.  0.
        2    1    3    3  502    0 -0.60523397794E+03 -0.97968057299E+03  0.15454004778E+04  0.19272635601E+04  0.25500000920E-02 0. -1.
       -2    1    3    3    0  502  0.60523397794E+03  0.97968057299E+03 -0.95907945940E+03  0.14986379158E+04  0.25500000920E-02 0.  1.
</event>
<event>
 5   0  0.1269497E-06  0.3383434E+04  0.7818609E-02  0.8141984E-01
        2   -1    0    0  501    0  0.00000000000E+00  0.00000000000E+00  0.19957439610E+04  0.19957439610E+04  0.25500000920E-02 0.  1.
       -2   -1    0    0    0  501  0.00000000000E+00  0.00000000000E+00 -0.14340050724E+04  0.14340050724E+04  0.25500000920E-02 0. -1.
    10030    2    1    2    0    0  0.00000000000E+00  0.00000000000E+00  0.56173888867E+03  0.34297490334E+04  0.33834343282E+04 0.  0.
        5    1    3    3  502    0  0.69805360140E+03  0.12615648058E+04 -0.61615068693E+03  0.15679567432E+04  0.46999998093E+01 0. -1.
       -5    1    3    3    0  502 -0.69805360140E+03 -0.12615648058E+04  0.11778895756E+04  0.18617922902E+04  0.46999998093E+01 0.  1.
</event>
<event>
 5   0  0.4289684E-07  0.3390949E+04  0.7818609E-02  0.8140131E-01
        1   -1    0    0  501    0  0.00000000000E+00  0.00000000000E+00  0.20213579583E+04  0.20213579583E+04  0.50400001928E-02 0. -1.
       -1   -1    0    0    0  501  0.00000000000E+00  0.00000000000E+00 -0.14221296767E+04  0.14221296767E+04  0.50400001928E-02 0.  1.
    10030    2    1    2    0    0  0.00000000000E+00  0.00000000000E+00  0.59922828161E+03  0.34434876350E+04  0.33909486223E+04 0.  0.
        4    1    3    3  502    0 -0.49756592636E+03  0.94781791492E+02 -0.13435027127E+04  0.14358121712E+04  0.12699999809E+01 0.  1.
       -4    1    3    3    0  502  0.49756592636E+03 -0.94781791492E+02  0.19427309943E+04  0.20076754638E+04  0.12699999809E+01 0. -1.
</event>
<event>
 5   0  0.1300176E-06  0.3362371E+04  0.7818609E-02  0.8147204E-01
       -2   -1    0    0    0  501  0.00000000000E+00  0.00000000000E+00  0.14802933947E+04  0.14802933947E+04  0.25500000920E-02 0.  1.
        2   -1    0    0  501    0  0.00000000000E+00  0.00000000000E+00 -0.19093412687E+04  0.19093412687E+04  0.25500000920E-02 0. -1.
    10030    2    1    2    0    0  0.00000000000E+00  0.00000000000E+00 -0.42904787404E+03  0.33896346634E+04  0.33623713467E+04 0.  0.
        1    1    3    3  502    0  0.61909524992E+03  0.32409391462E+03  0.13269490627E+04  0.14997031737E+04  0.50400001928E-02 0.  1.
       -1    1    3    3    0  502 -0.61909524992E+03 -0.32409391462E+03 -0.17559969368E+04  0.18899314898E+04  0.50400001928E-02 0. -1.
</event>
<event>
 5   0  0.4272633E-07  0.3396578E+04  0.7818609E-02  0.8138747E-01
        1   -1    0    0  501    0  0.00000000000E+00  0.00000000000E+00  0.28403183518E+04  0.28403183518E+04  0.50400001928E-02 0.  1.
       -1   -1    0    0    0  501  0.00000000000E+00  0.00000000000E+00 -0.10154445853E+04  0.10154445853E+04  0.50400001928E-02 0. -1.
    10030    2    1    2    0    0  0.00000000000E+00  0.00000000000E+00  0.18248737666E+04  0.38557629371E+04  0.33965782139E+04 0.  0.
        1    1    3    3  502    0 -0.46775562510E+02  0.13421021513E+04 -0.26770245308E+03  0.13693395273E+04  0.50400001928E-02 0. -1.
       -1    1    3    3    0  502  0.46775562510E+02 -0.13421021513E+04  0.20925762197E+04  0.24864234098E+04  0.50400001928E-02 0.  1.
</event>
<event>
 5   0  0.4125758E-07  0.3435352E+04  0.7818609E-02  0.8129284E-01
       -1   -1    0    0    0  501  0.00000000000E+00  0.00000000000E+00  0.13598456883E+04  0.13598456883E+04  0.50400001928E-02 0. -1.
        1   -1    0    0  501    0  0.00000000000E+00  0.00000000000E+00 -0.21696654034E+04  0.21696654034E+04  0.50400001928E-02 0.  1.
    10030    2    1    2    0    0  0.00000000000E+00  0.00000000000E+00 -0.80981971511E+03  0.35295110917E+04  0.34353515942E+04 0.  0.
        2    1    3    3  502    0  0.39552001450E+03 -0.10740886125E+04  0.91093904564E+03  0.14628439337E+04  0.25500000920E-02 0. -1.
       -2    1    3    3    0  502 -0.39552001450E+03  0.10740886125E+04 -0.17207587607E+04  0.20666671580E+04  0.25500000920E-02 0.  1.
</event>
<event>
 5   0  0.4464951E-07  0.3366972E+04  0.7818609E-02  0.8146060E-01
        1   -1    0    0  501    0  0.00000000000E+00  0.00000000000E+00  0.18455117440E+04  0.18455117440E+04  0.50400001928E-02 0.  1.
       -1   -1    0    0    0  501  0.00000000000E+00  0.00000000000E+00 -0.15356855527E+04  0.15356855527E+04  0.50400001928E-02 0. -1.
    10030    2    1    2    0    0  0.00000000000E+00  0.00000000000E+00  0.30982619130E+03  0.33811972967E+04  0.33669723626E+04 0.  0.
        3    1    3    3  502    0  0.16554743986E+04  0.29937919866E+03  0.21764559501E+03  0.16963469587E+04  0.10100000352E+00 0.  1.
       -3    1    3    3    0  502 -0.16554743986E+04 -0.29937919866E+03  0.92180596283E+02  0.16848503380E+04  0.10100000352E+00 0. -1.
</event>
<event>
 5   0  0.4109937E-07  0.3323270E+04  0.7818609E-02  0.8156999E-01
       -1   -1    0    0    0  501  0.00000000000E+00  0.00000000000E+00  0.14848804670E+04  0.14848804670E+04  0.50400001928E-02 0. -1.
        1   -1    0    0  501    0  0.00000000000E+00  0.00000000000E+00 -0.18594302364E+04  0.18594302365E+04  0.50400001928E-02 0.  1.
    10030    2    1    2    0    0  0.00000000000E+00  0.00000000000E+00 -0.37454976945E+03  0.33443107035E+04  0.33232704602E+04 0.  0.
        5    1    3    3  502    0 -0.74333824537E+03  0.11855573303E+04  0.71445155203E+03  0.15711655039E+04  0.46999998093E+01 0. -1.
       -5    1    3    3    0  502  0.74333824537E+03 -0.11855573303E+04 -0.10890013215E+04  0.17731451995E+04  0.46999998093E+01 0.  1.
</event>
<event>
 5   0  0.4125758E-07  0.3370730E+04  0.7818609E-02  0.8145128E-01
       -1   -1    0    0    0  501  0.00000000000E+00  0.00000000000E+00  0.16423343736E+04  0.16423343736E+04  0.50400001928E-02 0. -1.
        1   -1    0    0  501    0  0.00000000000E+00  0.00000000000E+00 -0.17295234444E+04  0.17295234444E+04  0.50400001928E-02 0.  1.
    10030    2    1    2    0    0  0.00000000000E+00  0.00000000000E+00 -0.87189070785E+02  0.33718578180E+04  0.33707303676E+04 0.  0.
        2    1    3    3  502    0 -0.24599313554E+03  0.40077522394E+03 -0.16625679534E+04  0.17277921178E+04  0.25500000920E-02 0.  1.
       -2    1    3    3    0  502  0.24599313554E+03 -0.40077522394E+03  0.15753788826E+04  0.16440657002E+04  0.25500000920E-02 0. -1.
</event>
<event>
 5   0  0.1300176E-06  0.3415105E+04  0.7818609E-02  0.8134209E-01
       -2   -1    0    0    0  501  0.00000000000E+00  0.00000000000E+00  0.18979223620E+04  0.18979223620E+04  0.25500000920E-02 0.  1.
        2   -1    0    0  501    0  0.00000000000E+00  0.00000000000E+00 -0.15362773524E+04  0.15362773524E+04  0.25500000920E-02 0. -1.
    10030    2    1    2    0    0  0.00000000000E+00  0.00000000000E+00  0.36164500964E+03  0.34341997144E+04  0.34151047664E+04 0.  0.
        1    1    3    3  502    0  0.55925710282E+03  0.14410848431E+04  0.91030336623E+03  0.17939192431E+04  0.50400001928E-02 0.  1.
       -1    1    3    3    0  502 -0.55925710282E+03 -0.14410848431E+04 -0.54865835660E+03  0.16402804713E+04  0.50400001928E-02 0. -1.
</event>
<event>
 5   0  0.1256208E-06  0.3461626E+04  0.7818609E-02  0.8122945E-01
       -2   -1    0    0    0  501  0.00000000000E+00  0.00000000000E+00  0.12494109648E+04  0.12494109648E+04  0.25500000920E-02 0.  1.
        2   -1    0    0  501    0  0.00000000000E+00  0.00000000000E+00 -0.23977014647E+04  0.23977014647E+04  0.25500000920E-02 0. -1.
    10030    2    1    2    0    0  0.00000000000E+00  0.00000000000E+00 -0.11482904999E+04  0.36471124294E+04  0.34616264964E+04 0.  0.
        3    1    3    3  502    0  0.88401993441E+03  0.87204809912E+03 -0.18444695603E+04  0.22235168317E+04  0.10100000352E+00 0. -1.
       -3    1    3    3    0  502 -0.88401993441E+03 -0.87204809912E+03  0.69617906041E+03  0.14235955978E+04  0.10100000352E+00 0.  1.
</event>
<event>
 5   0  0.4272633E-07  0.2879095E+04  0.7818609E-02  0.8279125E-01
        1   -1    0    0  501    0  0.00000000000E+00  0.00000000000E+00  0.27408954245E+04  0.27408954246E+04  0.50400001928E-02 0. -1.
       -1   -1    0    0    0  501  0.00000000000E+00  0.00000000000E+00 -0.75606572841E+03  0.75606572843E+03  0.50400001928E-02 0.  1.
    10030    2    1    2    0    0  0.00000000000E+00  0.00000000000E+00  0.19848296961E+04  0.34969611530E+04  0.28790950632E+04 0.  0.
        1    1    3    3  502    0 -0.82387189755E+03  0.66379835159E+03  0.21780726528E+04  0.24214445350E+04  0.50400001928E-02 0. -1.
       -1    1    3    3    0  502  0.82387189755E+03 -0.66379835159E+03 -0.19324295671E+03  0.10755166180E+04  0.50400001928E-02 0.  1.
</event>
<event>
 5   0  0.4125758E-07  0.3313470E+04  0.7818609E-02  0.8159476E-01
       -1   -1    0    0    0  501  0.00000000000E+00  0.00000000000E+00  0.97523455399E+03  0.97523455401E+03  0.50400001928E-02 0. -1.
        1   -1    0    0  501    0  0.00000000000E+00  0.00000000000E+00 -0.28144719382E+04  0.28144719382E+04  0.50400001928E-02 0.  1.
    10030    2    1    2    0    0  0.00000000000E+00  0.00000000000E+00 -0.18392373842E+04  0.37897064922E+04  0.33134696530E+04 0.  0.
        2    1    3    3  502    0  0.63940793777E+02 -0.14517071832E+03  0.96652892507E+03  0.97945960895E+03  0.25500000920E-02 0. -1.
       -2    1    3    3    0  502 -0.63940793777E+02  0.14517071832E+03 -0.28057663093E+04  0.28102468832E+04  0.25500000920E-02 0.  1.
</event>
<event>
 5   0  0.4272633E-07  0.3414325E+04  0.7818609E-02  0.8134399E-01
        1   -1    0    0  501    0  0.00000000000E+00  0.00000000000E+00  0.14392720269E+04  0.14392720269E+04  0.50400001928E-02 0.  1.
       -1   -1    0    0    0  501  0.00000000000E+00  0.00000000000E+00 -0.20249149925E+04  0.20249149925E+04  0.50400001928E-02 0. -1.
    10030    2    1    2    0    0  0.00000000000E+00  0.00000000000E+00 -0.58564296563E+03  0.34641870194E+04  0.34143248267E+04 0.  0.
        1    1    3    3  502    0  0.67169863364E+03 -0.12784608250E+03 -0.18799160850E+04  0.20004020001E+04  0.50400001928E-02 0. -1.
       -1    1    3    3    0  502 -0.67169863364E+03  0.12784608250E+03  0.12942731194E+04  0.14637850193E+04  0.50400001928E-02 0.  1.
</event>
<event>
 5   0  0.4289684E-07  0.3401228E+04  0.7818609E-02  0.8137605E-01
       -1   -1    0    0    0  501  0.00000000000E+00  0.00000000000E+00  0.27892437249E+04  0.27892437249E+04  0.50400001928E-02 0. -1.
        1   -1    0    0  501    0  0.00000000000E+00  0.00000000000E+00 -0.10368714905E+04  0.10368714905E+04  0.50400001928E-02 0.  1.
    10030    2    1    2    0    0  0.00000000000E+00  0.00000000000E+00  0.17523722344E+04  0.38261152154E+04  0.34012276010E+04 0.  0.
        4    1    3    3  502    0 -0.11791585675E+04 -0.63938101720E+03 -0.29980798967E+03  0.13744487827E+04  0.12699999809E+01 0.  1.
       -4    1    3    3    0  502  0.11791585675E+04  0.63938101720E+03  0.20521802240E+04  0.24516664327E+04  0.12699999809E+01 0. -1.
</event>
<event>
 5   0  0.4109937E-07  0.3411496E+04  0.7818609E-02  0.8135091E-01
       -1   -1    0    0    0  501  0.00000000000E+00  0.00000000000E+00  0.14033518266E+04  0.14033518267E+04  0.50400001928E-02 0. -1.
        1   -1    0    0  501    0  0.00000000000E+00  0.00000000000E+00 -0.20733050261E+04  0.20733050261E+04  0.50400001928E-02 0.  1.
    10030    2    1    2    0    0  0.00000000000E+00  0.00000000000E+00 -0.66995319948E+03  0.34766568528E+04  0.34114960915E+04 0.  0.
        5    1    3    3  502    0 -0.92444795262E+03  0.10446477215E+04  0.66543607965E+03  0.15455484933E+04  0.46999998093E+01 0. -1.
       -5    1    3    3    0  502  0.92444795262E+03 -0.10446477215E+04 -0.13353892791E+04  0.19311083595E+04  0.46999998093E+01 0.  1.
</event>
<event>
 5   0  0.1300176E-06  0.3404360E+04  0.7818609E-02  0.8136837E-01
       -2   -1    0    0    0  501  0.00000000000E+00  0.00000000000E+00  0.28619113871E+04  0.28619113871E+04  0.25500000920E-02 0.  1.
        2   -1    0    0  501    0  0.00000000000E+00  0.00000000000E+00 -0.10124058840E+04  0.10124058840E+04  0.25500000920E-02 0. -1.
    10030    2    1    2    0    0  0.00000000000E+00  0.00000000000E+00  0.18495055032E+04  0.38743172711E+04  0.34043595155E+04 0.  0.
        1    1    3    3  502    0 -0.31991269627E+03 -0.20294892093E+02  0.28272509226E+04  0.28453653184E+04  0.50400001928E-02 0.  1.
       -1    1    3    3    0  502  0.31991269627E+03  0.20294892093E+02 -0.97774541940E+03  0.10289519527E+04  0.50400001928E-02 0. -1.
</event>
<event>
 5   0  0.4109937E-07  0.3397341E+04  0.7818609E-02  0.8138559E-01
        1   -1    0    0  501    0  0.00000000000E+00  0.00000000000E+00  0.23345185031E+04  0.23345185032E+04  0.50400001928E-02 0.  1.
       -1   -1    0    0    0  501  0.00000000000E+00  0.00000000000E+00 -0.12360067975E+04  0.12360067975E+04  0.50400001928E-02 0. -1.
    10030    2    1    2    0    0  0.00000000000E+00  0.00000000000E+00  0.10985117057E+04  0.35705253006E+04  0.33973405709E+04 0.  0.
        5    1    3    3  502    0 -0.79853579110E+03 -0.45638312039E+03  0.20501716942E+04  0.22470360540E+04  0.46999998093E+01 0.  1.
       -5    1    3    3    0  502  0.79853579110E+03  0.45638312039E+03 -0.95165998851E+03  0.13234892466E+04  0.46999998093E+01 0. -1.
</event>
<event>
 5   0  0.1268230E-06  0.3418308E+04  0.7818609E-02  0.8133427E-01
       -2   -1    0    0    0  501  0.00000000000E+00  0.00000000000E+00  0.24416347130E+04  0.24416347130E+04  0.25500000920E-02 0.  1.
        2   -1    0    0  501    0  0.00000000000E+00  0.00000000000E+00 -0.11964149311E+04  0.11964149311E+04  0.25500000920E-02 0. -1.
    10030    2    1    2    0    0  0.00000000000E+00  0.00000000000E+00  0.12452197819E+04  0.36380496440E+04  0.34183084862E+04 0.  0.
        2    1    3    3  502    0  0.78106847278E+03  0.99745717358E+03 -0.59840657512E+03  0.14010992832E+04  0.25500000920E-02 0. -1.
       -2    1    3    3    0  502 -0.78106847278E+03 -0.99745717358E+03  0.18436263570E+04  0.22369503608E+04  0.25500000920E-02 0.  1.
</event>
<event>
 5   0  0.4289684E-07  0.3412179E+04  0.7818609E-02  0.8134924E-01
        1   -1    0    0  501    0  0.00000000000E+00  0.00000000000E+00  0.21384332101E+04  0.21384332101E+04  0.50400001928E-02 0.  1.
       -1   -1    0    0    0  501  0.00000000000E+00  0.00000000000E+00 -0.13611562565E+04  0.13611562565E+04  0.50400001928E-02 0. -1.
    10030    2    1    2    0    0  0.00000000000E+00  0.00000000000E+00  0.77727695362E+03  0.34995894666E+04  0.34121792116E+04 0.  0.
        4    1    3    3  502    0 -0.15440796393E+04  0.69851725207E+03  0.59022337729E+03  0.17945677842E+04  0.12699999809E+01 0.  1.
       -4    1    3    3    0  502  0.15440796393E+04 -0.69851725207E+03  0.18705357632E+03  0.17050216824E+04  0.12699999809E+01 0. -1.
</event>
<event>
 5   0  0.1256208E-06  0.3422407E+04  0.7818609E-02  0.8132429E-01
       -2   -1    0    0    0  501  0.00000000000E+00  0.00000000000E+00  0.14568777283E+04  0.14568777283E+04  0.25500000920E-02 0. -1.
        2   -1    0    0  501    0  0.00000000000E+00  0.00000000000E+00 -0.20099270972E+04  0.20099270972E+04  0.25500000920E-02 0.  1.
    10030    2    1    2    0    0  0.00000000000E+00  0.00000000000E+00 -0.55304936890E+03  0.34668048255E+04  0.34224073536E+04 0.  0.
        3    1    3    3  502    0  0.11152243071E+04  0.11270526818E+04 -0.92849276690E+03  0.18374089994E+04  0.10100000352E+00 0.  1.
       -3    1    3    3    0  502 -0.11152243071E+04 -0.11270526818E+04  0.37544339801E+03  0.16293958261E+04  0.10100000352E+00 0. -1.
</event>
<event>
 5   0  0.4272633E-07  0.3384048E+04  0.7818609E-02  0.8141833E-01
       -1   -1    0    0    0  501  0.00000000000E+00  0.00000000000E+00  0.11893038972E+04  0.11893038972E+04  0.50400001928E-02 0. -1.
        1   -1    0    0  501    0  0.00000000000E+00  0.00000000000E+00 -0.24072446821E+04  0.24072446821E+04  0.50400001928E-02 0.  1.
    10030    2    1    2    0    0  0.00000000000E+00  0.00000000000E+00 -0.12179407849E+04  0.35965485793E+04  0.33840481568E+04 0.  0.
        1    1    3    3  502    0 -0.56193727559E+03 -0.66368421422E-03 -0.23051761400E+04  0.23726800328E+04  0.50400001928E-02 0.  1.
       -1    1    3    3    0  502  0.56193727559E+03  0.66368421422E-03  0.10872353551E+04  0.12238685465E+04  0.50400001928E-02 0. -1.
</event>
<event>
 5   0  0.1256208E-06  0.3420138E+04  0.7818609E-02  0.8132982E-01
       -2   -1    0    0    0  501  0.00000000000E+00  0.00000000000E+00  0.11960509762E+04  0.11960509762E+04  0.25500000920E-02 0. -1.
        2   -1    0    0  501    0  0.00000000000E+00  0.00000000000E+00 -0.24449921220E+04  0.24449921220E+04  0.25500000920E-02 0.  1.
    10030    2    1    2    0    0  0.00000000000E+00  0.00000000000E+00 -0.12489411458E+04  0.36410430982E+04  0.34201375494E+04 0.  0.
        3    1    3    3  502    0  0.60823058506E+03 -0.37083553147E+03 -0.22795126946E+04  0.23882297986E+04  0.10100000352E+00 0.  1.
       -3    1    3    3    0  502 -0.60823058506E+03  0.37083553147E+03  0.10305715488E+04  0.12528132995E+04  0.10100000352E+00 0. -1.
</event>
<event>
 5   0  0.4109937E-07  0.3424382E+04  0.7818609E-02  0.8131948E-01
       -1   -1    0    0    0  501  0.00000000000E+00  0.00000000000E+00  0.15877456780E+04  0.15877456780E+04  0.50400001928E-02 0. -1.
        1   -1    0    0  501    0  0.00000000000E+00  0.00000000000E+00 -0.18463900395E+04  0.18463900395E+04  0.50400001928E-02 0.  1.
    10030    2    1    2    0    0  0.00000000000E+00  0.00000000000E+00 -0.25864436151E+03  0.34341357176E+04  0.34243818743E+04 0.  0.
        5    1    3    3  502    0  0.64876338712E+03 -0.12361612719E+04  0.86475657437E+03  0.16421981140E+04  0.46999998093E+01 0. -1.
       -5    1    3    3    0  502 -0.64876338712E+03  0.12361612719E+04 -0.11234009359E+04  0.17919376036E+04  0.46999998093E+01 0.  1.
</event>
<event>
 5   0  0.4109937E-07  0.3337455E+04  0.7818609E-02  0.8153430E-01
        1   -1    0    0  501    0  0.00000000000E+00  0.00000000000E+00  0.19377081725E+04  0.19377081725E+04  0.50400001928E-02 0. -1.
       -1   -1    0    0    0  501  0.00000000000E+00  0.00000000000E+00 -0.14370849366E+04  0.14370849366E+04  0.50400001928E-02 0.  1.
    10030    2    1    2    0    0  0.00000000000E+00  0.00000000000E+00  0.50062323593E+03  0.33747931091E+04  0.33374548544E+04 0.  0.
        5    1    3    3  502    0 -0.12759981625E+04 -0.99850895865E+03 -0.15345205650E+03  0.16275014823E+04  0.46999998093E+01 0.  1.
       -5    1    3    3    0  502  0.12759981625E+04  0.99850895865E+03  0.65407529243E+03  0.17472916268E+04  0.46999998093E+01 0. -1.
</event>
<event>
 5   0  0.4464951E-07  0.3377978E+04  0.7818609E-02  0.8143332E-01
        1   -1    0    0  501    0  0.00000000000E+00  0.00000000000E+00  0.21898885714E+04  0.21898885714E+04  0.50400001928E-02 0.  1.
       -1   -1    0    0    0  501  0.00000000000E+00  0.00000000000E+00 -0.13026615648E+04  0.13026615648E+04  0.50400001928E-02 0. -1.
    10030    2    1    2    0    0  0.00000000000E+00  0.00000000000E+00  0.88722700662E+03  0.34925501361E+04  0.33779778999E+04 0.  0.
        3    1    3    3  502    0  0.85470915422E+03  0.14228693605E+04  0.76661748693E+03  0.18283291106E+04  0.10100000352E+00 0.  1.
       -3    1    3    3    0  502 -0.85470915422E+03 -0.14228693605E+04  0.12060951968E+03  0.16642210255E+04  0.10100000352E+00 0. -1.
</event>
<event>
 5   0  0.1269497E-06  0.3417348E+04  0.7818609E-02  0.8133662E-01
       -2   -1    0    0    0  501  0.00000000000E+00  0.00000000000E+00  0.16105016695E+04  0.16105016695E+04  0.25500000920E-02 0.  1.
        2   -1    0    0  501    0  0.00000000000E+00  0.00000000000E+00 -0.18128309388E+04  0.18128309388E+04  0.25500000920E-02 0. -1.
    10030    2    1    2    0    0  0.00000000000E+00  0.00000000000E+00 -0.20232926932E+03  0.34233326083E+04  0.34173482429E+04 0.  0.
        5    1    3    3  502    0 -0.82169532165E+03 -0.11638818458E+04  0.84374801668E+03  0.16558191201E+04  0.46999998093E+01 0.  1.
       -5    1    3    3    0  502  0.82169532165E+03  0.11638818458E+04 -0.10460772860E+04  0.17675134882E+04  0.46999998093E+01 0. -1.
</event>
<event>
 5   0  0.1300176E-06  0.3281116E+04  0.7818609E-02  0.8167717E-01
       -2   -1    0    0    0  501  0.00000000000E+00  0.00000000000E+00  0.16099552930E+04  0.16099552930E+04  0.25500000920E-02 0.  1.
        2   -1    0    0  501    0  0.00000000000E+00  0.00000000000E+00 -0.16717427220E+04  0.16717427220E+04  0.25500000920E-02 0. -1.
    10030    2    1    2    0    0  0.00000000000E+00  0.00000000000E+00 -0.61787428988E+02  0.32816980150E+04  0.32811163002E+04 0.  0.
        1    1    3    3  502    0 -0.92184002413E+03  0.11405553879E+04 -0.76639843100E+03  0.16546970049E+04  0.50400001928E-02 0. -1.
       -1    1    3    3    0  502  0.92184002413E+03 -0.11405553879E+04  0.70461100201E+03  0.16270010102E+04  0.50400001928E-02 0.  1.
</event>
<event>
 5   0  0.1300176E-06  0.3402660E+04  0.7818609E-02  0.8137254E-01
        2   -1    0    0  501    0  0.00000000000E+00  0.00000000000E+00  0.12127999429E+04  0.12127999429E+04  0.25500000920E-02 0. -1.
       -2   -1    0    0    0  501  0.00000000000E+00  0.00000000000E+00 -0.23866463227E+04  0.23866463227E+04  0.25500000920E-02 0.  1.
    10030    2    1    2    0    0  0.00000000000E+00  0.00000000000E+00 -0.11738463799E+04  0.35994462656E+04  0.34026604438E+04 0.  0.
        1    1    3    3  502    0  0.40898809403E+02  0.56937733267E+03  0.11084702581E+04  0.12468237937E+04  0.50400001928E-02 0. -1.
       -1    1    3    3    0  502 -0.40898809403E+02 -0.56937733267E+03 -0.22823166379E+04  0.23526224719E+04  0.50400001928E-02 0.  1.
</event>
<event>
 5   0  0.4125758E-07  0.3199205E+04  0.7818609E-02  0.8189027E-01
        1   -1    0    0  501    0  0.00000000000E+00  0.00000000000E+00  0.21401394830E+04  0.21401394830E+04  0.50400001928E-02 0.  1.
       -1   -1    0    0    0  501  0.00000000000E+00  0.00000000000E+00 -0.11955892518E+04  0.11955892518E+04  0.50400001928E-02 0. -1.
    10030    2    1    2    0    0  0.00000000000E+00  0.00000000000E+00  0.94455023118E+03  0.33357287349E+04  0.31992047533E+04 0.  0.
        2    1    3    3  502    0  0.76909337821E+03  0.13590071006E+04  0.83395364310E+03  0.17702778320E+04  0.25500000920E-02 0.  1.
       -2    1    3    3    0  502 -0.76909337821E+03 -0.13590071006E+04  0.11059658808E+03  0.15654509028E+04  0.25500000920E-02 0. -1.
</event>
<event>
 5   0  0.4125758E-07  0.3392216E+04  0.7818609E-02  0.8139819E-01
       -1   -1    0    0    0  501  0.00000000000E+00  0.00000000000E+00  0.17950486752E+04  0.17950486752E+04  0.50400001928E-02 0. -1.
        1   -1    0    0  501    0  0.00000000000E+00  0.00000000000E+00 -0.16026209853E+04  0.16026209853E+04  0.50400001928E-02 0.  1.
    10030    2    1    2    0    0  0.00000000000E+00  0.00000000000E+00  0.19242768991E+03  0.33976696606E+04  0.33922161940E+04 0.  0.
        2    1    3    3  502    0 -0.13679642678E+04  0.34114427840E+03 -0.84821082195E+03  0.16453471534E+04  0.25500000920E-02 0.  1.
       -2    1    3    3    0  502  0.13679642678E+04 -0.34114427840E+03  0.10406385119E+04  0.17523225072E+04  0.25500000920E-02 0. -1.
</event>
<event>
 5   0  0.1268230E-06  0.3100652E+04  0.7818609E-02  0.8215559E-01
       -2   -1    0    0    0  501  0.00000000000E+00  0.00000000000E+00  0.12541138230E+04  0.12541138230E+04  0.25500000920E-02 0.  1.
        2   -1    0    0  501    0  0.00000000000E+00  0.00000000000E+00 -0.19165013547E+04  0.19165013547E+04  0.25500000920E-02 0. -1.
    10030    2    1    2    0    0  0.00000000000E+00  0.00000000000E+00 -0.66238753175E+03  0.31706151777E+04  0.31006520867E+04 0.  0.
        2    1    3    3  502    0  0.75115078509E+03  0.84029940689E+03 -0.14197227399E+04  0.18127170914E+04  0.25500000920E-02 0. -1.
       -2    1    3    3    0  502 -0.75115078509E+03 -0.84029940689E+03  0.75733520818E+03  0.13578980863E+04  0.25500000920E-02 0.  1.
</event>
<event>
 5   0  0.4109937E-07  0.3456109E+04  0.7818609E-02  0.8124271E-01
       -1   -1    0    0    0  501  0.00000000000E+00  0.00000000000E+00  0.15837416498E+04  0.15837416498E+04  0.50400001928E-02 0.  1.
        1   -1    0    0  501    0  0.00000000000E+00  0.00000000000E+00 -0.18855178257E+04  0.18855178257E+04  0.50400001928E-02 0. -1.
    10030    2    1    2    0    0  0.00000000000E+00  0.00000000000E+00 -0.30177617592E+03  0.34692594755E+04  0.34561094381E+04 0.  0.
        5    1    3    3  502    0 -0.10024898128E+04 -0.55814790173E+03 -0.14479485244E+04  0.18474555270E+04  0.46999998093E+01 0. -1.
       -5    1    3    3    0  502  0.10024898128E+04  0.55814790173E+03  0.11461723485E+04  0.16218039485E+04  0.46999998093E+01 0.  1.
</event>
<event>
 5   0  0.4289684E-07  0.3411436E+04  0.7818609E-02  0.8135105E-01
        1   -1    0    0  501    0  0.00000000000E+00  0.00000000000E+00  0.10062863897E+04  0.10062863898E+04  0.50400001928E-02 0.  1.
       -1   -1    0    0    0  501  0.00000000000E+00  0.00000000000E+00 -0.28912972369E+04  0.28912972369E+04  0.50400001928E-02 0. -1.
    10030    2    1    2    0    0  0.00000000000E+00  0.00000000000E+00 -0.18850108472E+04  0.38975836266E+04  0.34114355091E+04 0.  0.
        4    1    3    3  502    0  0.15953165171E+04 -0.59683555429E+03 -0.83889601054E+03  0.18986825954E+04  0.12699999809E+01 0. -1.
       -4    1    3    3    0  502 -0.15953165171E+04  0.59683555429E+03 -0.10461148366E+04  0.19989010313E+04  0.12699999809E+01 0.  1.
</event>
<event>
 5   0  0.4464951E-07  0.3397783E+04  0.7818609E-02  0.8138451E-01
       -1   -1    0    0    0  501  0.00000000000E+00  0.00000000000E+00  0.10415822433E+04  0.10415822433E+04  0.50400001928E-02 0. -1.
        1   -1    0    0  501    0  0.00000000000E+00  0.00000000000E+00 -0.27710075757E+04  0.27710075757E+04  0.50400001928E-02 0.  1.
    10030    2    1    2    0    0  0.00000000000E+00  0.00000000000E+00 -0.17294253324E+04  0.38125898190E+04  0.33977829754E+04 0.  0.
        3    1    3    3  502    0 -0.13504872279E+04  0.94318196945E+03 -0.39823930589E+03  0.16946983611E+04  0.10100000352E+00 0. -1.
       -3    1    3    3    0  502  0.13504872279E+04 -0.94318196945E+03 -0.13311860265E+04  0.21178914579E+04  0.10100000352E+00 0.  1.
</event>
<event>
 5   0  0.4109937E-07  0.3138338E+04  0.7818609E-02  0.8205294E-01
        1   -1    0    0  501    0  0.00000000000E+00  0.00000000000E+00  0.23957108262E+04  0.23957108262E+04  0.50400001928E-02 0. -1.
       -1   -1    0    0    0  501  0.00000000000E+00  0.00000000000E+00 -0.10277915840E+04  0.10277915840E+04  0.50400001928E-02 0.  1.
    10030    2    1    2    0    0  0.00000000000E+00  0.00000000000E+00  0.13679192422E+04  0.34235024102E+04  0.31383380474E+04 0.  0.
        5    1    3    3  502    0  0.60183045129E+03 -0.91109665770E+01  0.22647677499E+04  0.23433902690E+04  0.46999998093E+01 0. -1.
       -5    1    3    3    0  502 -0.60183045129E+03  0.91109665770E+01 -0.89684850774E+03  0.10801121412E+04  0.46999998093E+01 0.  1.
</event>
<event>
 5   0  0.1268230E-06  0.3462728E+04  0.7818609E-02  0.8122680E-01
        2   -1    0    0  501    0  0.00000000000E+00  0.00000000000E+00  0.17818270619E+04  0.17818270619E+04  0.25500000920E-02 0.  1.
       -2   -1    0    0    0  501  0.00000000000E+00  0.00000000000E+00 -0.16823297970E+04  0.16823297970E+04  0.25500000920E-02 0. -1.
    10030    2    1    2    0    0  0.00000000000E+00  0.00000000000E+00  0.99497264837E+02  0.34641568589E+04  0.34627276875E+04 0.  0.
        2    1    3    3  502    0  0.15814007298E+04  0.30515104383E+02  0.75421347723E+03  0.17523120182E+04  0.25500000920E-02 0.  1.
       -2    1    3    3    0  502 -0.15814007298E+04 -0.30515104383E+02 -0.65471621239E+03  0.17118448407E+04  0.25500000920E-02 0. -1.
</event>
<event>
 5   0  0.1268230E-06  0.3405576E+04  0.7818609E-02  0.8136539E-01
       -2   -1    0    0    0  501  0.00000000000E+00  0.00000000000E+00  0.22363583730E+04  0.22363583730E+04  0.25500000920E-02 0. -1.
        2   -1    0    0  501    0  0.00000000000E+00  0.00000000000E+00 -0.12965216138E+04  0.12965216138E+04  0.25500000920E-02 0.  1.
    10030    2    1    2    0    0  0.00000000000E+00  0.00000000000E+00  0.93983675918E+03  0.35328799868E+04  0.34055759964E+04 0.  0.
        2    1    3    3  502    0  0.17846060867E+03  0.55101562590E+03 -0.11911941723E+04  0.13245414168E+04  0.25500000920E-02 0.  1.
       -2    1    3    3    0  502 -0.17846060867E+03 -0.55101562590E+03  0.21310309315E+04  0.22083385700E+04  0.25500000920E-02 0. -1.
</event>
<event>
 5   0  0.4289684E-07  0.3057776E+04  0.7818609E-02  0.8227422E-01
       -1   -1    0    0    0  501  0.00000000000E+00  0.00000000000E+00  0.11034714623E+04  0.11034714623E+04  0.50400001928E-02 0.  1.
        1   -1    0    0  501    0  0.00000000000E+00  0.00000000000E+00 -0.21183131075E+04  0.21183131076E+04  0.50400001928E-02 0. -1.
    10030    2    1    2    0    0  0.00000000000E+00  0.00000000000E+00 -0.10148416452E+04  0.32217845699E+04  0.30577757030E+04 0.  0.
        4    1    3    3  502    0  0.15139084453E+04  0.66719093462E+02 -0.29374748710E+03  0.15435865435E+04  0.12699999809E+01 0.  1.
       -4    1    3    3    0  502 -0.15139084453E+04 -0.66719093462E+02 -0.72109415812E+03  0.16781980264E+04  0.12699999809E+01 0. -1.
</event>
<event>
 5   0  0.4272633E-07  0.3376818E+04  0.7818609E-02  0.8143620E-01
        1   -1    0    0  501    0  0.00000000000E+00  0.00000000000E+00  0.13834666088E+04  0.13834666088E+04  0.50400001928E-02 0.  1.
       -1   -1    0    0    0  501  0.00000000000E+00  0.00000000000E+00 -0.20605659242E+04  0.20605659242E+04  0.50400001928E-02 0. -1.
    10030    2    1    2    0    0  0.00000000000E+00  0.00000000000E+00 -0.67709931541E+03  0.34440325329E+04  0.33768175262E+04 0.  0.
        1    1    3    3  502    0  0.80500819547E+03 -0.14306805053E+04 -0.74117218849E+03  0.18011721506E+04  0.50400001928E-02 0. -1.
       -1    1    3    3    0  502 -0.80500819547E+03  0.14306805053E+04  0.64072873078E+02  0.16428603824E+04  0.50400001928E-02 0.  1.
</event>
<event>
 5   0  0.4272633E-07  0.3316807E+04  0.7818609E-02  0.8158632E-01
        1   -1    0    0  501    0  0.00000000000E+00  0.00000000000E+00  0.20399922109E+04  0.20399922109E+04  0.50400001928E-02 0. -1.
       -1   -1    0    0    0  501  0.00000000000E+00  0.00000000000E+00 -0.13481926042E+04  0.13481926042E+04  0.50400001928E-02 0.  1.
    10030    2    1    2    0    0  0.00000000000E+00  0.00000000000E+00  0.69179960665E+03  0.33881848151E+04  0.33168071463E+04 0.  0.
        1    1    3    3  502    0 -0.13605493082E+04 -0.67247254110E+03  0.10288595858E+04  0.18335391422E+04  0.50400001928E-02 0. -1.
       -1    1    3    3    0  502  0.13605493082E+04  0.67247254110E+03 -0.33705997919E+03  0.15546456729E+04  0.50400001928E-02 0.  1.
</event>
<event>
 5   0  0.4109937E-07  0.3383236E+04  0.7818609E-02  0.8142033E-01
       -1   -1    0    0    0  501  0.00000000000E+00  0.00000000000E+00  0.12210986157E+04  0.12210986157E+04  0.50400001928E-02 0.  1.
        1   -1    0    0  501    0  0.00000000000E+00  0.00000000000E+00 -0.23434394861E+04  0.23434394862E+04  0.50400001928E-02 0. -1.
    10030    2    1    2    0    0  0.00000000000E+00  0.00000000000E+00 -0.11223408705E+04  0.35645381019E+04  0.33832355594E+04 0.  0.
        5    1    3    3  502    0 -0.23220725783E+03  0.16653171189E+04 -0.36590860327E+03  0.17207883406E+04  0.46999998093E+01 0.  1.
       -5    1    3    3    0  502  0.23220725783E+03 -0.16653171189E+04 -0.75643226719E+03  0.18437497612E+04  0.46999998093E+01 0. -1.
</event>
<event>
 5   0  0.1300176E-06  0.3061517E+04  0.7818609E-02  0.8226379E-01
        2   -1    0    0  501    0  0.00000000000E+00  0.00000000000E+00  0.25691650945E+04  0.25691650945E+04  0.25500000920E-02 0.  1.
       -2   -1    0    0    0  501  0.00000000000E+00  0.00000000000E+00 -0.91205591689E+03  0.91205591690E+03  0.25500000920E-02 0. -1.
    10030    2    1    2    0    0  0.00000000000E+00  0.00000000000E+00  0.16571091776E+04  0.34812210114E+04  0.30615174185E+04 0.  0.
        1    1    3    3  502    0 -0.14337563390E+04 -0.10335821895E+03  0.23022252884E+03  0.14557961993E+04  0.50400001928E-02 0. -1.
       -1    1    3    3    0  502  0.14337563390E+04  0.10335821895E+03  0.14268866488E+04  0.20254248121E+04  0.50400001928E-02 0.  1.
</event>
<event>
 5   0  0.1256208E-06  0.3265879E+04  0.7818609E-02  0.8171632E-01
        2   -1    0    0  501    0  0.00000000000E+00  0.00000000000E+00  0.27659940849E+04  0.27659940849E+04  0.25500000920E-02 0. -1.
       -2   -1    0    0    0  501  0.00000000000E+00  0.00000000000E+00 -0.96402616335E+03  0.96402616335E+03  0.25500000920E-02 0.  1.
    10030    2    1    2    0    0  0.00000000000E+00  0.00000000000E+00  0.18019679216E+04  0.37300202483E+04  0.32658785437E+04 0.  0.
        3    1    3    3  502    0 -0.98308776870E+03  0.11095538596E+04  0.16830802519E+04  0.22428398232E+04  0.10100000352E+00 0. -1.
       -3    1    3    3    0  502  0.98308776870E+03 -0.11095538596E+04  0.11888766969E+03  0.14871804250E+04  0.10100000352E+00 0.  1.
</event>
<event>
 5   0  0.1300176E-06  0.3415123E+04  0.7818609E-02  0.8134205E-01
       -2   -1    0    0    0  501  0.00000000000E+00  0.00000000000E+00  0.20317696025E+04  0.20317696025E+04  0.25500000920E-02 0.  1.
        2   -1    0    0  501    0  0.00000000000E+00  0.00000000000E+00 -0.14350869788E+04  0.14350869788E+04  0.25500000920E-02 0. -1.
    10030    2    1    2    0    0  0.00000000000E+00  0.00000000000E+00  0.59668262363E+03  0.34668565813E+04  0.34151228971E+04 0.  0.
        1    1    3    3  502    0 -0.47755161526E+03 -0.14454088268E+04  0.10836909060E+04  0.18685952482E+04  0.50400001928E-02 0. -1.
       -1    1    3    3    0  502  0.47755161526E+03  0.14454088268E+04 -0.48700828235E+03  0.15982613331E+04  0.50400001928E-02 0.  1.
</event>
<event>
 5   0  0.1256208E-06  0.3382064E+04  0.7818609E-02  0.8142322E-01
       -2   -1    0    0    0  501  0.00000000000E+00  0.00000000000E+00  0.12700102083E+04  0.12700102083E+04  0.25500000920E-02 0. -1.
        2   -1    0    0  501    0  0.00000000000E+00  0.00000000000E+00 -0.22516271008E+04  0.22516271008E+04  0.25500000920E-02 0.  1.
    10030    2    1    2    0    0  0.00000000000E+00  0.00000000000E+00 -0.98161689253E+03  0.35216373091E+04  0.33820641054E+04 0.  0.
        3    1    3    3  502    0  0.11934740245E+04 -0.16948349578E+03 -0.17257041077E+04  0.21050319665E+04  0.10100000352E+00 0. -1.
       -3    1    3    3    0  502 -0.11934740245E+04  0.16948349578E+03  0.74408721517E+03  0.14166053425E+04  0.10100000352E+00 0.  1.
</event>
<event>
 5   0  0.1269497E-06  0.3388114E+04  0.7818609E-02  0.8140830E-01
        2   -1    0    0  501    0  0.00000000000E+00  0.00000000000E+00  0.19277014835E+04  0.19277014835E+04  0.25500000920E-02 0.  1.
       -2   -1    0    0    0  501  0.00000000000E+00  0.00000000000E+00 -0.14887310689E+04  0.14887310689E+04  0.25500000920E-02 0. -1.
    10030    2    1    2    0    0  0.00000000000E+00  0.00000000000E+00  0.43897041465E+03  0.34164325524E+04  0.33881139827E+04 0.  0.
        5    1    3    3  502    0 -0.82783317124E+03  0.14630574362E+04  0.43090928478E+03  0.17353817225E+04  0.46999998093E+01 0.  1.
       -5    1    3    3    0  502  0.82783317124E+03 -0.14630574362E+04  0.80611298691E+01  0.16810508299E+04  0.46999998093E+01 0. -1.
</event>
<event>
 5   0  0.4125758E-07  0.3403985E+04  0.7818609E-02  0.8136929E-01
       -1   -1    0    0    0  501  0.00000000000E+00  0.00000000000E+00  0.16031751302E+04  0.16031751302E+04  0.50400001928E-02 0.  1.
        1   -1    0    0  501    0  0.00000000000E+00  0.00000000000E+00 -0.18069005894E+04  0.18069005894E+04  0.50400001928E-02 0. -1.
    10030    2    1    2    0    0  0.00000000000E+00  0.00000000000E+00 -0.20372545924E+03  0.34100757196E+04  0.34039847753E+04 0.  0.
        2    1    3    3  502    0  0.28812437566E+03  0.78461725705E+03  0.13834021417E+04  0.16163048542E+04  0.25500000920E-02 0.  1.
       -2    1    3    3    0  502 -0.28812437566E+03 -0.78461725705E+03 -0.15871276009E+04  0.17937708654E+04  0.25500000920E-02 0. -1.
</event>
<event>
 5   0  0.4464951E-07  0.3401423E+04  0.7818609E-02  0.8137557E-01
       -1   -1    0    0    0  501  0.00000000000E+00  0.00000000000E+00  0.14357879833E+04  0.14357879833E+04  0.50400001928E-02 0.  1.
        1   -1    0    0  501    0  0.00000000000E+00  0.00000000000E+00 -0.20145168877E+04  0.20145168877E+04  0.50400001928E-02 0. -1.
    10030    2    1    2    0    0  0.00000000000E+00  0.00000000000E+00 -0.57872890435E+03  0.34503048710E+04  0.34014227256E+04 0.  0.
        3    1    3    3  502    0 -0.23869673585E+03 -0.13462817362E+04 -0.13153186893E+04  0.18972384957E+04  0.10100000352E+00 0. -1.
       -3    1    3    3    0  502  0.23869673585E+03  0.13462817362E+04  0.73658978491E+03  0.15530663754E+04  0.10100000352E+00 0.  1.
</event>
<event>
 5   0  0.1300176E-06  0.3387195E+04  0.7818609E-02  0.8141056E-01
       -2   -1    0    0    0  501  0.00000000000E+00  0.00000000000E+00  0.19843267250E+04  0.19843267250E+04  0.25500000920E-02 0. -1.
        2   -1    0    0  501    0  0.00000000000E+00  0.00000000000E+00 -0.14454641333E+04  0.14454641333E+04  0.25500000920E-02 0.  1.
    10030    2    1    2    0    0  0.00000000000E+00  0.00000000000E+00  0.53886259174E+03  0.34297908583E+04  0.33871953647E+04 0.  0.
        1    1    3    3  502    0 -0.13904173170E+04 -0.94194331792E+03  0.48152675727E+02  0.16801298193E+04  0.50400001928E-02 0.  1.
       -1    1    3    3    0  502  0.13904173170E+04  0.94194331792E+03  0.49070991601E+03  0.17496610390E+04  0.50400001928E-02 0. -1.
</event>
<event>
 5   0  0.4464951E-07  0.3392103E+04  0.7818609E-02  0.8139847E-01
        1   -1    0    0  501    0  0.00000000000E+00  0.00000000000E+00  0.15029218821E+04  0.15029218821E+04  0.50400001928E-02 0.  1.
       -1   -1    0    0    0  501  0.00000000000E+00  0.00000000000E+00 -0.19139992150E+04  0.19139992150E+04  0.50400001928E-02 0. -1.
    10030    2    1    2    0    0  0.00000000000E+00  0.00000000000E+00 -0.41107733296E+03  0.34169210971E+04  0.33921033608E+04 0.  0.
        3    1    3    3  502    0  0.20702058033E+03 -0.16544841899E+04 -0.51831944857E+03  0.17460900653E+04  0.10100000352E+00 0.  1.
       -3    1    3    3    0  502 -0.20702058033E+03  0.16544841899E+04  0.10724211561E+03  0.16708310318E+04  0.10100000352E+00 0. -1.
</event>
<event>
 5   0  0.4125758E-07  0.3355720E+04  0.7818609E-02  0.8148860E-01
       -1   -1    0    0    0  501  0.00000000000E+00  0.00000000000E+00  0.16377783567E+04  0.16377783567E+04  0.50400001928E-02 0.  1.
        1   -1    0    0  501    0  0.00000000000E+00  0.00000000000E+00 -0.17189230563E+04  0.17189230563E+04  0.50400001928E-02 0. -1.
    10030    2    1    2    0    0  0.00000000000E+00  0.00000000000E+00 -0.81144699527E+02  0.33567014130E+04  0.33557204761E+04 0.  0.
        2    1    3    3  502    0 -0.47505237336E+03 -0.88550545358E+03  0.13034797251E+04  0.16458596719E+04  0.25500000920E-02 0.  1.
       -2    1    3    3    0  502  0.47505237336E+03  0.88550545358E+03 -0.13846244247E+04  0.17108417411E+04  0.25500000920E-02 0. -1.
</event>
<event>
 5   0  0.4289684E-07  0.3418550E+04  0.7818609E-02  0.8133369E-01
       -1   -1    0    0    0  501  0.00000000000E+00  0.00000000000E+00  0.15657493878E+04  0.15657493878E+04  0.50400001928E-02 0. -1.
        1   -1    0    0  501    0  0.00000000000E+00  0.00000000000E+00 -0.18659569684E+04  0.18659569684E+04  0.50400001928E-02 0.  1.
    10030    2    1    2    0    0  0.00000000000E+00  0.00000000000E+00 -0.30020758064E+03  0.34317063562E+04  0.34185499739E+04 0.  0.
        4    1    3    3  502    0 -0.15467330030E+04 -0.46597845874E+03  0.41070574789E+03  0.16667932478E+04  0.12699999809E+01 0.  1.
       -4    1    3    3    0  502  0.15467330030E+04  0.46597845874E+03 -0.71091332853E+03  0.17649131084E+04  0.12699999809E+01 0. -1.
</event>
<event>
 5   0  0.1277635E-06  0.3361211E+04  0.7818609E-02  0.8147493E-01
        2   -1    0    0  501    0  0.00000000000E+00  0.00000000000E+00  0.23698109955E+04  0.23698109955E+04  0.25500000920E-02 0. -1.
       -2   -1    0    0    0  501  0.00000000000E+00  0.00000000000E+00 -0.11918396979E+04  0.11918396979E+04  0.25500000920E-02 0.  1.
    10030    2    1    2    0    0  0.00000000000E+00  0.00000000000E+00  0.11779712976E+04  0.35616506934E+04  0.33612109847E+04 0.  0.
        4    1    3    3  502    0  0.16629310940E+04 -0.21000655820E+03  0.71872313946E+03  0.18237343946E+04  0.12699999809E+01 0. -1.
       -4    1    3    3    0  502 -0.16629310940E+04  0.21000655820E+03  0.45924815817E+03  0.17379162988E+04  0.12699999809E+01 0.  1.
</event>
<event>
 5   0  0.4060750E-07  0.3385635E+04  0.7818609E-02  0.8141441E-01
       -3   -1    0    0    0  501  0.00000000000E+00  0.00000000000E+00  0.18253877642E+04  0.18253877670E+04  0.10100000352E+00 0. -1.
        3   -1    0    0  501    0  0.00000000000E+00  0.00000000000E+00 -0.15698755895E+04  0.15698755928E+04  0.10100000352E+00 0.  1.
    10030    2    1    2    0    0  0.00000000000E+00  0.00000000000E+00  0.25551217465E+03  0.33952633597E+04  0.33856353629E+04 0.  0.
        4    1    3    3  502    0  0.86008692018E+02  0.11138820014E+04  0.14031823622E+04  0.17936144967E+04  0.12699999809E+01 0. -1.
       -4    1    3    3    0  502 -0.86008692018E+02 -0.11138820014E+04 -0.11476701875E+04  0.16016488631E+04  0.12699999809E+01 0.  1.
</event>
<event>
 5   0  0.4109937E-07  0.3388540E+04  0.7818609E-02  0.8140725E-01
        1   -1    0    0  501    0  0.00000000000E+00  0.00000000000E+00  0.16468944101E+04  0.16468944101E+04  0.50400001928E-02 0.  1.
       -1   -1    0    0    0  501  0.00000000000E+00  0.00000000000E+00 -0.17430089227E+04  0.17430089227E+04  0.50400001928E-02 0. -1.
    10030    2    1    2    0    0  0.00000000000E+00  0.00000000000E+00 -0.96114512539E+02  0.33899033328E+04  0.33885404832E+04 0.  0.
        5    1    3    3  502    0  0.68235980188E+03  0.15507612077E+04 -0.55431717229E+02  0.16951607557E+04  0.46999998093E+01 0.  1.
       -5    1    3    3    0  502 -0.68235980188E+03 -0.15507612077E+04 -0.40682795310E+02  0.16947425770E+04  0.46999998093E+01 0. -1.
</event>
<event>
 5   0  0.4109937E-07  0.3412432E+04  0.7818609E-02  0.8134862E-01
       -1   -1    0    0    0  501  0.00000000000E+00  0.00000000000E+00  0.13244485939E+04  0.13244485939E+04  0.50400001928E-02 0. -1.
        1   -1    0    0  501    0  0.00000000000E+00  0.00000000000E+00 -0.21980260334E+04  0.21980260334E+04  0.50400001928E-02 0.  1.
    10030    2    1    2    0    0  0.00000000000E+00  0.00000000000E+00 -0.87357743945E+03  0.35224746273E+04  0.34124316781E+04 0.  0.
        5    1    3    3  502    0  0.16703001941E+04 -0.34648057014E+03 -0.40104737191E+03  0.17523734215E+04  0.46999998093E+01 0.  1.
       -5    1    3    3    0  502 -0.16703001941E+04  0.34648057014E+03 -0.47253006754E+03  0.17701012058E+04  0.46999998093E+01 0. -1.
</event>
<event>
 5   0  0.1269497E-06  0.3395571E+04  0.7818609E-02  0.8138994E-01
       -2   -1    0    0    0  501  0.00000000000E+00  0.00000000000E+00  0.11639373702E+04  0.11639373702E+04  0.25500000920E-02 0. -1.
        2   -1    0    0  501    0  0.00000000000E+00  0.00000000000E+00 -0.24764865385E+04  0.24764865385E+04  0.25500000920E-02 0.  1.
    10030    2    1    2    0    0  0.00000000000E+00  0.00000000000E+00 -0.13125491683E+04  0.36404239086E+04  0.33955707790E+04 0.  0.
        5    1    3    3  502    0 -0.91517626267E+03 -0.14080996042E+04 -0.38897496039E+03  0.17238374914E+04  0.46999998093E+01 0. -1.
       -5    1    3    3    0  502  0.91517626267E+03  0.14080996042E+04 -0.92357420793E+03  0.19165864172E+04  0.46999998093E+01 0.  1.
</event>
<event>
 5   0  0.1300176E-06  0.2888644E+04  0.7818609E-02  0.8276264E-01
        2   -1    0    0  501    0  0.00000000000E+00  0.00000000000E+00  0.20783749955E+04  0.20783749955E+04  0.25500000920E-02 0.  1.
       -2   -1    0    0    0  501  0.00000000000E+00  0.00000000000E+00 -0.10037004602E+04  0.10037004602E+04  0.25500000920E-02 0. -1.
    10030    2    1    2    0    0  0.00000000000E+00  0.00000000000E+00  0.10746745353E+04  0.30820754557E+04  0.28886439306E+04 0.  0.
        1    1    3    3  502    0 -0.25726342195E+03  0.40826179755E+03  0.19898195498E+04  0.20474970096E+04  0.50400001928E-02 0.  1.
       -1    1    3    3    0  502  0.25726342195E+03 -0.40826179755E+03 -0.91514501448E+03  0.10345784461E+04  0.50400001928E-02 0. -1.
</event>
<event>
 5   0  0.4125758E-07  0.3364039E+04  0.7818609E-02  0.8146789E-01
       -1   -1    0    0    0  501  0.00000000000E+00  0.00000000000E+00  0.14784452228E+04  0.14784452228E+04  0.50400001928E-02 0. -1.
        1   -1    0    0  501    0  0.00000000000E+00  0.00000000000E+00 -0.19136245917E+04  0.19136245918E+04  0.50400001928E-02 0.  1.
    10030    2    1    2    0    0  0.00000000000E+00  0.00000000000E+00 -0.43517936895E+03  0.33920698146E+04  0.33640387251E+04 0.  0.
        2    1    3    3  502    0  0.16263259481E+04 -0.42452180393E+03 -0.15354441525E+03  0.16878183371E+04  0.25500000920E-02 0.  1.
       -2    1    3    3    0  502 -0.16263259481E+04  0.42452180393E+03 -0.28163495370E+03  0.17042514775E+04  0.25500000920E-02 0. -1.
</event>
<event>
 5   0  0.4125758E-07  0.3406523E+04  0.7818609E-02  0.8136307E-01
        1   -1    0    0  501    0  0.00000000000E+00  0.00000000000E+00  0.20796519393E+04  0.20796519393E+04  0.50400001928E-02 0.  1.
       -1   -1    0    0    0  501  0.00000000000E+00  0.00000000000E+00 -0.13949930988E+04  0.13949930988E+04  0.50400001928E-02 0. -1.
    10030    2    1    2    0    0  0.00000000000E+00  0.00000000000E+00  0.68465884048E+03  0.34746450380E+04  0.34065232147E+04 0.  0.
        2    1    3    3  502    0 -0.12351854849E+04 -0.11161391939E+04  0.70959964628E+03  0.18096910068E+04  0.25500000920E-02 0. -1.
       -2    1    3    3    0  502  0.12351854849E+04  0.11161391939E+04 -0.24940805799E+02  0.16649540312E+04  0.25500000920E-02 0.  1.
</event>
<event>
 5   0  0.1300176E-06  0.3383226E+04  0.7818609E-02  0.8142036E-01
       -2   -1    0    0    0  501  0.00000000000E+00  0.00000000000E+00  0.30297357121E+04  0.30297357121E+04  0.25500000920E-02 0.  1.
        2   -1    0    0  501    0  0.00000000000E+00  0.00000000000E+00 -0.94448963202E+03  0.94448963203E+03  0.25500000920E-02 0. -1.
    10030    2    1    2    0    0  0.00000000000E+00  0.00000000000E+00  0.20852460801E+04  0.39742253442E+04  0.33832256607E+04 0.  0.
        1    1    3    3  502    0 -0.29941374028E+03  0.14061263119E+04 -0.45706149781E+01  0.14376580551E+04  0.50400001928E-02 0. -1.
       -1    1    3    3    0  502  0.29941374028E+03 -0.14061263119E+04  0.20898166951E+04  0.25365672891E+04  0.50400001928E-02 0.  1.
</event>
<event>
 5   0  0.1300176E-06  0.3423989E+04  0.7818609E-02  0.8132044E-01
       -2   -1    0    0    0  501  0.00000000000E+00  0.00000000000E+00  0.99608098048E+03  0.99608098048E+03  0.25500000920E-02 0. -1.
        2   -1    0    0  501    0  0.00000000000E+00  0.00000000000E+00 -0.29424560570E+04  0.29424560570E+04  0.25500000920E-02 0.  1.
    10030    2    1    2    0    0  0.00000000000E+00  0.00000000000E+00 -0.19463750765E+04  0.39385370374E+04  0.34239886181E+04 0.  0.
        1    1    3    3  502    0 -0.44365046593E+03  0.79019252999E+02 -0.28730109764E+04  0.29081371785E+04  0.50400001928E-02 0.  1.
       -1    1    3    3    0  502  0.44365046593E+03 -0.79019252999E+02  0.92663589993E+03  0.10303998590E+04  0.50400001928E-02 0. -1.
</event>
<event>
 5   0  0.1256208E-06  0.3448060E+04  0.7818609E-02  0.8126211E-01
       -2   -1    0    0    0  501  0.00000000000E+00  0.00000000000E+00  0.11194550820E+04  0.11194550820E+04  0.25500000920E-02 0.  1.
        2   -1    0    0  501    0  0.00000000000E+00  0.00000000000E+00 -0.26551123164E+04  0.26551123164E+04  0.25500000920E-02 0. -1.
    10030    2    1    2    0    0  0.00000000000E+00  0.00000000000E+00 -0.15356572344E+04  0.37745673983E+04  0.34480597302E+04 0.  0.
        3    1    3    3  502    0  0.45615147627E+02 -0.10975352420E+04  0.68676059305E+03  0.12954939103E+04  0.10100000352E+00 0.  1.
       -3    1    3    3    0  502 -0.45615147627E+02  0.10975352420E+04 -0.22224178274E+04  0.24790734880E+04  0.10100000352E+00 0. -1.
</event>
<event>
 5   0  0.4289684E-07  0.3411168E+04  0.7818609E-02  0.8135171E-01
       -1   -1    0    0    0  501  0.00000000000E+00  0.00000000000E+00  0.21654223561E+04  0.21654223561E+04  0.50400001928E-02 0. -1.
        1   -1    0    0  501    0  0.00000000000E+00  0.00000000000E+00 -0.13433947779E+04  0.13433947779E+04  0.50400001928E-02 0.  1.
    10030    2    1    2    0    0  0.00000000000E+00  0.00000000000E+00  0.82202757828E+03  0.35088171340E+04  0.34111681783E+04 0.  0.
        4    1    3    3  502    0  0.16973784922E+04  0.15749543744E+03  0.35358627790E+03  0.17409547459E+04  0.12699999809E+01 0. -1.
       -4    1    3    3    0  502 -0.16973784922E+04 -0.15749543744E+03  0.46844130038E+03  0.17678623881E+04  0.12699999809E+01 0.  1.
</event>
<event>
 5   0  0.4289684E-07  0.3400325E+04  0.7818609E-02  0.8137827E-01
        1   -1    0    0  501    0  0.00000000000E+00  0.00000000000E+00  0.22596282259E+04  0.22596282259E+04  0.50400001928E-02 0.  1.
       -1   -1    0    0    0  501  0.00000000000E+00  0.00000000000E+00 -0.12792156064E+04  0.12792156064E+04  0.50400001928E-02 0. -1.
    10030    2    1    2    0    0  0.00000000000E+00  0.00000000000E+00  0.98041261948E+03  0.35388438323E+04  0.34003245087E+04 0.  0.
        4    1    3    3  502    0 -0.67341460651E+03  0.10663224891E+04  0.16768379237E+04  0.20981701356E+04  0.12699999809E+01 0.  1.
       -4    1    3    3    0  502  0.67341460651E+03 -0.10663224891E+04 -0.69642530418E+03  0.14406736966E+04  0.12699999809E+01 0. -1.
</event>
<event>
 5   0  0.4272633E-07  0.3412868E+04  0.7818609E-02  0.8134755E-01
       -1   -1    0    0    0  501  0.00000000000E+00  0.00000000000E+00  0.17775904250E+04  0.17775904250E+04  0.50400001928E-02 0. -1.
        1   -1    0    0  501    0  0.00000000000E+00  0.00000000000E+00 -0.16381260803E+04  0.16381260803E+04  0.50400001928E-02 0.  1.
    10030    2    1    2    0    0  0.00000000000E+00  0.00000000000E+00  0.13946434467E+03  0.34157165053E+04  0.34128681400E+04 0.  0.
        1    1    3    3  502    0  0.41216320016E+03  0.16454605100E+04  0.25562474910E+03  0.17154482814E+04  0.50400001928E-02 0.  1.
       -1    1    3    3    0  502 -0.41216320016E+03 -0.16454605100E+04 -0.11616040443E+03  0.17002682239E+04  0.50400001928E-02 0. -1.
</event>
<event>
 5   0  0.1269497E-06  0.3386275E+04  0.7818609E-02  0.8141283E-01
       -2   -1    0    0    0  501  0.00000000000E+00  0.00000000000E+00  0.13055023557E+04  0.13055023557E+04  0.25500000920E-02 0.  1.
        2   -1    0    0  501    0  0.00000000000E+00  0.00000000000E+00 -0.21958713159E+04  0.21958713159E+04  0.25500000920E-02 0. -1.
    10030    2    1    2    0    0  0.00000000000E+00  0.00000000000E+00 -0.89036896017E+03  0.35013736716E+04  0.33862753437E+04 0.  0.
        5    1    3    3  502    0  0.11634245329E+03  0.10451430375E+03 -0.21883801157E+04  0.21939663687E+04  0.46999998093E+01 0. -1.
       -5    1    3    3    0  502 -0.11634245329E+03 -0.10451430375E+03  0.12980111555E+04  0.13074073030E+04  0.46999998093E+01 0.  1.
</event>
<event>
 5   0  0.4464951E-07  0.3402700E+04  0.7818609E-02  0.8137244E-01
        1   -1    0    0  501    0  0.00000000000E+00  0.00000000000E+00  0.21282556949E+04  0.21282556949E+04  0.50400001928E-02 0.  1.
       -1   -1    0    0    0  501  0.00000000000E+00  0.00000000000E+00 -0.13600767415E+04  0.13600767415E+04  0.50400001928E-02 0. -1.
    10030    2    1    2    0    0  0.00000000000E+00  0.00000000000E+00  0.76817895339E+03  0.34883324365E+04  0.34026995581E+04 0.  0.
        3    1    3    3  502    0  0.77127947790E+03  0.14393500299E+04 -0.10541047697E+03  0.16363715717E+04  0.10100000352E+00 0. -1.
       -3    1    3    3    0  502 -0.77127947790E+03 -0.14393500299E+04  0.87358943036E+03  0.18519608648E+04  0.10100000352E+00 0.  1.
</event>
<event>
 5   0  0.1269497E-06  0.3364437E+04  0.7818609E-02  0.8146690E-01
       -2   -1    0    0    0  501  0.00000000000E+00  0.00000000000E+00  0.13761261165E+04  0.13761261165E+04  0.25500000920E-02 0. -1.
        2   -1    0    0  501    0  0.00000000000E+00  0.00000000000E+00 -0.20563953979E+04  0.20563953979E+04  0.25500000920E-02 0.  1.
    10030    2    1    2    0    0  0.00000000000E+00  0.00000000000E+00 -0.68026928134E+03  0.34325215144E+04  0.33644371968E+04 0.  0.
        5    1    3    3  502    0 -0.66193036512E+03 -0.62142813273E+03  0.11046846733E+04  0.14299213439E+04  0.46999998093E+01 0. -1.
       -5    1    3    3    0  502  0.66193036512E+03  0.62142813273E+03 -0.17849539546E+04  0.20026001704E+04  0.46999998093E+01 0.  1.
</event>
<event>
 5   0  0.1300176E-06  0.3509688E+04  0.7818609E-02  0.8111498E-01
       -2   -1    0    0    0  501  0.00000000000E+00  0.00000000000E+00  0.13790399175E+04  0.13790399175E+04  0.25500000920E-02 0. -1.
        2   -1    0    0  501    0  0.00000000000E+00  0.00000000000E+00 -0.22330583527E+04  0.22330583528E+04  0.25500000920E-02 0.  1.
    10030    2    1    2    0    0  0.00000000000E+00  0.00000000000E+00 -0.85401843525E+03  0.36120982703E+04  0.35096875112E+04 0.  0.
        1    1    3    3  502    0  0.50766512173E+03 -0.56943333253E+03  0.11994520185E+04  0.14215003837E+04  0.50400001928E-02 0. -1.
       -1    1    3    3    0  502 -0.50766512173E+03  0.56943333253E+03 -0.20534704538E+04  0.21905978866E+04  0.50400001928E-02 0.  1.
</event>
<event>
 5   0  0.1277635E-06  0.3380221E+04  0.7818609E-02  0.8142778E-01
        2   -1    0    0  501    0  0.00000000000E+00  0.00000000000E+00  0.16445576747E+04  0.16445576747E+04  0.25500000920E-02 0.  1.
       -2   -1    0    0    0  501  0.00000000000E+00  0.00000000000E+00 -0.17369254825E+04  0.17369254825E+04  0.25500000920E-02 0. -1.
    10030    2    1    2    0    0  0.00000000000E+00  0.00000000000E+00 -0.92367807775E+02  0.33814831572E+04  0.33802213730E+04 0.  0.
        4    1    3    3  502    0 -0.12934803725E+04  0.57258948929E+03  0.87910586045E+03  0.16654665785E+04  0.12699999809E+01 0.  1.
       -4    1    3    3    0  502  0.12934803725E+04 -0.57258948929E+03 -0.97147366822E+03  0.17160165787E+04  0.12699999809E+01 0. -1.
</event>
<event>
 5   0  0.1269497E-06  0.3397076E+04  0.7818609E-02  0.8138624E-01
        2   -1    0    0  501    0  0.00000000000E+00  0.00000000000E+00  0.22001711805E+04  0.22001711805E+04  0.25500000920E-02 0. -1.
       -2   -1    0    0    0  501  0.00000000000E+00  0.00000000000E+00 -0.13112760591E+04  0.13112760591E+04  0.25500000920E-02 0.  1.
    10030    2    1    2    0    0  0.00000000000E+00  0.00000000000E+00  0.88889512135E+03  0.35114472396E+04  0.33970762693E+04 0.  0.
        5    1    3    3  502    0  0.24969197271E+03  0.29172712185E+03  0.21547093259E+04  0.21886628712E+04  0.46999998093E+01 0. -1.
       -5    1    3    3    0  502 -0.24969197271E+03 -0.29172712185E+03 -0.12658142045E+04  0.13227843684E+04  0.46999998093E+01 0.  1.
</event>
<event>
 5   0  0.4289684E-07  0.3376677E+04  0.7818609E-02  0.8143654E-01
        1   -1    0    0  501    0  0.00000000000E+00  0.00000000000E+00  0.21281738464E+04  0.21281738464E+04  0.50400001928E-02 0. -1.
       -1   -1    0    0    0  501  0.00000000000E+00  0.00000000000E+00 -0.13394048662E+04  0.13394048662E+04  0.50400001928E-02 0.  1.
    10030    2    1    2    0    0  0.00000000000E+00  0.00000000000E+00  0.78876898028E+03  0.34675787126E+04  0.33766767130E+04 0.  0.
        4    1    3    3  502    0  0.64528540447E+03 -0.49630205900E+03 -0.11245472349E+04  0.13882784603E+04  0.12699999809E+01 0.  1.
       -4    1    3    3    0  502 -0.64528540447E+03  0.49630205900E+03  0.19133162152E+04  0.20793002523E+04  0.12699999809E+01 0. -1.
</event>
<event>
 5   0  0.1300176E-06  0.3436267E+04  0.7818609E-02  0.8129062E-01
       -2   -1    0    0    0  501  0.00000000000E+00  0.00000000000E+00  0.15440420332E+04  0.15440420332E+04  0.25500000920E-02 0. -1.
        2   -1    0    0  501    0  0.00000000000E+00  0.00000000000E+00 -0.19118536548E+04  0.19118536548E+04  0.25500000920E-02 0.  1.
    10030    2    1    2    0    0  0.00000000000E+00  0.00000000000E+00 -0.36781162152E+03  0.34558956880E+04  0.34362668141E+04 0.  0.
        1    1    3    3  502    0  0.32670503654E+03 -0.13123315972E+04 -0.12496913261E+04  0.18413795948E+04  0.50400001928E-02 0.  1.
       -1    1    3    3    0  502 -0.32670503654E+03  0.13123315972E+04  0.88187970454E+03  0.16145160932E+04  0.50400001928E-02 0. -1.
</event>
<event>
 5   0  0.4272633E-07  0.3409165E+04  0.7818609E-02  0.8135660E-01
       -1   -1    0    0    0  501  0.00000000000E+00  0.00000000000E+00  0.20075899340E+04  0.20075899340E+04  0.50400001928E-02 0.  1.
        1   -1    0    0  501    0  0.00000000000E+00  0.00000000000E+00 -0.14473086074E+04  0.14473086074E+04  0.50400001928E-02 0. -1.
    10030    2    1    2    0    0  0.00000000000E+00  0.00000000000E+00  0.56028132661E+03  0.34548985415E+04  0.34091654062E+04 0.  0.
        1    1    3    3  502    0  0.11158847355E+04 -0.11093402343E+04  0.94450162944E+03  0.18351887713E+04  0.50400001928E-02 0.  1.
       -1    1    3    3    0  502 -0.11158847355E+04  0.11093402343E+04 -0.38422030283E+03  0.16197097701E+04  0.50400001928E-02 0. -1.
</event>
<event>
 5   0  0.4125758E-07  0.3393004E+04  0.7818609E-02  0.8139625E-01
       -1   -1    0    0    0  501  0.00000000000E+00  0.00000000000E+00  0.13207896622E+04  0.13207896622E+04  0.50400001928E-02 0.  1.
        1   -1    0    0  501    0  0.00000000000E+00  0.00000000000E+00 -0.21790900954E+04  0.21790900954E+04  0.50400001928E-02 0. -1.
    10030    2    1    2    0    0  0.00000000000E+00  0.00000000000E+00 -0.85830043326E+03  0.34998797576E+04  0.33930043743E+04 0.  0.
        2    1    3    3  502    0 -0.15616771296E+04  0.51294619990E+03  0.37972340657E+01  0.16437650927E+04  0.25500000920E-02 0.  1.
       -2    1    3    3    0  502  0.15616771296E+04 -0.51294619990E+03 -0.86209766733E+03  0.18561146649E+04  0.25500000920E-02 0. -1.
</event>
<event>
 5   0  0.4125758E-07  0.3398660E+04  0.7818609E-02  0.8138235E-01
        1   -1    0    0  501    0  0.00000000000E+00  0.00000000000E+00  0.24968020570E+04  0.24968020570E+04  0.50400001928E-02 0. -1.
       -1   -1    0    0    0  501  0.00000000000E+00  0.00000000000E+00 -0.11565686349E+04  0.11565686349E+04  0.50400001928E-02 0.  1.
    10030    2    1    2    0    0  0.00000000000E+00  0.00000000000E+00  0.13402334221E+04  0.36533706919E+04  0.33986602929E+04 0.  0.
        2    1    3    3  502    0  0.14155308790E+04 -0.88917300060E+03  0.99857624823E+03  0.19471802222E+04  0.25500000920E-02 0.  1.
       -2    1    3    3    0  502 -0.14155308790E+04  0.88917300060E+03  0.34165717386E+03  0.17061904697E+04  0.25500000920E-02 0. -1.
</event>
<event>
 5   0  0.4272633E-07  0.3353404E+04  0.7818609E-02  0.8149438E-01
        1   -1    0    0  501    0  0.00000000000E+00  0.00000000000E+00  0.23090779847E+04  0.23090779847E+04  0.50400001928E-02 0.  1.
       -1   -1    0    0    0  501  0.00000000000E+00  0.00000000000E+00 -0.12175118011E+04  0.12175118011E+04  0.50400001928E-02 0. -1.
    10030    2    1    2    0    0  0.00000000000E+00  0.00000000000E+00  0.10915661836E+04  0.35265897858E+04  0.33534040592E+04 0.  0.
        1    1    3    3  502    0  0.15144109411E+04 -0.50141765008E+02 -0.20918871507E+03  0.15296125698E+04  0.50400001928E-02 0. -1.
       -1    1    3    3    0  502 -0.15144109411E+04  0.50141765008E+02  0.13007548987E+04  0.19969772160E+04  0.50400001928E-02 0.  1.
</event>
<event>
 5   0  0.4289684E-07  0.3393199E+04  0.7818609E-02  0.8139577E-01
       -1   -1    0    0    0  501  0.00000000000E+00  0.00000000000E+00  0.12086478171E+04  0.12086478171E+04  0.50400001928E-02 0. -1.
        1   -1    0    0  501    0  0.00000000000E+00  0.00000000000E+00 -0.23815459158E+04  0.23815459158E+04  0.50400001928E-02 0.  1.
    10030    2    1    2    0    0  0.00000000000E+00  0.00000000000E+00 -0.11728980987E+04  0.35901937329E+04  0.33931992411E+04 0.  0.
        4    1    3    3  502    0 -0.43703509578E+03  0.81963054493E+03  0.91571234681E+03  0.13043483508E+04  0.12699999809E+01 0. -1.
       -4    1    3    3    0  502  0.43703509578E+03 -0.81963054493E+03 -0.20886104455E+04  0.22858453821E+04  0.12699999809E+01 0.  1.
</event>
<event>
 5   0  0.1277635E-06  0.3417026E+04  0.7818609E-02  0.8133740E-01
       -2   -1    0    0    0  501  0.00000000000E+00  0.00000000000E+00  0.13606570693E+04  0.13606570693E+04  0.25500000920E-02 0.  1.
        2   -1    0    0  501    0  0.00000000000E+00  0.00000000000E+00 -0.21452998981E+04  0.21452998981E+04  0.25500000920E-02 0. -1.
    10030    2    1    2    0    0  0.00000000000E+00  0.00000000000E+00 -0.78464282878E+03  0.35059569674E+04  0.34170264688E+04 0.  0.
        4    1    3    3  502    0 -0.65591510818E+03  0.14673400449E+04 -0.98680075933E+03  0.18860245990E+04  0.12699999809E+01 0.  1.
       -4    1    3    3    0  502  0.65591510818E+03 -0.14673400449E+04  0.20215793055E+03  0.16199323684E+04  0.12699999809E+01 0. -1.
</event>
<event>
 5   0  0.1277635E-06  0.3423739E+04  0.7818609E-02  0.8132104E-01
       -2   -1    0    0    0  501  0.00000000000E+00  0.00000000000E+00  0.12988436327E+04  0.12988436327E+04  0.25500000920E-02 0.  1.
        2   -1    0    0  501    0  0.00000000000E+00  0.00000000000E+00 -0.22562358164E+04  0.22562358164E+04  0.25500000920E-02 0. -1.
    10030    2    1    2    0    0  0.00000000000E+00  0.00000000000E+00 -0.95739218378E+03  0.35550794491E+04  0.34237391980E+04 0.  0.
        4    1    3    3  502    0  0.59310475462E+03 -0.61865975655E+03 -0.20174284956E+04  0.21919243810E+04  0.12699999809E+01 0. -1.
       -4    1    3    3    0  502 -0.59310475462E+03  0.61865975655E+03  0.10600363118E+04  0.13631550681E+04  0.12699999809E+01 0.  1.
</event>
<event>
 5   0  0.4109937E-07  0.3300613E+04  0.7818609E-02  0.8162739E-01
        1   -1    0    0  501    0  0.00000000000E+00  0.00000000000E+00  0.26066624946E+04  0.26066624946E+04  0.50400001928E-02 0.  1.
       -1   -1    0    0    0  501  0.00000000000E+00  0.00000000000E+00 -0.10448270455E+04  0.10448270455E+04  0.50400001928E-02 0. -1.
    10030    2    1    2    0    0  0.00000000000E+00  0.00000000000E+00  0.15618354490E+04  0.36514895401E+04  0.33006129570E+04 0.  0.
        5    1    3    3  502    0 -0.72162882940E+02 -0.90603817420E+02  0.26021525379E+04  0.26047334708E+04  0.46999998093E+01 0.  1.
       -5    1    3    3    0  502  0.72162882940E+02  0.90603817420E+02 -0.10403170888E+04  0.10467560693E+04  0.46999998093E+01 0. -1.
</event>
<event>
 5   0  0.1268230E-06  0.3375648E+04  0.7818609E-02  0.8143909E-01
       -2   -1    0    0    0  501  0.00000000000E+00  0.00000000000E+00  0.95791412455E+03  0.95791412455E+03  0.25500000920E-02 0.  1.
        2   -1    0    0  501    0  0.00000000000E+00  0.00000000000E+00 -0.29739099600E+04  0.29739099600E+04  0.25500000920E-02 0. -1.
    10030    2    1    2    0    0  0.00000000000E+00  0.00000000000E+00 -0.20159958355E+04  0.39318240846E+04  0.33756482968E+04 0.  0.
        2    1    3    3  502    0  0.10523179185E+04 -0.13183125200E+04 -0.93978771040E+03  0.19309380732E+04  0.25500000920E-02 0. -1.
       -2    1    3    3    0  502 -0.10523179185E+04  0.13183125200E+04 -0.10762081251E+04  0.20008860114E+04  0.25500000920E-02 0.  1.
</event>
<event>
 5   0  0.4060750E-07  0.3153406E+04  0.7818609E-02  0.8201232E-01
        3   -1    0    0  501    0  0.00000000000E+00  0.00000000000E+00  0.23680666546E+04  0.23680666567E+04  0.10100000352E+00 0.  1.
       -3   -1    0    0    0  501  0.00000000000E+00  0.00000000000E+00 -0.10497985145E+04  0.10497985193E+04  0.10100000352E+00 0. -1.
    10030    2    1    2    0    0  0.00000000000E+00  0.00000000000E+00  0.13182681401E+04  0.34178651760E+04  0.31534063284E+04 0.  0.
        2    1    3    3  502    0 -0.95722294923E+03  0.68369170999E+03 -0.47881151634E+03  0.12700277938E+04  0.25500000920E-02 0. -1.
       -2    1    3    3    0  502  0.95722294923E+03 -0.68369170999E+03  0.17970796564E+04  0.21478373822E+04  0.25500000920E-02 0.  1.
</event>
<event>
 5   0  0.1300176E-06  0.3432945E+04  0.7818609E-02  0.8129868E-01
        2   -1    0    0  501    0  0.00000000000E+00  0.00000000000E+00  0.32074729831E+04  0.32074729831E+04  0.25500000920E-02 0.  1.
       -2   -1    0    0    0  501  0.00000000000E+00  0.00000000000E+00 -0.91856667868E+03  0.91856667868E+03  0.25500000920E-02 0. -1.
    10030    2    1    2    0    0  0.00000000000E+00  0.00000000000E+00  0.22889063044E+04  0.41260396618E+04  0.34329449777E+04 0.  0.
        1    1    3    3  502    0 -0.27631692977E+03  0.15222705606E+04  0.20379221777E+04  0.25586686983E+04  0.50400001928E-02 0.  1.
       -1    1    3    3    0  502  0.27631692977E+03 -0.15222705606E+04  0.25098412671E+03  0.15673709635E+04  0.50400001928E-02 0. -1.
</event>
<event>
 5   0  0.1277635E-06  0.3395011E+04  0.7818609E-02  0.8139132E-01
       -2   -1    0    0    0  501  0.00000000000E+00  0.00000000000E+00  0.22073075920E+04  0.22073075920E+04  0.25500000920E-02 0. -1.
        2   -1    0    0  501    0  0.00000000000E+00  0.00000000000E+00 -0.13054481287E+04  0.13054481287E+04  0.25500000920E-02 0.  1.
    10030    2    1    2    0    0  0.00000000000E+00  0.00000000000E+00  0.90185946333E+03  0.35127557207E+04  0.33950113788E+04 0.  0.
        4    1    3    3  502    0 -0.52873190254E+03 -0.19338161656E+03 -0.12060378095E+04  0.13309705801E+04  0.12699999809E+01 0.  1.
       -4    1    3    3    0  502  0.52873190254E+03  0.19338161656E+03  0.21078972728E+04  0.21817851406E+04  0.12699999809E+01 0. -1.
</event>
<event>
 5   0  0.4109937E-07  0.2992967E+04  0.7818609E-02  0.8245742E-01
       -1   -1    0    0    0  501  0.00000000000E+00  0.00000000000E+00  0.26481926789E+04  0.26481926789E+04  0.50400001928E-02 0.  1.
        1   -1    0    0  501    0  0.00000000000E+00  0.00000000000E+00 -0.84565728000E+03  0.84565728002E+03  0.50400001928E-02 0. -1.
    10030    2    1    2    0    0  0.00000000000E+00  0.00000000000E+00  0.18025353989E+04  0.34938499589E+04  0.29929673689E+04 0.  0.
        5    1    3    3  502    0  0.12652109728E+04  0.79887712727E+03  0.92678598785E+03  0.17600902896E+04  0.46999998093E+01 0. -1.
       -5    1    3    3    0  502 -0.12652109728E+04 -0.79887712727E+03  0.87574941107E+03  0.17337596694E+04  0.46999998093E+01 0.  1.
</event>
<event>
 5   0  0.1277635E-06  0.3431124E+04  0.7818609E-02  0.8130309E-01
        2   -1    0    0  501    0  0.00000000000E+00  0.00000000000E+00  0.23587853025E+04  0.23587853025E+04  0.25500000920E-02 0. -1.
       -2   -1    0    0    0  501  0.00000000000E+00  0.00000000000E+00 -0.12477409655E+04  0.12477409655E+04  0.25500000920E-02 0.  1.
    10030    2    1    2    0    0  0.00000000000E+00  0.00000000000E+00  0.11110443370E+04  0.36065262680E+04  0.34311240437E+04 0.  0.
        4    1    3    3  502    0  0.13615595578E+03  0.72437202661E+03  0.21838771495E+04  0.23049022310E+04  0.12699999809E+01 0. -1.
       -4    1    3    3    0  502 -0.13615595578E+03 -0.72437202661E+03 -0.10728328126E+04  0.13016240371E+04  0.12699999809E+01 0.  1.
</event>
<event>
 5   0  0.1269497E-06  0.3370990E+04  0.7818609E-02  0.8145063E-01
        2   -1    0    0  501    0  0.00000000000E+00  0.00000000000E+00  0.26818003400E+04  0.26818003400E+04  0.25500000920E-02 0. -1.
       -2   -1    0    0    0  501  0.00000000000E+00  0.00000000000E+00 -0.10593230722E+04  0.10593230722E+04  0.25500000920E-02 0.  1.
    10030    2    1    2    0    0  0.00000000000E+00  0.00000000000E+00  0.16224772678E+04  0.37411234122E+04  0.33709897510E+04 0.  0.
        5    1    3    3  502    0  0.83230354395E+03  0.13772489455E+04  0.13676092808E+04  0.21118525238E+04  0.46999998093E+01 0. -1.
       -5    1    3    3    0  502 -0.83230354395E+03 -0.13772489455E+04  0.25486798698E+03  0.16292708885E+04  0.46999998093E+01 0.  1.
</event>
<event>
 5   0  0.1300176E-06  0.3296836E+04  0.7818609E-02  0.8163701E-01
        2   -1    0    0  501    0  0.00000000000E+00  0.00000000000E+00  0.14966843732E+04  0.14966843732E+04  0.25500000920E-02 0.  1.
       -2   -1    0    0    0  501  0.00000000000E+00  0.00000000000E+00 -0.18155347933E+04  0.18155347933E+04  0.25500000920E-02 0. -1.
    10030    2    1    2    0    0  0.00000000000E+00  0.00000000000E+00 -0.31885042006E+03  0.33122191665E+04  0.32968363952E+04 0.  0.
        1    1    3    3  502    0  0.86161101204E+03 -0.51167731037E+02  0.12515102663E+04  0.15202860321E+04  0.50400001928E-02 0.  1.
       -1    1    3    3    0  502 -0.86161101204E+03  0.51167731037E+02 -0.15703606864E+04  0.17919331344E+04  0.50400001928E-02 0. -1.
</event>
<event>
 5   0  0.4289684E-07  0.3393292E+04  0.7818609E-02  0.8139555E-01
       -1   -1    0    0    0  501  0.00000000000E+00  0.00000000000E+00  0.20204499589E+04  0.20204499589E+04  0.50400001928E-02 0.  1.
        1   -1    0    0  501    0  0.00000000000E+00  0.00000000000E+00 -0.14247357557E+04  0.14247357557E+04  0.50400001928E-02 0. -1.
    10030    2    1    2    0    0  0.00000000000E+00  0.00000000000E+00  0.59571420325E+03  0.34451857146E+04  0.33932917935E+04 0.  0.
        4    1    3    3  502    0 -0.39747429680E+03  0.16116858427E+04  0.65406239694E+03  0.17841850533E+04  0.12699999809E+01 0. -1.
       -4    1    3    3    0  502  0.39747429680E+03 -0.16116858427E+04 -0.58348193692E+02  0.16610006613E+04  0.12699999809E+01 0.  1.
</event>
<event>
 5   0  0.1300176E-06  0.3317585E+04  0.7818609E-02  0.8158435E-01
        2   -1    0    0  501    0  0.00000000000E+00  0.00000000000E+00  0.18705907968E+04  0.18705907968E+04  0.25500000920E-02 0. -1.
       -2   -1    0    0    0  501  0.00000000000E+00  0.00000000000E+00 -0.14709748776E+04  0.14709748776E+04  0.25500000920E-02 0.  1.
    10030    2    1    2    0    0  0.00000000000E+00  0.00000000000E+00  0.39961591919E+03  0.33415656744E+04  0.33175847048E+04 0.  0.
        1    1    3    3  502    0  0.54255576098E+03  0.15612241960E+04  0.34155304061E+03  0.16877340500E+04  0.50400001928E-02 0. -1.
       -1    1    3    3    0  502 -0.54255576098E+03 -0.15612241960E+04  0.58062878581E+02  0.16538316244E+04  0.50400001928E-02 0.  1.
</event>
<event>
 5   0  0.4125758E-07  0.3410591E+04  0.7818609E-02  0.8135312E-01
       -1   -1    0    0    0  501  0.00000000000E+00  0.00000000000E+00  0.17572873598E+04  0.17572873598E+04  0.50400001928E-02 0.  1.
        1   -1    0    0  501    0  0.00000000000E+00  0.00000000000E+00 -0.16548415644E+04  0.16548415644E+04  0.50400001928E-02 0. -1.
    10030    2    1    2    0    0  0.00000000000E+00  0.00000000000E+00  0.10244579538E+03  0.34121289243E+04  0.34105906607E+04 0.  0.
        2    1    3    3  502    0  0.25197504805E+03  0.12430175415E+04 -0.10892246300E+04  0.16718236533E+04  0.25500000920E-02 0. -1.
       -2    1    3    3    0  502 -0.25197504805E+03 -0.12430175415E+04  0.11916704253E+04  0.17403052709E+04  0.25500000920E-02 0.  1.
</event>
<event>
 5   0  0.1256208E-06  0.3405380E+04  0.7818609E-02  0.8136587E-01
        2   -1    0    0  501    0  0.00000000000E+00  0.00000000000E+00  0.20632371793E+04  0.20632371793E+04  0.25500000920E-02 0. -1.
       -2   -1    0    0    0  501  0.00000000000E+00  0.00000000000E+00 -0.14051476321E+04  0.14051476321E+04  0.25500000920E-02 0.  1.
    10030    2    1    2    0    0  0.00000000000E+00  0.00000000000E+00  0.65808954722E+03  0.34683848115E+04  0.34053797656E+04 0.  0.
        3    1    3    3  502    0 -0.14288021497E+04  0.90568908975E+03  0.52602550604E+03  0.17715674284E+04  0.10100000352E+00 0. -1.
       -3    1    3    3    0  502  0.14288021497E+04 -0.90568908975E+03  0.13206404119E+03  0.16968173830E+04  0.10100000352E+00 0.  1.
</event>
<event>
 5   0  0.4289684E-07  0.3394028E+04  0.7818609E-02  0.8139374E-01
       -1   -1    0    0    0  501  0.00000000000E+00  0.00000000000E+00  0.93392875212E+03  0.93392875213E+03  0.50400001928E-02 0. -1.
        1   -1    0    0  501    0  0.00000000000E+00  0.00000000000E+00 -0.30835925448E+04  0.30835925448E+04  0.50400001928E-02 0.  1.
    10030    2    1    2    0    0  0.00000000000E+00  0.00000000000E+00 -0.21496637927E+04  0.40175212969E+04  0.33940275411E+04 0.  0.
        4    1    3    3  502    0 -0.65553942997E+03  0.13337339383E+03 -0.29209284249E+04  0.29965555031E+04  0.12699999809E+01 0.  1.
       -4    1    3    3    0  502  0.65553942997E+03 -0.13337339383E+03  0.77126463225E+03  0.10209657939E+04  0.12699999809E+01 0. -1.
</event>
<event>
 5   0  0.4272633E-07  0.3356433E+04  0.7818609E-02  0.8148683E-01
        1   -1    0    0  501    0  0.00000000000E+00  0.00000000000E+00  0.20877220382E+04  0.20877220382E+04  0.50400001928E-02 0. -1.
       -1   -1    0    0    0  501  0.00000000000E+00  0.00000000000E+00 -0.13490349115E+04  0.13490349115E+04  0.50400001928E-02 0.  1.
    10030    2    1    2    0    0  0.00000000000E+00  0.00000000000E+00  0.73868712671E+03  0.34367569497E+04  0.33564325794E+04 0.  0.
        1    1    3    3  502    0 -0.13129424749E+04 -0.76599414167E+03 -0.35890493860E+03  0.15618507363E+04  0.50400001928E-02 0.  1.
       -1    1    3    3    0  502  0.13129424749E+04  0.76599414167E+03  0.10975920653E+04  0.18749062135E+04  0.50400001928E-02 0. -1.
</event>
<event>
 5   0  0.1300176E-06  0.3436974E+04  0.7818609E-02  0.8128891E-01
       -2   -1    0    0    0  501  0.00000000000E+00  0.00000000000E+00  0.12224826469E+04  0.12224826469E+04  0.25500000920E-02 0.  1.
        2   -1    0    0  501    0  0.00000000000E+00  0.00000000000E+00 -0.24157375983E+04  0.24157375983E+04  0.25500000920E-02 0. -1.
    10030    2    1    2    0    0  0.00000000000E+00  0.00000000000E+00 -0.11932549514E+04  0.36382202452E+04  0.34369738395E+04 0.  0.
        1    1    3    3  502    0 -0.79255118860E+03 -0.63767725589E+03 -0.20628013257E+04  0.22999823865E+04  0.50400001928E-02 0. -1.
       -1    1    3    3    0  502  0.79255118860E+03  0.63767725589E+03  0.86954637429E+03  0.13382378586E+04  0.50400001928E-02 0.  1.
</event>
<event>
 5   0  0.1277635E-06  0.3388360E+04  0.7818609E-02  0.8140769E-01
        2   -1    0    0  501    0  0.00000000000E+00  0.00000000000E+00  0.25844965661E+04  0.25844965661E+04  0.25500000920E-02 0. -1.
       -2   -1    0    0    0  501  0.00000000000E+00  0.00000000000E+00 -0.11105630907E+04  0.11105630907E+04  0.25500000920E-02 0.  1.
    10030    2    1    2    0    0  0.00000000000E+00  0.00000000000E+00  0.14739334754E+04  0.36950596568E+04  0.33883603671E+04 0.  0.
        4    1    3    3  502    0  0.54795729520E+03  0.94984620302E+03 -0.67135286920E+03  0.12857609788E+04  0.12699999809E+01 0.  1.
       -4    1    3    3    0  502 -0.54795729520E+03 -0.94984620302E+03  0.21452863446E+04  0.24092986780E+04  0.12699999809E+01 0. -1.
</event>
<event>
 5   0  0.4060750E-07  0.3381071E+04  0.7818609E-02  0.8142568E-01
        3   -1    0    0  501    0  0.00000000000E+00  0.00000000000E+00  0.19142751246E+04  0.19142751272E+04  0.10100000352E+00 0. -1.
       -3   -1    0    0    0  501  0.00000000000E+00  0.00000000000E+00 -0.14929462185E+04  0.14929462219E+04  0.10100000352E+00 0.  1.
    10030    2    1    2    0    0  0.00000000000E+00  0.00000000000E+00  0.42132890609E+03  0.34072213491E+04  0.33810707291E+04 0.  0.
        4    1    3    3  502    0  0.15710221851E+03 -0.55974473264E+03  0.18103656145E+04  0.19014259238E+04  0.12699999809E+01 0. -1.
       -4    1    3    3    0  502 -0.15710221851E+03  0.55974473264E+03 -0.13890367084E+04  0.15057954253E+04  0.12699999809E+01 0.  1.
</event>
<event>
 5   0  0.1300176E-06  0.2817948E+04  0.7818609E-02  0.8297718E-01
        2   -1    0    0  501    0  0.00000000000E+00  0.00000000000E+00  0.96015163287E+03  0.96015163287E+03  0.25500000920E-02 0. -1.
       -2   -1    0    0    0  501  0.00000000000E+00  0.00000000000E+00 -0.20675987268E+04  0.20675987268E+04  0.25500000920E-02 0.  1.
    10030    2    1    2    0    0  0.00000000000E+00  0.00000000000E+00 -0.11074470939E+04  0.30277503596E+04  0.28179483981E+04 0.  0.
        1    1    3    3  502    0 -0.95425719653E+03  0.79232498839E+03  0.16449166352E+03  0.12511767228E+04  0.50400001928E-02 0. -1.
       -1    1    3    3    0  502  0.95425719653E+03 -0.79232498839E+03 -0.12719387574E+04  0.17765736368E+04  0.50400001928E-02 0.  1.
</event>
<event>
 5   0  0.1256208E-06  0.3399686E+04  0.7818609E-02  0.8137983E-01
        2   -1    0    0  501    0  0.00000000000E+00  0.00000000000E+00  0.95067324468E+03  0.95067324469E+03  0.25500000920E-02 0. -1.
       -2   -1    0    0    0  501  0.00000000000E+00  0.00000000000E+00 -0.30393887160E+04  0.30393887160E+04  0.25500000920E-02 0.  1.
    10030    2    1    2    0    0  0.00000000000E+00  0.00000000000E+00 -0.20887154713E+04  0.39900619607E+04  0.33996855928E+04 0.  0.
        3    1    3    3  502    0  0.16385936107E+04 -0.25590610229E+03 -0.60680497816E+03  0.17659811001E+04  0.10100000352E+00 0. -1.
       -3    1    3    3    0  502 -0.16385936107E+04  0.25590610229E+03 -0.14819104932E+04  0.22240808606E+04  0.10100000352E+00 0.  1.
</event>
<event>
 5   0  0.4272633E-07  0.3132994E+04  0.7818609E-02  0.8206741E-01
        1   -1    0    0  501    0  0.00000000000E+00  0.00000000000E+00  0.15211358293E+04  0.15211358293E+04  0.50400001928E-02 0.  1.
       -1   -1    0    0    0  501  0.00000000000E+00  0.00000000000E+00 -0.16132105021E+04  0.16132105022E+04  0.50400001928E-02 0. -1.
    10030    2    1    2    0    0  0.00000000000E+00  0.00000000000E+00 -0.92074672875E+02  0.31343463314E+04  0.31329936451E+04 0.  0.
        1    1    3    3  502    0 -0.54220528802E+03  0.15787801253E+01  0.14242649274E+04  0.15239815124E+04  0.50400001928E-02 0.  1.
       -1    1    3    3    0  502  0.54220528802E+03 -0.15787801253E+01 -0.15163396003E+04  0.16103648190E+04  0.50400001928E-02 0. -1.
</event>
<event>
 5   0  0.4272633E-07  0.3363417E+04  0.7818609E-02  0.8146944E-01
       -1   -1    0    0    0  501  0.00000000000E+00  0.00000000000E+00  0.11167426334E+04  0.11167426334E+04  0.50400001928E-02 0. -1.
        1   -1    0    0  501    0  0.00000000000E+00  0.00000000000E+00 -0.25324934706E+04  0.25324934706E+04  0.50400001928E-02 0.  1.
    10030    2    1    2    0    0  0.00000000000E+00  0.00000000000E+00 -0.14157508372E+04  0.36492361039E+04  0.33634169693E+04 0.  0.
        1    1    3    3  502    0 -0.22938311707E+03 -0.12538766293E+04  0.48230241527E+03  0.13628788779E+04  0.50400001928E-02 0. -1.
       -1    1    3    3    0  502  0.22938311707E+03  0.12538766293E+04 -0.18980532525E+04  0.22863572261E+04  0.50400001928E-02 0.  1.
</event>
<event>
 5   0  0.4464951E-07  0.3436353E+04  0.7818609E-02  0.8129041E-01
       -1   -1    0    0    0  501  0.00000000000E+00  0.00000000000E+00  0.88259187719E+03  0.88259187720E+03  0.50400001928E-02 0.  1.
        1   -1    0    0  501    0  0.00000000000E+00  0.00000000000E+00 -0.33448430091E+04  0.33448430092E+04  0.50400001928E-02 0. -1.
    10030    2    1    2    0    0  0.00000000000E+00  0.00000000000E+00 -0.24622511320E+04  0.42274348864E+04  0.34363534570E+04 0.  0.
        3    1    3    3  502    0 -0.11639275731E+04  0.76515485459E+03  0.64077255479E+01  0.13929215398E+04  0.10100000352E+00 0.  1.
       -3    1    3    3    0  502  0.11639275731E+04 -0.76515485459E+03 -0.24686588575E+04  0.28345133466E+04  0.10100000352E+00 0. -1.
</event>
<event>
 5   0  0.4109937E-07  0.3430481E+04  0.7818609E-02  0.8130466E-01
       -1   -1    0    0    0  501  0.00000000000E+00  0.00000000000E+00  0.24723682073E+04  0.24723682073E+04  0.50400001928E-02 0. -1.
        1   -1    0    0  501    0  0.00000000000E+00  0.00000000000E+00 -0.11899724851E+04  0.11899724851E+04  0.50400001928E-02 0.  1.
    10030    2    1    2    0    0  0.00000000000E+00  0.00000000000E+00  0.12823957221E+04  0.36623406924E+04  0.34304810973E+04 0.  0.
        5    1    3    3  502    0 -0.78863891233E+03  0.12878923802E+04  0.15094364180E+04  0.21351905084E+04  0.46999998093E+01 0. -1.
       -5    1    3    3    0  502  0.78863891233E+03 -0.12878923802E+04 -0.22704069588E+03  0.15271501840E+04  0.46999998093E+01 0.  1.
</event>
<event>
 5   0  0.4109937E-07  0.3050240E+04  0.7818609E-02  0.8229528E-01
        1   -1    0    0  501    0  0.00000000000E+00  0.00000000000E+00  0.13743383142E+04  0.13743383143E+04  0.50400001928E-02 0. -1.
       -1   -1    0    0    0  501  0.00000000000E+00  0.00000000000E+00 -0.16924447824E+04  0.16924447824E+04  0.50400001928E-02 0.  1.
    10030    2    1    2    0    0  0.00000000000E+00  0.00000000000E+00 -0.31810646813E+03  0.30667830966E+04  0.30502404556E+04 0.  0.
        5    1    3    3  502    0 -0.11213852346E+04  0.91992265024E+03  0.31489176197E+03  0.14842309249E+04  0.46999998093E+01 0. -1.
       -5    1    3    3    0  502  0.11213852346E+04 -0.91992265024E+03 -0.63299823010E+03  0.15825521717E+04  0.46999998093E+01 0.  1.
</event>
<event>
 5   0  0.1277635E-06  0.3325814E+04  0.7818609E-02  0.8156358E-01
        2   -1    0    0  501    0  0.00000000000E+00  0.00000000000E+00  0.11667077706E+04  0.11667077706E+04  0.25500000920E-02 0. -1.
       -2   -1    0    0    0  501  0.00000000000E+00  0.00000000000E+00 -0.23701390678E+04  0.23701390678E+04  0.25500000920E-02 0.  1.
    10030    2    1    2    0    0  0.00000000000E+00  0.00000000000E+00 -0.12034312971E+04  0.35368468384E+04  0.33258139863E+04 0.  0.
        4    1    3    3  502    0 -0.82952210553E+03 -0.95900806409E+02  0.92757049120E+03  0.12480755255E+04  0.12699999809E+01 0. -1.
       -4    1    3    3    0  502  0.82952210553E+03  0.95900806409E+02 -0.21310017883E+04  0.22887713130E+04  0.12699999809E+01 0.  1.
</event>
<event>
 5   0  0.1300176E-06  0.3369590E+04  0.7818609E-02  0.8145410E-01
        2   -1    0    0  501    0  0.00000000000E+00  0.00000000000E+00  0.15423116633E+04  0.15423116633E+04  0.25500000920E-02 0. -1.
       -2   -1    0    0    0  501  0.00000000000E+00  0.00000000000E+00 -0.18404416916E+04  0.18404416916E+04  0.25500000920E-02 0.  1.
    10030    2    1    2    0    0  0.00000000000E+00  0.00000000000E+00 -0.29813002835E+03  0.33827533549E+04  0.33695902935E+04 0.  0.
        1    1    3    3  502    0 -0.32563904140E+03  0.14927413175E+04  0.56379144509E+03  0.16285509570E+04  0.50400001928E-02 0.  1.
       -1    1    3    3    0  502  0.32563904140E+03 -0.14927413175E+04 -0.86192147344E+03  0.17542023978E+04  0.50400001928E-02 0. -1.
</event>
<event>
 5   0  0.4125758E-07  0.3352827E+04  0.7818609E-02  0.8149582E-01
       -1   -1    0    0    0  501  0.00000000000E+00  0.00000000000E+00  0.10498254891E+04  0.10498254891E+04  0.50400001928E-02 0. -1.
        1   -1    0    0  501    0  0.00000000000E+00  0.00000000000E+00 -0.26769805855E+04  0.26769805855E+04  0.50400001928E-02 0.  1.
    10030    2    1    2    0    0  0.00000000000E+00  0.00000000000E+00 -0.16271550964E+04  0.37268060746E+04  0.33528271369E+04 0.  0.
        2    1    3    3  502    0 -0.51212797417E+03 -0.14466469942E+04 -0.63554874781E+02  0.15359367858E+04  0.25500000920E-02 0. -1.
       -2    1    3    3    0  502  0.51212797417E+03  0.14466469942E+04 -0.15636002216E+04  0.21908692888E+04  0.25500000920E-02 0.  1.
</event>
<event>
 5   0  0.1269497E-06  0.3447638E+04  0.7818609E-02  0.8126312E-01
        2   -1    0    0  501    0  0.00000000000E+00  0.00000000000E+00  0.20364616885E+04  0.20364616885E+04  0.25500000920E-02 0.  1.
       -2   -1    0    0    0  501  0.00000000000E+00  0.00000000000E+00 -0.14591742414E+04  0.14591742414E+04  0.25500000920E-02 0. -1.
    10030    2    1    2    0    0  0.00000000000E+00  0.00000000000E+00  0.57728744712E+03  0.34956359299E+04  0.34476382869E+04 0.  0.
        5    1    3    3  502    0 -0.12297570431E+04  0.80729082656E+03 -0.62248201630E+03  0.15973499348E+04  0.46999998093E+01 0. -1.
       -5    1    3    3    0  502  0.12297570431E+04 -0.80729082656E+03  0.11997694634E+04  0.18982859951E+04  0.46999998093E+01 0.  1.
</event>
<event>
 5   0  0.4125758E-07  0.3401614E+04  0.7818609E-02  0.8137510E-01
       -1   -1    0    0    0  501  0.00000000000E+00  0.00000000000E+00  0.13008757180E+04  0.13008757180E+04  0.50400001928E-02 0. -1.
        1   -1    0    0  501    0  0.00000000000E+00  0.00000000000E+00 -0.22236896400E+04  0.22236896400E+04  0.50400001928E-02 0.  1.
    10030    2    1    2    0    0  0.00000000000E+00  0.00000000000E+00 -0.92281392201E+03  0.35245653580E+04  0.34016136506E+04 0.  0.
        2    1    3    3  502    0 -0.16679949298E+04  0.56133714443E+02 -0.80094932270E+03  0.18511828374E+04  0.25500000920E-02 0.  1.
       -2    1    3    3    0  502  0.16679949298E+04 -0.56133714443E+02 -0.12186459932E+03  0.16733825206E+04  0.25500000920E-02 0. -1.
</event>
<event>
 5   0  0.1268230E-06  0.3387184E+04  0.7818609E-02  0.8141059E-01
       -2   -1    0    0    0  501  0.00000000000E+00  0.00000000000E+00  0.18248675130E+04  0.18248675130E+04  0.25500000920E-02 0.  1.
        2   -1    0    0  501    0  0.00000000000E+00  0.00000000000E+00 -0.15717602086E+04  0.15717602087E+04  0.25500000920E-02 0. -1.
    10030    2    1    2    0    0  0.00000000000E+00  0.00000000000E+00  0.25310730431E+03  0.33966277216E+04  0.33871841656E+04 0.  0.
        2    1    3    3  502    0  0.57993948468E+02  0.13238187301E+04  0.11841954780E+04  0.17771264047E+04  0.25500000920E-02 0.  1.
       -2    1    3    3    0  502 -0.57993948468E+02 -0.13238187301E+04 -0.93108817368E+03  0.16195013169E+04  0.25500000920E-02 0. -1.
</event>
<event>
 5   0  0.1256208E-06  0.2905596E+04  0.7818609E-02  0.8271215E-01
       -2   -1    0    0    0  501  0.00000000000E+00  0.00000000000E+00  0.15971647128E+04  0.15971647128E+04  0.25500000920E-02 0.  1.
        2   -1    0    0  501    0  0.00000000000E+00  0.00000000000E+00 -0.13214800836E+04  0.13214800836E+04  0.25500000920E-02 0. -1.
    10030    2    1    2    0    0  0.00000000000E+00  0.00000000000E+00  0.27568462928E+03  0.29186447964E+04  0.29055955384E+04 0.  0.
        3    1    3    3  502    0  0.50921676389E+03 -0.13216164787E+04 -0.18710630871E+03  0.14286289267E+04  0.10100000352E+00 0.  1.
       -3    1    3    3    0  502 -0.50921676389E+03  0.13216164787E+04  0.46279093799E+03  0.14900158697E+04  0.10100000352E+00 0. -1.
</event>
<event>
 5   0  0.1300176E-06  0.3433062E+04  0.7818609E-02  0.8129839E-01
       -2   -1    0    0    0  501  0.00000000000E+00  0.00000000000E+00  0.12785375663E+04  0.12785375663E+04  0.25500000920E-02 0. -1.
        2   -1    0    0  501    0  0.00000000000E+00  0.00000000000E+00 -0.23045696661E+04  0.23045696661E+04  0.25500000920E-02 0.  1.
    10030    2    1    2    0    0  0.00000000000E+00  0.00000000000E+00 -0.10260320998E+04  0.35831072324E+04  0.34330621272E+04 0.  0.
        1    1    3    3  502    0 -0.11066854330E+03  0.92900490076E+03  0.98904365892E+03  0.13614349016E+04  0.50400001928E-02 0. -1.
       -1    1    3    3    0  502  0.11066854330E+03 -0.92900490076E+03 -0.20150757587E+04  0.22216723308E+04  0.50400001928E-02 0.  1.
</event>
<event>
 5   0  0.1277635E-06  0.3414872E+04  0.7818609E-02  0.8134266E-01
       -2   -1    0    0    0  501  0.00000000000E+00  0.00000000000E+00  0.11646059233E+04  0.11646059233E+04  0.25500000920E-02 0. -1.
        2   -1    0    0  501    0  0.00000000000E+00  0.00000000000E+00 -0.25032828340E+04  0.25032828340E+04  0.25500000920E-02 0.  1.
    10030    2    1    2    0    0  0.00000000000E+00  0.00000000000E+00 -0.13386769107E+04  0.36678887573E+04  0.34148721887E+04 0.  0.
        4    1    3    3  502    0 -0.19199763436E+03 -0.11614540073E+04 -0.19976995414E+04  0.23187590589E+04  0.12699999809E+01 0.  1.
       -4    1    3    3    0  502  0.19199763436E+03  0.11614540073E+04  0.65902263068E+03  0.13491296984E+04  0.12699999809E+01 0. -1.
</event>
<event>
 5   0  0.4109937E-07  0.3393895E+04  0.7818609E-02  0.8139406E-01
        1   -1    0    0  501    0  0.00000000000E+00  0.00000000000E+00  0.13410147655E+04  0.13410147655E+04  0.50400001928E-02 0. -1.
       -1   -1    0    0    0  501  0.00000000000E+00  0.00000000000E+00 -0.21473515824E+04  0.21473515824E+04  0.50400001928E-02 0.  1.
    10030    2    1    2    0    0  0.00000000000E+00  0.00000000000E+00 -0.80633681691E+03  0.34883663479E+04  0.33938946234E+04 0.  0.
        5    1    3    3  502    0 -0.16656266711E+03 -0.10141372114E+04 -0.17910857433E+04  0.20650006382E+04  0.46999998093E+01 0.  1.
       -5    1    3    3    0  502  0.16656266711E+03  0.10141372114E+04  0.98474892642E+03  0.14233657098E+04  0.46999998093E+01 0. -1.
</event>
<event>
 5   0  0.4289684E-07  0.3410887E+04  0.7818609E-02  0.8135240E-01
       -1   -1    0    0    0  501  0.00000000000E+00  0.00000000000E+00  0.24881609900E+04  0.24881609900E+04  0.50400001928E-02 0. -1.
        1   -1    0    0  501    0  0.00000000000E+00  0.00000000000E+00 -0.11689504519E+04  0.11689504519E+04  0.50400001928E-02 0.  1.
    10030    2    1    2    0    0  0.00000000000E+00  0.00000000000E+00  0.13192105381E+04  0.36571114419E+04  0.34108866376E+04 0.  0.
        4    1    3    3  502    0  0.75845729091E+03  0.30332600600E+03  0.22647644665E+04  0.24075763394E+04  0.12699999809E+01 0. -1.
       -4    1    3    3    0  502 -0.75845729091E+03 -0.30332600600E+03 -0.94555392844E+03  0.12495351026E+04  0.12699999809E+01 0.  1.
</event>
<event>
 5   0  0.4060750E-07  0.3388285E+04  0.7818609E-02  0.8140787E-01
       -3   -1    0    0    0  501  0.00000000000E+00  0.00000000000E+00  0.22435580159E+04  0.22435580182E+04  0.10100000352E+00 0. -1.
        3   -1    0    0  501    0  0.00000000000E+00  0.00000000000E+00 -0.12792713457E+04  0.12792713497E+04  0.10100000352E+00 0.  1.
    10030    2    1    2    0    0  0.00000000000E+00  0.00000000000E+00  0.96428667021E+03  0.35228293679E+04  0.33882854031E+04 0.  0.
        1    1    3    3  502    0  0.15904904112E+04 -0.41949782217E+03  0.60476040255E+02  0.16459937796E+04  0.50400001928E-02 0.  1.
       -1    1    3    3    0  502 -0.15904904112E+04  0.41949782217E+03  0.90381062996E+03  0.18768355884E+04  0.50400001928E-02 0. -1.
</event>
<event>
 5   0  0.1256208E-06  0.3347844E+04  0.7818609E-02  0.8150827E-01
        2   -1    0    0  501    0  0.00000000000E+00  0.00000000000E+00  0.21182018944E+04  0.21182018944E+04  0.25500000920E-02 0.  1.
       -2   -1    0    0    0  501  0.00000000000E+00  0.00000000000E+00 -0.13228267955E+04  0.13228267955E+04  0.25500000920E-02 0. -1.
    10030    2    1    2    0    0  0.00000000000E+00  0.00000000000E+00  0.79537509894E+03  0.34410286899E+04  0.33478436189E+04 0.  0.
        3    1    3    3  502    0  0.15331845275E+04 -0.60551731913E+03  0.69683537030E+03  0.17896607396E+04  0.10100000352E+00 0.  1.
       -3    1    3    3    0  502 -0.15331845275E+04  0.60551731913E+03  0.98539728637E+02  0.16513679504E+04  0.10100000352E+00 0. -1.
</event>
<event>
 5   0  0.1268230E-06  0.3392781E+04  0.7818609E-02  0.8139680E-01
       -2   -1    0    0    0  501  0.00000000000E+00  0.00000000000E+00  0.14895671576E+04  0.14895671576E+04  0.25500000920E-02 0. -1.
        2   -1    0    0  501    0  0.00000000000E+00  0.00000000000E+00 -0.19319305725E+04  0.19319305725E+04  0.25500000920E-02 0.  1.
    10030    2    1    2    0    0  0.00000000000E+00  0.00000000000E+00 -0.44236341498E+03  0.34214977301E+04  0.33927807660E+04 0.  0.
        2    1    3    3  502    0  0.12337602726E+04  0.94584112052E+03 -0.90586907144E+03  0.17992716888E+04  0.25500000920E-02 0. -1.
       -2    1    3    3    0  502 -0.12337602726E+04 -0.94584112052E+03  0.46350565646E+03  0.16222260413E+04  0.25500000920E-02 0.  1.
</event>
<event>
 5   0  0.1269497E-06  0.3388906E+04  0.7818609E-02  0.8140635E-01
       -2   -1    0    0    0  501  0.00000000000E+00  0.00000000000E+00  0.11908298151E+04  0.11908298151E+04  0.25500000920E-02 0. -1.
        2   -1    0    0  501    0  0.00000000000E+00  0.00000000000E+00 -0.24110670413E+04  0.24110670413E+04  0.25500000920E-02 0.  1.
    10030    2    1    2    0    0  0.00000000000E+00  0.00000000000E+00 -0.12202372262E+04  0.36018968564E+04  0.33889057343E+04 0.  0.
        5    1    3    3  502    0 -0.11748161167E+03 -0.16510681679E+04 -0.99527569699E+03  0.19314305132E+04  0.46999998093E+01 0.  1.
       -5    1    3    3    0  502  0.11748161167E+03  0.16510681679E+04 -0.22496152919E+03  0.16704663432E+04  0.46999998093E+01 0. -1.
</event>
<event>
 5   0  0.4289684E-07  0.3363925E+04  0.7818609E-02  0.8146818E-01
       -1   -1    0    0    0  501  0.00000000000E+00  0.00000000000E+00  0.14663919825E+04  0.14663919826E+04  0.50400001928E-02 0.  1.
        1   -1    0    0  501    0  0.00000000000E+00  0.00000000000E+00 -0.19292229920E+04  0.19292229920E+04  0.50400001928E-02 0. -1.
    10030    2    1    2    0    0  0.00000000000E+00  0.00000000000E+00 -0.46283100945E+03  0.33956149746E+04  0.33639245699E+04 0.  0.
        4    1    3    3  502    0  0.41343957090E+03  0.12631337367E+04  0.80909911548E+03  0.15559826822E+04  0.12699999809E+01 0.  1.
       -4    1    3    3    0  502 -0.41343957090E+03 -0.12631337367E+04 -0.12719301249E+04  0.18396322924E+04  0.12699999809E+01 0. -1.
</event>
<event>
 5   0  0.4272633E-07  0.3335958E+04  0.7818609E-02  0.8153806E-01
       -1   -1    0    0    0  501  0.00000000000E+00  0.00000000000E+00  0.10365166887E+04  0.10365166887E+04  0.50400001928E-02 0.  1.
        1   -1    0    0  501    0  0.00000000000E+00  0.00000000000E+00 -0.26841383361E+04  0.26841383361E+04  0.50400001928E-02 0. -1.
    10030    2    1    2    0    0  0.00000000000E+00  0.00000000000E+00 -0.16476216474E+04  0.37206550249E+04  0.33359581414E+04 0.  0.
        1    1    3    3  502    0  0.10382859375E+04 -0.48249911417E+02 -0.22787726414E+04  0.25046298116E+04  0.50400001928E-02 0. -1.
       -1    1    3    3    0  502 -0.10382859375E+04  0.48249911417E+02  0.63115099404E+03  0.12160252132E+04  0.50400001928E-02 0.  1.
</event>
<event>
 5   0  0.1268230E-06  0.3166104E+04  0.7818609E-02  0.8197827E-01
       -2   -1    0    0    0  501  0.00000000000E+00  0.00000000000E+00  0.10166930340E+04  0.10166930340E+04  0.25500000920E-02 0.  1.
        2   -1    0    0  501    0  0.00000000000E+00  0.00000000000E+00 -0.24649062082E+04  0.24649062082E+04  0.25500000920E-02 0. -1.
    10030    2    1    2    0    0  0.00000000000E+00  0.00000000000E+00 -0.14482131742E+04  0.34815992422E+04  0.31661035810E+04 0.  0.
        2    1    3    3  502    0 -0.54105181814E+03  0.10124384558E+04 -0.19228157777E+04  0.22394171589E+04  0.25500000920E-02 0. -1.
       -2    1    3    3    0  502  0.54105181814E+03 -0.10124384558E+04  0.47460260354E+03  0.12421820833E+04  0.25500000920E-02 0.  1.
</event>
<event>
 5   0  0.4289684E-07  0.3408476E+04  0.7818609E-02  0.8135829E-01
       -1   -1    0    0    0  501  0.00000000000E+00  0.00000000000E+00  0.25942743666E+04  0.25942743666E+04  0.50400001928E-02 0.  1.
        1   -1    0    0  501    0  0.00000000000E+00  0.00000000000E+00 -0.11195531223E+04  0.11195531223E+04  0.50400001928E-02 0. -1.
    10030    2    1    2    0    0  0.00000000000E+00  0.00000000000E+00  0.14747212443E+04  0.37138274889E+04  0.34084764733E+04 0.  0.
        4    1    3    3  502    0  0.49894915005E+03  0.27043119999E+03 -0.10135678094E+04  0.11616387585E+04  0.12699999809E+01 0. -1.
       -4    1    3    3    0  502 -0.49894915005E+03 -0.27043119999E+03  0.24882890536E+04  0.25521887304E+04  0.12699999809E+01 0.  1.
</event>
<event>
 5   0  0.1277635E-06  0.3387532E+04  0.7818609E-02  0.8140973E-01
        2   -1    0    0  501    0  0.00000000000E+00  0.00000000000E+00  0.21756114573E+04  0.21756114573E+04  0.25500000920E-02 0. -1.
       -2   -1    0    0    0  501  0.00000000000E+00  0.00000000000E+00 -0.13186375516E+04  0.13186375516E+04  0.25500000920E-02 0.  1.
    10030    2    1    2    0    0  0.00000000000E+00  0.00000000000E+00  0.85697390570E+03  0.34942490090E+04  0.33875318244E+04 0.  0.
        4    1    3    3  502    0 -0.14614614401E+04  0.55092227787E+03  0.11044610187E+04  0.19129089503E+04  0.12699999809E+01 0.  1.
       -4    1    3    3    0  502  0.14614614401E+04 -0.55092227787E+03 -0.24748711305E+03  0.15813400587E+04  0.12699999809E+01 0. -1.
</event>
<event>
 5   0  0.4109937E-07  0.3406740E+04  0.7818609E-02  0.8136254E-01
       -1   -1    0    0    0  501  0.00000000000E+00  0.00000000000E+00  0.11071509612E+04  0.11071509612E+04  0.50400001928E-02 0.  1.
        1   -1    0    0  501    0  0.00000000000E+00  0.00000000000E+00 -0.26206635648E+04  0.26206635648E+04  0.50400001928E-02 0. -1.
    10030    2    1    2    0    0  0.00000000000E+00  0.00000000000E+00 -0.15135126036E+04  0.37278145261E+04  0.34067404861E+04 0.  0.
        5    1    3    3  502    0  0.14873667298E+04 -0.57705762582E+03 -0.14098234149E+04  0.21290559982E+04  0.46999998093E+01 0. -1.
       -5    1    3    3    0  502 -0.14873667298E+04  0.57705762582E+03 -0.10368918877E+03  0.15987585278E+04  0.46999998093E+01 0.  1.
</event>
<event>
 5   0  0.1269497E-06  0.3329282E+04  0.7818609E-02  0.8155484E-01
       -2   -1    0    0    0  501  0.00000000000E+00  0.00000000000E+00  0.13710400760E+04  0.13710400760E+04  0.25500000920E-02 0. -1.
        2   -1    0    0  501    0  0.00000000000E+00  0.00000000000E+00 -0.20211154375E+04  0.20211154375E+04  0.25500000920E-02 0.  1.
    10030    2    1    2    0    0  0.00000000000E+00  0.00000000000E+00 -0.65007536149E+03  0.33921555134E+04  0.33292823629E+04 0.  0.
        5    1    3    3  502    0  0.75845071479E+03  0.54788802833E+03  0.10777634710E+04  0.14272438362E+04  0.46999998093E+01 0. -1.
       -5    1    3    3    0  502 -0.75845071479E+03 -0.54788802833E+03 -0.17278388325E+04  0.19649116773E+04  0.46999998093E+01 0.  1.
</event>
<event>
 5   0  0.1300176E-06  0.3375494E+04  0.7818609E-02  0.8143947E-01
        2   -1    0    0  501    0  0.00000000000E+00  0.00000000000E+00  0.28319580825E+04  0.28319580825E+04  0.25500000920E-02 0.  1.
       -2   -1    0    0    0  501  0.00000000000E+00  0.00000000000E+00 -0.10058375339E+04  0.10058375339E+04  0.25500000920E-02 0. -1.
    10030    2    1    2    0    0  0.00000000000E+00  0.00000000000E+00  0.18261205486E+04  0.38377956164E+04  0.33754938802E+04 0.  0.
        1    1    3    3  502    0  0.75645455697E+03  0.16433306523E+03  0.26182175110E+04  0.27302548943E+04  0.50400001928E-02 0.  1.
       -1    1    3    3    0  502 -0.75645455697E+03 -0.16433306523E+03 -0.79209696244E+03  0.11075407221E+04  0.50400001928E-02 0. -1.
</event>
<event>
 5   0  0.4464951E-07  0.3465741E+04  0.7818609E-02  0.8121957E-01
       -1   -1    0    0    0  501  0.00000000000E+00  0.00000000000E+00  0.17875377730E+04  0.17875377731E+04  0.50400001928E-02 0.  1.
        1   -1    0    0  501    0  0.00000000000E+00  0.00000000000E+00 -0.16798747579E+04  0.16798747579E+04  0.50400001928E-02 0. -1.
    10030    2    1    2    0    0  0.00000000000E+00  0.00000000000E+00  0.10766301511E+03  0.34674125310E+04  0.34657406619E+04 0.  0.
        3    1    3    3  502    0  0.33516548872E+03 -0.72916710830E+03  0.15904171149E+04  0.17814171848E+04  0.10100000352E+00 0.  1.
       -3    1    3    3    0  502 -0.33516548872E+03  0.72916710830E+03 -0.14827540998E+04  0.16859953462E+04  0.10100000352E+00 0. -1.
</event>
<event>
 5   0  0.4289684E-07  0.3378046E+04  0.7818609E-02  0.8143316E-01
        1   -1    0    0  501    0  0.00000000000E+00  0.00000000000E+00  0.15912646767E+04  0.15912646767E+04  0.50400001928E-02 0. -1.
       -1   -1    0    0    0  501  0.00000000000E+00  0.00000000000E+00 -0.17927874954E+04  0.17927874954E+04  0.50400001928E-02 0.  1.
    10030    2    1    2    0    0  0.00000000000E+00  0.00000000000E+00 -0.20152281868E+03  0.33840521721E+04  0.33780464262E+04 0.  0.
        4    1    3    3  502    0  0.80386436455E+03  0.23713204069E+03  0.13682590981E+04  0.16045448245E+04  0.12699999809E+01 0. -1.
       -4    1    3    3    0  502 -0.80386436455E+03 -0.23713204069E+03 -0.15697819168E+04  0.17795073477E+04  0.12699999809E+01 0.  1.
</event>
<event>
 5   0  0.4289684E-07  0.3308354E+04  0.7818609E-02  0.8160773E-01
        1   -1    0    0  501    0  0.00000000000E+00  0.00000000000E+00  0.17990058275E+04  0.17990058276E+04  0.50400001928E-02 0. -1.
       -1   -1    0    0    0  501  0.00000000000E+00  0.00000000000E+00 -0.15210077057E+04  0.15210077057E+04  0.50400001928E-02 0.  1.
    10030    2    1    2    0    0  0.00000000000E+00  0.00000000000E+00  0.27799812183E+03  0.33200135333E+04  0.33083541082E+04 0.  0.
        4    1    3    3  502    0 -0.13902133987E+04 -0.69548312788E+03 -0.42860017232E+03  0.16124793939E+04  0.12699999809E+01 0. -1.
       -4    1    3    3    0  502  0.13902133987E+04  0.69548312788E+03  0.70659829414E+03  0.17075341394E+04  0.12699999809E+01 0.  1.
</event>
<event>
 5   0  0.4289684E-07  0.3328851E+04  0.7818609E-02  0.8155593E-01
        1   -1    0    0  501    0  0.00000000000E+00  0.00000000000E+00  0.13031280540E+04  0.13031280540E+04  0.50400001928E-02 0.  1.
       -1   -1    0    0    0  501  0.00000000000E+00  0.00000000000E+00 -0.21258946621E+04  0.21258946621E+04  0.50400001928E-02 0. -1.
    10030    2    1    2    0    0  0.00000000000E+00  0.00000000000E+00 -0.82276660813E+03  0.34290227161E+04  0.33288514380E+04 0.  0.
        4    1    3    3  502    0  0.52524811298E+03  0.80701612449E+03 -0.18098636843E+04  0.20500655536E+04  0.12699999809E+01 0. -1.
       -4    1    3    3    0  502 -0.52524811298E+03 -0.80701612449E+03  0.98709707619E+03  0.13789571625E+04  0.12699999809E+01 0.  1.
</event>
<event>
 5   0  0.4464951E-07  0.3319028E+04  0.7818609E-02  0.8158071E-01
        1   -1    0    0  501    0  0.00000000000E+00  0.00000000000E+00  0.18469160808E+04  0.18469160808E+04  0.50400001928E-02 0.  1.
       -1   -1    0    0    0  501  0.00000000000E+00  0.00000000000E+00 -0.14911271060E+04  0.14911271060E+04  0.50400001928E-02 0. -1.
    10030    2    1    2    0    0  0.00000000000E+00  0.00000000000E+00  0.35578897487E+03  0.33380431868E+04  0.33190279484E+04 0.  0.
        3    1    3    3  502    0  0.14327416914E+04  0.46414967835E+03 -0.52309436583E+03  0.15943059317E+04  0.10100000352E+00 0. -1.
       -3    1    3    3    0  502 -0.14327416914E+04 -0.46414967835E+03  0.87888334070E+03  0.17437372551E+04  0.10100000352E+00 0.  1.
</event>
<event>
 5   0  0.1269497E-06  0.3417345E+04  0.7818609E-02  0.8133662E-01
       -2   -1    0    0    0  501  0.00000000000E+00  0.00000000000E+00  0.20116247922E+04  0.20116247922E+04  0.25500000920E-02 0. -1.
        2   -1    0    0  501    0  0.00000000000E+00  0.00000000000E+00 -0.14513448751E+04  0.14513448751E+04  0.25500000920E-02 0.  1.
    10030    2    1    2    0    0  0.00000000000E+00  0.00000000000E+00  0.56027991714E+03  0.34629696673E+04  0.34173447779E+04 0.  0.
        5    1    3    3  502    0 -0.96827206944E+02  0.84683136182E+03  0.17808030608E+04  0.19742797407E+04  0.46999998093E+01 0. -1.
       -5    1    3    3    0  502  0.96827206944E+02 -0.84683136182E+03 -0.12205231436E+04  0.14886899266E+04  0.46999998093E+01 0.  1.
</event>
<event>
 5   0  0.1268230E-06  0.3360138E+04  0.7818609E-02  0.8147760E-01
       -2   -1    0    0    0  501  0.00000000000E+00  0.00000000000E+00  0.12732602584E+04  0.12732602584E+04  0.25500000920E-02 0. -1.
        2   -1    0    0  501    0  0.00000000000E+00  0.00000000000E+00 -0.22168535475E+04  0.22168535475E+04  0.25500000920E-02 0.  1.
    10030    2    1    2    0    0  0.00000000000E+00  0.00000000000E+00 -0.94359328913E+03  0.34901138060E+04  0.33601378072E+04 0.  0.
        2    1    3    3  502    0 -0.71406400041E+03  0.79053102486E+02 -0.20492580153E+04  0.21715421255E+04  0.25500000920E-02 0.  1.
       -2    1    3    3    0  502  0.71406400041E+03 -0.79053102486E+02  0.11056647262E+04  0.13185716804E+04  0.25500000920E-02 0. -1.
</event>
<event>
 5   0  0.4125758E-07  0.3234368E+04  0.7818609E-02  0.8179799E-01
        1   -1    0    0  501    0  0.00000000000E+00  0.00000000000E+00  0.20183427405E+04  0.20183427405E+04  0.50400001928E-02 0. -1.
       -1   -1    0    0    0  501  0.00000000000E+00  0.00000000000E+00 -0.12957584856E+04  0.12957584856E+04  0.50400001928E-02 0.  1.
    10030    2    1    2    0    0  0.00000000000E+00  0.00000000000E+00  0.72258425492E+03  0.33141012261E+04  0.32343683976E+04 0.  0.
        2    1    3    3  502    0 -0.12315140021E+04  0.35758782005E+03 -0.64828312398E+03  0.14369296418E+04  0.25500000920E-02 0.  1.
       -2    1    3    3    0  502  0.12315140021E+04 -0.35758782005E+03  0.13708673789E+04  0.18771715843E+04  0.25500000920E-02 0. -1.
</event>
<event>
 5   0  0.4272633E-07  0.3321799E+04  0.7818609E-02  0.8157371E-01
        1   -1    0    0  501    0  0.00000000000E+00  0.00000000000E+00  0.17709316188E+04  0.17709316188E+04  0.50400001928E-02 0.  1.
       -1   -1    0    0    0  501  0.00000000000E+00  0.00000000000E+00 -0.15577036808E+04  0.15577036808E+04  0.50400001928E-02 0. -1.
    10030    2    1    2    0    0  0.00000000000E+00  0.00000000000E+00  0.21322793809E+03  0.33286352996E+04  0.33217987302E+04 0.  0.
        1    1    3    3  502    0 -0.97989591811E+03 -0.81555625028E+03  0.11733511420E+04  0.17326514105E+04  0.50400001928E-02 0.  1.
       -1    1    3    3    0  502  0.97989591811E+03  0.81555625028E+03 -0.96012320392E+03  0.15959838891E+04  0.50400001928E-02 0. -1.
</event>
<event>
 5   0  0.4464951E-07  0.3364589E+04  0.7818609E-02  0.8146652E-01
        1   -1    0    0  501    0  0.00000000000E+00  0.00000000000E+00  0.23774722685E+04  0.23774722685E+04  0.50400001928E-02 0.  1.
       -1   -1    0    0    0  501  0.00000000000E+00  0.00000000000E+00 -0.11903882671E+04  0.11903882672E+04  0.50400001928E-02 0. -1.
    10030    2    1    2    0    0  0.00000000000E+00  0.00000000000E+00  0.11870840013E+04  0.35678605356E+04  0.33645891838E+04 0.  0.
        3    1    3    3  502    0 -0.31903577534E+03 -0.81468001793E+02 -0.11558836544E+04  0.12018685011E+04  0.10100000352E+00 0. -1.
       -3    1    3    3    0  502  0.31903577534E+03  0.81468001793E+02  0.23429676557E+04  0.23659920345E+04  0.10100000352E+00 0.  1.
</event>
<event>
 5   0  0.4272633E-07  0.3369059E+04  0.7818609E-02  0.8145542E-01
        1   -1    0    0  501    0  0.00000000000E+00  0.00000000000E+00  0.27659959959E+04  0.27659959959E+04  0.50400001928E-02 0.  1.
       -1   -1    0    0    0  501  0.00000000000E+00  0.00000000000E+00 -0.10259018560E+04  0.10259018560E+04  0.50400001928E-02 0. -1.
    10030    2    1    2    0    0  0.00000000000E+00  0.00000000000E+00  0.17400941399E+04  0.37918978520E+04  0.33690594687E+04 0.  0.
        1    1    3    3  502    0 -0.12232887644E+04  0.62751882343E+03  0.19655673144E+04  0.23986809172E+04  0.50400001928E-02 0.  1.
       -1    1    3    3    0  502  0.12232887644E+04 -0.62751882343E+03 -0.22547317448E+03  0.13932169348E+04  0.50400001928E-02 0. -1.
</event>
<event>
 5   0  0.4289684E-07  0.3379900E+04  0.7818609E-02  0.8142857E-01
       -1   -1    0    0    0  501  0.00000000000E+00  0.00000000000E+00  0.15660000872E+04  0.15660000872E+04  0.50400001928E-02 0.  1.
        1   -1    0    0  501    0  0.00000000000E+00  0.00000000000E+00 -0.18237108523E+04  0.18237108523E+04  0.50400001928E-02 0. -1.
    10030    2    1    2    0    0  0.00000000000E+00  0.00000000000E+00 -0.25771076511E+03  0.33897109395E+04  0.33799002079E+04 0.  0.
        4    1    3    3  502    0 -0.41578543816E+03  0.14631811899E+04 -0.86730305518E+03  0.17509976949E+04  0.12699999809E+01 0. -1.
       -4    1    3    3    0  502  0.41578543816E+03 -0.14631811899E+04  0.60959229008E+03  0.16387132446E+04  0.12699999809E+01 0.  1.
</event>
<event>
 5   0  0.4289684E-07  0.3396186E+04  0.7818609E-02  0.8138843E-01
       -1   -1    0    0    0  501  0.00000000000E+00  0.00000000000E+00  0.21305563962E+04  0.21305563962E+04  0.50400001928E-02 0.  1.
        1   -1    0    0  501    0  0.00000000000E+00  0.00000000000E+00 -0.13534118583E+04  0.13534118583E+04  0.50400001928E-02 0. -1.
    10030    2    1    2    0    0  0.00000000000E+00  0.00000000000E+00  0.77714453793E+03  0.34839682545E+04  0.33961862678E+04 0.  0.
        4    1    3    3  502    0  0.26066688839E+03  0.15590843359E+03 -0.13253185235E+04  0.13596784429E+04  0.12699999809E+01 0. -1.
       -4    1    3    3    0  502 -0.26066688839E+03 -0.15590843359E+03  0.21024630614E+04  0.21242898116E+04  0.12699999809E+01 0.  1.
</event>
<event>
 5   0  0.4464951E-07  0.3464784E+04  0.7818609E-02  0.8122187E-01
       -1   -1    0    0    0  501  0.00000000000E+00  0.00000000000E+00  0.12431909089E+04  0.12431909089E+04  0.50400001928E-02 0.  1.
        1   -1    0    0  501    0  0.00000000000E+00  0.00000000000E+00 -0.24140958199E+04  0.24140958199E+04  0.50400001928E-02 0. -1.
    10030    2    1    2    0    0  0.00000000000E+00  0.00000000000E+00 -0.11709049110E+04  0.36572867288E+04  0.34647839624E+04 0.  0.
        3    1    3    3  502    0 -0.81474122756E+03 -0.15189664442E+04 -0.76864497541E+03  0.18872936801E+04  0.10100000352E+00 0. -1.
       -3    1    3    3    0  502  0.81474122756E+03  0.15189664442E+04 -0.40225993556E+03  0.17699930487E+04  0.10100000352E+00 0.  1.
</event>
<event>
 5   0  0.1268230E-06  0.3384627E+04  0.7818609E-02  0.8141690E-01
        2   -1    0    0  501    0  0.00000000000E+00  0.00000000000E+00  0.18936664599E+04  0.18936664599E+04  0.25500000920E-02 0. -1.
       -2   -1    0    0    0  501  0.00000000000E+00  0.00000000000E+00 -0.15123700821E+04  0.15123700821E+04  0.25500000920E-02 0.  1.
    10030    2    1    2    0    0  0.00000000000E+00  0.00000000000E+00  0.38129637784E+03  0.34060365420E+04  0.33846267147E+04 0.  0.
        2    1    3    3  502    0 -0.11345334907E+04 -0.32861406541E+03  0.14102430270E+04  0.18395485426E+04  0.25500000920E-02 0. -1.
       -2    1    3    3    0  502  0.11345334907E+04  0.32861406541E+03 -0.10289466491E+04  0.15664879994E+04  0.25500000920E-02 0.  1.
</event>
<event>
 5   0  0.4060750E-07  0.3372872E+04  0.7818609E-02  0.8144597E-01
        3   -1    0    0  501    0  0.00000000000E+00  0.00000000000E+00  0.19859310601E+04  0.19859310626E+04  0.10100000352E+00 0.  1.
       -3   -1    0    0    0  501  0.00000000000E+00  0.00000000000E+00 -0.14321072384E+04  0.14321072420E+04  0.10100000352E+00 0. -1.
    10030    2    1    2    0    0  0.00000000000E+00  0.00000000000E+00  0.55382382162E+03  0.34180383046E+04  0.33728719256E+04 0.  0.
        4    1    3    3  502    0 -0.70842017551E+03 -0.14716904176E+04  0.70245509930E+03  0.17779698000E+04  0.12699999809E+01 0.  1.
       -4    1    3    3    0  502  0.70842017551E+03  0.14716904176E+04 -0.14863127768E+03  0.16400685046E+04  0.12699999809E+01 0. -1.
</event>
<event>
 5   0  0.1300176E-06  0.3393707E+04  0.7818609E-02  0.8139453E-01
       -2   -1    0    0    0  501  0.00000000000E+00  0.00000000000E+00  0.95053906009E+03  0.95053906010E+03  0.25500000920E-02 0.  1.
        2   -1    0    0  501    0  0.00000000000E+00  0.00000000000E+00 -0.30291352929E+04  0.30291352929E+04  0.25500000920E-02 0. -1.
    10030    2    1    2    0    0  0.00000000000E+00  0.00000000000E+00 -0.20785962328E+04  0.39796743530E+04  0.33937067724E+04 0.  0.
        1    1    3    3  502    0  0.27448016813E+03  0.11057608997E+04  0.43530631401E+03  0.12196467182E+04  0.50400001928E-02 0.  1.
       -1    1    3    3    0  502 -0.27448016813E+03 -0.11057608997E+04 -0.25139025469E+04  0.27600276349E+04  0.50400001928E-02 0. -1.
</event>
<event>
 5   0  0.4464951E-07  0.3401454E+04  0.7818609E-02  0.8137550E-01
        1   -1    0    0  501    0  0.00000000000E+00  0.00000000000E+00  0.24003780780E+04  0.24003780780E+04  0.50400001928E-02 0. -1.
       -1   -1    0    0    0  501  0.00000000000E+00  0.00000000000E+00 -0.12050066363E+04  0.12050066363E+04  0.50400001928E-02 0.  1.
    10030    2    1    2    0    0  0.00000000000E+00  0.00000000000E+00  0.11953714417E+04  0.36053847143E+04  0.34014535208E+04 0.  0.
        3    1    3    3  502    0  0.13996687600E+04  0.96292449485E+03  0.68098006340E+03  0.18303087383E+04  0.10100000352E+00 0. -1.
       -3    1    3    3    0  502 -0.13996687600E+04 -0.96292449485E+03  0.51439137827E+03  0.17750759760E+04  0.10100000352E+00 0.  1.
</event>
<event>
 5   0  0.1300176E-06  0.3440290E+04  0.7818609E-02  0.8128088E-01
        2   -1    0    0  501    0  0.00000000000E+00  0.00000000000E+00  0.15027537991E+04  0.15027537991E+04  0.25500000920E-02 0.  1.
       -2   -1    0    0    0  501  0.00000000000E+00  0.00000000000E+00 -0.19689849114E+04  0.19689849114E+04  0.25500000920E-02 0. -1.
    10030    2    1    2    0    0  0.00000000000E+00  0.00000000000E+00 -0.46623111229E+03  0.34717387105E+04  0.34402904272E+04 0.  0.
        1    1    3    3  502    0 -0.92998175255E+03 -0.13693005001E+04 -0.70542126284E+03  0.17992968287E+04  0.50400001928E-02 0. -1.
       -1    1    3    3    0  502  0.92998175255E+03  0.13693005001E+04  0.23919015055E+03  0.16724418818E+04  0.50400001928E-02 0.  1.
</event>
<event>
 5   0  0.4272633E-07  0.2766886E+04  0.7818609E-02  0.8313623E-01
        1   -1    0    0  501    0  0.00000000000E+00  0.00000000000E+00  0.15326107070E+04  0.15326107070E+04  0.50400001928E-02 0.  1.
       -1   -1    0    0    0  501  0.00000000000E+00  0.00000000000E+00 -0.12487933583E+04  0.12487933584E+04  0.50400001928E-02 0. -1.
    10030    2    1    2    0    0  0.00000000000E+00  0.00000000000E+00  0.28381734866E+03  0.27814040654E+04  0.27668856658E+04 0.  0.
        1    1    3    3  502    0 -0.12893644459E+03  0.18815420013E+03 -0.12297611524E+04  0.12507354243E+04  0.50400001928E-02 0. -1.
       -1    1    3    3    0  502  0.12893644459E+03 -0.18815420013E+03  0.15135785010E+04  0.15306686410E+04  0.50400001928E-02 0.  1.
</event>
<event>
 5   0  0.1269497E-06  0.3400651E+04  0.7818609E-02  0.8137747E-01
        2   -1    0    0  501    0  0.00000000000E+00  0.00000000000E+00  0.25695062006E+04  0.25695062006E+04  0.25500000920E-02 0. -1.
       -2   -1    0    0    0  501  0.00000000000E+00  0.00000000000E+00 -0.11251606292E+04  0.11251606292E+04  0.25500000920E-02 0.  1.
    10030    2    1    2    0    0  0.00000000000E+00  0.00000000000E+00  0.14443455714E+04  0.36946668299E+04  0.34006512397E+04 0.  0.
        5    1    3    3  502    0 -0.21006421111E+03 -0.87478594737E+03 -0.84538320191E+03  0.12345332213E+04  0.46999998093E+01 0.  1.
       -5    1    3    3    0  502  0.21006421111E+03  0.87478594737E+03  0.22897287733E+04  0.24601336085E+04  0.46999998093E+01 0. -1.
</event>
<event>
 5   0  0.4125758E-07  0.3400179E+04  0.7818609E-02  0.8137862E-01
        1   -1    0    0  501    0  0.00000000000E+00  0.00000000000E+00  0.29916702980E+04  0.29916702980E+04  0.50400001928E-02 0. -1.
       -1   -1    0    0    0  501  0.00000000000E+00  0.00000000000E+00 -0.96611713644E+03  0.96611713645E+03  0.50400001928E-02 0.  1.
    10030    2    1    2    0    0  0.00000000000E+00  0.00000000000E+00  0.20255531616E+04  0.39577874345E+04  0.34001787844E+04 0.  0.
        2    1    3    3  502    0  0.78423274982E+03 -0.20375536315E+03  0.27524575678E+04  0.28692437883E+04  0.25500000920E-02 0. -1.
       -2    1    3    3    0  502 -0.78423274982E+03  0.20375536315E+03 -0.72690440623E+03  0.10885436462E+04  0.25500000920E-02 0.  1.
</event>
<event>
 5   0  0.1256208E-06  0.3474228E+04  0.7818609E-02  0.8119925E-01
        2   -1    0    0  501    0  0.00000000000E+00  0.00000000000E+00  0.28705838139E+04  0.28705838139E+04  0.25500000920E-02 0. -1.
       -2   -1    0    0    0  501  0.00000000000E+00  0.00000000000E+00 -0.10512027968E+04  0.10512027968E+04  0.25500000920E-02 0.  1.
    10030    2    1    2    0    0  0.00000000000E+00  0.00000000000E+00  0.18193810171E+04  0.39217866108E+04  0.34742283942E+04 0.  0.
        3    1    3    3  502    0 -0.97775418990E+03  0.75481334706E+03  0.22884347188E+04  0.26005153177E+04  0.10100000352E+00 0. -1.
       -3    1    3    3    0  502  0.97775418990E+03 -0.75481334706E+03 -0.46905370172E+03  0.13212712931E+04  0.10100000352E+00 0.  1.
</event>
<event>
 5   0  0.1268230E-06  0.3385268E+04  0.7818609E-02  0.8141531E-01
       -2   -1    0    0    0  501  0.00000000000E+00  0.00000000000E+00  0.13982694823E+04  0.13982694824E+04  0.25500000920E-02 0. -1.
        2   -1    0    0  501    0  0.00000000000E+00  0.00000000000E+00 -0.20489688663E+04  0.20489688663E+04  0.25500000920E-02 0.  1.
    10030    2    1    2    0    0  0.00000000000E+00  0.00000000000E+00 -0.65069938393E+03  0.34472383486E+04  0.33852684597E+04 0.  0.
        2    1    3    3  502    0 -0.12181569447E+04  0.11269638589E+04 -0.66470190601E+03  0.17876751676E+04  0.25500000920E-02 0. -1.
       -2    1    3    3    0  502  0.12181569447E+04 -0.11269638589E+04  0.14002522079E+02  0.16595631810E+04  0.25500000920E-02 0.  1.
</event>
<event>
 5   0  0.4125758E-07  0.3713658E+04  0.7818609E-02  0.8064942E-01
        1   -1    0    0  501    0  0.00000000000E+00  0.00000000000E+00  0.12249130303E+04  0.12249130303E+04  0.50400001928E-02 0.  1.
       -1   -1    0    0    0  501  0.00000000000E+00  0.00000000000E+00 -0.28147416318E+04  0.28147416318E+04  0.50400001928E-02 0. -1.
    10030    2    1    2    0    0  0.00000000000E+00  0.00000000000E+00 -0.15898286016E+04  0.40396546621E+04  0.37136578742E+04 0.  0.
        2    1    3    3  502    0 -0.51352193589E+03  0.13547342833E+04 -0.20582441648E+04  0.25170178384E+04  0.25500000920E-02 0. -1.
       -2    1    3    3    0  502  0.51352193589E+03 -0.13547342833E+04  0.46841556325E+03  0.15226368237E+04  0.25500000920E-02 0.  1.
</event>
<event>
 5   0  0.1269497E-06  0.3403268E+04  0.7818609E-02  0.8137105E-01
        2   -1    0    0  501    0  0.00000000000E+00  0.00000000000E+00  0.12765450899E+04  0.12765450899E+04  0.25500000920E-02 0. -1.
       -2   -1    0    0    0  501  0.00000000000E+00  0.00000000000E+00 -0.22682768458E+04  0.22682768458E+04  0.25500000920E-02 0.  1.
    10030    2    1    2    0    0  0.00000000000E+00  0.00000000000E+00 -0.99173175595E+03  0.35448219357E+04  0.34032676475E+04 0.  0.
        5    1    3    3  502    0  0.82679010923E+03  0.10018696049E+04  0.64903980267E+03  0.14521016994E+04  0.46999998093E+01 0. -1.
       -5    1    3    3    0  502 -0.82679010923E+03 -0.10018696049E+04 -0.16407715586E+04  0.20927202363E+04  0.46999998093E+01 0.  1.
</event>
<event>
 5   0  0.1269497E-06  0.3361672E+04  0.7818609E-02  0.8147378E-01
        2   -1    0    0  501    0  0.00000000000E+00  0.00000000000E+00  0.21748795702E+04  0.21748795702E+04  0.25500000920E-02 0.  1.
       -2   -1    0    0    0  501  0.00000000000E+00  0.00000000000E+00 -0.12990186446E+04  0.12990186446E+04  0.25500000920E-02 0. -1.
    10030    2    1    2    0    0  0.00000000000E+00  0.00000000000E+00  0.87586092568E+03  0.34738982148E+04  0.33616716743E+04 0.  0.
        5    1    3    3  502    0 -0.10692436965E+04 -0.67971001695E+03 -0.70343249472E+03  0.14491815464E+04  0.46999998093E+01 0. -1.
       -5    1    3    3    0  502  0.10692436965E+04  0.67971001695E+03  0.15792934204E+04  0.20247166684E+04  0.46999998093E+01 0.  1.
</event>
<event>
 5   0  0.1256208E-06  0.3431334E+04  0.7818609E-02  0.8130258E-01
        2   -1    0    0  501    0  0.00000000000E+00  0.00000000000E+00  0.23095717290E+04  0.23095717290E+04  0.25500000920E-02 0. -1.
       -2   -1    0    0    0  501  0.00000000000E+00  0.00000000000E+00 -0.12744847780E+04  0.12744847780E+04  0.25500000920E-02 0.  1.
    10030    2    1    2    0    0  0.00000000000E+00  0.00000000000E+00  0.10350869510E+04  0.35840565069E+04  0.34313344414E+04 0.  0.
        3    1    3    3  502    0  0.10021446484E+04 -0.49941530735E+03 -0.84023845370E+03  0.13998965015E+04  0.10100000352E+00 0.  1.
       -3    1    3    3    0  502 -0.10021446484E+04  0.49941530735E+03  0.18753254047E+04  0.21841600054E+04  0.10100000352E+00 0. -1.
</event>
<event>
 5   0  0.1300176E-06  0.3399488E+04  0.7818609E-02  0.8138032E-01
        2   -1    0    0  501    0  0.00000000000E+00  0.00000000000E+00  0.15435085436E+04  0.15435085436E+04  0.25500000920E-02 0. -1.
       -2   -1    0    0    0  501  0.00000000000E+00  0.00000000000E+00 -0.18717935517E+04  0.18717935517E+04  0.25500000920E-02 0.  1.
    10030    2    1    2    0    0  0.00000000000E+00  0.00000000000E+00 -0.32828500813E+03  0.34153020953E+04  0.33994878078E+04 0.  0.
        1    1    3    3  502    0  0.42861748581E+03 -0.94651476238E+03 -0.15155865641E+04  0.18375542925E+04  0.50400001928E-02 0.  1.
       -1    1    3    3    0  502 -0.42861748581E+03  0.94651476238E+03  0.11873015559E+04  0.15777478028E+04  0.50400001928E-02 0. -1.
</event>
<event>
 5   0  0.4109937E-07  0.3379380E+04  0.7818609E-02  0.8142986E-01
        1   -1    0    0  501    0  0.00000000000E+00  0.00000000000E+00  0.14395686653E+04  0.14395686653E+04  0.50400001928E-02 0. -1.
       -1   -1    0    0    0  501  0.00000000000E+00  0.00000000000E+00 -0.19832695389E+04  0.19832695389E+04  0.50400001928E-02 0.  1.
    10030    2    1    2    0    0  0.00000000000E+00  0.00000000000E+00 -0.54370087359E+03  0.34228382043E+04  0.33793802291E+04 0.  0.
        5    1    3    3  502    0  0.92455187921E+03  0.16982793953E+03  0.11502684507E+04  0.14855225697E+04  0.46999998093E+01 0. -1.
       -5    1    3    3    0  502 -0.92455187921E+03 -0.16982793953E+03 -0.16939693243E+04  0.19373156346E+04  0.46999998093E+01 0.  1.
</event>
<event>
 5   0  0.4272633E-07  0.3409870E+04  0.7818609E-02  0.8135488E-01
       -1   -1    0    0    0  501  0.00000000000E+00  0.00000000000E+00  0.12384890990E+04  0.12384890990E+04  0.50400001928E-02 0.  1.
        1   -1    0    0  501    0  0.00000000000E+00  0.00000000000E+00 -0.23470566637E+04  0.23470566637E+04  0.50400001928E-02 0. -1.
    10030    2    1    2    0    0  0.00000000000E+00  0.00000000000E+00 -0.11085675647E+04  0.35855457627E+04  0.34098704331E+04 0.  0.
        1    1    3    3  502    0 -0.74906945514E+03 -0.14962801242E+04 -0.89799535644E+03  0.18990405259E+04  0.50400001928E-02 0. -1.
       -1    1    3    3    0  502  0.74906945514E+03  0.14962801242E+04 -0.21057220830E+03  0.16865052368E+04  0.50400001928E-02 0.  1.
</event>
<event>
 5   0  0.1268230E-06  0.3278162E+04  0.7818609E-02  0.8168474E-01
        2   -1    0    0  501    0  0.00000000000E+00  0.00000000000E+00  0.10179193574E+04  0.10179193574E+04  0.25500000920E-02 0.  1.
       -2   -1    0    0    0  501  0.00000000000E+00  0.00000000000E+00 -0.26392925487E+04  0.26392925487E+04  0.25500000920E-02 0. -1.
    10030    2    1    2    0    0  0.00000000000E+00  0.00000000000E+00 -0.16213731914E+04  0.36572119061E+04  0.32781622749E+04 0.  0.
        2    1    3    3  502    0 -0.62058162905E+03 -0.12487849780E+04  0.15031048218E+03  0.14025614855E+04  0.25500000920E-02 0.  1.
       -2    1    3    3    0  502  0.62058162905E+03  0.12487849780E+04 -0.17716836735E+04  0.22546504205E+04  0.25500000920E-02 0. -1.
</event>
<event>
 5   0  0.4125758E-07  0.3413987E+04  0.7818609E-02  0.8134482E-01
        1   -1    0    0  501    0  0.00000000000E+00  0.00000000000E+00  0.20384324978E+04  0.20384324979E+04  0.50400001928E-02 0.  1.
       -1   -1    0    0    0  501  0.00000000000E+00  0.00000000000E+00 -0.14294447454E+04  0.14294447454E+04  0.50400001928E-02 0. -1.
    10030    2    1    2    0    0  0.00000000000E+00  0.00000000000E+00  0.60898775244E+03  0.34678772433E+04  0.34139868910E+04 0.  0.
        2    1    3    3  502    0 -0.77302812391E+03  0.10785910394E+04 -0.78618484674E+03  0.15424064717E+04  0.25500000920E-02 0. -1.
       -2    1    3    3    0  502  0.77302812391E+03 -0.10785910394E+04  0.13951725992E+04  0.19254707716E+04  0.25500000920E-02 0.  1.
</event>
<event>
 5   0  0.1256208E-06  0.3124401E+04  0.7818609E-02  0.8209073E-01
       -2   -1    0    0    0  501  0.00000000000E+00  0.00000000000E+00  0.11268353891E+04  0.11268353891E+04  0.25500000920E-02 0.  1.
        2   -1    0    0  501    0  0.00000000000E+00  0.00000000000E+00 -0.21657730177E+04  0.21657730177E+04  0.25500000920E-02 0. -1.
    10030    2    1    2    0    0  0.00000000000E+00  0.00000000000E+00 -0.10389376287E+04  0.32926084068E+04  0.31244005384E+04 0.  0.
        3    1    3    3  502    0 -0.93169153516E+03 -0.10531132222E+04  0.19789387640E+03  0.14199502005E+04  0.10100000352E+00 0.  1.
       -3    1    3    3    0  502  0.93169153516E+03  0.10531132222E+04 -0.12368315051E+04  0.18726582063E+04  0.10100000352E+00 0. -1.
</event>
<event>
 5   0  0.1269497E-06  0.3400834E+04  0.7818609E-02  0.8137702E-01
       -2   -1    0    0    0  501  0.00000000000E+00  0.00000000000E+00  0.22166699047E+04  0.22166699047E+04  0.25500000920E-02 0. -1.
        2   -1    0    0  501    0  0.00000000000E+00  0.00000000000E+00 -0.13043968212E+04  0.13043968212E+04  0.25500000920E-02 0.  1.
    10030    2    1    2    0    0  0.00000000000E+00  0.00000000000E+00  0.91227308343E+03  0.35210667259E+04  0.34008335316E+04 0.  0.
        5    1    3    3  502    0  0.40000362126E+03  0.12736640657E+04 -0.63426972171E+03  0.14780200334E+04  0.46999998093E+01 0. -1.
       -5    1    3    3    0  502 -0.40000362126E+03 -0.12736640657E+04  0.15465428051E+04  0.20430466924E+04  0.46999998093E+01 0.  1.
</event>
<event>
 5   0  0.4109937E-07  0.3400618E+04  0.7818609E-02  0.8137755E-01
        1   -1    0    0  501    0  0.00000000000E+00  0.00000000000E+00  0.96762892721E+03  0.96762892722E+03  0.50400001928E-02 0. -1.
       -1   -1    0    0    0  501  0.00000000000E+00  0.00000000000E+00 -0.29877682925E+04  0.29877682925E+04  0.50400001928E-02 0.  1.
    10030    2    1    2    0    0  0.00000000000E+00  0.00000000000E+00 -0.20201393653E+04  0.39553972198E+04  0.34006181954E+04 0.  0.
        5    1    3    3  502    0 -0.43385703463E+03 -0.58453759203E+03 -0.27973414655E+04  0.28905116308E+04  0.46999998093E+01 0.  1.
       -5    1    3    3    0  502  0.43385703463E+03  0.58453759203E+03  0.77720210021E+03  0.10648855890E+04  0.46999998093E+01 0. -1.
</event>
<event>
 5   0  0.4109937E-07  0.3436361E+04  0.7818609E-02  0.8129039E-01
        1   -1    0    0  501    0  0.00000000000E+00  0.00000000000E+00  0.14105179820E+04  0.14105179820E+04  0.50400001928E-02 0.  1.
       -1   -1    0    0    0  501  0.00000000000E+00  0.00000000000E+00 -0.20929509213E+04  0.20929509213E+04  0.50400001928E-02 0. -1.
    10030    2    1    2    0    0  0.00000000000E+00  0.00000000000E+00 -0.68243293928E+03  0.35034689034E+04  0.34363613955E+04 0.  0.
        5    1    3    3  502    0  0.16543108500E+04  0.44053405149E+03 -0.49004035019E+03  0.17807235254E+04  0.46999998093E+01 0.  1.
       -5    1    3    3    0  502 -0.16543108500E+04 -0.44053405149E+03 -0.19239258909E+03  0.17227453780E+04  0.46999998093E+01 0. -1.
</event>
<event>
 5   0  0.1300176E-06  0.3412128E+04  0.7818609E-02  0.8134936E-01
       -2   -1    0    0    0  501  0.00000000000E+00  0.00000000000E+00  0.24753322577E+04  0.24753322577E+04  0.25500000920E-02 0.  1.
        2   -1    0    0  501    0  0.00000000000E+00  0.00000000000E+00 -0.11758640397E+04  0.11758640397E+04  0.25500000920E-02 0. -1.
    10030    2    1    2    0    0  0.00000000000E+00  0.00000000000E+00  0.12994682180E+04  0.36511962974E+04  0.34121278922E+04 0.  0.
        1    1    3    3  502    0 -0.13659264151E+04  0.61365215626E+03 -0.22505917461E+03  0.15142574327E+04  0.50400001928E-02 0. -1.
       -1    1    3    3    0  502  0.13659264151E+04 -0.61365215626E+03  0.15245273926E+04  0.21369388646E+04  0.50400001928E-02 0.  1.
</event>
<event>
 5   0  0.1277635E-06  0.3404373E+04  0.7818609E-02  0.8136834E-01
       -2   -1    0    0    0  501  0.00000000000E+00  0.00000000000E+00  0.17739229973E+04  0.17739229973E+04  0.25500000920E-02 0. -1.
        2   -1    0    0  501    0  0.00000000000E+00  0.00000000000E+00 -0.16333511393E+04  0.16333511393E+04  0.25500000920E-02 0.  1.
    10030    2    1    2    0    0  0.00000000000E+00  0.00000000000E+00  0.14057185803E+03  0.34072741366E+04  0.34043731574E+04 0.  0.
        4    1    3    3  502    0  0.11526819511E+04 -0.12506063451E+04  0.13923312772E+03  0.17064815814E+04  0.12699999809E+01 0.  1.
       -4    1    3    3    0  502 -0.11526819511E+04  0.12506063451E+04  0.13387303128E+01  0.17007925552E+04  0.12699999809E+01 0. -1.
</event>
<event>
 5   0  0.4125758E-07  0.3390674E+04  0.7818609E-02  0.8140199E-01
       -1   -1    0    0    0  501  0.00000000000E+00  0.00000000000E+00  0.19100757039E+04  0.19100757039E+04  0.50400001928E-02 0.  1.
        1   -1    0    0  501    0  0.00000000000E+00  0.00000000000E+00 -0.15047403546E+04  0.15047403546E+04  0.50400001928E-02 0. -1.
    10030    2    1    2    0    0  0.00000000000E+00  0.00000000000E+00  0.40533534923E+03  0.34148160585E+04  0.33906742645E+04 0.  0.
        2    1    3    3  502    0  0.90656376527E+03  0.14276132819E+04  0.82526868047E+02  0.16931474322E+04  0.25500000920E-02 0. -1.
       -2    1    3    3    0  502 -0.90656376527E+03 -0.14276132819E+04  0.32280848118E+03  0.17216686263E+04  0.25500000920E-02 0.  1.
</event>
<event>
 5   0  0.4289684E-07  0.3376829E+04  0.7818609E-02  0.8143617E-01
        1   -1    0    0  501    0  0.00000000000E+00  0.00000000000E+00  0.13243709947E+04  0.13243709947E+04  0.50400001928E-02 0.  1.
       -1   -1    0    0    0  501  0.00000000000E+00  0.00000000000E+00 -0.21525267898E+04  0.21525267898E+04  0.50400001928E-02 0. -1.
    10030    2    1    2    0    0  0.00000000000E+00  0.00000000000E+00 -0.82815579506E+03  0.34768977845E+04  0.33768293091E+04 0.  0.
        4    1    3    3  502    0  0.87091373601E+03 -0.11508996635E+04 -0.13162167726E+04  0.19533276674E+04  0.12699999809E+01 0. -1.
       -4    1    3    3    0  502 -0.87091373601E+03  0.11508996635E+04  0.48806097755E+03  0.15235701171E+04  0.12699999809E+01 0.  1.
</event>
<event>
 5   0  0.1256208E-06  0.3394280E+04  0.7818609E-02  0.8139312E-01
        2   -1    0    0  501    0  0.00000000000E+00  0.00000000000E+00  0.29723812517E+04  0.29723812517E+04  0.25500000920E-02 0. -1.
       -2   -1    0    0    0  501  0.00000000000E+00  0.00000000000E+00 -0.96901597087E+03  0.96901597088E+03  0.25500000920E-02 0.  1.
    10030    2    1    2    0    0  0.00000000000E+00  0.00000000000E+00  0.20033652808E+04  0.39413972225E+04  0.33942804271E+04 0.  0.
        3    1    3    3  502    0  0.16029953047E+04  0.54250008093E+03  0.11503174503E+04  0.20462479154E+04  0.10100000352E+00 0.  1.
       -3    1    3    3    0  502 -0.16029953047E+04 -0.54250008093E+03  0.85304783050E+03  0.18951493071E+04  0.10100000352E+00 0. -1.
</event>
<event>
 5   0  0.4272633E-07  0.3464715E+04  0.7818609E-02  0.8122203E-01
        1   -1    0    0  501    0  0.00000000000E+00  0.00000000000E+00  0.13373635188E+04  0.13373635188E+04  0.50400001928E-02 0. -1.
       -1   -1    0    0    0  501  0.00000000000E+00  0.00000000000E+00 -0.22440144729E+04  0.22440144729E+04  0.50400001928E-02 0.  1.
    10030    2    1    2    0    0  0.00000000000E+00  0.00000000000E+00 -0.90665095404E+03  0.35813779917E+04  0.34647153371E+04 0.  0.
        1    1    3    3  502    0 -0.20702951532E+03 -0.16163650994E+04 -0.10609676942E+04  0.19445178844E+04  0.50400001928E-02 0.  1.
       -1    1    3    3    0  502  0.20702951532E+03  0.16163650994E+04  0.15431674014E+03  0.16368601073E+04  0.50400001928E-02 0. -1.
</event>
<event>
 5   0  0.1269497E-06  0.3428600E+04  0.7818609E-02  0.8130922E-01
        2   -1    0    0  501    0  0.00000000000E+00  0.00000000000E+00  0.16893939770E+04  0.16893939770E+04  0.25500000920E-02 0.  1.
       -2   -1    0    0    0  501  0.00000000000E+00  0.00000000000E+00 -0.17395732529E+04  0.17395732529E+04  0.25500000920E-02 0. -1.
    10030    2    1    2    0    0  0.00000000000E+00  0.00000000000E+00 -0.50179275874E+02  0.34289672298E+04  0.34286000501E+04 0.  0.
        5    1    3    3  502    0  0.53042089490E+02  0.70149465015E+03  0.15383737468E+04  0.16916039969E+04  0.46999998093E+01 0.  1.
       -5    1    3    3    0  502 -0.53042089490E+02 -0.70149465015E+03 -0.15885530227E+04  0.17373632330E+04  0.46999998093E+01 0. -1.
</event>
<event>
 5   0  0.4125758E-07  0.3399321E+04  0.7818609E-02  0.8138073E-01
        1   -1    0    0  501    0  0.00000000000E+00  0.00000000000E+00  0.22877041468E+04  0.22877041468E+04  0.50400001928E-02 0. -1.
       -1   -1    0    0    0  501  0.00000000000E+00  0.00000000000E+00 -0.12627708221E+04  0.12627708222E+04  0.50400001928E-02 0.  1.
    10030    2    1    2    0    0  0.00000000000E+00  0.00000000000E+00  0.10249333246E+04  0.35504749689E+04  0.33993211359E+04 0.  0.
        2    1    3    3  502    0 -0.12396842673E+04 -0.33338009468E+03  0.16759504104E+04  0.21111061433E+04  0.25500000920E-02 0. -1.
       -2    1    3    3    0  502  0.12396842673E+04  0.33338009468E+03 -0.65101708577E+03  0.14393688256E+04  0.25500000920E-02 0.  1.
</event>
<event>
 5   0  0.1300176E-06  0.3390873E+04  0.7818609E-02  0.8140150E-01
        2   -1    0    0  501    0  0.00000000000E+00  0.00000000000E+00  0.19413585880E+04  0.19413585880E+04  0.25500000920E-02 0. -1.
       -2   -1    0    0    0  501  0.00000000000E+00  0.00000000000E+00 -0.14806664421E+04  0.14806664421E+04  0.25500000920E-02 0.  1.
    10030    2    1    2    0    0  0.00000000000E+00  0.00000000000E+00  0.46069214594E+03  0.34220250301E+04  0.33908727569E+04 0.  0.
        1    1    3    3  502    0  0.11189537321E+04 -0.65329542700E+03 -0.87315843630E+03  0.15624525671E+04  0.50400001928E-02 0.  1.
       -1    1    3    3    0  502 -0.11189537321E+04  0.65329542700E+03  0.13338505822E+04  0.18595724630E+04  0.50400001928E-02 0. -1.
</event>
<event>
 5   0  0.1268230E-06  0.3390646E+04  0.7818609E-02  0.8140206E-01
       -2   -1    0    0    0  501  0.00000000000E+00  0.00000000000E+00  0.11169708847E+04  0.11169708847E+04  0.25500000920E-02 0.  1.
        2   -1    0    0  501    0  0.00000000000E+00  0.00000000000E+00 -0.25731386081E+04  0.25731386081E+04  0.25500000920E-02 0. -1.
    10030    2    1    2    0    0  0.00000000000E+00  0.00000000000E+00 -0.14561677234E+04  0.36901094928E+04  0.33906464914E+04 0.  0.
        2    1    3    3  502    0  0.12878581845E+03 -0.12060744241E+04  0.56097613757E+03  0.13363740234E+04  0.25500000920E-02 0.  1.
       -2    1    3    3    0  502 -0.12878581845E+03  0.12060744241E+04 -0.20171438610E+04  0.23537354693E+04  0.25500000920E-02 0. -1.
</event>
<event>
 5   0  0.4289684E-07  0.3390434E+04  0.7818609E-02  0.8140258E-01
        1   -1    0    0  501    0  0.00000000000E+00  0.00000000000E+00  0.18365900870E+04  0.18365900870E+04  0.50400001928E-02 0.  1.
       -1   -1    0    0    0  501  0.00000000000E+00  0.00000000000E+00 -0.15647263924E+04  0.15647263924E+04  0.50400001928E-02 0. -1.
    10030    2    1    2    0    0  0.00000000000E+00  0.00000000000E+00  0.27186369465E+03  0.34013164794E+04  0.33904341793E+04 0.  0.
        4    1    3    3  502    0 -0.13741711050E+03  0.90014792404E+03  0.15704198675E+04  0.18153153777E+04  0.12699999809E+01 0.  1.
       -4    1    3    3    0  502  0.13741711050E+03 -0.90014792404E+03 -0.12985561729E+04  0.15860011016E+04  0.12699999809E+01 0. -1.
</event>
<event>
 5   0  0.1277635E-06  0.3407365E+04  0.7818609E-02  0.8136101E-01
        2   -1    0    0  501    0  0.00000000000E+00  0.00000000000E+00  0.13335780174E+04  0.13335780174E+04  0.25500000920E-02 0.  1.
       -2   -1    0    0    0  501  0.00000000000E+00  0.00000000000E+00 -0.21765012218E+04  0.21765012218E+04  0.25500000920E-02 0. -1.
    10030    2    1    2    0    0  0.00000000000E+00  0.00000000000E+00 -0.84292320440E+03  0.35100792392E+04  0.34073650724E+04 0.  0.
        4    1    3    3  502    0  0.54505475483E+03  0.10348786755E+04  0.85461875102E+03  0.14485970389E+04  0.12699999809E+01 0.  1.
       -4    1    3    3    0  502 -0.54505475483E+03 -0.10348786755E+04 -0.16975419554E+04  0.20614822003E+04  0.12699999809E+01 0. -1.
</event>
<event>
 5   0  0.1269497E-06  0.3342972E+04  0.7818609E-02  0.8152046E-01
        2   -1    0    0  501    0  0.00000000000E+00  0.00000000000E+00  0.23237774252E+04  0.23237774252E+04  0.25500000920E-02 0. -1.
       -2   -1    0    0    0  501  0.00000000000E+00  0.00000000000E+00 -0.12022947480E+04  0.12022947480E+04  0.25500000920E-02 0.  1.
    10030    2    1    2    0    0  0.00000000000E+00  0.00000000000E+00  0.11214826772E+04  0.35260721732E+04  0.33429719675E+04 0.  0.
        5    1    3    3  502    0 -0.13667105565E+04  0.62866819402E+03 -0.20766679075E+03  0.15186405201E+04  0.46999998093E+01 0.  1.
       -5    1    3    3    0  502  0.13667105565E+04 -0.62866819402E+03  0.13291494680E+04  0.20074316531E+04  0.46999998093E+01 0. -1.
</event>
<event>
 5   0  0.4272633E-07  0.3303072E+04  0.7818609E-02  0.8162114E-01
        1   -1    0    0  501    0  0.00000000000E+00  0.00000000000E+00  0.33501748520E+04  0.33501748520E+04  0.50400001928E-02 0. -1.
       -1   -1    0    0    0  501  0.00000000000E+00  0.00000000000E+00 -0.81415780990E+03  0.81415780992E+03  0.50400001928E-02 0.  1.
    10030    2    1    2    0    0  0.00000000000E+00  0.00000000000E+00  0.25360170421E+04  0.41643326619E+04  0.33030719159E+04 0.  0.
        1    1    3    3  502    0  0.42309230787E+03  0.11794369130E+04  0.26244044458E+04  0.29081914016E+04  0.50400001928E-02 0. -1.
       -1    1    3    3    0  502 -0.42309230787E+03 -0.11794369130E+04 -0.88387403744E+02  0.12561412604E+04  0.50400001928E-02 0.  1.
</event>
<event>
 5   0  0.1277635E-06  0.3438337E+04  0.7818609E-02  0.8128561E-01
       -2   -1    0    0    0  501  0.00000000000E+00  0.00000000000E+00  0.12105407127E+04  0.12105407127E+04  0.25500000920E-02 0.  1.
        2   -1    0    0  501    0  0.00000000000E+00  0.00000000000E+00 -0.24415046666E+04  0.24415046666E+04  0.25500000920E-02 0. -1.
    10030    2    1    2    0    0  0.00000000000E+00  0.00000000000E+00 -0.12309639539E+04  0.36520453792E+04  0.34383372720E+04 0.  0.
        4    1    3    3  502    0 -0.59298422242E+03 -0.76028040003E+03  0.89631972052E+03  0.13164525168E+04  0.12699999809E+01 0.  1.
       -4    1    3    3    0  502  0.59298422242E+03  0.76028040003E+03 -0.21272836744E+04  0.23355928624E+04  0.12699999809E+01 0. -1.
</event>
<event>
 5   0  0.4464951E-07  0.3382936E+04  0.7818609E-02  0.8142107E-01
        1   -1    0    0  501    0  0.00000000000E+00  0.00000000000E+00  0.18019183207E+04  0.18019183207E+04  0.50400001928E-02 0. -1.
       -1   -1    0    0    0  501  0.00000000000E+00  0.00000000000E+00 -0.15877877222E+04  0.15877877223E+04  0.50400001928E-02 0.  1.
    10030    2    1    2    0    0  0.00000000000E+00  0.00000000000E+00  0.21413059844E+03  0.33897060430E+04  0.33829358765E+04 0.  0.
        3    1    3    3  502    0  0.87411109342E+03 -0.78070937505E+02 -0.13418224736E+04  0.16033255551E+04  0.10100000352E+00 0.  1.
       -3    1    3    3    0  502 -0.87411109342E+03  0.78070937505E+02  0.15559530720E+04  0.17863804879E+04  0.10100000352E+00 0. -1.
</event>
<event>
 5   0  0.4125758E-07  0.3335908E+04  0.7818609E-02  0.8153818E-01
        1   -1    0    0  501    0  0.00000000000E+00  0.00000000000E+00  0.19639104770E+04  0.19639104770E+04  0.50400001928E-02 0. -1.
       -1   -1    0    0    0  501  0.00000000000E+00  0.00000000000E+00 -0.14165971897E+04  0.14165971897E+04  0.50400001928E-02 0.  1.
    10030    2    1    2    0    0  0.00000000000E+00  0.00000000000E+00  0.54731328729E+03  0.33805076667E+04  0.33359077101E+04 0.  0.
        2    1    3    3  502    0 -0.33030073444E+03  0.71648739968E+03 -0.12155545652E+04  0.14491465316E+04  0.25500000920E-02 0.  1.
       -2    1    3    3    0  502  0.33030073444E+03 -0.71648739968E+03  0.17628678525E+04  0.19313611351E+04  0.25500000920E-02 0. -1.
</event>
<event>
 5   0  0.4125758E-07  0.3389568E+04  0.7818609E-02  0.8140471E-01
        1   -1    0    0  501    0  0.00000000000E+00  0.00000000000E+00  0.15247058975E+04  0.15247058976E+04  0.50400001928E-02 0. -1.
       -1   -1    0    0    0  501  0.00000000000E+00  0.00000000000E+00 -0.18838336620E+04  0.18838336620E+04  0.50400001928E-02 0.  1.
    10030    2    1    2    0    0  0.00000000000E+00  0.00000000000E+00 -0.35912776449E+03  0.34085395596E+04  0.33895676978E+04 0.  0.
        2    1    3    3  502    0  0.88436547686E+03 -0.14457370132E+04 -0.17365848649E+03  0.17036475803E+04  0.25500000920E-02 0.  1.
       -2    1    3    3    0  502 -0.88436547686E+03  0.14457370132E+04 -0.18546927799E+03  0.17048919793E+04  0.25500000920E-02 0. -1.
</event>
<event>
 5   0  0.4272633E-07  0.3354369E+04  0.7818609E-02  0.8149197E-01
        1   -1    0    0  501    0  0.00000000000E+00  0.00000000000E+00  0.28678874640E+04  0.28678874640E+04  0.50400001928E-02 0.  1.
       -1   -1    0    0    0  501  0.00000000000E+00  0.00000000000E+00 -0.98084344557E+03  0.98084344558E+03  0.50400001928E-02 0. -1.
    10030    2    1    2    0    0  0.00000000000E+00  0.00000000000E+00  0.18870440184E+04  0.38487309096E+04  0.33543694619E+04 0.  0.
        1    1    3    3  502    0 -0.52736243468E+02 -0.13357407477E+04 -0.21865625349E+03  0.13545460544E+04  0.50400001928E-02 0. -1.
       -1    1    3    3    0  502  0.52736243468E+02  0.13357407477E+04  0.21057002719E+04  0.24941848551E+04  0.50400001928E-02 0.  1.
</event>
<event>
 5   0  0.4109937E-07  0.3374312E+04  0.7818609E-02  0.8144240E-01
        1   -1    0    0  501    0  0.00000000000E+00  0.00000000000E+00  0.17211215777E+04  0.17211215777E+04  0.50400001928E-02 0. -1.
       -1   -1    0    0    0  501  0.00000000000E+00  0.00000000000E+00 -0.16538607058E+04  0.16538607058E+04  0.50400001928E-02 0.  1.
    10030    2    1    2    0    0  0.00000000000E+00  0.00000000000E+00  0.67260871924E+02  0.33749822835E+04  0.33743119875E+04 0.  0.
        5    1    3    3  502    0 -0.27130954792E+03  0.47608171411E+03 -0.15623715318E+04  0.16556840166E+04  0.46999998093E+01 0.  1.
       -5    1    3    3    0  502  0.27130954792E+03 -0.47608171411E+03  0.16296324038E+04  0.17192982669E+04  0.46999998093E+01 0. -1.
</event>
<event>
 5   0  0.4125758E-07  0.3403358E+04  0.7818609E-02  0.8137083E-01
        1   -1    0    0  501    0  0.00000000000E+00  0.00000000000E+00  0.11880550185E+04  0.11880550185E+04  0.50400001928E-02 0.  1.
       -1   -1    0    0    0  501  0.00000000000E+00  0.00000000000E+00 -0.24373551149E+04  0.24373551149E+04  0.50400001928E-02 0. -1.
    10030    2    1    2    0    0  0.00000000000E+00  0.00000000000E+00 -0.12493000965E+04  0.36254101334E+04  0.34033583274E+04 0.  0.
        2    1    3    3  502    0 -0.70436350783E+03  0.13641920584E+03  0.10190659345E+04  0.12462879000E+04  0.25500000920E-02 0.  1.
       -2    1    3    3    0  502  0.70436350783E+03 -0.13641920584E+03 -0.22683660310E+04  0.23791222334E+04  0.25500000920E-02 0. -1.
</event>
<event>
 5   0  0.1277635E-06  0.3335536E+04  0.7818609E-02  0.8153912E-01
       -2   -1    0    0    0  501  0.00000000000E+00  0.00000000000E+00  0.20457707748E+04  0.20457707748E+04  0.25500000920E-02 0. -1.
        2   -1    0    0  501    0  0.00000000000E+00  0.00000000000E+00 -0.13596100073E+04  0.13596100073E+04  0.25500000920E-02 0.  1.
    10030    2    1    2    0    0  0.00000000000E+00  0.00000000000E+00  0.68616076753E+03  0.34053807821E+04  0.33355361896E+04 0.  0.
        4    1    3    3  502    0  0.13721430311E+04  0.45186927135E+03  0.11938890758E+04  0.18741224812E+04  0.12699999809E+01 0. -1.
       -4    1    3    3    0  502 -0.13721430311E+04 -0.45186927135E+03 -0.50772830830E+03  0.15312583009E+04  0.12699999809E+01 0.  1.
</event>
<event>
 5   0  0.1277635E-06  0.3383270E+04  0.7818609E-02  0.8142025E-01
        2   -1    0    0  501    0  0.00000000000E+00  0.00000000000E+00  0.30083171949E+04  0.30083171949E+04  0.25500000920E-02 0.  1.
       -2   -1    0    0    0  501  0.00000000000E+00  0.00000000000E+00 -0.95123915678E+03  0.95123915678E+03  0.25500000920E-02 0. -1.
    10030    2    1    2    0    0  0.00000000000E+00  0.00000000000E+00  0.20570780381E+04  0.39595563517E+04  0.33832700819E+04 0.  0.
        4    1    3    3  502    0 -0.44105260797E+03  0.99714985465E+03 -0.48512980239E+03  0.11933933860E+04  0.12699999809E+01 0. -1.
       -4    1    3    3    0  502  0.44105260797E+03 -0.99714985465E+03  0.25422078405E+04  0.27661629657E+04  0.12699999809E+01 0.  1.
</event>
<event>
 5   0  0.1300176E-06  0.2920241E+04  0.7818609E-02  0.8266881E-01
        2   -1    0    0  501    0  0.00000000000E+00  0.00000000000E+00  0.21028441084E+04  0.21028441084E+04  0.25500000920E-02 0.  1.
       -2   -1    0    0    0  501  0.00000000000E+00  0.00000000000E+00 -0.10138418944E+04  0.10138418944E+04  0.25500000920E-02 0. -1.
    10030    2    1    2    0    0  0.00000000000E+00  0.00000000000E+00  0.10890022139E+04  0.31166860028E+04  0.29202407124E+04 0.  0.
        1    1    3    3  502    0  0.70440273841E+03 -0.11191683373E+04  0.12052012711E+04  0.17891984488E+04  0.50400001928E-02 0.  1.
       -1    1    3    3    0  502 -0.70440273841E+03  0.11191683373E+04 -0.11619905721E+03  0.13274875540E+04  0.50400001928E-02 0. -1.
</event>
<event>
 5   0  0.4289684E-07  0.3402484E+04  0.7818609E-02  0.8137297E-01
        1   -1    0    0  501    0  0.00000000000E+00  0.00000000000E+00  0.12689646186E+04  0.12689646186E+04  0.50400001928E-02 0. -1.
       -1   -1    0    0    0  501  0.00000000000E+00  0.00000000000E+00 -0.22807755915E+04  0.22807755915E+04  0.50400001928E-02 0.  1.
    10030    2    1    2    0    0  0.00000000000E+00  0.00000000000E+00 -0.10118109729E+04  0.35497402102E+04  0.34024835216E+04 0.  0.
        4    1    3    3  502    0 -0.16307333493E+03 -0.98176845300E+03  0.93357772804E+03  0.13645626387E+04  0.12699999809E+01 0. -1.
       -4    1    3    3    0  502  0.16307333493E+03  0.98176845300E+03 -0.19453887010E+04  0.21851775714E+04  0.12699999809E+01 0.  1.
</event>
<event>
 5   0  0.4289684E-07  0.3417991E+04  0.7818609E-02  0.8133505E-01
        1   -1    0    0  501    0  0.00000000000E+00  0.00000000000E+00  0.21058868168E+04  0.21058868168E+04  0.50400001928E-02 0.  1.
       -1   -1    0    0    0  501  0.00000000000E+00  0.00000000000E+00 -0.13869051859E+04  0.13869051859E+04  0.50400001928E-02 0. -1.
    10030    2    1    2    0    0  0.00000000000E+00  0.00000000000E+00  0.71898163097E+03  0.34927920027E+04  0.34179908409E+04 0.  0.
        4    1    3    3  502    0 -0.12479765139E+02 -0.12143540316E+03  0.21014252604E+04  0.21049684177E+04  0.12699999809E+01 0.  1.
       -4    1    3    3    0  502  0.12479765139E+02  0.12143540316E+03 -0.13824436294E+04  0.13878235850E+04  0.12699999809E+01 0. -1.
</event>
<event>
 5   0  0.1269497E-06  0.3394146E+04  0.7818609E-02  0.8139345E-01
        2   -1    0    0  501    0  0.00000000000E+00  0.00000000000E+00  0.16513942280E+04  0.16513942280E+04  0.25500000920E-02 0. -1.
       -2   -1    0    0    0  501  0.00000000000E+00  0.00000000000E+00 -0.17440154320E+04  0.17440154320E+04  0.25500000920E-02 0.  1.
    10030    2    1    2    0    0  0.00000000000E+00  0.00000000000E+00 -0.92621204015E+02  0.33954096600E+04  0.33941461477E+04 0.  0.
        5    1    3    3  502    0 -0.32181584671E+03  0.16106371455E+04  0.38083485263E+03  0.16860530029E+04  0.46999998093E+01 0. -1.
       -5    1    3    3    0  502  0.32181584671E+03 -0.16106371455E+04 -0.47345605664E+03  0.17093566571E+04  0.46999998093E+01 0.  1.
</event>
<event>
 5   0  0.4109937E-07  0.3319034E+04  0.7818609E-02  0.8158069E-01
       -1   -1    0    0    0  501  0.00000000000E+00  0.00000000000E+00  0.13651335450E+04  0.13651335450E+04  0.50400001928E-02 0. -1.
        1   -1    0    0  501    0  0.00000000000E+00  0.00000000000E+00 -0.20173827107E+04  0.20173827107E+04  0.50400001928E-02 0.  1.
    10030    2    1    2    0    0  0.00000000000E+00  0.00000000000E+00 -0.65224916575E+03  0.33825162557E+04  0.33190340832E+04 0.  0.
        5    1    3    3  502    0  0.95739931933E+03  0.99659803134E+03 -0.12624761163E+04  0.18718143943E+04  0.46999998093E+01 0.  1.
       -5    1    3    3    0  502 -0.95739931933E+03 -0.99659803134E+03  0.61022695051E+03  0.15107018613E+04  0.46999998093E+01 0. -1.
</event>
<event>
 5   0  0.4060750E-07  0.3376081E+04  0.7818609E-02  0.8143802E-01
        3   -1    0    0  501    0  0.00000000000E+00  0.00000000000E+00  0.14324973786E+04  0.14324973822E+04  0.10100000352E+00 0. -1.
       -3   -1    0    0    0  501  0.00000000000E+00  0.00000000000E+00 -0.19891704421E+04  0.19891704446E+04  0.10100000352E+00 0.  1.
    10030    2    1    2    0    0  0.00000000000E+00  0.00000000000E+00 -0.55667306343E+03  0.34216678268E+04  0.33760814293E+04 0.  0.
        1    1    3    3  502    0 -0.15946223806E+02  0.15705512672E+04 -0.90523193156E+03  0.18128238786E+04  0.50400001928E-02 0.  1.
       -1    1    3    3    0  502  0.15946223806E+02 -0.15705512672E+04  0.34855886813E+03  0.16088439482E+04  0.50400001928E-02 0. -1.
</event>
<event>
 5   0  0.1268230E-06  0.3436487E+04  0.7818609E-02  0.8129009E-01
        2   -1    0    0  501    0  0.00000000000E+00  0.00000000000E+00  0.11428084050E+04  0.11428084050E+04  0.25500000920E-02 0.  1.
       -2   -1    0    0    0  501  0.00000000000E+00  0.00000000000E+00 -0.25834251794E+04  0.25834251794E+04  0.25500000920E-02 0. -1.
    10030    2    1    2    0    0  0.00000000000E+00  0.00000000000E+00 -0.14406167744E+04  0.37262335845E+04  0.34364865830E+04 0.  0.
        2    1    3    3  502    0  0.12831109364E+04 -0.40129602078E+03 -0.18805495621E+04  0.23116831156E+04  0.25500000920E-02 0. -1.
       -2    1    3    3    0  502 -0.12831109364E+04  0.40129602078E+03  0.43993278768E+03  0.14145504689E+04  0.25500000920E-02 0.  1.
</event>
<event>
 5   0  0.4464951E-07  0.3369304E+04  0.7818609E-02  0.8145481E-01
        1   -1    0    0  501    0  0.00000000000E+00  0.00000000000E+00  0.16477245009E+04  0.16477245009E+04  0.50400001928E-02 0.  1.
       -1   -1    0    0    0  501  0.00000000000E+00  0.00000000000E+00 -0.17224073525E+04  0.17224073525E+04  0.50400001928E-02 0. -1.
    10030    2    1    2    0    0  0.00000000000E+00  0.00000000000E+00 -0.74682851572E+02  0.33701318535E+04  0.33693042578E+04 0.  0.
        3    1    3    3  502    0  0.78172222067E+03  0.12791505001E+03 -0.15245155916E+04  0.17180220282E+04  0.10100000352E+00 0. -1.
       -3    1    3    3    0  502 -0.78172222067E+03 -0.12791505001E+03  0.14498327400E+04  0.16521098252E+04  0.10100000352E+00 0.  1.
</event>
<event>
 5   0  0.1256208E-06  0.3397395E+04  0.7818609E-02  0.8138546E-01
        2   -1    0    0  501    0  0.00000000000E+00  0.00000000000E+00  0.19101392803E+04  0.19101392803E+04  0.25500000920E-02 0. -1.
       -2   -1    0    0    0  501  0.00000000000E+00  0.00000000000E+00 -0.15106612663E+04  0.15106612663E+04  0.25500000920E-02 0.  1.
    10030    2    1    2    0    0  0.00000000000E+00  0.00000000000E+00  0.39947801402E+03  0.34208005465E+04  0.33973951339E+04 0.  0.
        3    1    3    3  502    0  0.10429377114E+04  0.13203833859E+04  0.43467467625E+03  0.17378358496E+04  0.10100000352E+00 0.  1.
       -3    1    3    3    0  502 -0.10429377114E+04 -0.13203833859E+04 -0.35196662230E+02  0.16829646969E+04  0.10100000352E+00 0. -1.
</event>
<event>
 5   0  0.1277635E-06  0.3386669E+04  0.7818609E-02  0.8141186E-01
        2   -1    0    0  501    0  0.00000000000E+00  0.00000000000E+00  0.17755603851E+04  0.17755603851E+04  0.25500000920E-02 0. -1.
       -2   -1    0    0    0  501  0.00000000000E+00  0.00000000000E+00 -0.16149163413E+04  0.16149163413E+04  0.25500000920E-02 0.  1.
    10030    2    1    2    0    0  0.00000000000E+00  0.00000000000E+00  0.16064404377E+03  0.33904767263E+04  0.33866688535E+04 0.  0.
        4    1    3    3  502    0  0.49088225160E+02  0.40156257679E+03  0.17264693706E+04  0.17732344056E+04  0.12699999809E+01 0. -1.
       -4    1    3    3    0  502 -0.49088225160E+02 -0.40156257679E+03 -0.15658253268E+04  0.16172423207E+04  0.12699999809E+01 0.  1.
</event>
<event>
 5   0  0.1277635E-06  0.3406643E+04  0.7818609E-02  0.8136278E-01
        2   -1    0    0  501    0  0.00000000000E+00  0.00000000000E+00  0.18414629508E+04  0.18414629508E+04  0.25500000920E-02 0.  1.
       -2   -1    0    0    0  501  0.00000000000E+00  0.00000000000E+00 -0.15755427836E+04  0.15755427836E+04  0.25500000920E-02 0. -1.
    10030    2    1    2    0    0  0.00000000000E+00  0.00000000000E+00  0.26592016725E+03  0.34170057344E+04  0.34066427247E+04 0.  0.
        4    1    3    3  502    0 -0.12115279417E+04  0.11299427944E+04  0.53005753110E+03  0.17394060110E+04  0.12699999809E+01 0.  1.
       -4    1    3    3    0  502  0.12115279417E+04 -0.11299427944E+04 -0.26413736384E+03  0.16775997234E+04  0.12699999809E+01 0. -1.
</event>
<event>
 5   0  0.4125758E-07  0.3422333E+04  0.7818609E-02  0.8132447E-01
        1   -1    0    0  501    0  0.00000000000E+00  0.00000000000E+00  0.30854691363E+04  0.30854691363E+04  0.50400001928E-02 0. -1.
       -1   -1    0    0    0  501  0.00000000000E+00  0.00000000000E+00 -0.94899392018E+03  0.94899392019E+03  0.50400001928E-02 0.  1.
    10030    2    1    2    0    0  0.00000000000E+00  0.00000000000E+00  0.21364752161E+04  0.40344630565E+04  0.34223333860E+04 0.  0.
        2    1    3    3  502    0  0.11260907554E+04 -0.77439643793E+03  0.22821354944E+04  0.26600587676E+04  0.25500000920E-02 0. -1.
       -2    1    3    3    0  502 -0.11260907554E+04  0.77439643793E+03 -0.14566027831E+03  0.13744042888E+04  0.25500000920E-02 0.  1.
</event>
<event>
 5   0  0.1300176E-06  0.3408403E+04  0.7818609E-02  0.8135847E-01
        2   -1    0    0  501    0  0.00000000000E+00  0.00000000000E+00  0.20245419774E+04  0.20245419774E+04  0.25500000920E-02 0.  1.
       -2   -1    0    0    0  501  0.00000000000E+00  0.00000000000E+00 -0.14345483334E+04  0.14345483334E+04  0.25500000920E-02 0. -1.
    10030    2    1    2    0    0  0.00000000000E+00  0.00000000000E+00  0.58999364404E+03  0.34590903108E+04  0.34084033327E+04 0.  0.
        1    1    3    3  502    0  0.15150492270E+04  0.73635849456E+02 -0.49341303795E+03  0.15950714168E+04  0.50400001928E-02 0. -1.
       -1    1    3    3    0  502 -0.15150492270E+04 -0.73635849456E+02  0.10834066820E+04  0.18640188940E+04  0.50400001928E-02 0.  1.
</event>
<event>
 5   0  0.4272633E-07  0.3356018E+04  0.7818609E-02  0.8148786E-01
       -1   -1    0    0    0  501  0.00000000000E+00  0.00000000000E+00  0.14386973892E+04  0.14386973892E+04  0.50400001928E-02 0. -1.
        1   -1    0    0  501    0  0.00000000000E+00  0.00000000000E+00 -0.19571278327E+04  0.19571278327E+04  0.50400001928E-02 0.  1.
    10030    2    1    2    0    0  0.00000000000E+00  0.00000000000E+00 -0.51843044355E+03  0.33958252219E+04  0.33560182974E+04 0.  0.
        1    1    3    3  502    0 -0.61755848706E+03  0.81411330361E+03 -0.16060006886E+04  0.19035223056E+04  0.50400001928E-02 0.  1.
       -1    1    3    3    0  502  0.61755848706E+03 -0.81411330361E+03  0.10875702450E+04  0.14923029163E+04  0.50400001928E-02 0. -1.
</event>
<event>
 5   0  0.4109937E-07  0.3374228E+04  0.7818609E-02  0.8144261E-01
        1   -1    0    0  501    0  0.00000000000E+00  0.00000000000E+00  0.89880512712E+03  0.89880512714E+03  0.50400001928E-02 0.  1.
       -1   -1    0    0    0  501  0.00000000000E+00  0.00000000000E+00 -0.31668188870E+04  0.31668188870E+04  0.50400001928E-02 0. -1.
    10030    2    1    2    0    0  0.00000000000E+00  0.00000000000E+00 -0.22680137599E+04  0.40656240142E+04  0.33742276464E+04 0.  0.
        5    1    3    3  502    0  0.90697044905E+03 -0.56967128762E+03 -0.27046459105E+04  0.29089950778E+04  0.46999998093E+01 0. -1.
       -5    1    3    3    0  502 -0.90697044905E+03  0.56967128762E+03  0.43663215065E+03  0.11566289363E+04  0.46999998093E+01 0.  1.
</event>
<event>
 5   0  0.1300176E-06  0.3247311E+04  0.7818609E-02  0.8176433E-01
       -2   -1    0    0    0  501  0.00000000000E+00  0.00000000000E+00  0.12966225317E+04  0.12966225317E+04  0.25500000920E-02 0. -1.
        2   -1    0    0  501    0  0.00000000000E+00  0.00000000000E+00 -0.20331729715E+04  0.20331729715E+04  0.25500000920E-02 0.  1.
    10030    2    1    2    0    0  0.00000000000E+00  0.00000000000E+00 -0.73655043976E+03  0.33297955032E+04  0.32473114330E+04 0.  0.
        1    1    3    3  502    0 -0.36544115608E+03 -0.69397668821E+03 -0.18260427557E+04  0.19873557880E+04  0.50400001928E-02 0.  1.
       -1    1    3    3    0  502  0.36544115608E+03  0.69397668821E+03  0.10894923160E+04  0.13424397152E+04  0.50400001928E-02 0. -1.
</event>
<event>
 5   0  0.4109937E-07  0.3402607E+04  0.7818609E-02  0.8137267E-01
        1   -1    0    0  501    0  0.00000000000E+00  0.00000000000E+00  0.16343334531E+04  0.16343334531E+04  0.50400001928E-02 0.  1.
       -1   -1    0    0    0  501  0.00000000000E+00  0.00000000000E+00 -0.17710174434E+04  0.17710174434E+04  0.50400001928E-02 0. -1.
    10030    2    1    2    0    0  0.00000000000E+00  0.00000000000E+00 -0.13668399033E+03  0.34053508965E+04  0.34026066795E+04 0.  0.
        5    1    3    3  502    0 -0.14791436653E+04 -0.14644649837E+03 -0.89671625816E+03  0.17359247383E+04  0.46999998093E+01 0. -1.
       -5    1    3    3    0  502  0.14791436653E+04  0.14644649837E+03  0.76003226783E+03  0.16694261582E+04  0.46999998093E+01 0.  1.
</event>
<event>
 5   0  0.4109937E-07  0.3546898E+04  0.7818609E-02  0.8102765E-01
       -1   -1    0    0    0  501  0.00000000000E+00  0.00000000000E+00  0.11243841697E+04  0.11243841697E+04  0.50400001928E-02 0.  1.
        1   -1    0    0  501    0  0.00000000000E+00  0.00000000000E+00 -0.27971950041E+04  0.27971950041E+04  0.50400001928E-02 0. -1.
    10030    2    1    2    0    0  0.00000000000E+00  0.00000000000E+00 -0.16728108344E+04  0.39215791739E+04  0.35468982406E+04 0.  0.
        5    1    3    3  502    0  0.11697302792E+04  0.85484129770E+03 -0.19672270569E+04  0.24431592158E+04  0.46999998093E+01 0. -1.
       -5    1    3    3    0  502 -0.11697302792E+04 -0.85484129770E+03  0.29441622253E+03  0.14784199581E+04  0.46999998093E+01 0.  1.
</event>
<event>
 5   0  0.4289684E-07  0.3483296E+04  0.7818609E-02  0.8117760E-01
        1   -1    0    0  501    0  0.00000000000E+00  0.00000000000E+00  0.19015352345E+04  0.19015352345E+04  0.50400001928E-02 0. -1.
       -1   -1    0    0    0  501  0.00000000000E+00  0.00000000000E+00 -0.15952045804E+04  0.15952045804E+04  0.50400001928E-02 0.  1.
    10030    2    1    2    0    0  0.00000000000E+00  0.00000000000E+00  0.30633065406E+03  0.34967398149E+04  0.34832959770E+04 0.  0.
        4    1    3    3  502    0  0.12810201533E+04  0.10798214993E+04 -0.32439017437E+03  0.17065338267E+04  0.12699999809E+01 0.  1.
       -4    1    3    3    0  502 -0.12810201533E+04 -0.10798214993E+04  0.63072082844E+03  0.17902059881E+04  0.12699999809E+01 0. -1.
</event>
<event>
 5   0  0.1269497E-06  0.3431592E+04  0.7818609E-02  0.8130196E-01
        2   -1    0    0  501    0  0.00000000000E+00  0.00000000000E+00  0.16889321238E+04  0.16889321238E+04  0.25500000920E-02 0. -1.
       -2   -1    0    0    0  501  0.00000000000E+00  0.00000000000E+00 -0.17430875946E+04  0.17430875946E+04  0.25500000920E-02 0.  1.
    10030    2    1    2    0    0  0.00000000000E+00  0.00000000000E+00 -0.54155470835E+02  0.34320197184E+04  0.34315924193E+04 0.  0.
        5    1    3    3  502    0  0.70082607625E+03 -0.23095878375E+03 -0.15762817190E+04  0.17404554854E+04  0.46999998093E+01 0.  1.
       -5    1    3    3    0  502 -0.70082607625E+03  0.23095878375E+03  0.15221262482E+04  0.16915642330E+04  0.46999998093E+01 0. -1.
</event>
<event>
 5   0  0.1300176E-06  0.3404829E+04  0.7818609E-02  0.8136722E-01
        2   -1    0    0  501    0  0.00000000000E+00  0.00000000000E+00  0.19140104459E+04  0.19140104459E+04  0.25500000920E-02 0. -1.
       -2   -1    0    0    0  501  0.00000000000E+00  0.00000000000E+00 -0.15142105469E+04  0.15142105469E+04  0.25500000920E-02 0.  1.
    10030    2    1    2    0    0  0.00000000000E+00  0.00000000000E+00  0.39979989899E+03  0.34282209929E+04  0.34048288087E+04 0.  0.
        1    1    3    3  502    0  0.29884685130E+03 -0.15977808653E+04  0.70934216259E+03  0.17735217613E+04  0.50400001928E-02 0. -1.
       -1    1    3    3    0  502 -0.29884685130E+03  0.15977808653E+04 -0.30954226360E+03  0.16546992316E+04  0.50400001928E-02 0.  1.
</event>
<event>
 5   0  0.4125758E-07  0.3354146E+04  0.7818609E-02  0.8149253E-01
       -1   -1    0    0    0  501  0.00000000000E+00  0.00000000000E+00  0.14780308791E+04  0.14780308792E+04  0.50400001928E-02 0. -1.
        1   -1    0    0  501    0  0.00000000000E+00  0.00000000000E+00 -0.19029191806E+04  0.19029191807E+04  0.50400001928E-02 0.  1.
    10030    2    1    2    0    0  0.00000000000E+00  0.00000000000E+00 -0.42488830150E+03  0.33809500598E+04  0.33541456793E+04 0.  0.
        2    1    3    3  502    0  0.15723504251E+04 -0.42062385710E+03  0.19496775163E+03  0.16392750571E+04  0.25500000920E-02 0. -1.
       -2    1    3    3    0  502 -0.15723504251E+04  0.42062385710E+03 -0.61985605313E+03  0.17416750027E+04  0.25500000920E-02 0.  1.
</event>
<event>
 5   0  0.4109937E-07  0.3414518E+04  0.7818609E-02  0.8134352E-01
        1   -1    0    0  501    0  0.00000000000E+00  0.00000000000E+00  0.22766759884E+04  0.22766759884E+04  0.50400001928E-02 0. -1.
       -1   -1    0    0    0  501  0.00000000000E+00  0.00000000000E+00 -0.12802584586E+04  0.12802584586E+04  0.50400001928E-02 0.  1.
    10030    2    1    2    0    0  0.00000000000E+00  0.00000000000E+00  0.99641752976E+03  0.35569344470E+04  0.34145182335E+04 0.  0.
        5    1    3    3  502    0  0.30902664753E+03 -0.13094945931E+04  0.15929641852E+04  0.20851452093E+04  0.46999998093E+01 0. -1.
       -5    1    3    3    0  502 -0.30902664753E+03  0.13094945931E+04 -0.59654665547E+03  0.14717892378E+04  0.46999998093E+01 0.  1.
</event>
<event>
 5   0  0.1256208E-06  0.3409800E+04  0.7818609E-02  0.8135505E-01
       -2   -1    0    0    0  501  0.00000000000E+00  0.00000000000E+00  0.15653568113E+04  0.15653568113E+04  0.25500000920E-02 0.  1.
        2   -1    0    0  501    0  0.00000000000E+00  0.00000000000E+00 -0.18568826327E+04  0.18568826328E+04  0.25500000920E-02 0. -1.
    10030    2    1    2    0    0  0.00000000000E+00  0.00000000000E+00 -0.29152582147E+03  0.34222394440E+04  0.34097999219E+04 0.  0.
        3    1    3    3  502    0 -0.14906340899E+04 -0.70045834979E+03  0.29635746662E+03  0.16734573935E+04  0.10100000352E+00 0. -1.
       -3    1    3    3    0  502  0.14906340899E+04  0.70045834979E+03 -0.58788328809E+03  0.17487820505E+04  0.10100000352E+00 0.  1.
</event>
<event>
 5   0  0.1300176E-06  0.3395673E+04  0.7818609E-02  0.8138969E-01
       -2   -1    0    0    0  501  0.00000000000E+00  0.00000000000E+00  0.14125367565E+04  0.14125367565E+04  0.25500000920E-02 0. -1.
        2   -1    0    0  501    0  0.00000000000E+00  0.00000000000E+00 -0.20407600202E+04  0.20407600202E+04  0.25500000920E-02 0.  1.
    10030    2    1    2    0    0  0.00000000000E+00  0.00000000000E+00 -0.62822326372E+03  0.34532967767E+04  0.33956728580E+04 0.  0.
        1    1    3    3  502    0  0.45884205953E+03  0.16343234600E+04 -0.28039279807E+03  0.17205142628E+04  0.50400001928E-02 0. -1.
       -1    1    3    3    0  502 -0.45884205953E+03 -0.16343234600E+04 -0.34783046565E+03  0.17327825138E+04  0.50400001928E-02 0.  1.
</event>
<event>
 5   0  0.4060750E-07  0.3404618E+04  0.7818609E-02  0.8136774E-01
       -3   -1    0    0    0  501  0.00000000000E+00  0.00000000000E+00  0.16131646566E+04  0.16131646597E+04  0.10100000352E+00 0. -1.
        3   -1    0    0  501    0  0.00000000000E+00  0.00000000000E+00 -0.17963789974E+04  0.17963790002E+04  0.10100000352E+00 0.  1.
    10030    2    1    2    0    0  0.00000000000E+00  0.00000000000E+00 -0.18321434085E+03  0.34095436600E+04  0.34046175225E+04 0.  0.
        5    1    3    3  502    0  0.66405433713E+03 -0.88449819536E+03  0.12043006423E+04  0.16351352688E+04  0.46999998093E+01 0. -1.
       -5    1    3    3    0  502 -0.66405433713E+03  0.88449819536E+03 -0.13875149831E+04  0.17744083912E+04  0.46999998093E+01 0.  1.
</event>
<event>
 5   0  0.4125758E-07  0.3438343E+04  0.7818609E-02  0.8128559E-01
        1   -1    0    0  501    0  0.00000000000E+00  0.00000000000E+00  0.22785223427E+04  0.22785223428E+04  0.50400001928E-02 0.  1.
       -1   -1    0    0    0  501  0.00000000000E+00  0.00000000000E+00 -0.12971348515E+04  0.12971348515E+04  0.50400001928E-02 0. -1.
    10030    2    1    2    0    0  0.00000000000E+00  0.00000000000E+00  0.98138749122E+03  0.35756571943E+04  0.34383430549E+04 0.  0.
        2    1    3    3  502    0 -0.12539899277E+04 -0.74626404481E+03  0.14359207434E+04  0.20472589345E+04  0.25500000920E-02 0.  1.
       -2    1    3    3    0  502  0.12539899277E+04  0.74626404481E+03 -0.45453325222E+03  0.15283982598E+04  0.25500000920E-02 0. -1.
</event>
<event>
 5   0  0.4109937E-07  0.3434073E+04  0.7818609E-02  0.8129594E-01
       -1   -1    0    0    0  501  0.00000000000E+00  0.00000000000E+00  0.17383178291E+04  0.17383178291E+04  0.50400001928E-02 0. -1.
        1   -1    0    0  501    0  0.00000000000E+00  0.00000000000E+00 -0.16960158883E+04  0.16960158883E+04  0.50400001928E-02 0.  1.
    10030    2    1    2    0    0  0.00000000000E+00  0.00000000000E+00  0.42301940846E+02  0.34343337174E+04  0.34340731833E+04 0.  0.
        5    1    3    3  502    0  0.15933661577E+04 -0.47118919315E+03  0.45403204936E+03  0.17224988128E+04  0.46999998093E+01 0. -1.
       -5    1    3    3    0  502 -0.15933661577E+04  0.47118919315E+03 -0.41173010851E+03  0.17118349046E+04  0.46999998093E+01 0.  1.
</event>
<event>
 5   0  0.4125758E-07  0.3452705E+04  0.7818609E-02  0.8125091E-01
       -1   -1    0    0    0  501  0.00000000000E+00  0.00000000000E+00  0.33785547624E+04  0.33785547624E+04  0.50400001928E-02 0. -1.
        1   -1    0    0  501    0  0.00000000000E+00  0.00000000000E+00 -0.88212059502E+03  0.88212059504E+03  0.50400001928E-02 0.  1.
    10030    2    1    2    0    0  0.00000000000E+00  0.00000000000E+00  0.24964341674E+04  0.42606753575E+04  0.34527048744E+04 0.  0.
        2    1    3    3  502    0  0.81651999628E+03 -0.15014618398E+04  0.94796883183E+03  0.19544148656E+04  0.25500000920E-02 0.  1.
       -2    1    3    3    0  502 -0.81651999628E+03  0.15014618398E+04  0.15484653356E+04  0.23062604919E+04  0.25500000920E-02 0. -1.
</event>
<event>
 5   0  0.4109937E-07  0.3361729E+04  0.7818609E-02  0.8147364E-01
        1   -1    0    0  501    0  0.00000000000E+00  0.00000000000E+00  0.20391203121E+04  0.20391203121E+04  0.50400001928E-02 0. -1.
       -1   -1    0    0    0  501  0.00000000000E+00  0.00000000000E+00 -0.13855513873E+04  0.13855513873E+04  0.50400001928E-02 0.  1.
    10030    2    1    2    0    0  0.00000000000E+00  0.00000000000E+00  0.65356892479E+03  0.34246716994E+04  0.33617293033E+04 0.  0.
        5    1    3    3  502    0 -0.18784115577E+03  0.16309160237E+04  0.69424925445E+03  0.17824633218E+04  0.46999998093E+01 0. -1.
       -5    1    3    3    0  502  0.18784115577E+03 -0.16309160237E+04 -0.40680329656E+02  0.16422083776E+04  0.46999998093E+01 0.  1.
</event>
<event>
 5   0  0.4125758E-07  0.3358614E+04  0.7818609E-02  0.8148139E-01
       -1   -1    0    0    0  501  0.00000000000E+00  0.00000000000E+00  0.94788971902E+03  0.94788971903E+03  0.50400001928E-02 0.  1.
        1   -1    0    0  501    0  0.00000000000E+00  0.00000000000E+00 -0.29751063258E+04  0.29751063258E+04  0.50400001928E-02 0. -1.
    10030    2    1    2    0    0  0.00000000000E+00  0.00000000000E+00 -0.20272166068E+04  0.39229960448E+04  0.33586144162E+04 0.  0.
        2    1    3    3  502    0 -0.13050900379E+03  0.88417180042E+03  0.64701449879E+03  0.11033676334E+04  0.25500000920E-02 0.  1.
       -2    1    3    3    0  502  0.13050900379E+03 -0.88417180042E+03 -0.26742311056E+04  0.28196284114E+04  0.25500000920E-02 0. -1.
</event>
<event>
 5   0  0.1256208E-06  0.3321283E+04  0.7818609E-02  0.8157501E-01
       -2   -1    0    0    0  501  0.00000000000E+00  0.00000000000E+00  0.15356207694E+04  0.15356207694E+04  0.25500000920E-02 0.  1.
        2   -1    0    0  501    0  0.00000000000E+00  0.00000000000E+00 -0.17958407279E+04  0.17958407279E+04  0.25500000920E-02 0. -1.
    10030    2    1    2    0    0  0.00000000000E+00  0.00000000000E+00 -0.26021995852E+03  0.33314614973E+04  0.33212830775E+04 0.  0.
        3    1    3    3  502    0  0.88023145472E+03 -0.50335098367E+03  0.11890479972E+04  0.15626915167E+04  0.10100000352E+00 0.  1.
       -3    1    3    3    0  502 -0.88023145472E+03  0.50335098367E+03 -0.14492679557E+04  0.17687699806E+04  0.10100000352E+00 0. -1.
</event>
<event>
 5   0  0.1268230E-06  0.3353180E+04  0.7818609E-02  0.8149494E-01
        2   -1    0    0  501    0  0.00000000000E+00  0.00000000000E+00  0.10721353311E+04  0.10721353311E+04  0.25500000920E-02 0. -1.
       -2   -1    0    0    0  501  0.00000000000E+00  0.00000000000E+00 -0.26218278543E+04  0.26218278543E+04  0.25500000920E-02 0.  1.
    10030    2    1    2    0    0  0.00000000000E+00  0.00000000000E+00 -0.15496925232E+04  0.36939631854E+04  0.33531801470E+04 0.  0.
        2    1    3    3  502    0  0.16210043103E+03  0.21174616377E+03 -0.25983152411E+04  0.26119638359E+04  0.25500000920E-02 0.  1.
       -2    1    3    3    0  502 -0.16210043103E+03 -0.21174616377E+03  0.10486227180E+04  0.10819993495E+04  0.25500000920E-02 0. -1.
</event>
<event>
 5   0  0.1300176E-06  0.3397803E+04  0.7818609E-02  0.8138446E-01
        2   -1    0    0  501    0  0.00000000000E+00  0.00000000000E+00  0.17468092995E+04  0.17468092995E+04  0.25500000920E-02 0. -1.
       -2   -1    0    0    0  501  0.00000000000E+00  0.00000000000E+00 -0.16523075288E+04  0.16523075288E+04  0.25500000920E-02 0.  1.
    10030    2    1    2    0    0  0.00000000000E+00  0.00000000000E+00  0.94501770690E+02  0.33991168283E+04  0.33978029119E+04 0.  0.
        1    1    3    3  502    0 -0.82924196187E+03  0.15150032872E+03  0.15228370563E+04  0.17405824545E+04  0.50400001928E-02 0. -1.
       -1    1    3    3    0  502  0.82924196187E+03 -0.15150032872E+03 -0.14283352856E+04  0.16585343738E+04  0.50400001928E-02 0.  1.
</event>
<event>
 5   0  0.4125758E-07  0.3389311E+04  0.7818609E-02  0.8140535E-01
       -1   -1    0    0    0  501  0.00000000000E+00  0.00000000000E+00  0.10409760878E+04  0.10409760878E+04  0.50400001928E-02 0.  1.
        1   -1    0    0  501    0  0.00000000000E+00  0.00000000000E+00 -0.27588116174E+04  0.27588116174E+04  0.50400001928E-02 0. -1.
    10030    2    1    2    0    0  0.00000000000E+00  0.00000000000E+00 -0.17178355296E+04  0.37997877053E+04  0.33893107999E+04 0.  0.
        2    1    3    3  502    0 -0.87347776140E+03  0.36422126363E+03 -0.24349583044E+04  0.26124016675E+04  0.25500000920E-02 0. -1.
       -2    1    3    3    0  502  0.87347776140E+03 -0.36422126363E+03  0.71712277476E+03  0.11873860377E+04  0.25500000920E-02 0.  1.
</event>
<event>
 5   0  0.1277635E-06  0.3391734E+04  0.7818609E-02  0.8139938E-01
       -2   -1    0    0    0  501  0.00000000000E+00  0.00000000000E+00  0.24846485907E+04  0.24846485907E+04  0.25500000920E-02 0. -1.
        2   -1    0    0  501    0  0.00000000000E+00  0.00000000000E+00 -0.11574934901E+04  0.11574934901E+04  0.25500000920E-02 0.  1.
    10030    2    1    2    0    0  0.00000000000E+00  0.00000000000E+00  0.13271551007E+04  0.36421420808E+04  0.33917338155E+04 0.  0.
        4    1    3    3  502    0  0.10303946326E+04  0.13042334217E+04  0.30224560304E+03  0.16894057933E+04  0.12699999809E+01 0.  1.
       -4    1    3    3    0  502 -0.10303946326E+04 -0.13042334217E+04  0.10249094976E+04  0.19527362875E+04  0.12699999809E+01 0. -1.
</event>
<event>
 5   0  0.4272633E-07  0.3406281E+04  0.7818609E-02  0.8136366E-01
        1   -1    0    0  501    0  0.00000000000E+00  0.00000000000E+00  0.24422889581E+04  0.24422889581E+04  0.50400001928E-02 0. -1.
       -1   -1    0    0    0  501  0.00000000000E+00  0.00000000000E+00 -0.11876925197E+04  0.11876925197E+04  0.50400001928E-02 0.  1.
    10030    2    1    2    0    0  0.00000000000E+00  0.00000000000E+00  0.12545964384E+04  0.36299814778E+04  0.34062814484E+04 0.  0.
        1    1    3    3  502    0  0.21119965169E+03 -0.16783065068E+04  0.83874849551E+03  0.18880723139E+04  0.50400001928E-02 0.  1.
       -1    1    3    3    0  502 -0.21119965169E+03  0.16783065068E+04  0.41584794285E+03  0.17419091639E+04  0.50400001928E-02 0. -1.
</event>
<event>
 5   0  0.4289684E-07  0.3403225E+04  0.7818609E-02  0.8137115E-01
       -1   -1    0    0    0  501  0.00000000000E+00  0.00000000000E+00  0.10279822166E+04  0.10279822166E+04  0.50400001928E-02 0. -1.
        1   -1    0    0  501    0  0.00000000000E+00  0.00000000000E+00 -0.28166679772E+04  0.28166679772E+04  0.50400001928E-02 0.  1.
    10030    2    1    2    0    0  0.00000000000E+00  0.00000000000E+00 -0.17886857606E+04  0.38446501939E+04  0.34032247006E+04 0.  0.
        4    1    3    3  502    0 -0.35210849868E+03  0.11261412403E+04 -0.22794720076E+04  0.25667428259E+04  0.12699999809E+01 0.  1.
       -4    1    3    3    0  502  0.35210849868E+03 -0.11261412403E+04  0.49078624700E+03  0.12779073680E+04  0.12699999809E+01 0. -1.
</event>
<event>
 5   0  0.1256208E-06  0.3371823E+04  0.7818609E-02  0.8144857E-01
       -2   -1    0    0    0  501  0.00000000000E+00  0.00000000000E+00  0.12089208017E+04  0.12089208017E+04  0.25500000920E-02 0. -1.
        2   -1    0    0  501    0  0.00000000000E+00  0.00000000000E+00 -0.23511037721E+04  0.23511037721E+04  0.25500000920E-02 0.  1.
    10030    2    1    2    0    0  0.00000000000E+00  0.00000000000E+00 -0.11421829704E+04  0.35600245738E+04  0.33718233981E+04 0.  0.
        3    1    3    3  502    0  0.43486639794E+02  0.14133756453E+04 -0.15403605902E+04  0.20909884171E+04  0.10100000352E+00 0.  1.
       -3    1    3    3    0  502 -0.43486639794E+02 -0.14133756453E+04  0.39817761974E+03  0.14690361567E+04  0.10100000352E+00 0. -1.
</event>
<event>
 5   0  0.4109937E-07  0.2915497E+04  0.7818609E-02  0.8268282E-01
        1   -1    0    0  501    0  0.00000000000E+00  0.00000000000E+00  0.19276476470E+04  0.19276476470E+04  0.50400001928E-02 0. -1.
       -1   -1    0    0    0  501  0.00000000000E+00  0.00000000000E+00 -0.11023956233E+04  0.11023956233E+04  0.50400001928E-02 0.  1.
    10030    2    1    2    0    0  0.00000000000E+00  0.00000000000E+00  0.82525202368E+03  0.30300432704E+04  0.29154967531E+04 0.  0.
        5    1    3    3  502    0 -0.97730180485E+03 -0.78080697447E+03  0.11905181934E+04  0.17268856383E+04  0.46999998093E+01 0.  1.
       -5    1    3    3    0  502  0.97730180485E+03  0.78080697447E+03 -0.36526616970E+03  0.13031576320E+04  0.46999998093E+01 0. -1.
</event>
<event>
 5   0  0.1256208E-06  0.3406046E+04  0.7818609E-02  0.8136424E-01
       -2   -1    0    0    0  501  0.00000000000E+00  0.00000000000E+00  0.19477922987E+04  0.19477922987E+04  0.25500000920E-02 0. -1.
        2   -1    0    0  501    0  0.00000000000E+00  0.00000000000E+00 -0.14890128479E+04  0.14890128479E+04  0.25500000920E-02 0.  1.
    10030    2    1    2    0    0  0.00000000000E+00  0.00000000000E+00  0.45877945088E+03  0.34368051466E+04  0.34060462462E+04 0.  0.
        3    1    3    3  502    0 -0.30299996545E+03 -0.83842775624E+03  0.16935338009E+04  0.19138513073E+04  0.10100000352E+00 0. -1.
       -3    1    3    3    0  502  0.30299996545E+03  0.83842775624E+03 -0.12347543500E+04  0.15229538393E+04  0.10100000352E+00 0.  1.
</event>
<event>
 5   0  0.4289684E-07  0.3414784E+04  0.7818609E-02  0.8134287E-01
        1   -1    0    0  501    0  0.00000000000E+00  0.00000000000E+00  0.13712815432E+04  0.13712815432E+04  0.50400001928E-02 0. -1.
       -1   -1    0    0    0  501  0.00000000000E+00  0.00000000000E+00 -0.21258856889E+04  0.21258856889E+04  0.50400001928E-02 0.  1.
    10030    2    1    2    0    0  0.00000000000E+00  0.00000000000E+00 -0.75460414571E+03  0.34971672320E+04  0.34147842146E+04 0.  0.
        4    1    3    3  502    0 -0.14587801476E+04 -0.35167814252E+03  0.45688509631E+03  0.15685861911E+04  0.12699999809E+01 0. -1.
       -4    1    3    3    0  502  0.14587801476E+04  0.35167814252E+03 -0.12114892420E+04  0.19285810409E+04  0.12699999809E+01 0.  1.
</event>
<event>
 5   0  0.4109937E-07  0.3385653E+04  0.7818609E-02  0.8141437E-01
       -1   -1    0    0    0  501  0.00000000000E+00  0.00000000000E+00  0.93732586948E+03  0.93732586949E+03  0.50400001928E-02 0. -1.
        1   -1    0    0  501    0  0.00000000000E+00  0.00000000000E+00 -0.30572726888E+04  0.30572726888E+04  0.50400001928E-02 0.  1.
    10030    2    1    2    0    0  0.00000000000E+00  0.00000000000E+00 -0.21199468194E+04  0.39945985583E+04  0.33856525406E+04 0.  0.
        5    1    3    3  502    0  0.90622328997E+03  0.13338658320E+04 -0.16675730396E+04  0.23197544356E+04  0.46999998093E+01 0.  1.
       -5    1    3    3    0  502 -0.90622328997E+03 -0.13338658320E+04 -0.45237377979E+03  0.16748441228E+04  0.46999998093E+01 0. -1.
</event>
<event>
 5   0  0.1269497E-06  0.3423989E+04  0.7818609E-02  0.8132044E-01
        2   -1    0    0  501    0  0.00000000000E+00  0.00000000000E+00  0.25247722900E+04  0.25247722900E+04  0.25500000920E-02 0. -1.
       -2   -1    0    0    0  501  0.00000000000E+00  0.00000000000E+00 -0.11608674414E+04  0.11608674414E+04  0.25500000920E-02 0.  1.
    10030    2    1    2    0    0  0.00000000000E+00  0.00000000000E+00  0.13639048486E+04  0.36856397313E+04  0.34239894558E+04 0.  0.
        5    1    3    3  502    0 -0.15751127001E+03 -0.15480462715E+04  0.14504015360E+04  0.21271915205E+04  0.46999998093E+01 0. -1.
       -5    1    3    3    0  502  0.15751127001E+03  0.15480462715E+04 -0.86496687419E+02  0.15584482109E+04  0.46999998093E+01 0.  1.
</event>
<event>
 5   0  0.4272633E-07  0.3394273E+04  0.7818609E-02  0.8139313E-01
        1   -1    0    0  501    0  0.00000000000E+00  0.00000000000E+00  0.25124464896E+04  0.25124464896E+04  0.50400001928E-02 0.  1.
       -1   -1    0    0    0  501  0.00000000000E+00  0.00000000000E+00 -0.11464012278E+04  0.11464012279E+04  0.50400001928E-02 0. -1.
    10030    2    1    2    0    0  0.00000000000E+00  0.00000000000E+00  0.13660452617E+04  0.36588477174E+04  0.33942726706E+04 0.  0.
        1    1    3    3  502    0 -0.24480862569E+03  0.44649469847E+03 -0.10621150901E+04  0.11778697906E+04  0.50400001928E-02 0. -1.
       -1    1    3    3    0  502  0.24480862569E+03 -0.44649469847E+03  0.24281603519E+04  0.24809779268E+04  0.50400001928E-02 0.  1.
</event>
<event>
 5   0  0.1269497E-06  0.3000495E+04  0.7818609E-02  0.8243590E-01
       -2   -1    0    0    0  501  0.00000000000E+00  0.00000000000E+00  0.14386563276E+04  0.14386563276E+04  0.25500000920E-02 0.  1.
        2   -1    0    0  501    0  0.00000000000E+00  0.00000000000E+00 -0.15644755650E+04  0.15644755650E+04  0.25500000920E-02 0. -1.
    10030    2    1    2    0    0  0.00000000000E+00  0.00000000000E+00 -0.12581923741E+03  0.30031318926E+04  0.30004950731E+04 0.  0.
        5    1    3    3  502    0  0.10666595611E+04 -0.35231761843E+02 -0.11182159652E+04  0.15457790693E+04  0.46999998093E+01 0. -1.
       -5    1    3    3    0  502 -0.10666595611E+04  0.35231761843E+02  0.99239672777E+03  0.14573528233E+04  0.46999998093E+01 0.  1.
</event>
<event>
 5   0  0.4125758E-07  0.3428383E+04  0.7818609E-02  0.8130975E-01
       -1   -1    0    0    0  501  0.00000000000E+00  0.00000000000E+00  0.14939759724E+04  0.14939759724E+04  0.50400001928E-02 0.  1.
        1   -1    0    0  501    0  0.00000000000E+00  0.00000000000E+00 -0.19668671046E+04  0.19668671046E+04  0.50400001928E-02 0. -1.
    10030    2    1    2    0    0  0.00000000000E+00  0.00000000000E+00 -0.47289113221E+03  0.34608430769E+04  0.34283828229E+04 0.  0.
        2    1    3    3  502    0  0.63072817388E+03 -0.15527523544E+04  0.12695494443E+03  0.16807663316E+04  0.25500000920E-02 0. -1.
       -2    1    3    3    0  502 -0.63072817388E+03  0.15527523544E+04 -0.59984607664E+03  0.17800767453E+04  0.25500000920E-02 0.  1.
</event>
<event>
 5   0  0.4464951E-07  0.3366701E+04  0.7818609E-02  0.8146128E-01
        1   -1    0    0  501    0  0.00000000000E+00  0.00000000000E+00  0.22751389687E+04  0.22751389687E+04  0.50400001928E-02 0. -1.
       -1   -1    0    0    0  501  0.00000000000E+00  0.00000000000E+00 -0.12454926261E+04  0.12454926261E+04  0.50400001928E-02 0.  1.
    10030    2    1    2    0    0  0.00000000000E+00  0.00000000000E+00  0.10296463426E+04  0.35206315948E+04  0.33667009424E+04 0.  0.
        3    1    3    3  502    0  0.35255386338E+03 -0.14995047050E+04  0.12247288480E+04  0.19679353009E+04  0.10100000352E+00 0.  1.
       -3    1    3    3    0  502 -0.35255386338E+03  0.14995047050E+04 -0.19508250540E+03  0.15526962939E+04  0.10100000352E+00 0. -1.
</event>
<event>
 5   0  0.4109937E-07  0.3339010E+04  0.7818609E-02  0.8153040E-01
        1   -1    0    0  501    0  0.00000000000E+00  0.00000000000E+00  0.18705519202E+04  0.18705519202E+04  0.50400001928E-02 0.  1.
       -1   -1    0    0    0  501  0.00000000000E+00  0.00000000000E+00 -0.14900663042E+04  0.14900663042E+04  0.50400001928E-02 0. -1.
    10030    2    1    2    0    0  0.00000000000E+00  0.00000000000E+00  0.38048561605E+03  0.33606182244E+04  0.33390096655E+04 0.  0.
        5    1    3    3  502    0  0.56351760367E+03 -0.12473839682E+03  0.17669416158E+04  0.18588212719E+04  0.46999998093E+01 0.  1.
       -5    1    3    3    0  502 -0.56351760367E+03  0.12473839682E+03 -0.13864559997E+04  0.15017969525E+04  0.46999998093E+01 0. -1.
</event>
<event>
 5   0  0.1268230E-06  0.3446316E+04  0.7818609E-02  0.8126631E-01
       -2   -1    0    0    0  501  0.00000000000E+00  0.00000000000E+00  0.11088452878E+04  0.11088452878E+04  0.25500000920E-02 0.  1.
        2   -1    0    0  501    0  0.00000000000E+00  0.00000000000E+00 -0.26778070226E+04  0.26778070226E+04  0.25500000920E-02 0. -1.
    10030    2    1    2    0    0  0.00000000000E+00  0.00000000000E+00 -0.15689617348E+04  0.37866523104E+04  0.34463161194E+04 0.  0.
        2    1    3    3  502    0 -0.80239461147E+02 -0.15162100577E+04  0.11081280903E+03  0.15223701221E+04  0.25500000920E-02 0.  1.
       -2    1    3    3    0  502  0.80239461147E+02  0.15162100577E+04 -0.16797745438E+04  0.22642821883E+04  0.25500000920E-02 0. -1.
</event>
<event>
 5   0  0.1300176E-06  0.3418400E+04  0.7818609E-02  0.8133405E-01
       -2   -1    0    0    0  501  0.00000000000E+00  0.00000000000E+00  0.21099243530E+04  0.21099243530E+04  0.25500000920E-02 0. -1.
        2   -1    0    0  501    0  0.00000000000E+00  0.00000000000E+00 -0.13845828019E+04  0.13845828019E+04  0.25500000920E-02 0.  1.
    10030    2    1    2    0    0  0.00000000000E+00  0.00000000000E+00  0.72534155108E+03  0.34945071549E+04  0.34184001945E+04 0.  0.
        1    1    3    3  502    0 -0.77947674494E+02 -0.15905986459E+04  0.99720364713E+03  0.18789611508E+04  0.50400001928E-02 0.  1.
       -1    1    3    3    0  502  0.77947674494E+02  0.15905986459E+04 -0.27186209605E+03  0.16155460041E+04  0.50400001928E-02 0. -1.
</event>
<event>
 5   0  0.4272633E-07  0.3410722E+04  0.7818609E-02  0.8135280E-01
       -1   -1    0    0    0  501  0.00000000000E+00  0.00000000000E+00  0.16236275402E+04  0.16236275402E+04  0.50400001928E-02 0. -1.
        1   -1    0    0  501    0  0.00000000000E+00  0.00000000000E+00 -0.17912084917E+04  0.17912084917E+04  0.50400001928E-02 0.  1.
    10030    2    1    2    0    0  0.00000000000E+00  0.00000000000E+00 -0.16758095149E+03  0.34148360318E+04  0.34107215877E+04 0.  0.
        1    1    3    3  502    0 -0.47440972957E+03  0.39651716575E+02  0.15557497967E+04  0.16269585982E+04  0.50400001928E-02 0. -1.
       -1    1    3    3    0  502  0.47440972957E+03 -0.39651716575E+02 -0.17233307482E+04  0.17878774337E+04  0.50400001928E-02 0.  1.
</event>
<event>
 5   0  0.4464951E-07  0.3831098E+04  0.7818609E-02  0.8039514E-01
        1   -1    0    0  501    0  0.00000000000E+00  0.00000000000E+00  0.18537353326E+04  0.18537353326E+04  0.50400001928E-02 0. -1.
       -1   -1    0    0    0  501  0.00000000000E+00  0.00000000000E+00 -0.19794236742E+04  0.19794236742E+04  0.50400001928E-02 0.  1.
    10030    2    1    2    0    0  0.00000000000E+00  0.00000000000E+00 -0.12568834161E+03  0.38331590067E+04  0.38310978076E+04 0.  0.
        3    1    3    3  502    0  0.11900281404E+04 -0.14453074828E+04  0.34264772919E+03  0.19032835236E+04  0.10100000352E+00 0. -1.
       -3    1    3    3    0  502 -0.11900281404E+04  0.14453074828E+04 -0.46833607080E+03  0.19298754831E+04  0.10100000352E+00 0.  1.
</event>
<event>
 5   0  0.4464951E-07  0.3379560E+04  0.7818609E-02  0.8142941E-01
       -1   -1    0    0    0  501  0.00000000000E+00  0.00000000000E+00  0.88142545670E+03  0.88142545671E+03  0.50400001928E-02 0.  1.
        1   -1    0    0  501    0  0.00000000000E+00  0.00000000000E+00 -0.32394761485E+04  0.32394761485E+04  0.50400001928E-02 0. -1.
    10030    2    1    2    0    0  0.00000000000E+00  0.00000000000E+00 -0.23580506918E+04  0.41209016053E+04  0.33795601748E+04 0.  0.
        3    1    3    3  502    0 -0.24832055974E+03  0.90905118258E+03  0.53126371733E+03  0.10817940194E+04  0.10100000352E+00 0.  1.
       -3    1    3    3    0  502  0.24832055974E+03 -0.90905118258E+03 -0.28893144092E+04  0.30391075858E+04  0.10100000352E+00 0. -1.
</event>
<event>
 5   0  0.4289684E-07  0.3405117E+04  0.7818609E-02  0.8136652E-01
       -1   -1    0    0    0  501  0.00000000000E+00  0.00000000000E+00  0.16311235175E+04  0.16311235175E+04  0.50400001928E-02 0. -1.
        1   -1    0    0  501    0  0.00000000000E+00  0.00000000000E+00 -0.17771218755E+04  0.17771218755E+04  0.50400001928E-02 0.  1.
    10030    2    1    2    0    0  0.00000000000E+00  0.00000000000E+00 -0.14599835793E+03  0.34082453930E+04  0.34051169053E+04 0.  0.
        4    1    3    3  502    0 -0.51930048722E+03 -0.13945027248E+04  0.75504127326E+03  0.16686520856E+04  0.12699999809E+01 0. -1.
       -4    1    3    3    0  502  0.51930048722E+03  0.13945027248E+04 -0.90103963119E+03  0.17395933074E+04  0.12699999809E+01 0.  1.
</event>
<event>
 5   0  0.1300176E-06  0.3351470E+04  0.7818609E-02  0.8149921E-01
        2   -1    0    0  501    0  0.00000000000E+00  0.00000000000E+00  0.17985562614E+04  0.17985562614E+04  0.25500000920E-02 0. -1.
       -2   -1    0    0    0  501  0.00000000000E+00  0.00000000000E+00 -0.15613013330E+04  0.15613013330E+04  0.25500000920E-02 0.  1.
    10030    2    1    2    0    0  0.00000000000E+00  0.00000000000E+00  0.23725492835E+03  0.33598575944E+04  0.33514702973E+04 0.  0.
        1    1    3    3  502    0 -0.24886509433E+03  0.29133601922E+03 -0.15167974118E+04  0.15644439587E+04  0.50400001928E-02 0.  1.
       -1    1    3    3    0  502  0.24886509433E+03 -0.29133601922E+03  0.17540523402E+04  0.17954136357E+04  0.50400001928E-02 0. -1.
</event>
<event>
 5   0  0.1256208E-06  0.3372329E+04  0.7818609E-02  0.8144731E-01
       -2   -1    0    0    0  501  0.00000000000E+00  0.00000000000E+00  0.12895358246E+04  0.12895358246E+04  0.25500000920E-02 0.  1.
        2   -1    0    0  501    0  0.00000000000E+00  0.00000000000E+00 -0.22047859886E+04  0.22047859886E+04  0.25500000920E-02 0. -1.
    10030    2    1    2    0    0  0.00000000000E+00  0.00000000000E+00 -0.91525016401E+03  0.34943218133E+04  0.33723288796E+04 0.  0.
        3    1    3    3  502    0 -0.94462319144E+03  0.13186868862E+03  0.98316014311E+03  0.13697832683E+04  0.10100000352E+00 0.  1.
       -3    1    3    3    0  502  0.94462319144E+03 -0.13186868862E+03 -0.18984103071E+04  0.21245385450E+04  0.10100000352E+00 0. -1.
</event>
<event>
 5   0  0.4464951E-07  0.3397838E+04  0.7818609E-02  0.8138437E-01
       -1   -1    0    0    0  501  0.00000000000E+00  0.00000000000E+00  0.18599756498E+04  0.18599756498E+04  0.50400001928E-02 0.  1.
        1   -1    0    0  501    0  0.00000000000E+00  0.00000000000E+00 -0.15518080793E+04  0.15518080793E+04  0.50400001928E-02 0. -1.
    10030    2    1    2    0    0  0.00000000000E+00  0.00000000000E+00  0.30816757048E+03  0.34117837291E+04  0.33978376893E+04 0.  0.
        3    1    3    3  502    0  0.10559228956E+03  0.15842687182E+04 -0.45277096169E+03  0.16510780288E+04  0.10100000352E+00 0. -1.
       -3    1    3    3    0  502 -0.10559228956E+03 -0.15842687182E+04  0.76093853217E+03  0.17607057003E+04  0.10100000352E+00 0.  1.
</event>
<event>
 5   0  0.1277635E-06  0.3356525E+04  0.7818609E-02  0.8148660E-01
        2   -1    0    0  501    0  0.00000000000E+00  0.00000000000E+00  0.11211268926E+04  0.11211268926E+04  0.25500000920E-02 0.  1.
       -2   -1    0    0    0  501  0.00000000000E+00  0.00000000000E+00 -0.25122624975E+04  0.25122624975E+04  0.25500000920E-02 0. -1.
    10030    2    1    2    0    0  0.00000000000E+00  0.00000000000E+00 -0.13911356049E+04  0.36333893901E+04  0.33565250169E+04 0.  0.
        4    1    3    3  502    0  0.93974119888E+02  0.91968614580E+03  0.82064989550E+03  0.12361721587E+04  0.12699999809E+01 0.  1.
       -4    1    3    3    0  502 -0.93974119888E+02 -0.91968614580E+03 -0.22117855004E+04  0.23972172314E+04  0.12699999809E+01 0. -1.
</event>
<event>
 5   0  0.4464951E-07  0.3423905E+04  0.7818609E-02  0.8132064E-01
        1   -1    0    0  501    0  0.00000000000E+00  0.00000000000E+00  0.25958695024E+04  0.25958695024E+04  0.50400001928E-02 0.  1.
       -1   -1    0    0    0  501  0.00000000000E+00  0.00000000000E+00 -0.11290174214E+04  0.11290174214E+04  0.50400001928E-02 0. -1.
    10030    2    1    2    0    0  0.00000000000E+00  0.00000000000E+00  0.14668520810E+04  0.37248869238E+04  0.34239053093E+04 0.  0.
        3    1    3    3  502    0 -0.29450326439E+03 -0.21605243896E+03  0.25529860623E+04  0.25789821003E+04  0.10100000352E+00 0.  1.
       -3    1    3    3    0  502  0.29450326439E+03  0.21605243896E+03 -0.10861339812E+04  0.11459048235E+04  0.10100000352E+00 0. -1.
</event>
<event>
 5   0  0.4464951E-07  0.3383547E+04  0.7818609E-02  0.8141956E-01
        1   -1    0    0  501    0  0.00000000000E+00  0.00000000000E+00  0.20563808964E+04  0.20563808964E+04  0.50400001928E-02 0. -1.
       -1   -1    0    0    0  501  0.00000000000E+00  0.00000000000E+00 -0.13918128989E+04  0.13918128989E+04  0.50400001928E-02 0.  1.
    10030    2    1    2    0    0  0.00000000000E+00  0.00000000000E+00  0.66456799755E+03  0.34481937953E+04  0.33835469299E+04 0.  0.
        3    1    3    3  502    0  0.15337816425E+04  0.34790917769E+03 -0.30298021028E+03  0.16016628674E+04  0.10100000352E+00 0.  1.
       -3    1    3    3    0  502 -0.15337816425E+04 -0.34790917769E+03  0.96754820783E+03  0.18465309279E+04  0.10100000352E+00 0. -1.
</event>
<event>
 5   0  0.1269497E-06  0.3390618E+04  0.7818609E-02  0.8140213E-01
       -2   -1    0    0    0  501  0.00000000000E+00  0.00000000000E+00  0.14007673652E+04  0.14007673652E+04  0.25500000920E-02 0.  1.
        2   -1    0    0  501    0  0.00000000000E+00  0.00000000000E+00 -0.20517848220E+04  0.20517848220E+04  0.25500000920E-02 0. -1.
    10030    2    1    2    0    0  0.00000000000E+00  0.00000000000E+00 -0.65101745683E+03  0.34525521872E+04  0.33906183620E+04 0.  0.
        5    1    3    3  502    0  0.42172941383E+03  0.11297976614E+04 -0.15388073105E+04  0.19550571560E+04  0.46999998093E+01 0. -1.
       -5    1    3    3    0  502 -0.42172941383E+03 -0.11297976614E+04  0.88778985371E+03  0.14974950312E+04  0.46999998093E+01 0.  1.
</event>
<event>
 5   0  0.4289684E-07  0.3385015E+04  0.7818609E-02  0.8141594E-01
       -1   -1    0    0    0  501  0.00000000000E+00  0.00000000000E+00  0.18167670879E+04  0.18167670879E+04  0.50400001928E-02 0. -1.
        1   -1    0    0  501    0  0.00000000000E+00  0.00000000000E+00 -0.15767463688E+04  0.15767463688E+04  0.50400001928E-02 0.  1.
    10030    2    1    2    0    0  0.00000000000E+00  0.00000000000E+00  0.24002071913E+03  0.33935134568E+04  0.33850145695E+04 0.  0.
        4    1    3    3  502    0 -0.36983220919E+03  0.12739601737E+04 -0.93373711822E+03  0.16222259417E+04  0.12699999809E+01 0.  1.
       -4    1    3    3    0  502  0.36983220919E+03 -0.12739601737E+04  0.11737578374E+04  0.17712875150E+04  0.12699999809E+01 0. -1.
</event>
<event>
 5   0  0.4464951E-07  0.3425808E+04  0.7818609E-02  0.8131601E-01
       -1   -1    0    0    0  501  0.00000000000E+00  0.00000000000E+00  0.13279140328E+04  0.13279140328E+04  0.50400001928E-02 0. -1.
        1   -1    0    0  501    0  0.00000000000E+00  0.00000000000E+00 -0.22095106890E+04  0.22095106891E+04  0.50400001928E-02 0.  1.
    10030    2    1    2    0    0  0.00000000000E+00  0.00000000000E+00 -0.88159665624E+03  0.35374247219E+04  0.34258080796E+04 0.  0.
        3    1    3    3  502    0  0.12918544249E+03 -0.11460998360E+04  0.86687770947E+03  0.14428134619E+04  0.10100000352E+00 0. -1.
       -3    1    3    3    0  502 -0.12918544249E+03  0.11460998360E+04 -0.17484743657E+04  0.20946112599E+04  0.10100000352E+00 0.  1.
</event>
<event>
 5   0  0.1268230E-06  0.3406979E+04  0.7818609E-02  0.8136196E-01
       -2   -1    0    0    0  501  0.00000000000E+00  0.00000000000E+00  0.13951927812E+04  0.13951927812E+04  0.25500000920E-02 0.  1.
        2   -1    0    0  501    0  0.00000000000E+00  0.00000000000E+00 -0.20799110932E+04  0.20799110932E+04  0.25500000920E-02 0. -1.
    10030    2    1    2    0    0  0.00000000000E+00  0.00000000000E+00 -0.68471831191E+03  0.34751038744E+04  0.34069792737E+04 0.  0.
        2    1    3    3  502    0  0.32336312757E+03 -0.18827942152E+03 -0.20374752637E+04  0.20715497346E+04  0.25500000920E-02 0. -1.
       -2    1    3    3    0  502 -0.32336312757E+03  0.18827942152E+03  0.13527569518E+04  0.14035541398E+04  0.25500000920E-02 0.  1.
</event>
<event>
 5   0  0.4272633E-07  0.3379625E+04  0.7818609E-02  0.8142925E-01
       -1   -1    0    0    0  501  0.00000000000E+00  0.00000000000E+00  0.21043042070E+04  0.21043042070E+04  0.50400001928E-02 0.  1.
        1   -1    0    0  501    0  0.00000000000E+00  0.00000000000E+00 -0.13569647917E+04  0.13569647917E+04  0.50400001928E-02 0. -1.
    10030    2    1    2    0    0  0.00000000000E+00  0.00000000000E+00  0.74733941526E+03  0.34612689987E+04  0.33796252573E+04 0.  0.
        1    1    3    3  502    0  0.11659317270E+04  0.86488620686E+03 -0.51211816926E+03  0.15393797329E+04  0.50400001928E-02 0. -1.
       -1    1    3    3    0  502 -0.11659317270E+04 -0.86488620686E+03  0.12594575845E+04  0.19218892658E+04  0.50400001928E-02 0.  1.
</event>
<event>
 5   0  0.1300176E-06  0.3405599E+04  0.7818609E-02  0.8136534E-01
       -2   -1    0    0    0  501  0.00000000000E+00  0.00000000000E+00  0.17557509205E+04  0.17557509205E+04  0.25500000920E-02 0.  1.
        2   -1    0    0  501    0  0.00000000000E+00  0.00000000000E+00 -0.16514448347E+04  0.16514448347E+04  0.25500000920E-02 0. -1.
    10030    2    1    2    0    0  0.00000000000E+00  0.00000000000E+00  0.10430608578E+03  0.34071957552E+04  0.34055987953E+04 0.  0.
        1    1    3    3  502    0 -0.12047857987E+04 -0.36718477519E+02  0.12554924749E+04  0.17404362734E+04  0.50400001928E-02 0.  1.
       -1    1    3    3    0  502  0.12047857987E+04  0.36718477519E+02 -0.11511863891E+04  0.16667594817E+04  0.50400001928E-02 0. -1.
</event>
<event>
 5   0  0.4125758E-07  0.3410242E+04  0.7818609E-02  0.8135397E-01
        1   -1    0    0  501    0  0.00000000000E+00  0.00000000000E+00  0.14254198074E+04  0.14254198074E+04  0.50400001928E-02 0. -1.
       -1   -1    0    0    0  501  0.00000000000E+00  0.00000000000E+00 -0.20397066161E+04  0.20397066161E+04  0.50400001928E-02 0.  1.
    10030    2    1    2    0    0  0.00000000000E+00  0.00000000000E+00 -0.61428680873E+03  0.34651264235E+04  0.34102423444E+04 0.  0.
        2    1    3    3  502    0 -0.13809533719E+04 -0.98894408379E+03 -0.45920346156E+03  0.17595199446E+04  0.25500000920E-02 0.  1.
       -2    1    3    3    0  502  0.13809533719E+04  0.98894408379E+03 -0.15508334717E+03  0.17056064789E+04  0.25500000920E-02 0. -1.
</event>
<event>
 5   0  0.4289684E-07  0.3232436E+04  0.7818609E-02  0.8180303E-01
       -1   -1    0    0    0  501  0.00000000000E+00  0.00000000000E+00  0.31007832620E+04  0.31007832621E+04  0.50400001928E-02 0.  1.
        1   -1    0    0  501    0  0.00000000000E+00  0.00000000000E+00 -0.84241981418E+03  0.84241981420E+03  0.50400001928E-02 0. -1.
    10030    2    1    2    0    0  0.00000000000E+00  0.00000000000E+00  0.22583634479E+04  0.39432030763E+04  0.32324363935E+04 0.  0.
        4    1    3    3  502    0  0.29347493011E+03  0.14032332162E+04  0.21877693668E+03  0.14501916958E+04  0.12699999809E+01 0. -1.
       -4    1    3    3    0  502 -0.29347493011E+03 -0.14032332162E+04  0.20395865112E+04  0.24930113805E+04  0.12699999809E+01 0.  1.
</event>
<event>
 5   0  0.1256208E-06  0.3392592E+04  0.7818609E-02  0.8139727E-01
       -2   -1    0    0    0  501  0.00000000000E+00  0.00000000000E+00  0.86361449040E+03  0.86361449040E+03  0.25500000920E-02 0.  1.
        2   -1    0    0  501    0  0.00000000000E+00  0.00000000000E+00 -0.33318334841E+04  0.33318334841E+04  0.25500000920E-02 0. -1.
    10030    2    1    2    0    0  0.00000000000E+00  0.00000000000E+00 -0.24682189937E+04  0.41954479745E+04  0.33925917388E+04 0.  0.
        3    1    3    3  502    0 -0.15836763559E+04 -0.30203969025E+03 -0.58188850196E+03  0.17140166317E+04  0.10100000352E+00 0.  1.
       -3    1    3    3    0  502  0.15836763559E+04  0.30203969025E+03 -0.18863304918E+04  0.24814313428E+04  0.10100000352E+00 0. -1.
</event>
<event>
 5   0  0.4464951E-07  0.3400564E+04  0.7818609E-02  0.8137768E-01
        1   -1    0    0  501    0  0.00000000000E+00  0.00000000000E+00  0.21522764428E+04  0.21522764428E+04  0.50400001928E-02 0. -1.
       -1   -1    0    0    0  501  0.00000000000E+00  0.00000000000E+00 -0.13432095929E+04  0.13432095929E+04  0.50400001928E-02 0.  1.
    10030    2    1    2    0    0  0.00000000000E+00  0.00000000000E+00  0.80906684986E+03  0.34954860357E+04  0.34005636972E+04 0.  0.
        3    1    3    3  502    0 -0.11427388018E+04 -0.94242753416E+02  0.16950563390E+04  0.20464480615E+04  0.10100000352E+00 0. -1.
       -3    1    3    3    0  502  0.11427388018E+04  0.94242753416E+02 -0.88598948919E+03  0.14490379742E+04  0.10100000352E+00 0.  1.
</event>
<event>
 5   0  0.1268230E-06  0.3407287E+04  0.7818609E-02  0.8136120E-01
       -2   -1    0    0    0  501  0.00000000000E+00  0.00000000000E+00  0.11798568655E+04  0.11798568655E+04  0.25500000920E-02 0. -1.
        2   -1    0    0  501    0  0.00000000000E+00  0.00000000000E+00 -0.24599606182E+04  0.24599606182E+04  0.25500000920E-02 0.  1.
    10030    2    1    2    0    0  0.00000000000E+00  0.00000000000E+00 -0.12801037526E+04  0.36398174837E+04  0.34072871463E+04 0.  0.
        2    1    3    3  502    0  0.92810830584E+03  0.42091175113E+03  0.81834698079E+03  0.13069979000E+04  0.25500000920E-02 0. -1.
       -2    1    3    3    0  502 -0.92810830584E+03 -0.42091175113E+03 -0.20984507334E+04  0.23328195837E+04  0.25500000920E-02 0.  1.
</event>
<event>
 5   0  0.1256208E-06  0.3357298E+04  0.7818609E-02  0.8148467E-01
       -2   -1    0    0    0  501  0.00000000000E+00  0.00000000000E+00  0.12649281715E+04  0.12649281715E+04  0.25500000920E-02 0. -1.
        2   -1    0    0  501    0  0.00000000000E+00  0.00000000000E+00 -0.22276859542E+04  0.22276859542E+04  0.25500000920E-02 0.  1.
    10030    2    1    2    0    0  0.00000000000E+00  0.00000000000E+00 -0.96275778269E+03  0.34926141257E+04  0.33572981522E+04 0.  0.
        3    1    3    3  502    0 -0.13782328586E+04  0.95801501293E+03 -0.50564572982E+03  0.17529963468E+04  0.10100000352E+00 0. -1.
       -3    1    3    3    0  502  0.13782328586E+04 -0.95801501293E+03 -0.45711205286E+03  0.17396177789E+04  0.10100000352E+00 0.  1.
</event>
<event>
 5   0  0.1268230E-06  0.3403250E+04  0.7818609E-02  0.8137109E-01
       -2   -1    0    0    0  501  0.00000000000E+00  0.00000000000E+00  0.14928603495E+04  0.14928603495E+04  0.25500000920E-02 0.  1.
        2   -1    0    0  501    0  0.00000000000E+00  0.00000000000E+00 -0.19395842233E+04  0.19395842233E+04  0.25500000920E-02 0. -1.
    10030    2    1    2    0    0  0.00000000000E+00  0.00000000000E+00 -0.44672387379E+03  0.34324445729E+04  0.34032504355E+04 0.  0.
        2    1    3    3  502    0  0.40758704766E+03 -0.13813213345E+04  0.69069748457E+03  0.15972597928E+04  0.25500000920E-02 0. -1.
       -2    1    3    3    0  502 -0.40758704766E+03  0.13813213345E+04 -0.11374213584E+04  0.18351847801E+04  0.25500000920E-02 0.  1.
</event>
<event>
 5   0  0.1268230E-06  0.3315324E+04  0.7818609E-02  0.8159007E-01
        2   -1    0    0  501    0  0.00000000000E+00  0.00000000000E+00  0.19469196696E+04  0.19469196696E+04  0.25500000920E-02 0. -1.
       -2   -1    0    0    0  501  0.00000000000E+00  0.00000000000E+00 -0.14113799699E+04  0.14113799699E+04  0.25500000920E-02 0.  1.
    10030    2    1    2    0    0  0.00000000000E+00  0.00000000000E+00  0.53553969973E+03  0.33582996395E+04  0.33153240715E+04 0.  0.
        2    1    3    3  502    0 -0.62768583503E+03  0.15270004879E+04  0.11710232286E+03  0.16551232436E+04  0.25500000920E-02 0.  1.
       -2    1    3    3    0  502  0.62768583503E+03 -0.15270004879E+04  0.41843737686E+03  0.17031763960E+04  0.25500000920E-02 0. -1.
</event>
<event>
 5   0  0.4109937E-07  0.3296033E+04  0.7818609E-02  0.8163906E-01
        1   -1    0    0  501    0  0.00000000000E+00  0.00000000000E+00  0.24477603774E+04  0.24477603774E+04  0.50400001928E-02 0. -1.
       -1   -1    0    0    0  501  0.00000000000E+00  0.00000000000E+00 -0.11095684383E+04  0.11095684383E+04  0.50400001928E-02 0.  1.
    10030    2    1    2    0    0  0.00000000000E+00  0.00000000000E+00  0.13381919391E+04  0.35573288157E+04  0.32960325600E+04 0.  0.
        5    1    3    3  502    0  0.40645154230E+03  0.50949735267E+03 -0.96455328882E+03  0.11641200735E+04  0.46999998093E+01 0.  1.
       -5    1    3    3    0  502 -0.40645154230E+03 -0.50949735267E+03  0.23027452280E+04  0.23932087421E+04  0.46999998093E+01 0. -1.
</event>
<event>
 5   0  0.4272633E-07  0.3200917E+04  0.7818609E-02  0.8188575E-01
       -1   -1    0    0    0  501  0.00000000000E+00  0.00000000000E+00  0.21425574068E+04  0.21425574068E+04  0.50400001928E-02 0. -1.
        1   -1    0    0  501    0  0.00000000000E+00  0.00000000000E+00 -0.11955188224E+04  0.11955188224E+04  0.50400001928E-02 0.  1.
    10030    2    1    2    0    0  0.00000000000E+00  0.00000000000E+00  0.94703858440E+03  0.33380762292E+04  0.32009171860E+04 0.  0.
        1    1    3    3  502    0  0.14825823611E+04 -0.38403336294E+03 -0.11081324339E+02  0.15315530932E+04  0.50400001928E-02 0.  1.
       -1    1    3    3    0  502 -0.14825823611E+04  0.38403336294E+03  0.95811990874E+03  0.18065231360E+04  0.50400001928E-02 0. -1.
</event>
<event>
 5   0  0.1268230E-06  0.3367580E+04  0.7818609E-02  0.8145909E-01
        2   -1    0    0  501    0  0.00000000000E+00  0.00000000000E+00  0.22910950810E+04  0.22910950810E+04  0.25500000920E-02 0. -1.
       -2   -1    0    0    0  501  0.00000000000E+00  0.00000000000E+00 -0.12374646581E+04  0.12374646581E+04  0.25500000920E-02 0.  1.
    10030    2    1    2    0    0  0.00000000000E+00  0.00000000000E+00  0.10536304230E+04  0.35285597391E+04  0.33675802536E+04 0.  0.
        2    1    3    3  502    0 -0.61041911423E+03  0.27857341166E+03 -0.10913309704E+04  0.12811002801E+04  0.25500000920E-02 0.  1.
       -2    1    3    3    0  502  0.61041911423E+03 -0.27857341166E+03  0.21449613934E+04  0.22474594590E+04  0.25500000920E-02 0. -1.
</event>
<event>
 5   0  0.1268230E-06  0.3406341E+04  0.7818609E-02  0.8136352E-01
        2   -1    0    0  501    0  0.00000000000E+00  0.00000000000E+00  0.10999159942E+04  0.10999159942E+04  0.25500000920E-02 0. -1.
       -2   -1    0    0    0  501  0.00000000000E+00  0.00000000000E+00 -0.26372825610E+04  0.26372825610E+04  0.25500000920E-02 0.  1.
    10030    2    1    2    0    0  0.00000000000E+00  0.00000000000E+00 -0.15373665668E+04  0.37371985552E+04  0.34063407170E+04 0.  0.
        2    1    3    3  502    0 -0.38773414012E+03 -0.54477758853E+03  0.94988211852E+03  0.11616352368E+04  0.25500000920E-02 0. -1.
       -2    1    3    3    0  502  0.38773414012E+03  0.54477758853E+03 -0.24872486853E+04  0.25755633183E+04  0.25500000920E-02 0.  1.
</event>
<event>
 5   0  0.1256208E-06  0.3403185E+04  0.7818609E-02  0.8137125E-01
        2   -1    0    0  501    0  0.00000000000E+00  0.00000000000E+00  0.12578343129E+04  0.12578343129E+04  0.25500000920E-02 0.  1.
       -2   -1    0    0    0  501  0.00000000000E+00  0.00000000000E+00 -0.23019065219E+04  0.23019065219E+04  0.25500000920E-02 0. -1.
    10030    2    1    2    0    0  0.00000000000E+00  0.00000000000E+00 -0.10440722090E+04  0.35597408348E+04  0.34031849837E+04 0.  0.
        3    1    3    3  502    0 -0.47220115742E+03  0.40506629933E+03 -0.21786760722E+04  0.22657630233E+04  0.10100000352E+00 0. -1.
       -3    1    3    3    0  502  0.47220115742E+03 -0.40506629933E+03  0.11346038632E+04  0.12939778115E+04  0.10100000352E+00 0.  1.
</event>
<event>
 5   0  0.4125758E-07  0.3426452E+04  0.7818609E-02  0.8131444E-01
        1   -1    0    0  501    0  0.00000000000E+00  0.00000000000E+00  0.15939658421E+04  0.15939658421E+04  0.50400001928E-02 0.  1.
       -1   -1    0    0    0  501  0.00000000000E+00  0.00000000000E+00 -0.18414093020E+04  0.18414093020E+04  0.50400001928E-02 0. -1.
    10030    2    1    2    0    0  0.00000000000E+00  0.00000000000E+00 -0.24744345988E+03  0.34353751441E+04  0.34264521177E+04 0.  0.
        2    1    3    3  502    0 -0.96712934064E+03  0.13971832123E+04  0.95212306730E+02  0.17019181748E+04  0.25500000920E-02 0.  1.
       -2    1    3    3    0  502  0.96712934064E+03 -0.13971832123E+04 -0.34265576661E+03  0.17334569694E+04  0.25500000920E-02 0. -1.
</event>
<event>
 5   0  0.4272633E-07  0.3402715E+04  0.7818609E-02  0.8137240E-01
        1   -1    0    0  501    0  0.00000000000E+00  0.00000000000E+00  0.28079962330E+04  0.28079962330E+04  0.50400001928E-02 0. -1.
       -1   -1    0    0    0  501  0.00000000000E+00  0.00000000000E+00 -0.10308478347E+04  0.10308478347E+04  0.50400001928E-02 0.  1.
    10030    2    1    2    0    0  0.00000000000E+00  0.00000000000E+00  0.17771483983E+04  0.38388440677E+04  0.34027147025E+04 0.  0.
        1    1    3    3  502    0  0.96031956955E+03 -0.12025992245E+04  0.17069129802E+04  0.22982624943E+04  0.50400001928E-02 0. -1.
       -1    1    3    3    0  502 -0.96031956955E+03  0.12025992245E+04  0.70235418075E+02  0.15405815734E+04  0.50400001928E-02 0.  1.
</event>
<event>
 5   0  0.1268230E-06  0.3417093E+04  0.7818609E-02  0.8133724E-01
        2   -1    0    0  501    0  0.00000000000E+00  0.00000000000E+00  0.19560023844E+04  0.19560023844E+04  0.25500000920E-02 0. -1.
       -2   -1    0    0    0  501  0.00000000000E+00  0.00000000000E+00 -0.14923969005E+04  0.14923969005E+04  0.25500000920E-02 0.  1.
    10030    2    1    2    0    0  0.00000000000E+00  0.00000000000E+00  0.46360548388E+03  0.34483992849E+04  0.34170934408E+04 0.  0.
        2    1    3    3  502    0  0.73601742360E+03 -0.15278233725E+04  0.22135034295E+02  0.16960117526E+04  0.25500000920E-02 0.  1.
       -2    1    3    3    0  502 -0.73601742360E+03  0.15278233725E+04  0.44147044958E+03  0.17523875322E+04  0.25500000920E-02 0. -1.
</event>
<event>
 5   0  0.1269497E-06  0.3423366E+04  0.7818609E-02  0.8132195E-01
        2   -1    0    0  501    0  0.00000000000E+00  0.00000000000E+00  0.21584576157E+04  0.21584576157E+04  0.25500000920E-02 0.  1.
       -2   -1    0    0    0  501  0.00000000000E+00  0.00000000000E+00 -0.13573853778E+04  0.13573853778E+04  0.25500000920E-02 0. -1.
    10030    2    1    2    0    0  0.00000000000E+00  0.00000000000E+00  0.80107223788E+03  0.35158429935E+04  0.34233660664E+04 0.  0.
        5    1    3    3  502    0 -0.34196915176E+03 -0.92304566730E+03 -0.10376056376E+04  0.14302460466E+04  0.46999998093E+01 0. -1.
       -5    1    3    3    0  502  0.34196915176E+03  0.92304566730E+03  0.18386778755E+04  0.20855969468E+04  0.46999998093E+01 0.  1.
</event>
<event>
 5   0  0.4125758E-07  0.3463471E+04  0.7818609E-02  0.8122502E-01
       -1   -1    0    0    0  501  0.00000000000E+00  0.00000000000E+00  0.18014269413E+04  0.18014269413E+04  0.50400001928E-02 0.  1.
        1   -1    0    0  501    0  0.00000000000E+00  0.00000000000E+00 -0.16647405177E+04  0.16647405177E+04  0.50400001928E-02 0. -1.
    10030    2    1    2    0    0  0.00000000000E+00  0.00000000000E+00  0.13668642357E+03  0.34661674591E+04  0.34634713332E+04 0.  0.
        2    1    3    3  502    0 -0.20040696950E+03  0.16839019084E+04 -0.28295686399E+03  0.17192304026E+04  0.25500000920E-02 0. -1.
       -2    1    3    3    0  502  0.20040696950E+03 -0.16839019084E+04  0.41964328756E+03  0.17469370564E+04  0.25500000920E-02 0.  1.
</event>
<event>
 5   0  0.4109937E-07  0.3403943E+04  0.7818609E-02  0.8136939E-01
        1   -1    0    0  501    0  0.00000000000E+00  0.00000000000E+00  0.15832952273E+04  0.15832952273E+04  0.50400001928E-02 0.  1.
       -1   -1    0    0    0  501  0.00000000000E+00  0.00000000000E+00 -0.18295430648E+04  0.18295430649E+04  0.50400001928E-02 0. -1.
    10030    2    1    2    0    0  0.00000000000E+00  0.00000000000E+00 -0.24624783751E+03  0.34128382922E+04  0.34039428919E+04 0.  0.
        5    1    3    3  502    0 -0.12203886855E+03 -0.16306895846E+04 -0.59620728833E+03  0.17405537129E+04  0.46999998093E+01 0.  1.
       -5    1    3    3    0  502  0.12203886855E+03  0.16306895846E+04  0.34995945082E+03  0.16722845793E+04  0.46999998093E+01 0. -1.
</event>
<event>
 5   0  0.1277635E-06  0.3287840E+04  0.7818609E-02  0.8165996E-01
       -2   -1    0    0    0  501  0.00000000000E+00  0.00000000000E+00  0.21135166015E+04  0.21135166015E+04  0.25500000920E-02 0. -1.
        2   -1    0    0  501    0  0.00000000000E+00  0.00000000000E+00 -0.12786615095E+04  0.12786615095E+04  0.25500000920E-02 0.  1.
    10030    2    1    2    0    0  0.00000000000E+00  0.00000000000E+00  0.83485509204E+03  0.33921781110E+04  0.32878396116E+04 0.  0.
        4    1    3    3  502    0  0.55831985210E+03  0.76602957167E+03  0.18031621869E+04  0.20371347150E+04  0.12699999809E+01 0. -1.
       -4    1    3    3    0  502 -0.55831985210E+03 -0.76602957167E+03 -0.96830709489E+03  0.13550433959E+04  0.12699999809E+01 0.  1.
</event>
<event>
 5   0  0.4464951E-07  0.3455062E+04  0.7818609E-02  0.8124523E-01
        1   -1    0    0  501    0  0.00000000000E+00  0.00000000000E+00  0.16912266518E+04  0.16912266519E+04  0.50400001928E-02 0.  1.
       -1   -1    0    0    0  501  0.00000000000E+00  0.00000000000E+00 -0.17646149251E+04  0.17646149251E+04  0.50400001928E-02 0. -1.
    10030    2    1    2    0    0  0.00000000000E+00  0.00000000000E+00 -0.73388273278E+02  0.34558415770E+04  0.34550622522E+04 0.  0.
        3    1    3    3  502    0 -0.37070079386E+03  0.15130197214E+03 -0.17175649074E+04  0.17636157707E+04  0.10100000352E+00 0. -1.
       -3    1    3    3    0  502  0.37070079386E+03 -0.15130197214E+03  0.16441766341E+04  0.16922258063E+04  0.10100000352E+00 0.  1.
</event>
<event>
 5   0  0.4125758E-07  0.3386868E+04  0.7818609E-02  0.8141137E-01
       -1   -1    0    0    0  501  0.00000000000E+00  0.00000000000E+00  0.11375131295E+04  0.11375131295E+04  0.50400001928E-02 0.  1.
        1   -1    0    0  501    0  0.00000000000E+00  0.00000000000E+00 -0.25210416631E+04  0.25210416631E+04  0.50400001928E-02 0. -1.
    10030    2    1    2    0    0  0.00000000000E+00  0.00000000000E+00 -0.13835285336E+04  0.36585547927E+04  0.33868675746E+04 0.  0.
        2    1    3    3  502    0  0.67312526423E+03 -0.38520964566E+03 -0.23179259111E+04  0.24442308855E+04  0.25500000920E-02 0. -1.
       -2    1    3    3    0  502 -0.67312526423E+03  0.38520964566E+03  0.93439737747E+03  0.12143239072E+04  0.25500000920E-02 0.  1.
</event>
<event>
 5   0  0.1268230E-06  0.3068612E+04  0.7818609E-02  0.8224405E-01
       -2   -1    0    0    0  501  0.00000000000E+00  0.00000000000E+00  0.17066004565E+04  0.17066004565E+04  0.25500000920E-02 0. -1.
        2   -1    0    0  501    0  0.00000000000E+00  0.00000000000E+00 -0.13794062037E+04  0.13794062037E+04  0.25500000920E-02 0.  1.
    10030    2    1    2    0    0  0.00000000000E+00  0.00000000000E+00  0.32719425277E+03  0.30860066603E+04  0.30686122316E+04 0.  0.
        2    1    3    3  502    0 -0.43298352036E+03  0.38956596605E+03 -0.12639063177E+04  0.13916520940E+04  0.25500000920E-02 0.  1.
       -2    1    3    3    0  502  0.43298352036E+03 -0.38956596605E+03  0.15911005705E+04  0.16943545663E+04  0.25500000920E-02 0. -1.
</event>
<event>
 5   0  0.1269497E-06  0.3111432E+04  0.7818609E-02  0.8212607E-01
       -2   -1    0    0    0  501  0.00000000000E+00  0.00000000000E+00  0.10863667248E+04  0.10863667248E+04  0.25500000920E-02 0.  1.
        2   -1    0    0  501    0  0.00000000000E+00  0.00000000000E+00 -0.22278416227E+04  0.22278416227E+04  0.25500000920E-02 0. -1.
    10030    2    1    2    0    0  0.00000000000E+00  0.00000000000E+00 -0.11414748979E+04  0.33142083475E+04  0.31114324721E+04 0.  0.
        5    1    3    3  502    0 -0.78563735156E+03 -0.87864986918E+03  0.51080705518E+03  0.12846001629E+04  0.46999998093E+01 0.  1.
       -5    1    3    3    0  502  0.78563735156E+03  0.87864986918E+03 -0.16522819531E+04  0.20296081847E+04  0.46999998093E+01 0. -1.
</event>
<event>
 5   0  0.4289684E-07  0.3406326E+04  0.7818609E-02  0.8136356E-01
        1   -1    0    0  501    0  0.00000000000E+00  0.00000000000E+00  0.25550151379E+04  0.25550151379E+04  0.50400001928E-02 0.  1.
       -1   -1    0    0    0  501  0.00000000000E+00  0.00000000000E+00 -0.11353215840E+04  0.11353215840E+04  0.50400001928E-02 0. -1.
    10030    2    1    2    0    0  0.00000000000E+00  0.00000000000E+00  0.14196935539E+04  0.36903367220E+04  0.34063257822E+04 0.  0.
        4    1    3    3  502    0  0.84034154696E+03  0.91253881976E+03  0.19741354230E+04  0.23315474034E+04  0.12699999809E+01 0.  1.
       -4    1    3    3    0  502 -0.84034154696E+03 -0.91253881976E+03 -0.55444186911E+03  0.13587893186E+04  0.12699999809E+01 0. -1.
</event>
<event>
 5   0  0.1269497E-06  0.3397048E+04  0.7818609E-02  0.8138631E-01
       -2   -1    0    0    0  501  0.00000000000E+00  0.00000000000E+00  0.30750189965E+04  0.30750189965E+04  0.25500000920E-02 0. -1.
        2   -1    0    0  501    0  0.00000000000E+00  0.00000000000E+00 -0.93820047352E+03  0.93820047352E+03  0.25500000920E-02 0.  1.
    10030    2    1    2    0    0  0.00000000000E+00  0.00000000000E+00  0.21368185230E+04  0.40132194700E+04  0.33970482944E+04 0.  0.
        5    1    3    3  502    0 -0.12285000583E+04 -0.99001915649E+03  0.32534590727E+03  0.16109693892E+04  0.46999998093E+01 0.  1.
       -5    1    3    3    0  502  0.12285000583E+04  0.99001915649E+03  0.18114726157E+04  0.24022500809E+04  0.46999998093E+01 0. -1.
</event>
<event>
 5   0  0.4464951E-07  0.3483422E+04  0.7818609E-02  0.8117730E-01
        1   -1    0    0  501    0  0.00000000000E+00  0.00000000000E+00  0.18494029305E+04  0.18494029305E+04  0.50400001928E-02 0. -1.
       -1   -1    0    0    0  501  0.00000000000E+00  0.00000000000E+00 -0.16402900057E+04  0.16402900057E+04  0.50400001928E-02 0.  1.
    10030    2    1    2    0    0  0.00000000000E+00  0.00000000000E+00  0.20911292482E+03  0.34896929363E+04  0.34834219633E+04 0.  0.
        3    1    3    3  502    0 -0.12079111545E+04  0.31593112572E+03  0.13211129432E+04  0.18177462013E+04  0.10100000352E+00 0. -1.
       -3    1    3    3    0  502  0.12079111545E+04 -0.31593112572E+03 -0.11120000184E+04  0.16719467350E+04  0.10100000352E+00 0.  1.
</event>
<event>
 5   0  0.1268230E-06  0.3425052E+04  0.7818609E-02  0.8131785E-01
       -2   -1    0    0    0  501  0.00000000000E+00  0.00000000000E+00  0.10316285138E+04  0.10316285138E+04  0.25500000920E-02 0.  1.
        2   -1    0    0  501    0  0.00000000000E+00  0.00000000000E+00 -0.28428310870E+04  0.28428310870E+04  0.25500000920E-02 0. -1.
    10030    2    1    2    0    0  0.00000000000E+00  0.00000000000E+00 -0.18112025732E+04  0.38744596008E+04  0.34250521801E+04 0.  0.
        2    1    3    3  502    0 -0.95902633011E+03  0.13086121542E+04 -0.28544505881E+03  0.16473239370E+04  0.25500000920E-02 0.  1.
       -2    1    3    3    0  502  0.95902633011E+03 -0.13086121542E+04 -0.15257575144E+04  0.22271356637E+04  0.25500000920E-02 0. -1.
</event>
<event>
 5   0  0.1256208E-06  0.3389026E+04  0.7818609E-02  0.8140605E-01
        2   -1    0    0  501    0  0.00000000000E+00  0.00000000000E+00  0.15145443950E+04  0.15145443950E+04  0.25500000920E-02 0. -1.
       -2   -1    0    0    0  501  0.00000000000E+00  0.00000000000E+00 -0.18958665219E+04  0.18958665219E+04  0.25500000920E-02 0.  1.
    10030    2    1    2    0    0  0.00000000000E+00  0.00000000000E+00 -0.38132212692E+03  0.34104109169E+04  0.33890258273E+04 0.  0.
        3    1    3    3  502    0  0.37452014927E+03 -0.15980617251E+04 -0.61439694733E+03  0.17525838749E+04  0.10100000352E+00 0.  1.
       -3    1    3    3    0  502 -0.37452014927E+03  0.15980617251E+04  0.23307482041E+03  0.16578270421E+04  0.10100000352E+00 0. -1.
</event>
<event>
 5   0  0.1300176E-06  0.3359182E+04  0.7818609E-02  0.8147998E-01
        2   -1    0    0  501    0  0.00000000000E+00  0.00000000000E+00  0.11315883167E+04  0.11315883167E+04  0.25500000920E-02 0. -1.
       -2   -1    0    0    0  501  0.00000000000E+00  0.00000000000E+00 -0.24929794842E+04  0.24929794842E+04  0.25500000920E-02 0.  1.
    10030    2    1    2    0    0  0.00000000000E+00  0.00000000000E+00 -0.13613911675E+04  0.36245678009E+04  0.33591823160E+04 0.  0.
        1    1    3    3  502    0 -0.12499258603E+04 -0.95100038000E+03 -0.38430361797E+02  0.15710484626E+04  0.50400001928E-02 0. -1.
       -1    1    3    3    0  502  0.12499258603E+04  0.95100038000E+03 -0.13229608057E+04  0.20535193383E+04  0.50400001928E-02 0.  1.
</event>
<event>
 5   0  0.4272633E-07  0.3403161E+04  0.7818609E-02  0.8137131E-01
       -1   -1    0    0    0  501  0.00000000000E+00  0.00000000000E+00  0.15537562737E+04  0.15537562737E+04  0.50400001928E-02 0. -1.
        1   -1    0    0  501    0  0.00000000000E+00  0.00000000000E+00 -0.18634687585E+04  0.18634687585E+04  0.50400001928E-02 0.  1.
    10030    2    1    2    0    0  0.00000000000E+00  0.00000000000E+00 -0.30971248481E+03  0.34172250322E+04  0.34031610449E+04 0.  0.
        1    1    3    3  502    0 -0.16258082501E+04  0.46082914563E+03 -0.35508015371E+03  0.17267593588E+04  0.50400001928E-02 0.  1.
       -1    1    3    3    0  502  0.16258082501E+04 -0.46082914563E+03  0.45367668897E+02  0.16904656734E+04  0.50400001928E-02 0. -1.
</event>
<event>
 5   0  0.1256208E-06  0.3433634E+04  0.7818609E-02  0.8129700E-01
        2   -1    0    0  501    0  0.00000000000E+00  0.00000000000E+00  0.16845894439E+04  0.16845894439E+04  0.25500000920E-02 0.  1.
       -2   -1    0    0    0  501  0.00000000000E+00  0.00000000000E+00 -0.17496611158E+04  0.17496611158E+04  0.25500000920E-02 0. -1.
    10030    2    1    2    0    0  0.00000000000E+00  0.00000000000E+00 -0.65071671906E+02  0.34342505598E+04  0.34336340202E+04 0.  0.
        3    1    3    3  502    0  0.23090844232E+03  0.43587666210E+03  0.16121904816E+04  0.16859612488E+04  0.10100000352E+00 0.  1.
       -3    1    3    3    0  502 -0.23090844232E+03 -0.43587666210E+03 -0.16772621535E+04  0.17482893110E+04  0.10100000352E+00 0. -1.
</event>
<event>
 5   0  0.4289684E-07  0.3394538E+04  0.7818609E-02  0.8139248E-01
       -1   -1    0    0    0  501  0.00000000000E+00  0.00000000000E+00  0.22149849511E+04  0.22149849511E+04  0.50400001928E-02 0.  1.
        1   -1    0    0  501    0  0.00000000000E+00  0.00000000000E+00 -0.13005604407E+04  0.13005604407E+04  0.50400001928E-02 0. -1.
    10030    2    1    2    0    0  0.00000000000E+00  0.00000000000E+00  0.91442451034E+03  0.35155453918E+04  0.33945378502E+04 0.  0.
        4    1    3    3  502    0 -0.35093191118E+03  0.99724224219E+03  0.18323539017E+04  0.21154592243E+04  0.12699999809E+01 0.  1.
       -4    1    3    3    0  502  0.35093191118E+03 -0.99724224219E+03 -0.91792939136E+03  0.14000861675E+04  0.12699999809E+01 0. -1.
</event>
<event>
 5   0  0.1269497E-06  0.3226400E+04  0.7818609E-02  0.8181880E-01
       -2   -1    0    0    0  501  0.00000000000E+00  0.00000000000E+00  0.19960748818E+04  0.19960748818E+04  0.25500000920E-02 0. -1.
        2   -1    0    0  501    0  0.00000000000E+00  0.00000000000E+00 -0.13037660347E+04  0.13037660347E+04  0.25500000920E-02 0.  1.
    10030    2    1    2    0    0  0.00000000000E+00  0.00000000000E+00  0.69230884710E+03  0.32998409164E+04  0.32264002439E+04 0.  0.
        5    1    3    3  502    0 -0.45082057425E+03  0.10846409539E+03 -0.12341339538E+04  0.13183748921E+04  0.46999998093E+01 0.  1.
       -5    1    3    3    0  502  0.45082057425E+03 -0.10846409539E+03  0.19264428009E+04  0.19814660243E+04  0.46999998093E+01 0. -1.
</event>
<event>
 5   0  0.4289684E-07  0.3406070E+04  0.7818609E-02  0.8136418E-01
       -1   -1    0    0    0  501  0.00000000000E+00  0.00000000000E+00  0.16519692871E+04  0.16519692871E+04  0.50400001928E-02 0. -1.
        1   -1    0    0  501    0  0.00000000000E+00  0.00000000000E+00 -0.17556794918E+04  0.17556794918E+04  0.50400001928E-02 0.  1.
    10030    2    1    2    0    0  0.00000000000E+00  0.00000000000E+00 -0.10371020467E+03  0.34076487790E+04  0.34060702274E+04 0.  0.
        4    1    3    3  502    0 -0.20267034763E+03 -0.84104741860E+02  0.16377668727E+04  0.16524015310E+04  0.12699999809E+01 0. -1.
       -4    1    3    3    0  502  0.20267034763E+03  0.84104741860E+02 -0.17414770774E+04  0.17552472479E+04  0.12699999809E+01 0.  1.
</event>
<event>
 5   0  0.4109937E-07  0.3295589E+04  0.7818609E-02  0.8164019E-01
        1   -1    0    0  501    0  0.00000000000E+00  0.00000000000E+00  0.22175717102E+04  0.22175717102E+04  0.50400001928E-02 0.  1.
       -1   -1    0    0    0  501  0.00000000000E+00  0.00000000000E+00 -0.12244144075E+04  0.12244144075E+04  0.50400001928E-02 0. -1.
    10030    2    1    2    0    0  0.00000000000E+00  0.00000000000E+00  0.99315730270E+03  0.34419861177E+04  0.32955890227E+04 0.  0.
        5    1    3    3  502    0  0.93909423353E+03 -0.12893118060E+03 -0.91113944853E+03  0.13148073674E+04  0.46999998093E+01 0. -1.
       -5    1    3    3    0  502 -0.93909423353E+03  0.12893118060E+03  0.19042967512E+04  0.21271787502E+04  0.46999998093E+01 0.  1.
</event>
<event>
 5   0  0.1300176E-06  0.3406963E+04  0.7818609E-02  0.8136200E-01
        2   -1    0    0  501    0  0.00000000000E+00  0.00000000000E+00  0.24416864919E+04  0.24416864919E+04  0.25500000920E-02 0. -1.
       -2   -1    0    0    0  501  0.00000000000E+00  0.00000000000E+00 -0.11884606975E+04  0.11884606975E+04  0.25500000920E-02 0.  1.
    10030    2    1    2    0    0  0.00000000000E+00  0.00000000000E+00  0.12532257944E+04  0.36301471894E+04  0.34069625365E+04 0.  0.
        1    1    3    3  502    0 -0.42039460378E+03 -0.20194624311E+03 -0.11191095444E+04  0.12124026066E+04  0.50400001928E-02 0.  1.
       -1    1    3    3    0  502  0.42039460378E+03  0.20194624311E+03  0.23723353388E+04  0.24177445828E+04  0.50400001928E-02 0. -1.
</event>
<event>
 5   0  0.1277635E-06  0.3275764E+04  0.7818609E-02  0.8169090E-01
        2   -1    0    0  501    0  0.00000000000E+00  0.00000000000E+00  0.24887446132E+04  0.24887446132E+04  0.25500000920E-02 0. -1.
       -2   -1    0    0    0  501  0.00000000000E+00  0.00000000000E+00 -0.10779160300E+04  0.10779160300E+04  0.25500000920E-02 0.  1.
    10030    2    1    2    0    0  0.00000000000E+00  0.00000000000E+00  0.14108285832E+04  0.35666606433E+04  0.32757641632E+04 0.  0.
        4    1    3    3  502    0 -0.11062142828E+04  0.99518783723E+03  0.14507052444E+04  0.20781376734E+04  0.12699999809E+01 0. -1.
       -4    1    3    3    0  502  0.11062142828E+04 -0.99518783723E+03 -0.39876661167E+02  0.14885229698E+04  0.12699999809E+01 0.  1.
</event>
<event>
 5   0  0.1256208E-06  0.3400734E+04  0.7818609E-02  0.8137726E-01
        2   -1    0    0  501    0  0.00000000000E+00  0.00000000000E+00  0.21544587715E+04  0.21544587715E+04  0.25500000920E-02 0. -1.
       -2   -1    0    0    0  501  0.00000000000E+00  0.00000000000E+00 -0.13419836840E+04  0.13419836840E+04  0.25500000920E-02 0.  1.
    10030    2    1    2    0    0  0.00000000000E+00  0.00000000000E+00  0.81247508748E+03  0.34964424556E+04  0.34007343438E+04 0.  0.
        3    1    3    3  502    0 -0.41522513283E+03 -0.26898769195E+03 -0.12663473419E+04  0.13595594470E+04  0.10100000352E+00 0.  1.
       -3    1    3    3    0  502  0.41522513283E+03  0.26898769195E+03  0.20788224294E+04  0.21368830086E+04  0.10100000352E+00 0. -1.
</event>
<event>
 5   0  0.4289684E-07  0.3436150E+04  0.7818609E-02  0.8129090E-01
        1   -1    0    0  501    0  0.00000000000E+00  0.00000000000E+00  0.19712589060E+04  0.19712589061E+04  0.50400001928E-02 0. -1.
       -1   -1    0    0    0  501  0.00000000000E+00  0.00000000000E+00 -0.14974094451E+04  0.14974094451E+04  0.50400001928E-02 0.  1.
    10030    2    1    2    0    0  0.00000000000E+00  0.00000000000E+00  0.47384946098E+03  0.34686683511E+04  0.34361499994E+04 0.  0.
        4    1    3    3  502    0  0.33010913944E+03 -0.83549573608E+03  0.17152823378E+04  0.19362903398E+04  0.12699999809E+01 0. -1.
       -4    1    3    3    0  502 -0.33010913944E+03  0.83549573608E+03 -0.12414328768E+04  0.15323780113E+04  0.12699999809E+01 0.  1.
</event>
<event>
 5   0  0.4125758E-07  0.3361737E+04  0.7818609E-02  0.8147362E-01
        1   -1    0    0  501    0  0.00000000000E+00  0.00000000000E+00  0.25278627231E+04  0.25278627231E+04  0.50400001928E-02 0. -1.
       -1   -1    0    0    0  501  0.00000000000E+00  0.00000000000E+00 -0.11176711675E+04  0.11176711675E+04  0.50400001928E-02 0.  1.
    10030    2    1    2    0    0  0.00000000000E+00  0.00000000000E+00  0.14101915556E+04  0.36455338906E+04  0.33617372182E+04 0.  0.
        2    1    3    3  502    0 -0.14754185008E+04 -0.77744270922E+02  0.15742669923E+04  0.21589859859E+04  0.25500000920E-02 0. -1.
       -2    1    3    3    0  502  0.14754185008E+04  0.77744270922E+02 -0.16407543671E+03  0.14865479048E+04  0.25500000920E-02 0.  1.
</event>
<event>
 5   0  0.1269497E-06  0.3416136E+04  0.7818609E-02  0.8133957E-01
        2   -1    0    0  501    0  0.00000000000E+00  0.00000000000E+00  0.18604087288E+04  0.18604087288E+04  0.25500000920E-02 0. -1.
       -2   -1    0    0    0  501  0.00000000000E+00  0.00000000000E+00 -0.15682018526E+04  0.15682018526E+04  0.25500000920E-02 0.  1.
    10030    2    1    2    0    0  0.00000000000E+00  0.00000000000E+00  0.29220687625E+03  0.34286105814E+04  0.34161360717E+04 0.  0.
        5    1    3    3  502    0 -0.11786702550E+04  0.11571561735E+04  0.58266345982E+03  0.17515115692E+04  0.46999998093E+01 0. -1.
       -5    1    3    3    0  502  0.11786702550E+04 -0.11571561735E+04 -0.29045658358E+03  0.16770990122E+04  0.46999998093E+01 0.  1.
</event>
<event>
 5   0  0.4272633E-07  0.3477718E+04  0.7818609E-02  0.8119091E-01
        1   -1    0    0  501    0  0.00000000000E+00  0.00000000000E+00  0.17570679365E+04  0.17570679365E+04  0.50400001928E-02 0. -1.
       -1   -1    0    0    0  501  0.00000000000E+00  0.00000000000E+00 -0.17208390542E+04  0.17208390542E+04  0.50400001928E-02 0.  1.
    10030    2    1    2    0    0  0.00000000000E+00  0.00000000000E+00  0.36228882354E+02  0.34779069907E+04  0.34777182899E+04 0.  0.
        1    1    3    3  502    0  0.59904828846E+03 -0.13293166775E+04 -0.92940171428E+03  0.17290833489E+04  0.50400001928E-02 0.  1.
       -1    1    3    3    0  502 -0.59904828846E+03  0.13293166775E+04  0.96563059663E+03  0.17488236418E+04  0.50400001928E-02 0. -1.
</event>
<event>
 5   0  0.1256208E-06  0.3377256E+04  0.7818609E-02  0.8143511E-01
        2   -1    0    0  501    0  0.00000000000E+00  0.00000000000E+00  0.15788681958E+04  0.15788681958E+04  0.25500000920E-02 0.  1.
       -2   -1    0    0    0  501  0.00000000000E+00  0.00000000000E+00 -0.18060177502E+04  0.18060177502E+04  0.25500000920E-02 0. -1.
    10030    2    1    2    0    0  0.00000000000E+00  0.00000000000E+00 -0.22714955445E+03  0.33848859460E+04  0.33772556829E+04 0.  0.
        3    1    3    3  502    0 -0.14670301022E+02 -0.84827989896E+03  0.13497478304E+04  0.15942437770E+04  0.10100000352E+00 0.  1.
       -3    1    3    3    0  502  0.14670301022E+02  0.84827989896E+03 -0.15768973849E+04  0.17906421690E+04  0.10100000352E+00 0. -1.
</event>
<event>
 5   0  0.4125758E-07  0.3413508E+04  0.7818609E-02  0.8134599E-01
       -1   -1    0    0    0  501  0.00000000000E+00  0.00000000000E+00  0.10149387797E+04  0.10149387798E+04  0.50400001928E-02 0.  1.
        1   -1    0    0  501    0  0.00000000000E+00  0.00000000000E+00 -0.28701331823E+04  0.28701331823E+04  0.50400001928E-02 0. -1.
    10030    2    1    2    0    0  0.00000000000E+00  0.00000000000E+00 -0.18551944026E+04  0.38850719621E+04  0.34135081484E+04 0.  0.
        2    1    3    3  502    0  0.18423176864E+03  0.21749754260E+03  0.98765764889E+03  0.10279660291E+04  0.25500000920E-02 0.  1.
       -2    1    3    3    0  502 -0.18423176864E+03 -0.21749754260E+03 -0.28428520515E+04  0.28571059330E+04  0.25500000920E-02 0. -1.
</event>
<event>
 5   0  0.4289684E-07  0.2838741E+04  0.7818609E-02  0.8291341E-01
        1   -1    0    0  501    0  0.00000000000E+00  0.00000000000E+00  0.10214704225E+04  0.10214704225E+04  0.50400001928E-02 0. -1.
       -1   -1    0    0    0  501  0.00000000000E+00  0.00000000000E+00 -0.19722665895E+04  0.19722665895E+04  0.50400001928E-02 0.  1.
    10030    2    1    2    0    0  0.00000000000E+00  0.00000000000E+00 -0.95079616699E+03  0.29937370120E+04  0.28387405563E+04 0.  0.
        4    1    3    3  502    0 -0.74664092248E+03 -0.12064690861E+04 -0.43361073760E+03  0.14835970502E+04  0.12699999809E+01 0. -1.
       -4    1    3    3    0  502  0.74664092248E+03  0.12064690861E+04 -0.51718542938E+03  0.15101399618E+04  0.12699999809E+01 0.  1.
</event>
<event>
 5   0  0.4060750E-07  0.3413945E+04  0.7818609E-02  0.8134492E-01
        3   -1    0    0  501    0  0.00000000000E+00  0.00000000000E+00  0.14395250356E+04  0.14395250391E+04  0.10100000352E+00 0. -1.
       -3   -1    0    0    0  501  0.00000000000E+00  0.00000000000E+00 -0.20241081427E+04  0.20241081453E+04  0.10100000352E+00 0.  1.
    10030    2    1    2    0    0  0.00000000000E+00  0.00000000000E+00 -0.58458310717E+03  0.34636331844E+04  0.34139445553E+04 0.  0.
        5    1    3    3  502    0 -0.11764342687E+04 -0.79445152949E+03  0.66944063443E+03  0.15694979052E+04  0.46999998093E+01 0. -1.
       -5    1    3    3    0  502  0.11764342687E+04  0.79445152949E+03 -0.12540237416E+04  0.18941352792E+04  0.46999998093E+01 0.  1.
</event>
<event>
 5   0  0.1277635E-06  0.3382981E+04  0.7818609E-02  0.8142096E-01
        2   -1    0    0  501    0  0.00000000000E+00  0.00000000000E+00  0.19229104348E+04  0.19229104348E+04  0.25500000920E-02 0.  1.
       -2   -1    0    0    0  501  0.00000000000E+00  0.00000000000E+00 -0.14879214408E+04  0.14879214408E+04  0.25500000920E-02 0. -1.
    10030    2    1    2    0    0  0.00000000000E+00  0.00000000000E+00  0.43498899404E+03  0.34108318756E+04  0.33829807358E+04 0.  0.
        4    1    3    3  502    0  0.15679019841E+04  0.63274068940E+03  0.26750771760E+03  0.17117942060E+04  0.12699999809E+01 0.  1.
       -4    1    3    3    0  502 -0.15679019841E+04 -0.63274068940E+03  0.16748127644E+03  0.16990376696E+04  0.12699999809E+01 0. -1.
</event>
<event>
 5   0  0.4109937E-07  0.3413737E+04  0.7818609E-02  0.8134543E-01
        1   -1    0    0  501    0  0.00000000000E+00  0.00000000000E+00  0.15471969032E+04  0.15471969032E+04  0.50400001928E-02 0. -1.
       -1   -1    0    0    0  501  0.00000000000E+00  0.00000000000E+00 -0.18830187427E+04  0.18830187427E+04  0.50400001928E-02 0.  1.
    10030    2    1    2    0    0  0.00000000000E+00  0.00000000000E+00 -0.33582183949E+03  0.34302156460E+04  0.34137374049E+04 0.  0.
        5    1    3    3  502    0  0.16410390343E+04  0.30805901908E+02  0.30277366383E+03  0.16690272907E+04  0.46999998093E+01 0. -1.
       -5    1    3    3    0  502 -0.16410390343E+04 -0.30805901908E+02 -0.63859550331E+03  0.17611883552E+04  0.46999998093E+01 0.  1.
</event>
<event>
 5   0  0.1268230E-06  0.3384919E+04  0.7818609E-02  0.8141618E-01
       -2   -1    0    0    0  501  0.00000000000E+00  0.00000000000E+00  0.30053044443E+04  0.30053044443E+04  0.25500000920E-02 0. -1.
        2   -1    0    0  501    0  0.00000000000E+00  0.00000000000E+00 -0.95312131128E+03  0.95312131128E+03  0.25500000920E-02 0.  1.
    10030    2    1    2    0    0  0.00000000000E+00  0.00000000000E+00  0.20521831330E+04  0.39584257555E+04  0.33849193271E+04 0.  0.
        2    1    3    3  502    0  0.45100208892E+03 -0.77239386814E+03 -0.65415759630E+03  0.11081143138E+04  0.25500000920E-02 0.  1.
       -2    1    3    3    0  502 -0.45100208892E+03  0.77239386814E+03  0.27063407293E+04  0.28503114417E+04  0.25500000920E-02 0. -1.
</event>
<event>
 5   0  0.4289684E-07  0.3537303E+04  0.7818609E-02  0.8105006E-01
       -1   -1    0    0    0  501  0.00000000000E+00  0.00000000000E+00  0.12341310319E+04  0.12341310319E+04  0.50400001928E-02 0. -1.
        1   -1    0    0  501    0  0.00000000000E+00  0.00000000000E+00 -0.25346800804E+04  0.25346800804E+04  0.50400001928E-02 0.  1.
    10030    2    1    2    0    0  0.00000000000E+00  0.00000000000E+00 -0.13005490485E+04  0.37688111124E+04  0.35373025561E+04 0.  0.
        4    1    3    3  502    0 -0.14107793233E+04 -0.10474120506E+04 -0.43518221053E+03  0.18101810605E+04  0.12699999809E+01 0.  1.
       -4    1    3    3    0  502  0.14107793233E+04  0.10474120506E+04 -0.86536683798E+03  0.19586300518E+04  0.12699999809E+01 0. -1.
</event>
<event>
 5   0  0.4272633E-07  0.3406068E+04  0.7818609E-02  0.8136419E-01
        1   -1    0    0  501    0  0.00000000000E+00  0.00000000000E+00  0.19987306744E+04  0.19987306744E+04  0.50400001928E-02 0. -1.
       -1   -1    0    0    0  501  0.00000000000E+00  0.00000000000E+00 -0.14510836324E+04  0.14510836324E+04  0.50400001928E-02 0.  1.
    10030    2    1    2    0    0  0.00000000000E+00  0.00000000000E+00  0.54764704198E+03  0.34498143068E+04  0.34060683300E+04 0.  0.
        1    1    3    3  502    0 -0.10605671781E+04  0.14904762683E+03  0.16149551338E+04  0.19378075287E+04  0.50400001928E-02 0. -1.
       -1    1    3    3    0  502  0.10605671781E+04 -0.14904762683E+03 -0.10673080918E+04  0.15120067781E+04  0.50400001928E-02 0.  1.
</event>
<event>
 5   0  0.1268230E-06  0.3401757E+04  0.7818609E-02  0.8137475E-01
       -2   -1    0    0    0  501  0.00000000000E+00  0.00000000000E+00  0.17494042907E+04  0.17494042907E+04  0.25500000920E-02 0. -1.
        2   -1    0    0  501    0  0.00000000000E+00  0.00000000000E+00 -0.16536991898E+04  0.16536991898E+04  0.25500000920E-02 0.  1.
    10030    2    1    2    0    0  0.00000000000E+00  0.00000000000E+00  0.95705100985E+02  0.34031034805E+04  0.34017574623E+04 0.  0.
        2    1    3    3  502    0  0.11465383722E+03  0.58861403682E+03  0.16401407458E+04  0.17463314842E+04  0.25500000920E-02 0. -1.
       -2    1    3    3    0  502 -0.11465383722E+03 -0.58861403682E+03 -0.15444356448E+04  0.16567719963E+04  0.25500000920E-02 0.  1.
</event>
<event>
 5   0  0.1300176E-06  0.3272896E+04  0.7818609E-02  0.8169826E-01
        2   -1    0    0  501    0  0.00000000000E+00  0.00000000000E+00  0.22389178759E+04  0.22389178759E+04  0.25500000920E-02 0. -1.
       -2   -1    0    0    0  501  0.00000000000E+00  0.00000000000E+00 -0.11960969011E+04  0.11960969011E+04  0.25500000920E-02 0.  1.
    10030    2    1    2    0    0  0.00000000000E+00  0.00000000000E+00  0.10428209748E+04  0.34350147771E+04  0.32728964134E+04 0.  0.
        1    1    3    3  502    0 -0.31441212830E+03  0.12558060026E+04  0.15720240495E+04  0.20364585227E+04  0.50400001928E-02 0. -1.
       -1    1    3    3    0  502  0.31441212830E+03 -0.12558060026E+04 -0.52920307464E+03  0.13985562544E+04  0.50400001928E-02 0.  1.
</event>
<event>
 5   0  0.4125758E-07  0.3385082E+04  0.7818609E-02  0.8141577E-01
        1   -1    0    0  501    0  0.00000000000E+00  0.00000000000E+00  0.17119419380E+04  0.17119419380E+04  0.50400001928E-02 0. -1.
       -1   -1    0    0    0  501  0.00000000000E+00  0.00000000000E+00 -0.16733595814E+04  0.16733595814E+04  0.50400001928E-02 0.  1.
    10030    2    1    2    0    0  0.00000000000E+00  0.00000000000E+00  0.38582356602E+02  0.33853015194E+04  0.33850816503E+04 0.  0.
        2    1    3    3  502    0 -0.21467045401E+03 -0.13024632318E+04  0.10786996711E+04  0.17047248618E+04  0.25500000920E-02 0. -1.
       -2    1    3    3    0  502  0.21467045401E+03  0.13024632318E+04 -0.10401173145E+04  0.16805766576E+04  0.25500000920E-02 0.  1.
</event>
<event>
 5   0  0.4272633E-07  0.3406024E+04  0.7818609E-02  0.8136429E-01
        1   -1    0    0  501    0  0.00000000000E+00  0.00000000000E+00  0.16746951395E+04  0.16746951395E+04  0.50400001928E-02 0. -1.
       -1   -1    0    0    0  501  0.00000000000E+00  0.00000000000E+00 -0.17318081354E+04  0.17318081354E+04  0.50400001928E-02 0.  1.
    10030    2    1    2    0    0  0.00000000000E+00  0.00000000000E+00 -0.57112995959E+02  0.34065032749E+04  0.34060244667E+04 0.  0.
        1    1    3    3  502    0  0.73888186520E+03  0.10943681370E+04  0.10470772035E+04  0.16852177011E+04  0.50400001928E-02 0. -1.
       -1    1    3    3    0  502 -0.73888186520E+03 -0.10943681370E+04 -0.11041901994E+04  0.17212855738E+04  0.50400001928E-02 0.  1.
</event>
<event>
 5   0  0.4272633E-07  0.3433712E+04  0.7818609E-02  0.8129681E-01
       -1   -1    0    0    0  501  0.00000000000E+00  0.00000000000E+00  0.15873762020E+04  0.15873762020E+04  0.50400001928E-02 0.  1.
        1   -1    0    0  501    0  0.00000000000E+00  0.00000000000E+00 -0.18568973550E+04  0.18568973550E+04  0.50400001928E-02 0. -1.
    10030    2    1    2    0    0  0.00000000000E+00  0.00000000000E+00 -0.26952115296E+03  0.34442735570E+04  0.34337120851E+04 0.  0.
        1    1    3    3  502    0  0.55465592214E+03 -0.15673971452E+04  0.29459532443E+03  0.16885388382E+04  0.50400001928E-02 0.  1.
       -1    1    3    3    0  502 -0.55465592214E+03  0.15673971452E+04 -0.56411647740E+03  0.17557347188E+04  0.50400001928E-02 0. -1.
</event>
<event>
 5   0  0.1277635E-06  0.3399919E+04  0.7818609E-02  0.8137926E-01
       -2   -1    0    0    0  501  0.00000000000E+00  0.00000000000E+00  0.14846089787E+04  0.14846089787E+04  0.25500000920E-02 0.  1.
        2   -1    0    0  501    0  0.00000000000E+00  0.00000000000E+00 -0.19465474012E+04  0.19465474012E+04  0.25500000920E-02 0. -1.
    10030    2    1    2    0    0  0.00000000000E+00  0.00000000000E+00 -0.46193842249E+03  0.34311563799E+04  0.33999186751E+04 0.  0.
        4    1    3    3  502    0 -0.12927149633E+04 -0.59476920451E+03 -0.11695668836E+04  0.18419420977E+04  0.12699999809E+01 0. -1.
       -4    1    3    3    0  502  0.12927149633E+04  0.59476920451E+03  0.70762846110E+03  0.15892142822E+04  0.12699999809E+01 0.  1.
</event>
<event>
 5   0  0.4464951E-07  0.3386077E+04  0.7818609E-02  0.8141332E-01
       -1   -1    0    0    0  501  0.00000000000E+00  0.00000000000E+00  0.15084373266E+04  0.15084373266E+04  0.50400001928E-02 0.  1.
        1   -1    0    0  501    0  0.00000000000E+00  0.00000000000E+00 -0.19002306132E+04  0.19002306132E+04  0.50400001928E-02 0. -1.
    10030    2    1    2    0    0  0.00000000000E+00  0.00000000000E+00 -0.39179328661E+03  0.34086679398E+04  0.33860766595E+04 0.  0.
        3    1    3    3  502    0  0.10754174872E+04  0.98215495871E+03  0.67312859048E+03  0.16044479562E+04  0.10100000352E+00 0.  1.
       -3    1    3    3    0  502 -0.10754174872E+04 -0.98215495871E+03 -0.10649218771E+04  0.18042199836E+04  0.10100000352E+00 0. -1.
</event>
<event>
 5   0  0.4272633E-07  0.3369829E+04  0.7818609E-02  0.8145351E-01
        1   -1    0    0  501    0  0.00000000000E+00  0.00000000000E+00  0.13017237499E+04  0.13017237499E+04  0.50400001928E-02 0. -1.
       -1   -1    0    0    0  501  0.00000000000E+00  0.00000000000E+00 -0.21809058895E+04  0.21809058896E+04  0.50400001928E-02 0.  1.
    10030    2    1    2    0    0  0.00000000000E+00  0.00000000000E+00 -0.87918213963E+03  0.34826296395E+04  0.33698290715E+04 0.  0.
        1    1    3    3  502    0 -0.91480370026E+03 -0.77316516748E+03 -0.16642843278E+04  0.20504859204E+04  0.50400001928E-02 0.  1.
       -1    1    3    3    0  502  0.91480370026E+03  0.77316516748E+03  0.78510218812E+03  0.14321437191E+04  0.50400001928E-02 0. -1.
</event>
<event>
 5   0  0.4272633E-07  0.2750218E+04  0.7818609E-02  0.8318893E-01
       -1   -1    0    0    0  501  0.00000000000E+00  0.00000000000E+00  0.10013500444E+04  0.10013500444E+04  0.50400001928E-02 0.  1.
        1   -1    0    0  501    0  0.00000000000E+00  0.00000000000E+00 -0.18883751006E+04  0.18883751006E+04  0.50400001928E-02 0. -1.
    10030    2    1    2    0    0  0.00000000000E+00  0.00000000000E+00 -0.88702505619E+03  0.28897251450E+04  0.27502178029E+04 0.  0.
        1    1    3    3  502    0 -0.74685522274E+03 -0.11163015881E+04 -0.75343665944E+03  0.15399963504E+04  0.50400001928E-02 0.  1.
       -1    1    3    3    0  502  0.74685522274E+03  0.11163015881E+04 -0.13358839675E+03  0.13497287947E+04  0.50400001928E-02 0. -1.
</event>
<event>
 5   0  0.1277635E-06  0.3405696E+04  0.7818609E-02  0.8136510E-01
        2   -1    0    0  501    0  0.00000000000E+00  0.00000000000E+00  0.25598370146E+04  0.25598370146E+04  0.25500000920E-02 0. -1.
       -2   -1    0    0    0  501  0.00000000000E+00  0.00000000000E+00 -0.11327643032E+04  0.11327643032E+04  0.25500000920E-02 0.  1.
    10030    2    1    2    0    0  0.00000000000E+00  0.00000000000E+00  0.14270727113E+04  0.36926013178E+04  0.34056964000E+04 0.  0.
        4    1    3    3  502    0 -0.92661594175E+03  0.68387793763E+03 -0.64647923891E+03  0.13206979807E+04  0.12699999809E+01 0.  1.
       -4    1    3    3    0  502  0.92661594175E+03 -0.68387793763E+03  0.20735519503E+04  0.23719033371E+04  0.12699999809E+01 0. -1.
</event>
<event>
 5   0  0.1256208E-06  0.3344399E+04  0.7818609E-02  0.8151689E-01
        2   -1    0    0  501    0  0.00000000000E+00  0.00000000000E+00  0.20920771283E+04  0.20920771283E+04  0.25500000920E-02 0. -1.
       -2   -1    0    0    0  501  0.00000000000E+00  0.00000000000E+00 -0.13365907453E+04  0.13365907453E+04  0.25500000920E-02 0.  1.
    10030    2    1    2    0    0  0.00000000000E+00  0.00000000000E+00  0.75548638296E+03  0.34286678736E+04  0.33443988567E+04 0.  0.
        3    1    3    3  502    0  0.12516746465E+04  0.20820080786E+03 -0.73883427733E+03  0.14683027946E+04  0.10100000352E+00 0.  1.
       -3    1    3    3    0  502 -0.12516746465E+04 -0.20820080786E+03  0.14943206603E+04  0.19603650790E+04  0.10100000352E+00 0. -1.
</event>
<event>
 5   0  0.1269497E-06  0.3038199E+04  0.7818609E-02  0.8232906E-01
       -2   -1    0    0    0  501  0.00000000000E+00  0.00000000000E+00  0.19596096656E+04  0.19596096656E+04  0.25500000920E-02 0.  1.
        2   -1    0    0  501    0  0.00000000000E+00  0.00000000000E+00 -0.11776140595E+04  0.11776140595E+04  0.25500000920E-02 0. -1.
    10030    2    1    2    0    0  0.00000000000E+00  0.00000000000E+00  0.78199560613E+03  0.31372237251E+04  0.30381993966E+04 0.  0.
        5    1    3    3  502    0 -0.11567438141E+04 -0.98188993913E+03  0.31457405817E+03  0.15495622066E+04  0.46999998093E+01 0. -1.
       -5    1    3    3    0  502  0.11567438141E+04  0.98188993913E+03  0.46742154797E+03  0.15876615185E+04  0.46999998093E+01 0.  1.
</event>
<event>
 5   0  0.1256208E-06  0.3074825E+04  0.7818609E-02  0.8222681E-01
       -2   -1    0    0    0  501  0.00000000000E+00  0.00000000000E+00  0.23243434064E+04  0.23243434064E+04  0.25500000920E-02 0.  1.
        2   -1    0    0  501    0  0.00000000000E+00  0.00000000000E+00 -0.10169053903E+04  0.10169053903E+04  0.25500000920E-02 0. -1.
    10030    2    1    2    0    0  0.00000000000E+00  0.00000000000E+00  0.13074380161E+04  0.33412487967E+04  0.30748250935E+04 0.  0.
        3    1    3    3  502    0  0.29251097230E+03  0.14491087225E+04  0.11123799495E+04  0.18500994353E+04  0.10100000352E+00 0.  1.
       -3    1    3    3    0  502 -0.29251097230E+03 -0.14491087225E+04  0.19505806656E+03  0.14911493614E+04  0.10100000352E+00 0. -1.
</event>
<event>
 5   0  0.4109937E-07  0.3365494E+04  0.7818609E-02  0.8146428E-01
       -1   -1    0    0    0  501  0.00000000000E+00  0.00000000000E+00  0.14061516446E+04  0.14061516446E+04  0.50400001928E-02 0. -1.
        1   -1    0    0  501    0  0.00000000000E+00  0.00000000000E+00 -0.20137492045E+04  0.20137492045E+04  0.50400001928E-02 0.  1.
    10030    2    1    2    0    0  0.00000000000E+00  0.00000000000E+00 -0.60759755998E+03  0.34199008491E+04  0.33654935779E+04 0.  0.
        5    1    3    3  502    0  0.28262924701E+03 -0.12307621491E+04 -0.14339656197E+04  0.19107418055E+04  0.46999998093E+01 0.  1.
       -5    1    3    3    0  502 -0.28262924701E+03  0.12307621491E+04  0.82636805971E+03  0.15091590436E+04  0.46999998093E+01 0. -1.
</event>
<event>
 5   0  0.1269497E-06  0.3438624E+04  0.7818609E-02  0.8128491E-01
        2   -1    0    0  501    0  0.00000000000E+00  0.00000000000E+00  0.22683963021E+04  0.22683963021E+04  0.25500000920E-02 0. -1.
       -2   -1    0    0    0  501  0.00000000000E+00  0.00000000000E+00 -0.13031377719E+04  0.13031377719E+04  0.25500000920E-02 0.  1.
    10030    2    1    2    0    0  0.00000000000E+00  0.00000000000E+00  0.96525853024E+03  0.35715340740E+04  0.34386235053E+04 0.  0.
        5    1    3    3  502    0 -0.70560987614E+02 -0.15362015825E+04  0.12811878250E+04  0.20015889908E+04  0.46999998093E+01 0. -1.
       -5    1    3    3    0  502  0.70560987614E+02  0.15362015825E+04 -0.31592929476E+03  0.15699450832E+04  0.46999998093E+01 0.  1.
</event>
<event>
 5   0  0.1268230E-06  0.3389203E+04  0.7818609E-02  0.8140561E-01
        2   -1    0    0  501    0  0.00000000000E+00  0.00000000000E+00  0.21404033240E+04  0.21404033240E+04  0.25500000920E-02 0.  1.
       -2   -1    0    0    0  501  0.00000000000E+00  0.00000000000E+00 -0.13416508905E+04  0.13416508905E+04  0.25500000920E-02 0. -1.
    10030    2    1    2    0    0  0.00000000000E+00  0.00000000000E+00  0.79875243344E+03  0.34820542145E+04  0.33892028713E+04 0.  0.
        2    1    3    3  502    0  0.10305614876E+04 -0.11472117151E+04  0.11211338161E+04  0.19065919157E+04  0.25500000920E-02 0.  1.
       -2    1    3    3    0  502 -0.10305614876E+04  0.11472117151E+04 -0.32238138269E+03  0.15754622988E+04  0.25500000920E-02 0. -1.
</event>
<event>
 5   0  0.1269497E-06  0.3428410E+04  0.7818609E-02  0.8130969E-01
       -2   -1    0    0    0  501  0.00000000000E+00  0.00000000000E+00  0.13984960384E+04  0.13984960384E+04  0.25500000920E-02 0. -1.
        2   -1    0    0  501    0  0.00000000000E+00  0.00000000000E+00 -0.21011848926E+04  0.21011848926E+04  0.25500000920E-02 0.  1.
    10030    2    1    2    0    0  0.00000000000E+00  0.00000000000E+00 -0.70268885419E+03  0.34996809310E+04  0.34284099803E+04 0.  0.
        5    1    3    3  502    0  0.72767971570E+03  0.14078327740E+04 -0.10183542504E+04  0.18837670656E+04  0.46999998093E+01 0.  1.
       -5    1    3    3    0  502 -0.72767971570E+03 -0.14078327740E+04  0.31566539617E+03  0.16159138654E+04  0.46999998093E+01 0. -1.
</event>
<event>
 5   0  0.4272633E-07  0.3446352E+04  0.7818609E-02  0.8126623E-01
        1   -1    0    0  501    0  0.00000000000E+00  0.00000000000E+00  0.14621813808E+04  0.14621813808E+04  0.50400001928E-02 0. -1.
       -1   -1    0    0    0  501  0.00000000000E+00  0.00000000000E+00 -0.20307569705E+04  0.20307569705E+04  0.50400001928E-02 0.  1.
    10030    2    1    2    0    0  0.00000000000E+00  0.00000000000E+00 -0.56857558969E+03  0.34929383514E+04  0.34463517124E+04 0.  0.
        1    1    3    3  502    0 -0.50747346690E+03 -0.15603351626E+04 -0.81786407597E+03  0.18333239719E+04  0.50400001928E-02 0.  1.
       -1    1    3    3    0  502  0.50747346690E+03  0.15603351626E+04  0.24928848627E+03  0.16596143795E+04  0.50400001928E-02 0. -1.
</event>
<event>
 5   0  0.1268230E-06  0.2888610E+04  0.7818609E-02  0.8276275E-01
        2   -1    0    0  501    0  0.00000000000E+00  0.00000000000E+00  0.98287572928E+03  0.98287572928E+03  0.25500000920E-02 0. -1.
       -2   -1    0    0    0  501  0.00000000000E+00  0.00000000000E+00 -0.21223602014E+04  0.21223602014E+04  0.25500000920E-02 0.  1.
    10030    2    1    2    0    0  0.00000000000E+00  0.00000000000E+00 -0.11394844722E+04  0.31052359307E+04  0.28886095830E+04 0.  0.
        2    1    3    3  502    0 -0.56731204933E+02  0.11332573426E+04  0.39087462053E+03  0.12001139959E+04  0.25500000920E-02 0. -1.
       -2    1    3    3    0  502  0.56731204933E+02 -0.11332573426E+04 -0.15303590927E+04  0.19051219349E+04  0.25500000920E-02 0.  1.
</event>
<event>
 5   0  0.4109937E-07  0.3424545E+04  0.7818609E-02  0.8131908E-01
       -1   -1    0    0    0  501  0.00000000000E+00  0.00000000000E+00  0.14811171846E+04  0.14811171846E+04  0.50400001928E-02 0.  1.
        1   -1    0    0  501    0  0.00000000000E+00  0.00000000000E+00 -0.19795035222E+04  0.19795035222E+04  0.50400001928E-02 0. -1.
    10030    2    1    2    0    0  0.00000000000E+00  0.00000000000E+00 -0.49838633757E+03  0.34606207068E+04  0.34245447486E+04 0.  0.
        5    1    3    3  502    0 -0.10781551693E+04  0.72186430490E+03  0.87987192975E+03  0.15677063968E+04  0.46999998093E+01 0.  1.
       -5    1    3    3    0  502  0.10781551693E+04 -0.72186430490E+03 -0.13782582673E+04  0.18929143100E+04  0.46999998093E+01 0. -1.
</event>
<event>
 5   0  0.4464951E-07  0.3391091E+04  0.7818609E-02  0.8140096E-01
        1   -1    0    0  501    0  0.00000000000E+00  0.00000000000E+00  0.14272787129E+04  0.14272787129E+04  0.50400001928E-02 0. -1.
       -1   -1    0    0    0  501  0.00000000000E+00  0.00000000000E+00 -0.20142354137E+04  0.20142354137E+04  0.50400001928E-02 0.  1.
    10030    2    1    2    0    0  0.00000000000E+00  0.00000000000E+00 -0.58695670078E+03  0.34415141266E+04  0.33910914637E+04 0.  0.
        3    1    3    3  502    0  0.67622208439E+03 -0.13142891301E+04 -0.11366404719E+04  0.18645599474E+04  0.10100000352E+00 0.  1.
       -3    1    3    3    0  502 -0.67622208439E+03  0.13142891301E+04  0.54968377114E+03  0.15769541792E+04  0.10100000352E+00 0. -1.
</event>
<event>
 5   0  0.1277635E-06  0.3407998E+04  0.7818609E-02  0.8135946E-01
       -2   -1    0    0    0  501  0.00000000000E+00  0.00000000000E+00  0.22799948859E+04  0.22799948859E+04  0.25500000920E-02 0.  1.
        2   -1    0    0  501    0  0.00000000000E+00  0.00000000000E+00 -0.12735173532E+04  0.12735173532E+04  0.25500000920E-02 0. -1.
    10030    2    1    2    0    0  0.00000000000E+00  0.00000000000E+00  0.10064775327E+04  0.35535122391E+04  0.34079982702E+04 0.  0.
        4    1    3    3  502    0 -0.40019226946E+03 -0.20355251109E+03 -0.12107305702E+04  0.12913007410E+04  0.12699999809E+01 0. -1.
       -4    1    3    3    0  502  0.40019226946E+03  0.20355251109E+03  0.22172081029E+04  0.22622114981E+04  0.12699999809E+01 0.  1.
</event>
<event>
 5   0  0.4109937E-07  0.3403751E+04  0.7818609E-02  0.8136986E-01
       -1   -1    0    0    0  501  0.00000000000E+00  0.00000000000E+00  0.15321694363E+04  0.15321694363E+04  0.50400001928E-02 0.  1.
        1   -1    0    0  501    0  0.00000000000E+00  0.00000000000E+00 -0.18903789328E+04  0.18903789328E+04  0.50400001928E-02 0. -1.
    10030    2    1    2    0    0  0.00000000000E+00  0.00000000000E+00 -0.35820949653E+03  0.34225483691E+04  0.34037513563E+04 0.  0.
        5    1    3    3  502    0  0.87082774410E+03 -0.14459806220E+04  0.39252998207E+02  0.16884205065E+04  0.46999998093E+01 0.  1.
       -5    1    3    3    0  502 -0.87082774410E+03  0.14459806220E+04 -0.39746249474E+03  0.17341278626E+04  0.46999998093E+01 0. -1.
</event>
<event>
 5   0  0.4272633E-07  0.3424374E+04  0.7818609E-02  0.8131950E-01
        1   -1    0    0  501    0  0.00000000000E+00  0.00000000000E+00  0.13047310900E+04  0.13047310900E+04  0.50400001928E-02 0. -1.
       -1   -1    0    0    0  501  0.00000000000E+00  0.00000000000E+00 -0.22468881622E+04  0.22468881622E+04  0.50400001928E-02 0.  1.
    10030    2    1    2    0    0  0.00000000000E+00  0.00000000000E+00 -0.94215707220E+03  0.35516192522E+04  0.34243743025E+04 0.  0.
        1    1    3    3  502    0 -0.35514018819E+03  0.11428576141E+04  0.79889527987E+03  0.14389168661E+04  0.50400001928E-02 0. -1.
       -1    1    3    3    0  502  0.35514018819E+03 -0.11428576141E+04 -0.17410523521E+04  0.21127023860E+04  0.50400001928E-02 0.  1.
</event>
<event>
 5   0  0.4109937E-07  0.3506274E+04  0.7818609E-02  0.8112305E-01
        1   -1    0    0  501    0  0.00000000000E+00  0.00000000000E+00  0.23499960771E+04  0.23499960771E+04  0.50400001928E-02 0. -1.
       -1   -1    0    0    0  501  0.00000000000E+00  0.00000000000E+00 -0.13078697628E+04  0.13078697628E+04  0.50400001928E-02 0.  1.
    10030    2    1    2    0    0  0.00000000000E+00  0.00000000000E+00  0.10421263143E+04  0.36578658399E+04  0.35062736984E+04 0.  0.
        5    1    3    3  502    0 -0.10435171961E+04  0.20126413016E+03 -0.93350336933E+03  0.14145267828E+04  0.46999998093E+01 0.  1.
       -5    1    3    3    0  502  0.10435171961E+04 -0.20126413016E+03  0.19756296836E+04  0.22433390572E+04  0.46999998093E+01 0. -1.
</event>
<event>
 5   0  0.1269497E-06  0.3345434E+04  0.7818609E-02  0.8151430E-01
        2   -1    0    0  501    0  0.00000000000E+00  0.00000000000E+00  0.16520721101E+04  0.16520721101E+04  0.25500000920E-02 0. -1.
       -2   -1    0    0    0  501  0.00000000000E+00  0.00000000000E+00 -0.16936199802E+04  0.16936199802E+04  0.25500000920E-02 0.  1.
    10030    2    1    2    0    0  0.00000000000E+00  0.00000000000E+00 -0.41547870131E+02  0.33456920903E+04  0.33454341030E+04 0.  0.
        5    1    3    3  502    0 -0.80103870285E+03  0.14676828363E+04  0.26180008726E+02  0.16722629561E+04  0.46999998093E+01 0. -1.
       -5    1    3    3    0  502  0.80103870285E+03 -0.14676828363E+04 -0.67727878857E+02  0.16734291342E+04  0.46999998093E+01 0.  1.
</event>
<event>
 5   0  0.4272633E-07  0.3449928E+04  0.7818609E-02  0.8125760E-01
        1   -1    0    0  501    0  0.00000000000E+00  0.00000000000E+00  0.19926409047E+04  0.19926409047E+04  0.50400001928E-02 0. -1.
       -1   -1    0    0    0  501  0.00000000000E+00  0.00000000000E+00 -0.14932448514E+04  0.14932448514E+04  0.50400001928E-02 0.  1.
    10030    2    1    2    0    0  0.00000000000E+00  0.00000000000E+00  0.49939605335E+03  0.34858857561E+04  0.34499279828E+04 0.  0.
        1    1    3    3  502    0 -0.42189003465E+03 -0.12432298177E+04 -0.88084231801E+03  0.15809790543E+04  0.50400001928E-02 0.  1.
       -1    1    3    3    0  502  0.42189003465E+03  0.12432298177E+04  0.13802383714E+04  0.19049067018E+04  0.50400001928E-02 0. -1.
</event>
<event>
 5   0  0.4060750E-07  0.3365939E+04  0.7818609E-02  0.8146317E-01
       -3   -1    0    0    0  501  0.00000000000E+00  0.00000000000E+00  0.23760170232E+04  0.23760170254E+04  0.10100000352E+00 0. -1.
        3   -1    0    0  501    0  0.00000000000E+00  0.00000000000E+00 -0.11920732234E+04  0.11920732277E+04  0.10100000352E+00 0.  1.
    10030    2    1    2    0    0  0.00000000000E+00  0.00000000000E+00  0.11839437998E+04  0.35680902530E+04  0.33659389674E+04 0.  0.
        3    1    3    3  502    0  0.20987531674E+03 -0.13671906703E+04 -0.42431812342E+03  0.14468254413E+04  0.10100000352E+00 0.  1.
       -3    1    3    3    0  502 -0.20987531674E+03  0.13671906703E+04  0.16082619232E+04  0.21212648117E+04  0.10100000352E+00 0. -1.
</event>
<event>
 5   0  0.1269497E-06  0.3384941E+04  0.7818609E-02  0.8141612E-01
       -2   -1    0    0    0  501  0.00000000000E+00  0.00000000000E+00  0.14800325974E+04  0.14800325974E+04  0.25500000920E-02 0.  1.
        2   -1    0    0  501    0  0.00000000000E+00  0.00000000000E+00 -0.19354012540E+04  0.19354012540E+04  0.25500000920E-02 0. -1.
    10030    2    1    2    0    0  0.00000000000E+00  0.00000000000E+00 -0.45536865657E+03  0.34154338514E+04  0.33849413259E+04 0.  0.
        5    1    3    3  502    0 -0.26242326507E+03 -0.16272304860E+04  0.16008194185E+03  0.16560173135E+04  0.46999998093E+01 0. -1.
       -5    1    3    3    0  502  0.26242326507E+03  0.16272304860E+04 -0.61545059841E+03  0.17594165379E+04  0.46999998093E+01 0.  1.
</event>
<event>
 5   0  0.4109937E-07  0.3363517E+04  0.7818609E-02  0.8146919E-01
       -1   -1    0    0    0  501  0.00000000000E+00  0.00000000000E+00  0.12403835578E+04  0.12403835578E+04  0.50400001928E-02 0. -1.
        1   -1    0    0  501    0  0.00000000000E+00  0.00000000000E+00 -0.22801918333E+04  0.22801918333E+04  0.50400001928E-02 0.  1.
    10030    2    1    2    0    0  0.00000000000E+00  0.00000000000E+00 -0.10398082756E+04  0.35205753911E+04  0.33635174794E+04 0.  0.
        5    1    3    3  502    0 -0.90784317946E+03 -0.13299388606E+04 -0.10277114846E+04  0.19102695090E+04  0.46999998093E+01 0.  1.
       -5    1    3    3    0  502  0.90784317946E+03  0.13299388606E+04 -0.12096791022E+02  0.16103058821E+04  0.46999998093E+01 0. -1.
</event>
<event>
 5   0  0.1277635E-06  0.3387475E+04  0.7818609E-02  0.8140987E-01
       -2   -1    0    0    0  501  0.00000000000E+00  0.00000000000E+00  0.10424997329E+04  0.10424997329E+04  0.25500000920E-02 0. -1.
        2   -1    0    0  501    0  0.00000000000E+00  0.00000000000E+00 -0.27517960837E+04  0.27517960837E+04  0.25500000920E-02 0.  1.
    10030    2    1    2    0    0  0.00000000000E+00  0.00000000000E+00 -0.17092963508E+04  0.37942958166E+04  0.33874749783E+04 0.  0.
        4    1    3    3  502    0 -0.15893248265E+04  0.54361545449E+03 -0.61111068883E+03  0.17874364474E+04  0.12699999809E+01 0. -1.
       -4    1    3    3    0  502  0.15893248265E+04 -0.54361545449E+03 -0.10981856620E+04  0.20068593692E+04  0.12699999809E+01 0.  1.
</event>
<event>
 5   0  0.4289684E-07  0.3404290E+04  0.7818609E-02  0.8136854E-01
       -1   -1    0    0    0  501  0.00000000000E+00  0.00000000000E+00  0.22741531224E+04  0.22741531225E+04  0.50400001928E-02 0.  1.
        1   -1    0    0  501    0  0.00000000000E+00  0.00000000000E+00 -0.12740118279E+04  0.12740118280E+04  0.50400001928E-02 0. -1.
    10030    2    1    2    0    0  0.00000000000E+00  0.00000000000E+00  0.10001412945E+04  0.35481649504E+04  0.34042902206E+04 0.  0.
        4    1    3    3  502    0  0.26703663696E+03  0.87871018985E+03 -0.99362543197E+03  0.13530459250E+04  0.12699999809E+01 0. -1.
       -4    1    3    3    0  502 -0.26703663696E+03 -0.87871018985E+03  0.19937667265E+04  0.21951190254E+04  0.12699999809E+01 0.  1.
</event>
<event>
 5   0  0.4125758E-07  0.3342368E+04  0.7818609E-02  0.8152198E-01
        1   -1    0    0  501    0  0.00000000000E+00  0.00000000000E+00  0.19691907351E+04  0.19691907351E+04  0.50400001928E-02 0. -1.
       -1   -1    0    0    0  501  0.00000000000E+00  0.00000000000E+00 -0.14182761493E+04  0.14182761493E+04  0.50400001928E-02 0.  1.
    10030    2    1    2    0    0  0.00000000000E+00  0.00000000000E+00  0.55091458571E+03  0.33874668844E+04  0.33423681742E+04 0.  0.
        2    1    3    3  502    0 -0.14425810612E+04  0.81519631848E+03  0.49581011261E+03  0.17295701268E+04  0.25500000920E-02 0.  1.
       -2    1    3    3    0  502  0.14425810612E+04 -0.81519631848E+03  0.55104473103E+02  0.16578967576E+04  0.25500000920E-02 0. -1.
</event>
<event>
 5   0  0.4464951E-07  0.3389458E+04  0.7818609E-02  0.8140499E-01
       -1   -1    0    0    0  501  0.00000000000E+00  0.00000000000E+00  0.10660306712E+04  0.10660306712E+04  0.50400001928E-02 0. -1.
        1   -1    0    0  501    0  0.00000000000E+00  0.00000000000E+00 -0.26942060158E+04  0.26942060158E+04  0.50400001928E-02 0.  1.
    10030    2    1    2    0    0  0.00000000000E+00  0.00000000000E+00 -0.16281753447E+04  0.37602366870E+04  0.33894579197E+04 0.  0.
        3    1    3    3  502    0 -0.10693278537E+04 -0.38625630585E+03 -0.22083288676E+04  0.24838221333E+04  0.10100000352E+00 0.  1.
       -3    1    3    3    0  502  0.10693278537E+04  0.38625630585E+03  0.58015352293E+03  0.12764145537E+04  0.10100000352E+00 0. -1.
</event>
<event>
 5   0  0.1256208E-06  0.3369376E+04  0.7818609E-02  0.8145464E-01
       -2   -1    0    0    0  501  0.00000000000E+00  0.00000000000E+00  0.13411263961E+04  0.13411263961E+04  0.25500000920E-02 0.  1.
        2   -1    0    0  501    0  0.00000000000E+00  0.00000000000E+00 -0.21162610314E+04  0.21162610314E+04  0.25500000920E-02 0. -1.
    10030    2    1    2    0    0  0.00000000000E+00  0.00000000000E+00 -0.77513463534E+03  0.34573874275E+04  0.33693759246E+04 0.  0.
        3    1    3    3  502    0 -0.97132842937E+03  0.47144769781E+03 -0.17145729666E+04  0.20262039180E+04  0.10100000352E+00 0. -1.
       -3    1    3    3    0  502  0.97132842937E+03 -0.47144769781E+03  0.93943833124E+03  0.14311835095E+04  0.10100000352E+00 0.  1.
</event>
<event>
 5   0  0.4125758E-07  0.3424668E+04  0.7818609E-02  0.8131878E-01
        1   -1    0    0  501    0  0.00000000000E+00  0.00000000000E+00  0.17531972180E+04  0.17531972180E+04  0.50400001928E-02 0. -1.
       -1   -1    0    0    0  501  0.00000000000E+00  0.00000000000E+00 -0.16724233275E+04  0.16724233275E+04  0.50400001928E-02 0.  1.
    10030    2    1    2    0    0  0.00000000000E+00  0.00000000000E+00  0.80773890462E+02  0.34256205455E+04  0.34246681154E+04 0.  0.
        2    1    3    3  502    0  0.66142788453E+03 -0.12823129369E+03 -0.15342674297E+04  0.16756809532E+04  0.25500000920E-02 0.  1.
       -2    1    3    3    0  502 -0.66142788453E+03  0.12823129369E+03  0.16150413201E+04  0.17499395923E+04  0.25500000920E-02 0. -1.
</event>
<event>
 5   0  0.4125758E-07  0.3368297E+04  0.7818609E-02  0.8145731E-01
        1   -1    0    0  501    0  0.00000000000E+00  0.00000000000E+00  0.19644202719E+04  0.19644202719E+04  0.50400001928E-02 0. -1.
       -1   -1    0    0    0  501  0.00000000000E+00  0.00000000000E+00 -0.14438643828E+04  0.14438643828E+04  0.50400001928E-02 0.  1.
    10030    2    1    2    0    0  0.00000000000E+00  0.00000000000E+00  0.52055588914E+03  0.34082846547E+04  0.33682971742E+04 0.  0.
        2    1    3    3  502    0  0.12104659749E+04  0.11120158280E+04 -0.11088645763E+03  0.16474534545E+04  0.25500000920E-02 0.  1.
       -2    1    3    3    0  502 -0.12104659749E+04 -0.11120158280E+04  0.63144234678E+03  0.17608312002E+04  0.25500000920E-02 0. -1.
</event>
<event>
 5   0  0.1269497E-06  0.3405857E+04  0.7818609E-02  0.8136470E-01
        2   -1    0    0  501    0  0.00000000000E+00  0.00000000000E+00  0.23658514082E+04  0.23658514082E+04  0.25500000920E-02 0.  1.
       -2   -1    0    0    0  501  0.00000000000E+00  0.00000000000E+00 -0.12257596379E+04  0.12257596379E+04  0.25500000920E-02 0. -1.
    10030    2    1    2    0    0  0.00000000000E+00  0.00000000000E+00  0.11400917703E+04  0.35916110461E+04  0.34058568176E+04 0.  0.
        5    1    3    3  502    0  0.12731585017E+04  0.97512519117E+03 -0.34032649187E+02  0.16040517511E+04  0.46999998093E+01 0.  1.
       -5    1    3    3    0  502 -0.12731585017E+04 -0.97512519117E+03  0.11741244195E+04  0.19875592950E+04  0.46999998093E+01 0. -1.
</event>
<event>
 5   0  0.1277635E-06  0.3412894E+04  0.7818609E-02  0.8134749E-01
       -2   -1    0    0    0  501  0.00000000000E+00  0.00000000000E+00  0.14651578914E+04  0.14651578914E+04  0.25500000920E-02 0.  1.
        2   -1    0    0  501    0  0.00000000000E+00  0.00000000000E+00 -0.19874733094E+04  0.19874733094E+04  0.25500000920E-02 0. -1.
    10030    2    1    2    0    0  0.00000000000E+00  0.00000000000E+00 -0.52231541799E+03  0.34526312009E+04  0.34128944920E+04 0.  0.
        4    1    3    3  502    0  0.33337162840E+03  0.13934727636E+04 -0.11988027731E+04  0.18681629178E+04  0.12699999809E+01 0. -1.
       -4    1    3    3    0  502 -0.33337162840E+03 -0.13934727636E+04  0.67648735509E+03  0.15844682831E+04  0.12699999809E+01 0.  1.
</event>
<event>
 5   0  0.4125758E-07  0.3365048E+04  0.7818609E-02  0.8146538E-01
        1   -1    0    0  501    0  0.00000000000E+00  0.00000000000E+00  0.15689656731E+04  0.15689656731E+04  0.50400001928E-02 0. -1.
       -1   -1    0    0    0  501  0.00000000000E+00  0.00000000000E+00 -0.18043017059E+04  0.18043017059E+04  0.50400001928E-02 0.  1.
    10030    2    1    2    0    0  0.00000000000E+00  0.00000000000E+00 -0.23533603278E+03  0.33732673790E+04  0.33650482555E+04 0.  0.
        2    1    3    3  502    0 -0.15312439390E+04 -0.34680618691E+03  0.48871019495E+03  0.16443297074E+04  0.25500000920E-02 0. -1.
       -2    1    3    3    0  502  0.15312439390E+04  0.34680618691E+03 -0.72404622773E+03  0.17289376715E+04  0.25500000920E-02 0.  1.
</event>
<event>
 5   0  0.4464951E-07  0.3354085E+04  0.7818609E-02  0.8149268E-01
        1   -1    0    0  501    0  0.00000000000E+00  0.00000000000E+00  0.80500496604E+03  0.80500496605E+03  0.50400001928E-02 0.  1.
       -1   -1    0    0    0  501  0.00000000000E+00  0.00000000000E+00 -0.34937323928E+04  0.34937323928E+04  0.50400001928E-02 0. -1.
    10030    2    1    2    0    0  0.00000000000E+00  0.00000000000E+00 -0.26887274268E+04  0.42987373588E+04  0.33540852263E+04 0.  0.
        3    1    3    3  502    0 -0.12326615726E+04 -0.65073652261E+03 -0.25394972424E+04  0.28968877833E+04  0.10100000352E+00 0. -1.
       -3    1    3    3    0  502  0.12326615726E+04  0.65073652261E+03 -0.14923018433E+03  0.14018495756E+04  0.10100000352E+00 0.  1.
</event>
<event>
 5   0  0.4109937E-07  0.3342811E+04  0.7818609E-02  0.8152087E-01
       -1   -1    0    0    0  501  0.00000000000E+00  0.00000000000E+00  0.12859544580E+04  0.12859544580E+04  0.50400001928E-02 0. -1.
        1   -1    0    0  501    0  0.00000000000E+00  0.00000000000E+00 -0.21723908896E+04  0.21723908896E+04  0.50400001928E-02 0.  1.
    10030    2    1    2    0    0  0.00000000000E+00  0.00000000000E+00 -0.88643643159E+03  0.34583453476E+04  0.33428106432E+04 0.  0.
        5    1    3    3  502    0  0.34550249952E+03 -0.16122973652E+04 -0.16046102901E+03  0.16566968952E+04  0.46999998093E+01 0.  1.
       -5    1    3    3    0  502 -0.34550249952E+03  0.16122973652E+04 -0.72597540258E+03  0.18016484524E+04  0.46999998093E+01 0. -1.
</event>
<event>
 5   0  0.1268230E-06  0.3495063E+04  0.7818609E-02  0.8114961E-01
       -2   -1    0    0    0  501  0.00000000000E+00  0.00000000000E+00  0.13222202466E+04  0.13222202466E+04  0.25500000920E-02 0. -1.
        2   -1    0    0  501    0  0.00000000000E+00  0.00000000000E+00 -0.23096502930E+04  0.23096502930E+04  0.25500000920E-02 0.  1.
    10030    2    1    2    0    0  0.00000000000E+00  0.00000000000E+00 -0.98743004640E+03  0.36318705396E+04  0.34950630209E+04 0.  0.
        2    1    3    3  502    0  0.78098459535E+03  0.15343947802E+04 -0.18273142551E+03  0.17313852990E+04  0.25500000920E-02 0.  1.
       -2    1    3    3    0  502 -0.78098459535E+03 -0.15343947802E+04 -0.80469862089E+03  0.19004852407E+04  0.25500000920E-02 0. -1.
</event>
<event>
 5   0  0.4272633E-07  0.3393811E+04  0.7818609E-02  0.8139427E-01
       -1   -1    0    0    0  501  0.00000000000E+00  0.00000000000E+00  0.12282039055E+04  0.12282039055E+04  0.50400001928E-02 0.  1.
        1   -1    0    0  501    0  0.00000000000E+00  0.00000000000E+00 -0.23444710099E+04  0.23444710099E+04  0.50400001928E-02 0. -1.
    10030    2    1    2    0    0  0.00000000000E+00  0.00000000000E+00 -0.11162671044E+04  0.35726749154E+04  0.33938111030E+04 0.  0.
        1    1    3    3  502    0 -0.16302059203E+04  0.39258854407E+03 -0.83222340252E+03  0.18719756674E+04  0.50400001928E-02 0.  1.
       -1    1    3    3    0  502  0.16302059203E+04 -0.39258854407E+03 -0.28404370193E+03  0.17006992480E+04  0.50400001928E-02 0. -1.
</event>
<event>
 5   0  0.1269497E-06  0.2788886E+04  0.7818609E-02  0.8306727E-01
        2   -1    0    0  501    0  0.00000000000E+00  0.00000000000E+00  0.24485133015E+04  0.24485133015E+04  0.25500000920E-02 0. -1.
       -2   -1    0    0    0  501  0.00000000000E+00  0.00000000000E+00 -0.79414375725E+03  0.79414375725E+03  0.25500000920E-02 0.  1.
    10030    2    1    2    0    0  0.00000000000E+00  0.00000000000E+00  0.16543695443E+04  0.32426570588E+04  0.27888861956E+04 0.  0.
        5    1    3    3  502    0 -0.45618201184E+03  0.34751429022E+02  0.23587569209E+04  0.24027205397E+04  0.46999998093E+01 0. -1.
       -5    1    3    3    0  502  0.45618201184E+03 -0.34751429022E+02 -0.70438737665E+03  0.83993651911E+03  0.46999998093E+01 0.  1.
</event>
<event>
 5   0  0.4464951E-07  0.3353772E+04  0.7818609E-02  0.8149346E-01
        1   -1    0    0  501    0  0.00000000000E+00  0.00000000000E+00  0.18044662741E+04  0.18044662741E+04  0.50400001928E-02 0.  1.
       -1   -1    0    0    0  501  0.00000000000E+00  0.00000000000E+00 -0.15583263850E+04  0.15583263850E+04  0.50400001928E-02 0. -1.
    10030    2    1    2    0    0  0.00000000000E+00  0.00000000000E+00  0.24613988907E+03  0.33627926591E+04  0.33537724465E+04 0.  0.
        3    1    3    3  502    0  0.44425527576E+03 -0.43101278083E+03 -0.14395864895E+04  0.15670175616E+04  0.10100000352E+00 0. -1.
       -3    1    3    3    0  502 -0.44425527576E+03  0.43101278083E+03  0.16857263786E+04  0.17957750975E+04  0.10100000352E+00 0.  1.
</event>
<event>
 5   0  0.1268230E-06  0.3308573E+04  0.7818609E-02  0.8160717E-01
       -2   -1    0    0    0  501  0.00000000000E+00  0.00000000000E+00  0.13626335887E+04  0.13626335887E+04  0.25500000920E-02 0.  1.
        2   -1    0    0  501    0  0.00000000000E+00  0.00000000000E+00 -0.20083640096E+04  0.20083640096E+04  0.25500000920E-02 0. -1.
    10030    2    1    2    0    0  0.00000000000E+00  0.00000000000E+00 -0.64573042085E+03  0.33709975983E+04  0.33085732622E+04 0.  0.
        2    1    3    3  502    0 -0.69434797688E+03  0.38920892706E+03  0.11546898704E+04  0.14024661845E+04  0.25500000920E-02 0.  1.
       -2    1    3    3    0  502  0.69434797688E+03 -0.38920892706E+03 -0.18004202913E+04  0.19685314138E+04  0.25500000920E-02 0. -1.
</event>
<event>
 5   0  0.1269497E-06  0.3352506E+04  0.7818609E-02  0.8149662E-01
       -2   -1    0    0    0  501  0.00000000000E+00  0.00000000000E+00  0.15784965778E+04  0.15784965778E+04  0.25500000920E-02 0. -1.
        2   -1    0    0  501    0  0.00000000000E+00  0.00000000000E+00 -0.17800633020E+04  0.17800633020E+04  0.25500000920E-02 0.  1.
    10030    2    1    2    0    0  0.00000000000E+00  0.00000000000E+00 -0.20156672426E+03  0.33585598798E+04  0.33525058272E+04 0.  0.
        5    1    3    3  502    0  0.24977178310E+03  0.47157251306E+03 -0.16926888115E+04  0.17748194503E+04  0.46999998093E+01 0.  1.
       -5    1    3    3    0  502 -0.24977178310E+03 -0.47157251306E+03  0.14911220873E+04  0.15837404294E+04  0.46999998093E+01 0. -1.
</event>
<event>
 5   0  0.4272633E-07  0.3414543E+04  0.7818609E-02  0.8134346E-01
        1   -1    0    0  501    0  0.00000000000E+00  0.00000000000E+00  0.16539440255E+04  0.16539440256E+04  0.50400001928E-02 0. -1.
       -1   -1    0    0    0  501  0.00000000000E+00  0.00000000000E+00 -0.17623181719E+04  0.17623181719E+04  0.50400001928E-02 0.  1.
    10030    2    1    2    0    0  0.00000000000E+00  0.00000000000E+00 -0.10837414636E+03  0.34162621975E+04  0.34145427873E+04 0.  0.
        1    1    3    3  502    0 -0.12560208599E+04 -0.11528303279E+04 -0.14461757571E+03  0.17109998272E+04  0.50400001928E-02 0.  1.
       -1    1    3    3    0  502  0.12560208599E+04  0.11528303279E+04  0.36243429358E+02  0.17052623703E+04  0.50400001928E-02 0. -1.
</event>
<event>
 5   0  0.4289684E-07  0.3398020E+04  0.7818609E-02  0.8138392E-01
        1   -1    0    0  501    0  0.00000000000E+00  0.00000000000E+00  0.19695421563E+04  0.19695421563E+04  0.50400001928E-02 0.  1.
       -1   -1    0    0    0  501  0.00000000000E+00  0.00000000000E+00 -0.14656376832E+04  0.14656376832E+04  0.50400001928E-02 0. -1.
    10030    2    1    2    0    0  0.00000000000E+00  0.00000000000E+00  0.50390447314E+03  0.34351798395E+04  0.33980201312E+04 0.  0.
        4    1    3    3  502    0  0.74819381265E+03  0.14963849991E+04 -0.47379563152E+02  0.16736811174E+04  0.12699999809E+01 0. -1.
       -4    1    3    3    0  502 -0.74819381265E+03 -0.14963849991E+04  0.55128403629E+03  0.17614987222E+04  0.12699999809E+01 0.  1.
</event>
<event>
 5   0  0.1256208E-06  0.3336868E+04  0.7818609E-02  0.8153577E-01
       -2   -1    0    0    0  501  0.00000000000E+00  0.00000000000E+00  0.90500536782E+03  0.90500536782E+03  0.25500000920E-02 0. -1.
        2   -1    0    0  501    0  0.00000000000E+00  0.00000000000E+00 -0.30758631862E+04  0.30758631862E+04  0.25500000920E-02 0.  1.
    10030    2    1    2    0    0  0.00000000000E+00  0.00000000000E+00 -0.21708578184E+04  0.39808685540E+04  0.33368684087E+04 0.  0.
        3    1    3    3  502    0 -0.69448679642E+03  0.11890141594E+04 -0.22093838403E+04  0.26033523668E+04  0.10100000352E+00 0.  1.
       -3    1    3    3    0  502  0.69448679642E+03 -0.11890141594E+04  0.38526021930E+02  0.13775161872E+04  0.10100000352E+00 0. -1.
</event>
<event>
 5   0  0.4109937E-07  0.3412177E+04  0.7818609E-02  0.8134924E-01
        1   -1    0    0  501    0  0.00000000000E+00  0.00000000000E+00  0.21258312341E+04  0.21258312341E+04  0.50400001928E-02 0.  1.
       -1   -1    0    0    0  501  0.00000000000E+00  0.00000000000E+00 -0.13692237383E+04  0.13692237383E+04  0.50400001928E-02 0. -1.
    10030    2    1    2    0    0  0.00000000000E+00  0.00000000000E+00  0.75660749580E+03  0.34950549724E+04  0.34121773632E+04 0.  0.
        5    1    3    3  502    0 -0.10603042942E+04  0.49476190633E+03  0.16501066413E+04  0.20228466471E+04  0.46999998093E+01 0.  1.
       -5    1    3    3    0  502  0.10603042942E+04 -0.49476190633E+03 -0.89349914547E+03  0.14722083253E+04  0.46999998093E+01 0. -1.
</event>
<event>
 5   0  0.1300176E-06  0.3392051E+04  0.7818609E-02  0.8139860E-01
       -2   -1    0    0    0  501  0.00000000000E+00  0.00000000000E+00  0.20016370061E+04  0.20016370061E+04  0.25500000920E-02 0. -1.
        2   -1    0    0  501    0  0.00000000000E+00  0.00000000000E+00 -0.14370751051E+04  0.14370751051E+04  0.25500000920E-02 0.  1.
    10030    2    1    2    0    0  0.00000000000E+00  0.00000000000E+00  0.56456190099E+03  0.34387121113E+04  0.33920511264E+04 0.  0.
        1    1    3    3  502    0  0.15469287070E+04 -0.27163247658E+03 -0.36662589430E+03  0.16128196344E+04  0.50400001928E-02 0.  1.
       -1    1    3    3    0  502 -0.15469287070E+04  0.27163247658E+03  0.93118779529E+03  0.18258924768E+04  0.50400001928E-02 0. -1.
</event>
<event>
 5   0  0.4272633E-07  0.3386226E+04  0.7818609E-02  0.8141295E-01
       -1   -1    0    0    0  501  0.00000000000E+00  0.00000000000E+00  0.29230629075E+04  0.29230629075E+04  0.50400001928E-02 0. -1.
        1   -1    0    0  501    0  0.00000000000E+00  0.00000000000E+00 -0.98069441589E+03  0.98069441590E+03  0.50400001928E-02 0.  1.
    10030    2    1    2    0    0  0.00000000000E+00  0.00000000000E+00  0.19423684916E+04  0.39037573234E+04  0.33862259055E+04 0.  0.
        1    1    3    3  502    0  0.48422541563E+03  0.15079927899E+04  0.28129699715E+03  0.16086157118E+04  0.50400001928E-02 0.  1.
       -1    1    3    3    0  502 -0.48422541563E+03 -0.15079927899E+04  0.16610714945E+04  0.22951416116E+04  0.50400001928E-02 0. -1.
</event>
<event>
 5   0  0.1268230E-06  0.3368874E+04  0.7818609E-02  0.8145588E-01
       -2   -1    0    0    0  501  0.00000000000E+00  0.00000000000E+00  0.14117071674E+04  0.14117071674E+04  0.25500000920E-02 0.  1.
        2   -1    0    0  501    0  0.00000000000E+00  0.00000000000E+00 -0.20098562666E+04  0.20098562666E+04  0.25500000920E-02 0. -1.
    10030    2    1    2    0    0  0.00000000000E+00  0.00000000000E+00 -0.59814909921E+03  0.34215634341E+04  0.33688742910E+04 0.  0.
        2    1    3    3  502    0  0.91294196400E+03 -0.11833906133E+04 -0.10880458405E+04  0.18487076903E+04  0.25500000920E-02 0. -1.
       -2    1    3    3    0  502 -0.91294196400E+03  0.11833906133E+04  0.48989674125E+03  0.15728557437E+04  0.25500000920E-02 0.  1.
</event>
<event>
 5   0  0.4464951E-07  0.3321018E+04  0.7818609E-02  0.8157568E-01
       -1   -1    0    0    0  501  0.00000000000E+00  0.00000000000E+00  0.17735422147E+04  0.17735422148E+04  0.50400001928E-02 0.  1.
        1   -1    0    0  501    0  0.00000000000E+00  0.00000000000E+00 -0.15546797667E+04  0.15546797667E+04  0.50400001928E-02 0. -1.
    10030    2    1    2    0    0  0.00000000000E+00  0.00000000000E+00  0.21886244802E+03  0.33282219815E+04  0.33210180347E+04 0.  0.
        3    1    3    3  502    0  0.11612796957E+04  0.95282814604E+03 -0.59980313106E+03  0.16174720442E+04  0.10100000352E+00 0. -1.
       -3    1    3    3    0  502 -0.11612796957E+04 -0.95282814604E+03  0.81866557909E+03  0.17107499373E+04  0.10100000352E+00 0.  1.
</event>
<event>
 5   0  0.1277635E-06  0.3402680E+04  0.7818609E-02  0.8137249E-01
        2   -1    0    0  501    0  0.00000000000E+00  0.00000000000E+00  0.16548763892E+04  0.16548763892E+04  0.25500000920E-02 0.  1.
       -2   -1    0    0    0  501  0.00000000000E+00  0.00000000000E+00 -0.17491085672E+04  0.17491085672E+04  0.25500000920E-02 0. -1.
    10030    2    1    2    0    0  0.00000000000E+00  0.00000000000E+00 -0.94232177923E+02  0.34039849564E+04  0.34026803964E+04 0.  0.
        4    1    3    3  502    0  0.51761691717E+03  0.14662965937E+04 -0.73774580579E+03  0.17211111122E+04  0.12699999809E+01 0. -1.
       -4    1    3    3    0  502 -0.51761691717E+03 -0.14662965937E+04  0.64351362787E+03  0.16828738443E+04  0.12699999809E+01 0.  1.
</event>
<event>
 5   0  0.1300176E-06  0.3381797E+04  0.7818609E-02  0.8142388E-01
       -2   -1    0    0    0  501  0.00000000000E+00  0.00000000000E+00  0.15668807376E+04  0.15668807376E+04  0.25500000920E-02 0.  1.
        2   -1    0    0  501    0  0.00000000000E+00  0.00000000000E+00 -0.18247319814E+04  0.18247319814E+04  0.25500000920E-02 0. -1.
    10030    2    1    2    0    0  0.00000000000E+00  0.00000000000E+00 -0.25785124379E+03  0.33916127191E+04  0.33817967964E+04 0.  0.
        1    1    3    3  502    0  0.15446258647E+03 -0.95152248357E+03 -0.15221604167E+04  0.18017286315E+04  0.50400001928E-02 0. -1.
       -1    1    3    3    0  502 -0.15446258647E+03  0.95152248357E+03  0.12643091729E+04  0.15898840876E+04  0.50400001928E-02 0.  1.
</event>
<event>
 5   0  0.4464951E-07  0.3371566E+04  0.7818609E-02  0.8144921E-01
        1   -1    0    0  501    0  0.00000000000E+00  0.00000000000E+00  0.26718598278E+04  0.26718598278E+04  0.50400001928E-02 0.  1.
       -1   -1    0    0    0  501  0.00000000000E+00  0.00000000000E+00 -0.10636275204E+04  0.10636275204E+04  0.50400001928E-02 0. -1.
    10030    2    1    2    0    0  0.00000000000E+00  0.00000000000E+00  0.16082323074E+04  0.37354873482E+04  0.33715655969E+04 0.  0.
        3    1    3    3  502    0 -0.51132328149E+03  0.14886746574E+04  0.13543152825E+03  0.15798561463E+04  0.10100000352E+00 0.  1.
       -3    1    3    3    0  502  0.51132328149E+03 -0.14886746574E+04  0.14728007791E+04  0.21556312020E+04  0.10100000352E+00 0. -1.
</event>
<event>
 5   0  0.4109937E-07  0.3401773E+04  0.7818609E-02  0.8137471E-01
        1   -1    0    0  501    0  0.00000000000E+00  0.00000000000E+00  0.10360780056E+04  0.10360780056E+04  0.50400001928E-02 0.  1.
       -1   -1    0    0    0  501  0.00000000000E+00  0.00000000000E+00 -0.27922749791E+04  0.27922749791E+04  0.50400001928E-02 0. -1.
    10030    2    1    2    0    0  0.00000000000E+00  0.00000000000E+00 -0.17561969735E+04  0.38283529848E+04  0.34017728858E+04 0.  0.
        5    1    3    3  502    0  0.16347333153E+04  0.36816696833E+03 -0.54981219991E+03  0.17635802998E+04  0.46999998093E+01 0.  1.
       -5    1    3    3    0  502 -0.16347333153E+04 -0.36816696833E+03 -0.12063847736E+04  0.20647726850E+04  0.46999998093E+01 0. -1.
</event>
<event>
 5   0  0.4464951E-07  0.3474109E+04  0.7818609E-02  0.8119953E-01
        1   -1    0    0  501    0  0.00000000000E+00  0.00000000000E+00  0.27335690748E+04  0.27335690748E+04  0.50400001928E-02 0. -1.
       -1   -1    0    0    0  501  0.00000000000E+00  0.00000000000E+00 -0.11038166506E+04  0.11038166506E+04  0.50400001928E-02 0.  1.
    10030    2    1    2    0    0  0.00000000000E+00  0.00000000000E+00  0.16297524242E+04  0.38373857254E+04  0.34741094171E+04 0.  0.
        3    1    3    3  502    0  0.27765161955E+02  0.10613219900E+04  0.23334782532E+04  0.25636489695E+04  0.10100000352E+00 0. -1.
       -3    1    3    3    0  502 -0.27765161955E+02 -0.10613219900E+04 -0.70372582907E+03  0.12737367559E+04  0.10100000352E+00 0.  1.
</event>
<event>
 5   0  0.4060750E-07  0.3411271E+04  0.7818609E-02  0.8135145E-01
       -3   -1    0    0    0  501  0.00000000000E+00  0.00000000000E+00  0.12519041834E+04  0.12519041875E+04  0.10100000352E+00 0. -1.
        3   -1    0    0  501    0  0.00000000000E+00  0.00000000000E+00 -0.23238144471E+04  0.23238144493E+04  0.10100000352E+00 0.  1.
    10030    2    1    2    0    0  0.00000000000E+00  0.00000000000E+00 -0.10719102637E+04  0.35757186368E+04  0.34112713402E+04 0.  0.
        1    1    3    3  502    0 -0.31180697864E+03  0.57590769815E+03  0.11148627291E+04  0.12929857592E+04  0.50400001928E-02 0. -1.
       -1    1    3    3    0  502  0.31180697864E+03 -0.57590769815E+03 -0.21867729928E+04  0.22827328776E+04  0.50400001928E-02 0.  1.
</event>
<event>
 5   0  0.1268230E-06  0.3380581E+04  0.7818609E-02  0.8142689E-01
       -2   -1    0    0    0  501  0.00000000000E+00  0.00000000000E+00  0.15126087452E+04  0.15126087452E+04  0.25500000920E-02 0.  1.
        2   -1    0    0  501    0  0.00000000000E+00  0.00000000000E+00 -0.18888435335E+04  0.18888435335E+04  0.25500000920E-02 0. -1.
    10030    2    1    2    0    0  0.00000000000E+00  0.00000000000E+00 -0.37623478829E+03  0.34014522788E+04  0.33805805698E+04 0.  0.
        2    1    3    3  502    0  0.15619142715E+04 -0.56871241148E+03 -0.49672139040E+03  0.17348608412E+04  0.25500000920E-02 0.  1.
       -2    1    3    3    0  502 -0.15619142715E+04  0.56871241148E+03  0.12048660211E+03  0.16665914376E+04  0.25500000920E-02 0. -1.
</event>
<event>
 5   0  0.4464951E-07  0.3404612E+04  0.7818609E-02  0.8136775E-01
       -1   -1    0    0    0  501  0.00000000000E+00  0.00000000000E+00  0.15730985370E+04  0.15730985370E+04  0.50400001928E-02 0. -1.
        1   -1    0    0  501    0  0.00000000000E+00  0.00000000000E+00 -0.18421254929E+04  0.18421254929E+04  0.50400001928E-02 0.  1.
    10030    2    1    2    0    0  0.00000000000E+00  0.00000000000E+00 -0.26902695598E+03  0.34152240299E+04  0.34046115302E+04 0.  0.
        3    1    3    3  502    0  0.12178811873E+04  0.10573218601E+04  0.41186848815E+03  0.16645719462E+04  0.10100000352E+00 0. -1.
       -3    1    3    3    0  502 -0.12178811873E+04 -0.10573218601E+04 -0.68089544414E+03  0.17506520837E+04  0.10100000352E+00 0.  1.
</event>
<event>
 5   0  0.1300176E-06  0.3364834E+04  0.7818609E-02  0.8146591E-01
       -2   -1    0    0    0  501  0.00000000000E+00  0.00000000000E+00  0.11584428358E+04  0.11584428358E+04  0.25500000920E-02 0. -1.
        2   -1    0    0  501    0  0.00000000000E+00  0.00000000000E+00 -0.24433898946E+04  0.24433898946E+04  0.25500000920E-02 0.  1.
    10030    2    1    2    0    0  0.00000000000E+00  0.00000000000E+00 -0.12849470588E+04  0.36018327304E+04  0.33648343309E+04 0.  0.
        1    1    3    3  502    0  0.84367965269E+03 -0.12015236100E+04  0.23702532877E+03  0.14871568001E+04  0.50400001928E-02 0. -1.
       -1    1    3    3    0  502 -0.84367965269E+03  0.12015236100E+04 -0.15219723876E+04  0.21146759303E+04  0.50400001928E-02 0.  1.
</event>
<event>
 5   0  0.1277635E-06  0.3358757E+04  0.7818609E-02  0.8148103E-01
       -2   -1    0    0    0  501  0.00000000000E+00  0.00000000000E+00  0.16141007717E+04  0.16141007717E+04  0.25500000920E-02 0.  1.
        2   -1    0    0  501    0  0.00000000000E+00  0.00000000000E+00 -0.17472963941E+04  0.17472963941E+04  0.25500000920E-02 0. -1.
    10030    2    1    2    0    0  0.00000000000E+00  0.00000000000E+00 -0.13319562242E+03  0.33613971658E+04  0.33587571857E+04 0.  0.
        4    1    3    3  502    0 -0.12341285372E+04 -0.71043999762E+03  0.82433368259E+03  0.16453953536E+04  0.12699999809E+01 0.  1.
       -4    1    3    3    0  502  0.12341285372E+04  0.71043999762E+03 -0.95752930501E+03  0.17160018122E+04  0.12699999809E+01 0. -1.
</event>
<event>
 5   0  0.4109937E-07  0.3414779E+04  0.7818609E-02  0.8134288E-01
        1   -1    0    0  501    0  0.00000000000E+00  0.00000000000E+00  0.20088891648E+04  0.20088891648E+04  0.50400001928E-02 0.  1.
       -1   -1    0    0    0  501  0.00000000000E+00  0.00000000000E+00 -0.14511400383E+04  0.14511400383E+04  0.50400001928E-02 0. -1.
    10030    2    1    2    0    0  0.00000000000E+00  0.00000000000E+00  0.55774912657E+03  0.34600292031E+04  0.34147793484E+04 0.  0.
        5    1    3    3  502    0 -0.58835129376E+03  0.15607243619E+04 -0.90843604727E+02  0.16704168429E+04  0.46999998093E+01 0. -1.
       -5    1    3    3    0  502  0.58835129376E+03 -0.15607243619E+04  0.64859273130E+03  0.17896123602E+04  0.46999998093E+01 0.  1.
</event>
<event>
 5   0  0.1256208E-06  0.3365336E+04  0.7818609E-02  0.8146467E-01
        2   -1    0    0  501    0  0.00000000000E+00  0.00000000000E+00  0.17269585083E+04  0.17269585083E+04  0.25500000920E-02 0. -1.
       -2   -1    0    0    0  501  0.00000000000E+00  0.00000000000E+00 -0.16395138463E+04  0.16395138463E+04  0.25500000920E-02 0.  1.
    10030    2    1    2    0    0  0.00000000000E+00  0.00000000000E+00  0.87444661998E+02  0.33664723547E+04  0.33653364684E+04 0.  0.
        3    1    3    3  502    0 -0.15940194610E+04  0.15418904426E+03 -0.47288210114E+03  0.16698172939E+04  0.10100000352E+00 0. -1.
       -3    1    3    3    0  502  0.15940194610E+04 -0.15418904426E+03  0.56032676314E+03  0.16966550607E+04  0.10100000352E+00 0.  1.
</event>
<event>
 5   0  0.1256208E-06  0.3380073E+04  0.7818609E-02  0.8142814E-01
        2   -1    0    0  501    0  0.00000000000E+00  0.00000000000E+00  0.26712429303E+04  0.26712429303E+04  0.25500000920E-02 0. -1.
       -2   -1    0    0    0  501  0.00000000000E+00  0.00000000000E+00 -0.10692486871E+04  0.10692486872E+04  0.25500000920E-02 0.  1.
    10030    2    1    2    0    0  0.00000000000E+00  0.00000000000E+00  0.16019942432E+04  0.37404916175E+04  0.33800727781E+04 0.  0.
        3    1    3    3  502    0 -0.15464025596E+04 -0.60742895133E+03  0.45831280571E+03  0.17234794589E+04  0.10100000352E+00 0.  1.
       -3    1    3    3    0  502  0.15464025596E+04  0.60742895133E+03  0.11436814375E+04  0.20170121586E+04  0.10100000352E+00 0. -1.
</event>
<event>
 5   0  0.4125758E-07  0.3386764E+04  0.7818609E-02  0.8141162E-01
       -1   -1    0    0    0  501  0.00000000000E+00  0.00000000000E+00  0.13702981205E+04  0.13702981205E+04  0.50400001928E-02 0. -1.
        1   -1    0    0  501    0  0.00000000000E+00  0.00000000000E+00 -0.20926415558E+04  0.20926415559E+04  0.50400001928E-02 0.  1.
    10030    2    1    2    0    0  0.00000000000E+00  0.00000000000E+00 -0.72234343539E+03  0.34629396763E+04  0.33867641139E+04 0.  0.
        2    1    3    3  502    0 -0.56204724352E+03 -0.33668516605E+03  0.12354518941E+04  0.13984260394E+04  0.25500000920E-02 0. -1.
       -2    1    3    3    0  502  0.56204724352E+03  0.33668516605E+03 -0.19577953295E+04  0.20645136369E+04  0.25500000920E-02 0.  1.
</event>
<event>
 5   0  0.4109937E-07  0.3379435E+04  0.7818609E-02  0.8142972E-01
       -1   -1    0    0    0  501  0.00000000000E+00  0.00000000000E+00  0.14041835095E+04  0.14041835096E+04  0.50400001928E-02 0.  1.
        1   -1    0    0  501    0  0.00000000000E+00  0.00000000000E+00 -0.20333137021E+04  0.20333137021E+04  0.50400001928E-02 0. -1.
    10030    2    1    2    0    0  0.00000000000E+00  0.00000000000E+00 -0.62913019259E+03  0.34374972117E+04  0.33794352015E+04 0.  0.
        5    1    3    3  502    0  0.60379398158E+03  0.99023890439E+03  0.93536087384E+03  0.14899873537E+04  0.46999998093E+01 0.  1.
       -5    1    3    3    0  502 -0.60379398158E+03 -0.99023890439E+03 -0.15644910664E+04  0.19475098580E+04  0.46999998093E+01 0. -1.
</event>
<event>
 5   0  0.4272633E-07  0.3058683E+04  0.7818609E-02  0.8227169E-01
        1   -1    0    0  501    0  0.00000000000E+00  0.00000000000E+00  0.15706584699E+04  0.15706584699E+04  0.50400001928E-02 0.  1.
       -1   -1    0    0    0  501  0.00000000000E+00  0.00000000000E+00 -0.14891110520E+04  0.14891110520E+04  0.50400001928E-02 0. -1.
    10030    2    1    2    0    0  0.00000000000E+00  0.00000000000E+00  0.81547417920E+02  0.30597695219E+04  0.30586826488E+04 0.  0.
        1    1    3    3  502    0 -0.88625070813E+03 -0.71932987465E+03 -0.97743329482E+03  0.15027480268E+04  0.50400001928E-02 0. -1.
       -1    1    3    3    0  502  0.88625070813E+03  0.71932987465E+03  0.10589807127E+04  0.15570214951E+04  0.50400001928E-02 0.  1.
</event>
<event>
 5   0  0.1269497E-06  0.3352785E+04  0.7818609E-02  0.8149593E-01
       -2   -1    0    0    0  501  0.00000000000E+00  0.00000000000E+00  0.12870719354E+04  0.12870719354E+04  0.25500000920E-02 0.  1.
        2   -1    0    0  501    0  0.00000000000E+00  0.00000000000E+00 -0.21834766705E+04  0.21834766705E+04  0.25500000920E-02 0. -1.
    10030    2    1    2    0    0  0.00000000000E+00  0.00000000000E+00 -0.89640473511E+03  0.34705486059E+04  0.33527848390E+04 0.  0.
        5    1    3    3  502    0  0.10017961416E+04 -0.66071666592E+02  0.94145268312E+03  0.13763416070E+04  0.46999998093E+01 0.  1.
       -5    1    3    3    0  502 -0.10017961416E+04  0.66071666592E+02 -0.18378574182E+04  0.20942069989E+04  0.46999998093E+01 0. -1.
</event>
<event>
 5   0  0.1256208E-06  0.3413605E+04  0.7818609E-02  0.8134575E-01
       -2   -1    0    0    0  501  0.00000000000E+00  0.00000000000E+00  0.10295516325E+04  0.10295516325E+04  0.25500000920E-02 0. -1.
        2   -1    0    0  501    0  0.00000000000E+00  0.00000000000E+00 -0.28295567874E+04  0.28295567874E+04  0.25500000920E-02 0.  1.
    10030    2    1    2    0    0  0.00000000000E+00  0.00000000000E+00 -0.18000051549E+04  0.38591084199E+04  0.34136050209E+04 0.  0.
        3    1    3    3  502    0 -0.46146226140E+02  0.25571639222E+03  0.10070593355E+04  0.10400427217E+04  0.10100000352E+00 0. -1.
       -3    1    3    3    0  502  0.46146226140E+02 -0.25571639222E+03 -0.28070644904E+04  0.28190656983E+04  0.10100000352E+00 0.  1.
</event>
<event>
 5   0  0.1277635E-06  0.3432268E+04  0.7818609E-02  0.8130032E-01
        2   -1    0    0  501    0  0.00000000000E+00  0.00000000000E+00  0.21646808420E+04  0.21646808420E+04  0.25500000920E-02 0.  1.
       -2   -1    0    0    0  501  0.00000000000E+00  0.00000000000E+00 -0.13605309657E+04  0.13605309657E+04  0.25500000920E-02 0. -1.
    10030    2    1    2    0    0  0.00000000000E+00  0.00000000000E+00  0.80414987630E+03  0.35252118077E+04  0.34322676565E+04 0.  0.
        4    1    3    3  502    0 -0.16325257181E+04  0.24838899306E+03  0.88192709471E+03  0.18720668592E+04  0.12699999809E+01 0.  1.
       -4    1    3    3    0  502  0.16325257181E+04 -0.24838899306E+03 -0.77777218405E+02  0.16531449485E+04  0.12699999809E+01 0. -1.
</event>
<event>
 5   0  0.1256208E-06  0.3463471E+04  0.7818609E-02  0.8122502E-01
        2   -1    0    0  501    0  0.00000000000E+00  0.00000000000E+00  0.27049616495E+04  0.27049616495E+04  0.25500000920E-02 0. -1.
       -2   -1    0    0    0  501  0.00000000000E+00  0.00000000000E+00 -0.11086694998E+04  0.11086694998E+04  0.25500000920E-02 0.  1.
    10030    2    1    2    0    0  0.00000000000E+00  0.00000000000E+00  0.15962921497E+04  0.38136311493E+04  0.34634713678E+04 0.  0.
        3    1    3    3  502    0  0.13813010990E+04 -0.94263712252E+03  0.12934591126E+04  0.21141414231E+04  0.10100000352E+00 0. -1.
       -3    1    3    3    0  502 -0.13813010990E+04  0.94263712252E+03  0.30283303711E+03  0.16994897262E+04  0.10100000352E+00 0.  1.
</event>
<event>
 5   0  0.4109937E-07  0.2860287E+04  0.7818609E-02  0.8284792E-01
        1   -1    0    0  501    0  0.00000000000E+00  0.00000000000E+00  0.17644145454E+04  0.17644145454E+04  0.50400001928E-02 0.  1.
       -1   -1    0    0    0  501  0.00000000000E+00  0.00000000000E+00 -0.11592008680E+04  0.11592008680E+04  0.50400001928E-02 0. -1.
    10030    2    1    2    0    0  0.00000000000E+00  0.00000000000E+00  0.60521367744E+03  0.29236154134E+04  0.28602873091E+04 0.  0.
        5    1    3    3  502    0  0.10538707206E+04  0.95600679696E+03  0.15555960986E+03  0.14313676585E+04  0.46999998093E+01 0. -1.
       -5    1    3    3    0  502 -0.10538707206E+04 -0.95600679696E+03  0.44965406758E+03  0.14922477549E+04  0.46999998093E+01 0.  1.
</event>
<event>
 5   0  0.4289684E-07  0.3248861E+04  0.7818609E-02  0.8176031E-01
        1   -1    0    0  501    0  0.00000000000E+00  0.00000000000E+00  0.14007219432E+04  0.14007219432E+04  0.50400001928E-02 0.  1.
       -1   -1    0    0    0  501  0.00000000000E+00  0.00000000000E+00 -0.18838678815E+04  0.18838678815E+04  0.50400001928E-02 0. -1.
    10030    2    1    2    0    0  0.00000000000E+00  0.00000000000E+00 -0.48314593833E+03  0.32845898248E+04  0.32488613881E+04 0.  0.
        4    1    3    3  502    0  0.12277414974E+04 -0.77723831050E+02 -0.13140801073E+04  0.18000550880E+04  0.12699999809E+01 0. -1.
       -4    1    3    3    0  502 -0.12277414974E+04  0.77723831050E+02  0.83093416901E+03  0.14845347367E+04  0.12699999809E+01 0.  1.
</event>
<event>
 5   0  0.4109937E-07  0.3393399E+04  0.7818609E-02  0.8139528E-01
        1   -1    0    0  501    0  0.00000000000E+00  0.00000000000E+00  0.31651752596E+04  0.31651752596E+04  0.50400001928E-02 0.  1.
       -1   -1    0    0    0  501  0.00000000000E+00  0.00000000000E+00 -0.90951950417E+03  0.90951950418E+03  0.50400001928E-02 0. -1.
    10030    2    1    2    0    0  0.00000000000E+00  0.00000000000E+00  0.22556557555E+04  0.40746947638E+04  0.33933986696E+04 0.  0.
        5    1    3    3  502    0  0.73892527991E+02  0.14101694612E+04 -0.16174457273E+01  0.14121128571E+04  0.46999998093E+01 0.  1.
       -5    1    3    3    0  502 -0.73892527991E+02 -0.14101694612E+04  0.22572732012E+04  0.26625819067E+04  0.46999998093E+01 0. -1.
</event>
<event>
 5   0  0.4289684E-07  0.3395539E+04  0.7818609E-02  0.8139002E-01
       -1   -1    0    0    0  501  0.00000000000E+00  0.00000000000E+00  0.11184659306E+04  0.11184659306E+04  0.50400001928E-02 0.  1.
        1   -1    0    0  501    0  0.00000000000E+00  0.00000000000E+00 -0.25771200285E+04  0.25771200285E+04  0.50400001928E-02 0. -1.
    10030    2    1    2    0    0  0.00000000000E+00  0.00000000000E+00 -0.14586540979E+04  0.36955859591E+04  0.33955388091E+04 0.  0.
        4    1    3    3  502    0 -0.47873194080E+03  0.14896556343E+04 -0.12193412208E+02  0.15647391068E+04  0.12699999809E+01 0.  1.
       -4    1    3    3    0  502  0.47873194080E+03 -0.14896556343E+04 -0.14464606857E+04  0.21308468523E+04  0.12699999809E+01 0. -1.
</event>
<event>
 5   0  0.1256208E-06  0.3374889E+04  0.7818609E-02  0.8144097E-01
       -2   -1    0    0    0  501  0.00000000000E+00  0.00000000000E+00  0.11617152799E+04  0.11617152799E+04  0.25500000920E-02 0. -1.
        2   -1    0    0  501    0  0.00000000000E+00  0.00000000000E+00 -0.24510907353E+04  0.24510907353E+04  0.25500000920E-02 0.  1.
    10030    2    1    2    0    0  0.00000000000E+00  0.00000000000E+00 -0.12893754554E+04  0.36128060151E+04  0.33748893668E+04 0.  0.
        3    1    3    3  502    0  0.12742672115E+04  0.96012271228E+03 -0.12328539983E+04  0.20163138497E+04  0.10100000352E+00 0.  1.
       -3    1    3    3    0  502 -0.12742672115E+04 -0.96012271228E+03 -0.56521457114E+02  0.15964921655E+04  0.10100000352E+00 0. -1.
</event>
<event>
 5   0  0.4464951E-07  0.3302367E+04  0.7818609E-02  0.8162293E-01
       -1   -1    0    0    0  501  0.00000000000E+00  0.00000000000E+00  0.89693806157E+03  0.89693806158E+03  0.50400001928E-02 0.  1.
        1   -1    0    0  501    0  0.00000000000E+00  0.00000000000E+00 -0.30396831047E+04  0.30396831047E+04  0.50400001928E-02 0. -1.
    10030    2    1    2    0    0  0.00000000000E+00  0.00000000000E+00 -0.21427450431E+04  0.39366211663E+04  0.33023673156E+04 0.  0.
        3    1    3    3  502    0 -0.95119281727E+03  0.48595546390E+03  0.42962365150E+03  0.11513022977E+04  0.10100000352E+00 0.  1.
       -3    1    3    3    0  502  0.95119281727E+03 -0.48595546390E+03 -0.25723686946E+04  0.27853188686E+04  0.10100000352E+00 0. -1.
</event>
<event>
 5   0  0.4060750E-07  0.3240438E+04  0.7818609E-02  0.8178219E-01
       -4   -1    0    0    0  501  0.00000000000E+00  0.00000000000E+00  0.16273445323E+04  0.16273450279E+04  0.12699999809E+01 0. -1.
        4   -1    0    0  501    0  0.00000000000E+00  0.00000000000E+00 -0.16131234080E+04  0.16131239079E+04  0.12699999809E+01 0.  1.
    10030    2    1    2    0    0  0.00000000000E+00  0.00000000000E+00  0.14221124311E+02  0.32404689358E+04  0.32404377302E+04 0.  0.
        2    1    3    3  502    0  0.13433196049E+04  0.47536688247E+03  0.77823920873E+03  0.16236186436E+04  0.25500000920E-02 0. -1.
       -2    1    3    3    0  502 -0.13433196049E+04 -0.47536688247E+03 -0.76401808442E+03  0.16168502922E+04  0.25500000920E-02 0.  1.
</event>
<event>
 5   0  0.1256208E-06  0.3356470E+04  0.7818609E-02  0.8148673E-01
        2   -1    0    0  501    0  0.00000000000E+00  0.00000000000E+00  0.24079848106E+04  0.24079848106E+04  0.25500000920E-02 0.  1.
       -2   -1    0    0    0  501  0.00000000000E+00  0.00000000000E+00 -0.11696389148E+04  0.11696389148E+04  0.25500000920E-02 0. -1.
    10030    2    1    2    0    0  0.00000000000E+00  0.00000000000E+00  0.12383458958E+04  0.35776237254E+04  0.33564700152E+04 0.  0.
        3    1    3    3  502    0 -0.10245380928E+04  0.82262451743E+03 -0.49369014422E+03  0.14036094075E+04  0.10100000352E+00 0. -1.
       -3    1    3    3    0  502  0.10245380928E+04 -0.82262451743E+03  0.17320360400E+04  0.21740143179E+04  0.10100000352E+00 0.  1.
</event>
<event>
 5   0  0.4464951E-07  0.3306366E+04  0.7818609E-02  0.8161278E-01
        1   -1    0    0  501    0  0.00000000000E+00  0.00000000000E+00  0.10745680300E+04  0.10745680300E+04  0.50400001928E-02 0. -1.
       -1   -1    0    0    0  501  0.00000000000E+00  0.00000000000E+00 -0.25433602287E+04  0.25433602287E+04  0.50400001928E-02 0.  1.
    10030    2    1    2    0    0  0.00000000000E+00  0.00000000000E+00 -0.14687921987E+04  0.36179282587E+04  0.33063657333E+04 0.  0.
        3    1    3    3  502    0 -0.20599587466E+03 -0.54800717444E+03 -0.24261309854E+04  0.24957679644E+04  0.10100000352E+00 0.  1.
       -3    1    3    3    0  502  0.20599587466E+03  0.54800717444E+03  0.95733878668E+03  0.11221602944E+04  0.10100000352E+00 0. -1.
</event>
<event>
 5   0  0.1277635E-06  0.3327045E+04  0.7818609E-02  0.8156048E-01
        2   -1    0    0  501    0  0.00000000000E+00  0.00000000000E+00  0.18917775444E+04  0.18917775444E+04  0.25500000920E-02 0. -1.
       -2   -1    0    0    0  501  0.00000000000E+00  0.00000000000E+00 -0.14628082624E+04  0.14628082624E+04  0.25500000920E-02 0.  1.
    10030    2    1    2    0    0  0.00000000000E+00  0.00000000000E+00  0.42896928206E+03  0.33545858068E+04  0.33270454296E+04 0.  0.
        4    1    3    3  502    0  0.89225008414E+03  0.88245453307E+03  0.13155266873E+04  0.18180891875E+04  0.12699999809E+01 0. -1.
       -4    1    3    3    0  502 -0.89225008414E+03 -0.88245453307E+03 -0.88655740526E+03  0.15364966194E+04  0.12699999809E+01 0.  1.
</event>
<event>
 5   0  0.4125758E-07  0.3434322E+04  0.7818609E-02  0.8129534E-01
       -1   -1    0    0    0  501  0.00000000000E+00  0.00000000000E+00  0.12184274490E+04  0.12184274490E+04  0.50400001928E-02 0.  1.
        1   -1    0    0  501    0  0.00000000000E+00  0.00000000000E+00 -0.24200390116E+04  0.24200390116E+04  0.50400001928E-02 0. -1.
    10030    2    1    2    0    0  0.00000000000E+00  0.00000000000E+00 -0.12016115625E+04  0.36384664606E+04  0.34343220347E+04 0.  0.
        2    1    3    3  502    0 -0.83442324528E+03  0.10028399827E+04 -0.17837299551E+04  0.22098965441E+04  0.25500000920E-02 0. -1.
       -2    1    3    3    0  502  0.83442324528E+03 -0.10028399827E+04  0.58211839254E+03  0.14285699164E+04  0.25500000920E-02 0.  1.
</event>
<event>
 5   0  0.4125758E-07  0.3386612E+04  0.7818609E-02  0.8141200E-01
        1   -1    0    0  501    0  0.00000000000E+00  0.00000000000E+00  0.18384226360E+04  0.18384226361E+04  0.50400001928E-02 0. -1.
       -1   -1    0    0    0  501  0.00000000000E+00  0.00000000000E+00 -0.15596445177E+04  0.15596445177E+04  0.50400001928E-02 0.  1.
    10030    2    1    2    0    0  0.00000000000E+00  0.00000000000E+00  0.27877811832E+03  0.33980671538E+04  0.33866123401E+04 0.  0.
        2    1    3    3  502    0  0.23534413323E+03  0.31245919226E+03  0.17924651642E+04  0.18346522758E+04  0.25500000920E-02 0. -1.
       -2    1    3    3    0  502 -0.23534413323E+03 -0.31245919226E+03 -0.15136870459E+04  0.15634148780E+04  0.25500000920E-02 0.  1.
</event>
<event>
 5   0  0.4289684E-07  0.3408618E+04  0.7818609E-02  0.8135794E-01
        1   -1    0    0  501    0  0.00000000000E+00  0.00000000000E+00  0.11878744120E+04  0.11878744120E+04  0.50400001928E-02 0. -1.
       -1   -1    0    0    0  501  0.00000000000E+00  0.00000000000E+00 -0.24452664250E+04  0.24452664250E+04  0.50400001928E-02 0.  1.
    10030    2    1    2    0    0  0.00000000000E+00  0.00000000000E+00 -0.12573920130E+04  0.36331408370E+04  0.34086181463E+04 0.  0.
        4    1    3    3  502    0 -0.42728974295E+03 -0.99995905774E+03 -0.20274530622E+04  0.23006655937E+04  0.12699999809E+01 0.  1.
       -4    1    3    3    0  502  0.42728974295E+03  0.99995905774E+03  0.77006104924E+03  0.13324752433E+04  0.12699999809E+01 0. -1.
</event>
<event>
 5   0  0.4464951E-07  0.3235650E+04  0.7818609E-02  0.8179465E-01
        1   -1    0    0  501    0  0.00000000000E+00  0.00000000000E+00  0.16627537307E+04  0.16627537307E+04  0.50400001928E-02 0.  1.
       -1   -1    0    0    0  501  0.00000000000E+00  0.00000000000E+00 -0.15741106267E+04  0.15741106267E+04  0.50400001928E-02 0. -1.
    10030    2    1    2    0    0  0.00000000000E+00  0.00000000000E+00  0.88643103980E+02  0.32368643575E+04  0.32356503626E+04 0.  0.
        3    1    3    3  502    0  0.62947546700E+03  0.14476364363E+04 -0.31002553572E+03  0.16087282115E+04  0.10100000352E+00 0.  1.
       -3    1    3    3    0  502 -0.62947546700E+03 -0.14476364363E+04  0.39866863970E+03  0.16281361460E+04  0.10100000352E+00 0. -1.
</event>
<event>
 5   0  0.4109937E-07  0.3038448E+04  0.7818609E-02  0.8232836E-01
       -1   -1    0    0    0  501  0.00000000000E+00  0.00000000000E+00  0.98599507572E+03  0.98599507573E+03  0.50400001928E-02 0.  1.
        1   -1    0    0  501    0  0.00000000000E+00  0.00000000000E+00 -0.23408241695E+04  0.23408241695E+04  0.50400001928E-02 0. -1.
    10030    2    1    2    0    0  0.00000000000E+00  0.00000000000E+00 -0.13548290938E+04  0.33268192453E+04  0.30384476986E+04 0.  0.
        5    1    3    3  502    0 -0.11947812810E+03  0.98600058647E+03  0.58127527220E+03  0.11508150206E+04  0.46999998093E+01 0.  1.
       -5    1    3    3    0  502  0.11947812810E+03 -0.98600058647E+03 -0.19361043660E+04  0.21760042246E+04  0.46999998093E+01 0. -1.
</event>
<event>
 5   0  0.1256208E-06  0.2977685E+04  0.7818609E-02  0.8250132E-01
        2   -1    0    0  501    0  0.00000000000E+00  0.00000000000E+00  0.15269162257E+04  0.15269162257E+04  0.25500000920E-02 0.  1.
       -2   -1    0    0    0  501  0.00000000000E+00  0.00000000000E+00 -0.14517178297E+04  0.14517178297E+04  0.25500000920E-02 0. -1.
    10030    2    1    2    0    0  0.00000000000E+00  0.00000000000E+00  0.75198396021E+02  0.29786340555E+04  0.29776846773E+04 0.  0.
        3    1    3    3  502    0  0.13750447650E+04 -0.46612201578E+03  0.36730049063E+03  0.14976406445E+04  0.10100000352E+00 0.  1.
       -3    1    3    3    0  502 -0.13750447650E+04  0.46612201578E+03 -0.29210209461E+03  0.14809934110E+04  0.10100000352E+00 0. -1.
</event>
<event>
 5   0  0.4272633E-07  0.3405546E+04  0.7818609E-02  0.8136546E-01
        1   -1    0    0  501    0  0.00000000000E+00  0.00000000000E+00  0.21931918180E+04  0.21931918180E+04  0.50400001928E-02 0.  1.
       -1   -1    0    0    0  501  0.00000000000E+00  0.00000000000E+00 -0.13220169227E+04  0.13220169227E+04  0.50400001928E-02 0. -1.
    10030    2    1    2    0    0  0.00000000000E+00  0.00000000000E+00  0.87117489525E+03  0.35152087407E+04  0.34055464749E+04 0.  0.
        1    1    3    3  502    0 -0.60060885691E+03  0.13520400771E+04 -0.43458519929E+03  0.15419493068E+04  0.50400001928E-02 0. -1.
       -1    1    3    3    0  502  0.60060885691E+03 -0.13520400771E+04  0.13057600945E+04  0.19732594339E+04  0.50400001928E-02 0.  1.
</event>
<event>
 5   0  0.1300176E-06  0.3382492E+04  0.7818609E-02  0.8142217E-01
       -2   -1    0    0    0  501  0.00000000000E+00  0.00000000000E+00  0.13340560551E+04  0.13340560551E+04  0.25500000920E-02 0.  1.
        2   -1    0    0  501    0  0.00000000000E+00  0.00000000000E+00 -0.21440727084E+04  0.21440727084E+04  0.25500000920E-02 0. -1.
    10030    2    1    2    0    0  0.00000000000E+00  0.00000000000E+00 -0.81001665326E+03  0.34781287635E+04  0.33824920867E+04 0.  0.
        1    1    3    3  502    0  0.47884419210E+03 -0.11771312348E+04  0.74251207638E+03  0.14718199237E+04  0.50400001928E-02 0.  1.
       -1    1    3    3    0  502 -0.47884419210E+03  0.11771312348E+04 -0.15525287296E+04  0.20063088398E+04  0.50400001928E-02 0. -1.
</event>
<event>
 5   0  0.4464951E-07  0.3386377E+04  0.7818609E-02  0.8141258E-01
        1   -1    0    0  501    0  0.00000000000E+00  0.00000000000E+00  0.28644521295E+04  0.28644521295E+04  0.50400001928E-02 0. -1.
       -1   -1    0    0    0  501  0.00000000000E+00  0.00000000000E+00 -0.10008501736E+04  0.10008501736E+04  0.50400001928E-02 0.  1.
    10030    2    1    2    0    0  0.00000000000E+00  0.00000000000E+00  0.18636019559E+04  0.38653023031E+04  0.33863770677E+04 0.  0.
        3    1    3    3  502    0 -0.48659332963E+03 -0.11639852203E+04 -0.35717933300E+03  0.13111871521E+04  0.10100000352E+00 0.  1.
       -3    1    3    3    0  502  0.48659332963E+03  0.11639852203E+04  0.22207812889E+04  0.25541151511E+04  0.10100000352E+00 0. -1.
</event>
<event>
 5   0  0.4125758E-07  0.3425086E+04  0.7818609E-02  0.8131777E-01
       -1   -1    0    0    0  501  0.00000000000E+00  0.00000000000E+00  0.13231489504E+04  0.13231489504E+04  0.50400001928E-02 0. -1.
        1   -1    0    0  501    0  0.00000000000E+00  0.00000000000E+00 -0.22165333714E+04  0.22165333714E+04  0.50400001928E-02 0.  1.
    10030    2    1    2    0    0  0.00000000000E+00  0.00000000000E+00 -0.89338442106E+03  0.35396823218E+04  0.34250861618E+04 0.  0.
        2    1    3    3  502    0 -0.52132500759E+03  0.14526606894E+03 -0.21258376633E+04  0.21936425792E+04  0.25500000920E-02 0.  1.
       -2    1    3    3    0  502  0.52132500759E+03 -0.14526606894E+03  0.12324532423E+04  0.13460397426E+04  0.25500000920E-02 0. -1.
</event>
<event>
 5   0  0.4109937E-07  0.3395589E+04  0.7818609E-02  0.8138990E-01
        1   -1    0    0  501    0  0.00000000000E+00  0.00000000000E+00  0.21986054005E+04  0.21986054005E+04  0.50400001928E-02 0. -1.
       -1   -1    0    0    0  501  0.00000000000E+00  0.00000000000E+00 -0.13110613825E+04  0.13110613825E+04  0.50400001928E-02 0.  1.
    10030    2    1    2    0    0  0.00000000000E+00  0.00000000000E+00  0.88754401804E+03  0.35096667830E+04  0.33955892778E+04 0.  0.
        5    1    3    3  502    0 -0.12220603426E+04  0.10908018917E+04 -0.17545654756E+02  0.16381728199E+04  0.46999998093E+01 0.  1.
       -5    1    3    3    0  502  0.12220603426E+04 -0.10908018917E+04  0.90508967280E+03  0.18714939630E+04  0.46999998093E+01 0. -1.
</event>
<event>
 5   0  0.1269497E-06  0.3398893E+04  0.7818609E-02  0.8138178E-01
        2   -1    0    0  501    0  0.00000000000E+00  0.00000000000E+00  0.18713148888E+04  0.18713148888E+04  0.25500000920E-02 0.  1.
       -2   -1    0    0    0  501  0.00000000000E+00  0.00000000000E+00 -0.15433627353E+04  0.15433627353E+04  0.25500000920E-02 0. -1.
    10030    2    1    2    0    0  0.00000000000E+00  0.00000000000E+00  0.32795215346E+03  0.34146776242E+04  0.33988925640E+04 0.  0.
        5    1    3    3  502    0 -0.11164925494E+04 -0.12736497817E+04  0.24203400573E+02  0.16939147776E+04  0.46999998093E+01 0. -1.
       -5    1    3    3    0  502  0.11164925494E+04  0.12736497817E+04  0.30374875288E+03  0.17207628465E+04  0.46999998093E+01 0.  1.
</event>
<event>
 5   0  0.1269497E-06  0.3456206E+04  0.7818609E-02  0.8124248E-01
       -2   -1    0    0    0  501  0.00000000000E+00  0.00000000000E+00  0.19491041362E+04  0.19491041362E+04  0.25500000920E-02 0.  1.
        2   -1    0    0  501    0  0.00000000000E+00  0.00000000000E+00 -0.15321604243E+04  0.15321604243E+04  0.25500000920E-02 0. -1.
    10030    2    1    2    0    0  0.00000000000E+00  0.00000000000E+00  0.41694371182E+03  0.34812645605E+04  0.34562061399E+04 0.  0.
        5    1    3    3  502    0  0.91297306004E+03 -0.18326334587E+01 -0.12694066265E+04  0.15636298924E+04  0.46999998093E+01 0. -1.
       -5    1    3    3    0  502 -0.91297306004E+03  0.18326334587E+01  0.16863503383E+04  0.19176346681E+04  0.46999998093E+01 0.  1.
</event>
<event>
 5   0  0.1269497E-06  0.2859076E+04  0.7818609E-02  0.8285159E-01
       -2   -1    0    0    0  501  0.00000000000E+00  0.00000000000E+00  0.11278803488E+04  0.11278803488E+04  0.25500000920E-02 0.  1.
        2   -1    0    0  501    0  0.00000000000E+00  0.00000000000E+00 -0.18118755244E+04  0.18118755244E+04  0.25500000920E-02 0. -1.
    10030    2    1    2    0    0  0.00000000000E+00  0.00000000000E+00 -0.68399517561E+03  0.29397558733E+04  0.28590759336E+04 0.  0.
        5    1    3    3  502    0 -0.13230173319E+04  0.15683633057E+03  0.19087799208E+03  0.13458933809E+04  0.46999998093E+01 0. -1.
       -5    1    3    3    0  502  0.13230173319E+04 -0.15683633057E+03 -0.87487316769E+03  0.15938624923E+04  0.46999998093E+01 0.  1.
</event>
<event>
 5   0  0.4289684E-07  0.3346636E+04  0.7818609E-02  0.8151129E-01
        1   -1    0    0  501    0  0.00000000000E+00  0.00000000000E+00  0.23059065156E+04  0.23059065156E+04  0.50400001928E-02 0. -1.
       -1   -1    0    0    0  501  0.00000000000E+00  0.00000000000E+00 -0.12142698403E+04  0.12142698403E+04  0.50400001928E-02 0.  1.
    10030    2    1    2    0    0  0.00000000000E+00  0.00000000000E+00  0.10916366753E+04  0.35201763559E+04  0.33466357654E+04 0.  0.
        4    1    3    3  502    0 -0.13372681586E+04 -0.72741849245E+03  0.12765113143E+04  0.19866822946E+04  0.12699999809E+01 0. -1.
       -4    1    3    3    0  502  0.13372681586E+04  0.72741849245E+03 -0.18487463895E+03  0.15334940614E+04  0.12699999809E+01 0.  1.
</event>
<event>
 5   0  0.1268230E-06  0.3328230E+04  0.7818609E-02  0.8155749E-01
        2   -1    0    0  501    0  0.00000000000E+00  0.00000000000E+00  0.11959525025E+04  0.11959525025E+04  0.25500000920E-02 0. -1.
       -2   -1    0    0    0  501  0.00000000000E+00  0.00000000000E+00 -0.23155429204E+04  0.23155429204E+04  0.25500000920E-02 0.  1.
    10030    2    1    2    0    0  0.00000000000E+00  0.00000000000E+00 -0.11195904179E+04  0.35114954229E+04  0.33282303708E+04 0.  0.
        2    1    3    3  502    0  0.16078390355E+04 -0.32557546007E+03 -0.26487966631E+03  0.16617180814E+04  0.25500000920E-02 0. -1.
       -2    1    3    3    0  502 -0.16078390355E+04  0.32557546007E+03 -0.85471075162E+03  0.18497773415E+04  0.25500000920E-02 0.  1.
</event>
<event>
 5   0  0.1256208E-06  0.3303107E+04  0.7818609E-02  0.8162105E-01
        2   -1    0    0  501    0  0.00000000000E+00  0.00000000000E+00  0.20036805442E+04  0.20036805442E+04  0.25500000920E-02 0.  1.
       -2   -1    0    0    0  501  0.00000000000E+00  0.00000000000E+00 -0.13613092508E+04  0.13613092508E+04  0.25500000920E-02 0. -1.
    10030    2    1    2    0    0  0.00000000000E+00  0.00000000000E+00  0.64237129338E+03  0.33649897950E+04  0.33031069377E+04 0.  0.
        3    1    3    3  502    0 -0.32571204243E+03  0.15827994315E+04 -0.26211079043E+02  0.16161774054E+04  0.10100000352E+00 0. -1.
       -3    1    3    3    0  502  0.32571204243E+03 -0.15827994315E+04  0.66858237242E+03  0.17488123896E+04  0.10100000352E+00 0.  1.
</event>
<event>
 5   0  0.4464951E-07  0.3363712E+04  0.7818609E-02  0.8146870E-01
        1   -1    0    0  501    0  0.00000000000E+00  0.00000000000E+00  0.26681501438E+04  0.26681501438E+04  0.50400001928E-02 0.  1.
       -1   -1    0    0    0  501  0.00000000000E+00  0.00000000000E+00 -0.10601503730E+04  0.10601503730E+04  0.50400001928E-02 0. -1.
    10030    2    1    2    0    0  0.00000000000E+00  0.00000000000E+00  0.16079997708E+04  0.37283005168E+04  0.33637124552E+04 0.  0.
        3    1    3    3  502    0 -0.54397572811E+03  0.94811844252E+03 -0.61274542640E+03  0.12531141774E+04  0.10100000352E+00 0. -1.
       -3    1    3    3    0  502  0.54397572811E+03 -0.94811844252E+03  0.22207451972E+04  0.24751863394E+04  0.10100000352E+00 0.  1.
</event>
<event>
 5   0  0.1256208E-06  0.3355748E+04  0.7818609E-02  0.8148853E-01
        2   -1    0    0  501    0  0.00000000000E+00  0.00000000000E+00  0.19691957053E+04  0.19691957053E+04  0.25500000920E-02 0. -1.
       -2   -1    0    0    0  501  0.00000000000E+00  0.00000000000E+00 -0.14296505861E+04  0.14296505861E+04  0.25500000920E-02 0.  1.
    10030    2    1    2    0    0  0.00000000000E+00  0.00000000000E+00  0.53954511920E+03  0.33988462913E+04  0.33557483780E+04 0.  0.
        3    1    3    3  502    0 -0.12337999103E+04  0.15812212535E+03 -0.87074307104E+03  0.15183735809E+04  0.10100000352E+00 0.  1.
       -3    1    3    3    0  502  0.12337999103E+04 -0.15812212535E+03  0.14102881902E+04  0.18804727105E+04  0.10100000352E+00 0. -1.
</event>
<event>
 5   0  0.4272633E-07  0.3405316E+04  0.7818609E-02  0.8136603E-01
       -1   -1    0    0    0  501  0.00000000000E+00  0.00000000000E+00  0.14897697393E+04  0.14897697393E+04  0.50400001928E-02 0.  1.
        1   -1    0    0  501    0  0.00000000000E+00  0.00000000000E+00 -0.19459680817E+04  0.19459680817E+04  0.50400001928E-02 0. -1.
    10030    2    1    2    0    0  0.00000000000E+00  0.00000000000E+00 -0.45619834243E+03  0.34357378210E+04  0.34053160568E+04 0.  0.
        1    1    3    3  502    0  0.11485697632E+04  0.10391743689E+04  0.48528787763E+03  0.16231451550E+04  0.50400001928E-02 0.  1.
       -1    1    3    3    0  502 -0.11485697632E+04 -0.10391743689E+04 -0.94148622006E+03  0.18125926660E+04  0.50400001928E-02 0. -1.
</event>
<event>
 5   0  0.1269497E-06  0.3372098E+04  0.7818609E-02  0.8144789E-01
        2   -1    0    0  501    0  0.00000000000E+00  0.00000000000E+00  0.15342777875E+04  0.15342777875E+04  0.25500000920E-02 0.  1.
       -2   -1    0    0    0  501  0.00000000000E+00  0.00000000000E+00 -0.18528331802E+04  0.18528331802E+04  0.25500000920E-02 0. -1.
    10030    2    1    2    0    0  0.00000000000E+00  0.00000000000E+00 -0.31855539270E+03  0.33871109677E+04  0.33720977401E+04 0.  0.
        5    1    3    3  502    0  0.70532096962E+03  0.55585857034E+03 -0.15926145324E+04  0.18283598003E+04  0.46999998093E+01 0. -1.
       -5    1    3    3    0  502 -0.70532096962E+03 -0.55585857034E+03  0.12740591397E+04  0.15587511674E+04  0.46999998093E+01 0.  1.
</event>
<event>
 5   0  0.4464951E-07  0.3141025E+04  0.7818609E-02  0.8204568E-01
       -1   -1    0    0    0  501  0.00000000000E+00  0.00000000000E+00  0.93779138195E+03  0.93779138196E+03  0.50400001928E-02 0. -1.
        1   -1    0    0  501    0  0.00000000000E+00  0.00000000000E+00 -0.26301266208E+04  0.26301266208E+04  0.50400001928E-02 0.  1.
    10030    2    1    2    0    0  0.00000000000E+00  0.00000000000E+00 -0.16923352388E+04  0.35679180028E+04  0.31410253603E+04 0.  0.
        3    1    3    3  502    0 -0.11851761572E+04  0.82899980838E+03 -0.15414206324E+04  0.21137314829E+04  0.10100000352E+00 0.  1.
       -3    1    3    3    0  502  0.11851761572E+04 -0.82899980838E+03 -0.15091460644E+03  0.14541865198E+04  0.10100000352E+00 0. -1.
</event>
<event>
 5   0  0.1268230E-06  0.3149750E+04  0.7818609E-02  0.8202216E-01
       -2   -1    0    0    0  501  0.00000000000E+00  0.00000000000E+00  0.91244691568E+03  0.91244691569E+03  0.25500000920E-02 0. -1.
        2   -1    0    0  501    0  0.00000000000E+00  0.00000000000E+00 -0.27182201303E+04  0.27182201303E+04  0.25500000920E-02 0.  1.
    10030    2    1    2    0    0  0.00000000000E+00  0.00000000000E+00 -0.18057732146E+04  0.36306670460E+04  0.31497501958E+04 0.  0.
        2    1    3    3  502    0 -0.16473157564E+03 -0.13467933867E+04 -0.18244881333E+04  0.22737075157E+04  0.25500000920E-02 0.  1.
       -2    1    3    3    0  502  0.16473157564E+03  0.13467933867E+04  0.18714918670E+02  0.13569595303E+04  0.25500000920E-02 0. -1.
</event>
<event>
 5   0  0.4109937E-07  0.3401461E+04  0.7818609E-02  0.8137548E-01
       -1   -1    0    0    0  501  0.00000000000E+00  0.00000000000E+00  0.12062046350E+04  0.12062046350E+04  0.50400001928E-02 0.  1.
        1   -1    0    0  501    0  0.00000000000E+00  0.00000000000E+00 -0.23980051207E+04  0.23980051207E+04  0.50400001928E-02 0. -1.
    10030    2    1    2    0    0  0.00000000000E+00  0.00000000000E+00 -0.11918004857E+04  0.36042097557E+04  0.34014613867E+04 0.  0.
        5    1    3    3  502    0  0.63292450680E+03 -0.15349527217E+04 -0.20543927468E+03  0.16729915345E+04  0.46999998093E+01 0.  1.
       -5    1    3    3    0  502 -0.63292450680E+03  0.15349527217E+04 -0.98636121107E+03  0.19312182212E+04  0.46999998093E+01 0. -1.
</event>
<event>
 5   0  0.4125758E-07  0.3204028E+04  0.7818609E-02  0.8187754E-01
       -1   -1    0    0    0  501  0.00000000000E+00  0.00000000000E+00  0.21347236046E+04  0.21347236046E+04  0.50400001928E-02 0.  1.
        1   -1    0    0  501    0  0.00000000000E+00  0.00000000000E+00 -0.12022395250E+04  0.12022395250E+04  0.50400001928E-02 0. -1.
    10030    2    1    2    0    0  0.00000000000E+00  0.00000000000E+00  0.93248407954E+03  0.33369631296E+04  0.32040281475E+04 0.  0.
        2    1    3    3  502    0 -0.34198449415E+03  0.78418218183E+03 -0.94441141146E+03  0.12742872528E+04  0.25500000920E-02 0. -1.
       -2    1    3    3    0  502  0.34198449415E+03 -0.78418218183E+03  0.18768954910E+04  0.20626758768E+04  0.25500000920E-02 0.  1.
</event>
<event>
 5   0  0.4060750E-07  0.3253152E+04  0.7818609E-02  0.8174919E-01
       -3   -1    0    0    0  501  0.00000000000E+00  0.00000000000E+00  0.12299601928E+04  0.12299601970E+04  0.10100000352E+00 0. -1.
        3   -1    0    0  501    0  0.00000000000E+00  0.00000000000E+00 -0.21510860738E+04  0.21510860762E+04  0.10100000352E+00 0.  1.
    10030    2    1    2    0    0  0.00000000000E+00  0.00000000000E+00 -0.92112588097E+03  0.33810462732E+04  0.32531524730E+04 0.  0.
        2    1    3    3  502    0 -0.33887698358E+03 -0.13291764891E+04  0.44799143436E+03  0.14429982933E+04  0.25500000920E-02 0. -1.
       -2    1    3    3    0  502  0.33887698358E+03  0.13291764891E+04 -0.13691173153E+04  0.19380479799E+04  0.25500000920E-02 0.  1.
</event>
<event>
 5   0  0.1269497E-06  0.3241149E+04  0.7818609E-02  0.8178033E-01
        2   -1    0    0  501    0  0.00000000000E+00  0.00000000000E+00  0.10888089843E+04  0.10888089843E+04  0.25500000920E-02 0.  1.
       -2   -1    0    0    0  501  0.00000000000E+00  0.00000000000E+00 -0.24120506626E+04  0.24120506626E+04  0.25500000920E-02 0. -1.
    10030    2    1    2    0    0  0.00000000000E+00  0.00000000000E+00 -0.13232416783E+04  0.35008596469E+04  0.32411494455E+04 0.  0.
        5    1    3    3  502    0  0.48183130780E+03 -0.12873212702E+04 -0.15888239433E+04  0.21008905432E+04  0.46999998093E+01 0. -1.
       -5    1    3    3    0  502 -0.48183130780E+03  0.12873212702E+04  0.26558226498E+03  0.13999691037E+04  0.46999998093E+01 0.  1.
</event>
<event>
 5   0  0.4109937E-07  0.3433554E+04  0.7818609E-02  0.8129720E-01
        1   -1    0    0  501    0  0.00000000000E+00  0.00000000000E+00  0.28950865277E+04  0.28950865278E+04  0.50400001928E-02 0. -1.
       -1   -1    0    0    0  501  0.00000000000E+00  0.00000000000E+00 -0.10180433535E+04  0.10180433536E+04  0.50400001928E-02 0.  1.
    10030    2    1    2    0    0  0.00000000000E+00  0.00000000000E+00  0.18770431742E+04  0.39131298813E+04  0.34335541921E+04 0.  0.
        5    1    3    3  502    0 -0.16770373411E+04 -0.36390782634E+03  0.88247609935E+03  0.19296811409E+04  0.46999998093E+01 0. -1.
       -5    1    3    3    0  502  0.16770373411E+04  0.36390782634E+03  0.99456707486E+03  0.19834487404E+04  0.46999998093E+01 0.  1.
</event>
<event>
 5   0  0.1300176E-06  0.3380021E+04  0.7818609E-02  0.8142827E-01
        2   -1    0    0  501    0  0.00000000000E+00  0.00000000000E+00  0.21388652980E+04  0.21388652980E+04  0.25500000920E-02 0. -1.
       -2   -1    0    0    0  501  0.00000000000E+00  0.00000000000E+00 -0.13353509770E+04  0.13353509770E+04  0.25500000920E-02 0.  1.
    10030    2    1    2    0    0  0.00000000000E+00  0.00000000000E+00  0.80351432103E+03  0.34742162750E+04  0.33800212220E+04 0.  0.
        1    1    3    3  502    0  0.12566800249E+04 -0.57450974830E+03 -0.59841178573E+03  0.15057897600E+04  0.50400001928E-02 0.  1.
       -1    1    3    3    0  502 -0.12566800249E+04  0.57450974830E+03  0.14019261068E+04  0.19684265150E+04  0.50400001928E-02 0. -1.
</event>
<event>
 5   0  0.1269497E-06  0.2800524E+04  0.7818609E-02  0.8303106E-01
       -2   -1    0    0    0  501  0.00000000000E+00  0.00000000000E+00  0.12378722531E+04  0.12378722531E+04  0.25500000920E-02 0.  1.
        2   -1    0    0  501    0  0.00000000000E+00  0.00000000000E+00 -0.15839552770E+04  0.15839552770E+04  0.25500000920E-02 0. -1.
    10030    2    1    2    0    0  0.00000000000E+00  0.00000000000E+00 -0.34608302387E+03  0.28218275302E+04  0.28005244421E+04 0.  0.
        5    1    3    3  502    0  0.45198523808E+03 -0.69307794172E+03  0.96518163637E+03  0.12713163925E+04  0.46999998093E+01 0.  1.
       -5    1    3    3    0  502 -0.45198523808E+03  0.69307794172E+03 -0.13112646602E+04  0.15505111376E+04  0.46999998093E+01 0. -1.
</event>
<event>
 5   0  0.1269497E-06  0.3382502E+04  0.7818609E-02  0.8142214E-01
        2   -1    0    0  501    0  0.00000000000E+00  0.00000000000E+00  0.17634335068E+04  0.17634335068E+04  0.25500000920E-02 0. -1.
       -2   -1    0    0    0  501  0.00000000000E+00  0.00000000000E+00 -0.16220235914E+04  0.16220235914E+04  0.25500000920E-02 0.  1.
    10030    2    1    2    0    0  0.00000000000E+00  0.00000000000E+00  0.14140991546E+03  0.33854570982E+04  0.33825024759E+04 0.  0.
        5    1    3    3  502    0 -0.95284137966E+03  0.83343122237E+03  0.11931989193E+04  0.17396149138E+04  0.46999998093E+01 0. -1.
       -5    1    3    3    0  502  0.95284137966E+03 -0.83343122237E+03 -0.10517890039E+04  0.16458421844E+04  0.46999998093E+01 0.  1.
</event>
<event>
 5   0  0.4109937E-07  0.3408105E+04  0.7818609E-02  0.8135920E-01
       -1   -1    0    0    0  501  0.00000000000E+00  0.00000000000E+00  0.11386305440E+04  0.11386305440E+04  0.50400001928E-02 0. -1.
        1   -1    0    0  501    0  0.00000000000E+00  0.00000000000E+00 -0.25502519066E+04  0.25502519066E+04  0.50400001928E-02 0.  1.
    10030    2    1    2    0    0  0.00000000000E+00  0.00000000000E+00 -0.14116213626E+04  0.36888824505E+04  0.34081048784E+04 0.  0.
        5    1    3    3  502    0 -0.49110404692E+03  0.11320566846E+03  0.10561096854E+04  0.11702087274E+04  0.46999998093E+01 0. -1.
       -5    1    3    3    0  502  0.49110404692E+03 -0.11320566846E+03 -0.24677310480E+04  0.25186737231E+04  0.46999998093E+01 0.  1.
</event>
<event>
 5   0  0.4109937E-07  0.3414252E+04  0.7818609E-02  0.8134417E-01
       -1   -1    0    0    0  501  0.00000000000E+00  0.00000000000E+00  0.15900413293E+04  0.15900413293E+04  0.50400001928E-02 0. -1.
        1   -1    0    0  501    0  0.00000000000E+00  0.00000000000E+00 -0.18328323466E+04  0.18328323466E+04  0.50400001928E-02 0.  1.
    10030    2    1    2    0    0  0.00000000000E+00  0.00000000000E+00 -0.24279101729E+03  0.34228736759E+04  0.34142520005E+04 0.  0.
        5    1    3    3  502    0 -0.46161590870E+03 -0.26166457034E+03  0.15052613326E+04  0.15960549376E+04  0.46999998093E+01 0. -1.
       -5    1    3    3    0  502  0.46161590870E+03  0.26166457034E+03 -0.17480523499E+04  0.18268187383E+04  0.46999998093E+01 0.  1.
</event>
<event>
 5   0  0.1269497E-06  0.3395103E+04  0.7818609E-02  0.8139109E-01
        2   -1    0    0  501    0  0.00000000000E+00  0.00000000000E+00  0.22885438618E+04  0.22885438618E+04  0.25500000920E-02 0. -1.
       -2   -1    0    0    0  501  0.00000000000E+00  0.00000000000E+00 -0.12591766623E+04  0.12591766623E+04  0.25500000920E-02 0.  1.
    10030    2    1    2    0    0  0.00000000000E+00  0.00000000000E+00  0.10293671995E+04  0.35477205240E+04  0.33951029565E+04 0.  0.
        5    1    3    3  502    0 -0.46348046167E+03 -0.41599790885E+03  0.21648450512E+04  0.22526527882E+04  0.46999998093E+01 0. -1.
       -5    1    3    3    0  502  0.46348046167E+03  0.41599790885E+03 -0.11354778518E+04  0.12950677358E+04  0.46999998093E+01 0.  1.
</event>
<event>
 5   0  0.4289684E-07  0.3398072E+04  0.7818609E-02  0.8138380E-01
        1   -1    0    0  501    0  0.00000000000E+00  0.00000000000E+00  0.12976404039E+04  0.12976404039E+04  0.50400001928E-02 0. -1.
       -1   -1    0    0    0  501  0.00000000000E+00  0.00000000000E+00 -0.22245947643E+04  0.22245947643E+04  0.50400001928E-02 0.  1.
    10030    2    1    2    0    0  0.00000000000E+00  0.00000000000E+00 -0.92695436038E+03  0.35222351683E+04  0.33980724233E+04 0.  0.
        4    1    3    3  502    0 -0.29745037704E+03 -0.49236376697E+03 -0.21205864960E+04  0.21972226800E+04  0.12699999809E+01 0.  1.
       -4    1    3    3    0  502  0.29745037704E+03  0.49236376697E+03  0.11936321356E+04  0.13250124882E+04  0.12699999809E+01 0. -1.
</event>
<event>
 5   0  0.1300176E-06  0.3451044E+04  0.7818609E-02  0.8125491E-01
        2   -1    0    0  501    0  0.00000000000E+00  0.00000000000E+00  0.11453206153E+04  0.11453206153E+04  0.25500000920E-02 0. -1.
       -2   -1    0    0    0  501  0.00000000000E+00  0.00000000000E+00 -0.25996445440E+04  0.25996445440E+04  0.25500000920E-02 0.  1.
    10030    2    1    2    0    0  0.00000000000E+00  0.00000000000E+00 -0.14543239287E+04  0.37449651593E+04  0.34510441832E+04 0.  0.
        1    1    3    3  502    0 -0.24240647438E+03  0.11903447863E+04 -0.20569895635E+04  0.23889093063E+04  0.50400001928E-02 0.  1.
       -1    1    3    3    0  502  0.24240647438E+03 -0.11903447863E+04  0.60266563481E+03  0.13560558530E+04  0.50400001928E-02 0. -1.
</event>
<event>
 5   0  0.4109937E-07  0.3407904E+04  0.7818609E-02  0.8135969E-01
       -1   -1    0    0    0  501  0.00000000000E+00  0.00000000000E+00  0.21786784002E+04  0.21786784002E+04  0.50400001928E-02 0.  1.
        1   -1    0    0  501    0  0.00000000000E+00  0.00000000000E+00 -0.13326667041E+04  0.13326667041E+04  0.50400001928E-02 0. -1.
    10030    2    1    2    0    0  0.00000000000E+00  0.00000000000E+00  0.84601169614E+03  0.35113451043E+04  0.34079038501E+04 0.  0.
        5    1    3    3  502    0 -0.95481439441E+03  0.38495041756E+03 -0.97598965558E+03  0.14186032742E+04  0.46999998093E+01 0. -1.
       -5    1    3    3    0  502  0.95481439441E+03 -0.38495041756E+03  0.18220013517E+04  0.20927418301E+04  0.46999998093E+01 0.  1.
</event>
<event>
 5   0  0.4272633E-07  0.3370688E+04  0.7818609E-02  0.8145138E-01
        1   -1    0    0  501    0  0.00000000000E+00  0.00000000000E+00  0.15851994086E+04  0.15851994086E+04  0.50400001928E-02 0. -1.
       -1   -1    0    0    0  501  0.00000000000E+00  0.00000000000E+00 -0.17918152974E+04  0.17918152974E+04  0.50400001928E-02 0.  1.
    10030    2    1    2    0    0  0.00000000000E+00  0.00000000000E+00 -0.20661588874E+03  0.33770147060E+04  0.33706880898E+04 0.  0.
        1    1    3    3  502    0 -0.25770951913E+03 -0.14560925854E+04  0.70676687199E+03  0.16389445460E+04  0.50400001928E-02 0. -1.
       -1    1    3    3    0  502  0.25770951913E+03  0.14560925854E+04 -0.91338276073E+03  0.17380701600E+04  0.50400001928E-02 0.  1.
</event>
<event>
 5   0  0.4272633E-07  0.3398508E+04  0.7818609E-02  0.8138273E-01
        1   -1    0    0  501    0  0.00000000000E+00  0.00000000000E+00  0.28417350221E+04  0.28417350221E+04  0.50400001928E-02 0.  1.
       -1   -1    0    0    0  501  0.00000000000E+00  0.00000000000E+00 -0.10160921521E+04  0.10160921521E+04  0.50400001928E-02 0. -1.
    10030    2    1    2    0    0  0.00000000000E+00  0.00000000000E+00  0.18256428700E+04  0.38578271742E+04  0.33985082929E+04 0.  0.
        1    1    3    3  502    0 -0.75256481199E+03 -0.53571314491E+03  0.25318069484E+04  0.26950674934E+04  0.50400001928E-02 0.  1.
       -1    1    3    3    0  502  0.75256481199E+03  0.53571314491E+03 -0.70616407834E+03  0.11627596809E+04  0.50400001928E-02 0. -1.
</event>
<event>
 5   0  0.4289684E-07  0.3526871E+04  0.7818609E-02  0.8107451E-01
        1   -1    0    0  501    0  0.00000000000E+00  0.00000000000E+00  0.19556878681E+04  0.19556878681E+04  0.50400001928E-02 0.  1.
       -1   -1    0    0    0  501  0.00000000000E+00  0.00000000000E+00 -0.15900821834E+04  0.15900821834E+04  0.50400001928E-02 0. -1.
    10030    2    1    2    0    0  0.00000000000E+00  0.00000000000E+00  0.36560568470E+03  0.35457700516E+04  0.35268708145E+04 0.  0.
        4    1    3    3  502    0  0.40778859086E+03 -0.23024690888E+03 -0.15264244268E+04  0.15966459587E+04  0.12699999809E+01 0. -1.
       -4    1    3    3    0  502 -0.40778859086E+03  0.23024690888E+03  0.18920301115E+04  0.19491240929E+04  0.12699999809E+01 0.  1.
</event>
<event>
 5   0  0.1277635E-06  0.3172061E+04  0.7818609E-02  0.8196235E-01
        2   -1    0    0  501    0  0.00000000000E+00  0.00000000000E+00  0.23214745588E+04  0.23214745588E+04  0.25500000920E-02 0. -1.
       -2   -1    0    0    0  501  0.00000000000E+00  0.00000000000E+00 -0.10835756359E+04  0.10835756359E+04  0.25500000920E-02 0.  1.
    10030    2    1    2    0    0  0.00000000000E+00  0.00000000000E+00  0.12378989229E+04  0.34050501946E+04  0.31720613305E+04 0.  0.
        4    1    3    3  502    0  0.21344340407E+03 -0.14477433611E+04 -0.37500929331E+02  0.14638739218E+04  0.12699999809E+01 0.  1.
       -4    1    3    3    0  502 -0.21344340407E+03  0.14477433611E+04  0.12753998522E+04  0.19411762729E+04  0.12699999809E+01 0. -1.
</event>
<event>
 5   0  0.1256208E-06  0.3419152E+04  0.7818609E-02  0.8133222E-01
       -2   -1    0    0    0  501  0.00000000000E+00  0.00000000000E+00  0.26992749654E+04  0.26992749655E+04  0.25500000920E-02 0.  1.
        2   -1    0    0  501    0  0.00000000000E+00  0.00000000000E+00 -0.10827539761E+04  0.10827539761E+04  0.25500000920E-02 0. -1.
    10030    2    1    2    0    0  0.00000000000E+00  0.00000000000E+00  0.16165209894E+04  0.37820289415E+04  0.34191523519E+04 0.  0.
        3    1    3    3  502    0  0.62009892150E+03  0.63714259615E+03 -0.80690882317E+03  0.12006561620E+04  0.10100000352E+00 0. -1.
       -3    1    3    3    0  502 -0.62009892150E+03 -0.63714259615E+03  0.24234298125E+04  0.25813727795E+04  0.10100000352E+00 0.  1.
</event>
<event>
 5   0  0.4272633E-07  0.3275212E+04  0.7818609E-02  0.8169231E-01
       -1   -1    0    0    0  501  0.00000000000E+00  0.00000000000E+00  0.16738214498E+04  0.16738214498E+04  0.50400001928E-02 0. -1.
        1   -1    0    0  501    0  0.00000000000E+00  0.00000000000E+00 -0.16021740789E+04  0.16021740789E+04  0.50400001928E-02 0.  1.
    10030    2    1    2    0    0  0.00000000000E+00  0.00000000000E+00  0.71647370843E+02  0.32759955287E+04  0.32752119563E+04 0.  0.
        1    1    3    3  502    0  0.16525519109E+03  0.97358969038E+03 -0.12708453023E+04  0.16094203757E+04  0.50400001928E-02 0.  1.
       -1    1    3    3    0  502 -0.16525519109E+03 -0.97358969038E+03  0.13424926731E+04  0.16665751530E+04  0.50400001928E-02 0. -1.
</event>
<event>
 5   0  0.1269497E-06  0.3382755E+04  0.7818609E-02  0.8142152E-01
       -2   -1    0    0    0  501  0.00000000000E+00  0.00000000000E+00  0.21357420185E+04  0.21357420185E+04  0.25500000920E-02 0. -1.
        2   -1    0    0  501    0  0.00000000000E+00  0.00000000000E+00 -0.13394678700E+04  0.13394678700E+04  0.25500000920E-02 0.  1.
    10030    2    1    2    0    0  0.00000000000E+00  0.00000000000E+00  0.79627414850E+03  0.34752098884E+04  0.33827549792E+04 0.  0.
        5    1    3    3  502    0  0.14913894664E+04  0.51802313300E+02  0.12160177343E+04  0.19250057767E+04  0.46999998093E+01 0.  1.
       -5    1    3    3    0  502 -0.14913894664E+04 -0.51802313300E+02 -0.41974358583E+03  0.15502041117E+04  0.46999998093E+01 0. -1.
</event>
<event>
 5   0  0.1256208E-06  0.3170265E+04  0.7818609E-02  0.8196715E-01
       -2   -1    0    0    0  501  0.00000000000E+00  0.00000000000E+00  0.15541195295E+04  0.15541195295E+04  0.25500000920E-02 0. -1.
        2   -1    0    0  501    0  0.00000000000E+00  0.00000000000E+00 -0.16167640898E+04  0.16167640898E+04  0.25500000920E-02 0.  1.
    10030    2    1    2    0    0  0.00000000000E+00  0.00000000000E+00 -0.62644560281E+02  0.31708836192E+04  0.31702647501E+04 0.  0.
        3    1    3    3  502    0 -0.14026240898E+03  0.29337253442E+03  0.15204004549E+04  0.15547856897E+04  0.10100000352E+00 0. -1.
       -3    1    3    3    0  502  0.14026240898E+03 -0.29337253442E+03 -0.15830450152E+04  0.16160979295E+04  0.10100000352E+00 0.  1.
</event>
<event>
 5   0  0.1277635E-06  0.3539282E+04  0.7818609E-02  0.8104543E-01
       -2   -1    0    0    0  501  0.00000000000E+00  0.00000000000E+00  0.13043292986E+04  0.13043292986E+04  0.25500000920E-02 0.  1.
        2   -1    0    0  501    0  0.00000000000E+00  0.00000000000E+00 -0.24009498833E+04  0.24009498833E+04  0.25500000920E-02 0. -1.
    10030    2    1    2    0    0  0.00000000000E+00  0.00000000000E+00 -0.10966205846E+04  0.37052791819E+04  0.35392820048E+04 0.  0.
        4    1    3    3  502    0 -0.33829290122E+03  0.29292160346E+03 -0.23407395105E+04  0.23831299213E+04  0.12699999809E+01 0. -1.
       -4    1    3    3    0  502  0.33829290122E+03 -0.29292160346E+03  0.12441189259E+04  0.13221492606E+04  0.12699999809E+01 0.  1.
</event>
<event>
 5   0  0.1268230E-06  0.3354028E+04  0.7818609E-02  0.8149282E-01
        2   -1    0    0  501    0  0.00000000000E+00  0.00000000000E+00  0.13019699786E+04  0.13019699786E+04  0.25500000920E-02 0.  1.
       -2   -1    0    0    0  501  0.00000000000E+00  0.00000000000E+00 -0.21600928772E+04  0.21600928772E+04  0.25500000920E-02 0. -1.
    10030    2    1    2    0    0  0.00000000000E+00  0.00000000000E+00 -0.85812289865E+03  0.34620628558E+04  0.33540280721E+04 0.  0.
        2    1    3    3  502    0 -0.13648419869E+04  0.88351144641E+03 -0.47363744158E+01  0.16258562539E+04  0.25500000920E-02 0.  1.
       -2    1    3    3    0  502  0.13648419869E+04 -0.88351144641E+03 -0.85338652424E+03  0.18362066019E+04  0.25500000920E-02 0. -1.
</event>
<event>
 5   0  0.1268230E-06  0.3401420E+04  0.7818609E-02  0.8137558E-01
       -2   -1    0    0    0  501  0.00000000000E+00  0.00000000000E+00  0.14710955155E+04  0.14710955155E+04  0.25500000920E-02 0.  1.
        2   -1    0    0  501    0  0.00000000000E+00  0.00000000000E+00 -0.19661641918E+04  0.19661641918E+04  0.25500000920E-02 0. -1.
    10030    2    1    2    0    0  0.00000000000E+00  0.00000000000E+00 -0.49506867629E+03  0.34372597073E+04  0.34014204828E+04 0.  0.
        2    1    3    3  502    0 -0.66689786363E+03 -0.14961762851E+04  0.21457938255E+03  0.16520715929E+04  0.25500000920E-02 0.  1.
       -2    1    3    3    0  502  0.66689786363E+03  0.14961762851E+04 -0.70964805884E+03  0.17851881144E+04  0.25500000920E-02 0. -1.
</event>
<event>
 5   0  0.1268230E-06  0.3362798E+04  0.7818609E-02  0.8147098E-01
        2   -1    0    0  501    0  0.00000000000E+00  0.00000000000E+00  0.27690269791E+04  0.27690269791E+04  0.25500000920E-02 0.  1.
       -2   -1    0    0    0  501  0.00000000000E+00  0.00000000000E+00 -0.10209730830E+04  0.10209730830E+04  0.25500000920E-02 0. -1.
    10030    2    1    2    0    0  0.00000000000E+00  0.00000000000E+00  0.17480538961E+04  0.37900000621E+04  0.33627976518E+04 0.  0.
        2    1    3    3  502    0 -0.15396138694E+03  0.16197418912E+04  0.39608569773E+03  0.16745601759E+04  0.25500000920E-02 0. -1.
       -2    1    3    3    0  502  0.15396138694E+03 -0.16197418912E+04  0.13519681984E+04  0.21154398862E+04  0.25500000920E-02 0.  1.
</event>
<event>
 5   0  0.1256208E-06  0.3424440E+04  0.7818609E-02  0.8131934E-01
       -2   -1    0    0    0  501  0.00000000000E+00  0.00000000000E+00  0.16046301554E+04  0.16046301554E+04  0.25500000920E-02 0.  1.
        2   -1    0    0  501    0  0.00000000000E+00  0.00000000000E+00 -0.18270237834E+04  0.18270237834E+04  0.25500000920E-02 0. -1.
    10030    2    1    2    0    0  0.00000000000E+00  0.00000000000E+00 -0.22239362802E+03  0.34316539388E+04  0.34244400754E+04 0.  0.
        3    1    3    3  502    0  0.96634751372E+03 -0.49459191092E+03  0.12156955238E+04  0.16298356643E+04  0.10100000352E+00 0.  1.
       -3    1    3    3    0  502 -0.96634751372E+03  0.49459191092E+03 -0.14380891518E+04  0.18018182745E+04  0.10100000352E+00 0. -1.
</event>
<event>
 5   0  0.1277635E-06  0.3386183E+04  0.7818609E-02  0.8141306E-01
        2   -1    0    0  501    0  0.00000000000E+00  0.00000000000E+00  0.17526526490E+04  0.17526526490E+04  0.25500000920E-02 0.  1.
       -2   -1    0    0    0  501  0.00000000000E+00  0.00000000000E+00 -0.16355542490E+04  0.16355542490E+04  0.25500000920E-02 0. -1.
    10030    2    1    2    0    0  0.00000000000E+00  0.00000000000E+00  0.11709839992E+03  0.33882068980E+04  0.33861827990E+04 0.  0.
        4    1    3    3  502    0 -0.16767786614E+04 -0.14022405803E+03 -0.12946577651E+03  0.16876055421E+04  0.12699999809E+01 0.  1.
       -4    1    3    3    0  502  0.16767786614E+04  0.14022405803E+03  0.24656417643E+03  0.17006013559E+04  0.12699999809E+01 0. -1.
</event>
<event>
 5   0  0.1300176E-06  0.3397958E+04  0.7818609E-02  0.8138408E-01
        2   -1    0    0  501    0  0.00000000000E+00  0.00000000000E+00  0.21294246879E+04  0.21294246879E+04  0.25500000920E-02 0. -1.
       -2   -1    0    0    0  501  0.00000000000E+00  0.00000000000E+00 -0.13555446636E+04  0.13555446636E+04  0.25500000920E-02 0.  1.
    10030    2    1    2    0    0  0.00000000000E+00  0.00000000000E+00  0.77388002427E+03  0.34849693515E+04  0.33979583707E+04 0.  0.
        1    1    3    3  502    0  0.78110314010E+03  0.20581093313E+03 -0.11460077478E+04  0.14020748959E+04  0.50400001928E-02 0.  1.
       -1    1    3    3    0  502 -0.78110314010E+03 -0.20581093313E+03  0.19198877721E+04  0.20828944556E+04  0.50400001928E-02 0. -1.
</event>
<event>
 5   0  0.4272633E-07  0.3336404E+04  0.7818609E-02  0.8153694E-01
        1   -1    0    0  501    0  0.00000000000E+00  0.00000000000E+00  0.22117283017E+04  0.22117283017E+04  0.50400001928E-02 0.  1.
       -1   -1    0    0    0  501  0.00000000000E+00  0.00000000000E+00 -0.12582459966E+04  0.12582459967E+04  0.50400001928E-02 0. -1.
    10030    2    1    2    0    0  0.00000000000E+00  0.00000000000E+00  0.95348230507E+03  0.34699742984E+04  0.33364042209E+04 0.  0.
        1    1    3    3  502    0 -0.77822270146E+03  0.96844380400E+03  0.16345866002E+04  0.20531408447E+04  0.50400001928E-02 0.  1.
       -1    1    3    3    0  502  0.77822270146E+03 -0.96844380400E+03 -0.68110429514E+03  0.14168334537E+04  0.50400001928E-02 0. -1.
</event>
<event>
 5   0  0.4464951E-07  0.3364570E+04  0.7818609E-02  0.8146657E-01
       -1   -1    0    0    0  501  0.00000000000E+00  0.00000000000E+00  0.31070791643E+04  0.31070791643E+04  0.50400001928E-02 0.  1.
        1   -1    0    0  501    0  0.00000000000E+00  0.00000000000E+00 -0.91084967176E+03  0.91084967177E+03  0.50400001928E-02 0. -1.
    10030    2    1    2    0    0  0.00000000000E+00  0.00000000000E+00  0.21962294925E+04  0.40179288361E+04  0.33645695338E+04 0.  0.
        3    1    3    3  502    0 -0.40329358058E+03  0.81575313739E+03  0.27877888167E+04  0.29325527089E+04  0.10100000352E+00 0.  1.
       -3    1    3    3    0  502  0.40329358058E+03 -0.81575313739E+03 -0.59155932420E+03  0.10853761272E+04  0.10100000352E+00 0. -1.
</event>
<event>
 5   0  0.4272633E-07  0.3407495E+04  0.7818609E-02  0.8136069E-01
       -1   -1    0    0    0  501  0.00000000000E+00  0.00000000000E+00  0.21045194264E+04  0.21045194264E+04  0.50400001928E-02 0.  1.
        1   -1    0    0  501    0  0.00000000000E+00  0.00000000000E+00 -0.13792962462E+04  0.13792962462E+04  0.50400001928E-02 0. -1.
    10030    2    1    2    0    0  0.00000000000E+00  0.00000000000E+00  0.72522318025E+03  0.34838156726E+04  0.34074951180E+04 0.  0.
        1    1    3    3  502    0  0.21572662513E+03 -0.13531101183E+04  0.13978674255E+04  0.19574162328E+04  0.50400001928E-02 0.  1.
       -1    1    3    3    0  502 -0.21572662513E+03  0.13531101183E+04 -0.67264424529E+03  0.15263994398E+04  0.50400001928E-02 0. -1.
</event>
<event>
 5   0  0.1277635E-06  0.3383811E+04  0.7818609E-02  0.8141891E-01
        2   -1    0    0  501    0  0.00000000000E+00  0.00000000000E+00  0.17031074182E+04  0.17031074182E+04  0.25500000920E-02 0.  1.
       -2   -1    0    0    0  501  0.00000000000E+00  0.00000000000E+00 -0.16807771195E+04  0.16807771195E+04  0.25500000920E-02 0. -1.
    10030    2    1    2    0    0  0.00000000000E+00  0.00000000000E+00  0.22330298685E+02  0.33838845377E+04  0.33838108579E+04 0.  0.
        4    1    3    3  502    0  0.19328743516E+03 -0.16600932674E+04 -0.25203761551E+03  0.16902053903E+04  0.12699999809E+01 0.  1.
       -4    1    3    3    0  502 -0.19328743516E+03  0.16600932674E+04  0.27436791420E+03  0.16936791473E+04  0.12699999809E+01 0. -1.
</event>
<event>
 5   0  0.1268230E-06  0.3366402E+04  0.7818609E-02  0.8146202E-01
        2   -1    0    0  501    0  0.00000000000E+00  0.00000000000E+00  0.11503996041E+04  0.11503996041E+04  0.25500000920E-02 0. -1.
       -2   -1    0    0    0  501  0.00000000000E+00  0.00000000000E+00 -0.24627671249E+04  0.24627671249E+04  0.25500000920E-02 0.  1.
    10030    2    1    2    0    0  0.00000000000E+00  0.00000000000E+00 -0.13123675208E+04  0.36131667290E+04  0.33664024272E+04 0.  0.
        2    1    3    3  502    0 -0.13536325518E+04 -0.99470659876E+03 -0.77080127982E+03  0.18482145210E+04  0.25500000920E-02 0. -1.
       -2    1    3    3    0  502  0.13536325518E+04  0.99470659876E+03 -0.54156624102E+03  0.17649522079E+04  0.25500000920E-02 0.  1.
</event>
<event>
 5   0  0.1268230E-06  0.3506691E+04  0.7818609E-02  0.8112206E-01
        2   -1    0    0  501    0  0.00000000000E+00  0.00000000000E+00  0.18500570669E+04  0.18500570669E+04  0.25500000920E-02 0.  1.
       -2   -1    0    0    0  501  0.00000000000E+00  0.00000000000E+00 -0.16616895760E+04  0.16616895760E+04  0.25500000920E-02 0. -1.
    10030    2    1    2    0    0  0.00000000000E+00  0.00000000000E+00  0.18836749087E+03  0.35117466429E+04  0.35066910574E+04 0.  0.
        2    1    3    3  502    0  0.18332925787E+03 -0.14132611789E+04 -0.92871125922E+03  0.17010059904E+04  0.25500000920E-02 0. -1.
       -2    1    3    3    0  502 -0.18332925787E+03  0.14132611789E+04  0.11170787501E+04  0.18107406524E+04  0.25500000920E-02 0.  1.
</event>
<event>
 5   0  0.1300176E-06  0.3350411E+04  0.7818609E-02  0.8150185E-01
       -2   -1    0    0    0  501  0.00000000000E+00  0.00000000000E+00  0.10692047530E+04  0.10692047530E+04  0.25500000920E-02 0. -1.
        2   -1    0    0  501    0  0.00000000000E+00  0.00000000000E+00 -0.26246735277E+04  0.26246735277E+04  0.25500000920E-02 0.  1.
    10030    2    1    2    0    0  0.00000000000E+00  0.00000000000E+00 -0.15554687747E+04  0.36938782807E+04  0.33504109664E+04 0.  0.
        1    1    3    3  502    0  0.27783559291E+03 -0.66073789882E+03 -0.24470695813E+04  0.25498856295E+04  0.50400001928E-02 0.  1.
       -1    1    3    3    0  502 -0.27783559291E+03  0.66073789882E+03  0.89160080662E+03  0.11439926512E+04  0.50400001928E-02 0. -1.
</event>
<event>
 5   0  0.1269497E-06  0.3389554E+04  0.7818609E-02  0.8140475E-01
       -2   -1    0    0    0  501  0.00000000000E+00  0.00000000000E+00  0.30343415192E+04  0.30343415192E+04  0.25500000920E-02 0. -1.
        2   -1    0    0  501    0  0.00000000000E+00  0.00000000000E+00 -0.94658715433E+03  0.94658715434E+03  0.25500000920E-02 0.  1.
    10030    2    1    2    0    0  0.00000000000E+00  0.00000000000E+00  0.20877543648E+04  0.39809286735E+04  0.33895537783E+04 0.  0.
        5    1    3    3  502    0 -0.74377436971E+03 -0.13107829156E+04  0.19542954508E+04  0.24679232087E+04  0.46999998093E+01 0. -1.
       -5    1    3    3    0  502  0.74377436971E+03  0.13107829156E+04  0.13345891409E+03  0.15130054649E+04  0.46999998093E+01 0.  1.
</event>
<event>
 5   0  0.4125758E-07  0.3382124E+04  0.7818609E-02  0.8142308E-01
       -1   -1    0    0    0  501  0.00000000000E+00  0.00000000000E+00  0.12902095628E+04  0.12902095628E+04  0.50400001928E-02 0. -1.
        1   -1    0    0  501    0  0.00000000000E+00  0.00000000000E+00 -0.22164542405E+04  0.22164542405E+04  0.50400001928E-02 0.  1.
    10030    2    1    2    0    0  0.00000000000E+00  0.00000000000E+00 -0.92624467766E+03  0.35066638034E+04  0.33821238633E+04 0.  0.
        2    1    3    3  502    0 -0.64684498851E+03 -0.54216697421E+01  0.11568626238E+04  0.13254316142E+04  0.25500000920E-02 0. -1.
       -2    1    3    3    0  502  0.64684498851E+03  0.54216697421E+01 -0.20831073014E+04  0.21812321891E+04  0.25500000920E-02 0.  1.
</event>
<event>
 5   0  0.4464951E-07  0.3095462E+04  0.7818609E-02  0.8216984E-01
       -1   -1    0    0    0  501  0.00000000000E+00  0.00000000000E+00  0.80786122921E+03  0.80786122922E+03  0.50400001928E-02 0. -1.
        1   -1    0    0  501    0  0.00000000000E+00  0.00000000000E+00 -0.29652014291E+04  0.29652014291E+04  0.50400001928E-02 0.  1.
    10030    2    1    2    0    0  0.00000000000E+00  0.00000000000E+00 -0.21573401999E+04  0.37730626583E+04  0.30954620149E+04 0.  0.
        3    1    3    3  502    0 -0.11998357629E+04 -0.96101204159E+03 -0.85953463245E+03  0.17612353041E+04  0.10100000352E+00 0.  1.
       -3    1    3    3    0  502  0.11998357629E+04  0.96101204159E+03 -0.12978055674E+04  0.20118273542E+04  0.10100000352E+00 0. -1.
</event>
<event>
 5   0  0.4272633E-07  0.3271790E+04  0.7818609E-02  0.8170111E-01
       -1   -1    0    0    0  501  0.00000000000E+00  0.00000000000E+00  0.97213590358E+03  0.97213590359E+03  0.50400001928E-02 0.  1.
        1   -1    0    0  501    0  0.00000000000E+00  0.00000000000E+00 -0.27528577236E+04  0.27528577236E+04  0.50400001928E-02 0. -1.
    10030    2    1    2    0    0  0.00000000000E+00  0.00000000000E+00 -0.17807218201E+04  0.37249936272E+04  0.32717896208E+04 0.  0.
        1    1    3    3  502    0  0.10316739174E+04 -0.10949878343E+04 -0.16218557575E+04  0.22121856900E+04  0.50400001928E-02 0. -1.
       -1    1    3    3    0  502 -0.10316739174E+04  0.10949878343E+04 -0.15886606255E+03  0.15128079372E+04  0.50400001928E-02 0.  1.
</event>
<event>
 5   0  0.4125758E-07  0.3387678E+04  0.7818609E-02  0.8140937E-01
        1   -1    0    0  501    0  0.00000000000E+00  0.00000000000E+00  0.23181196117E+04  0.23181196117E+04  0.50400001928E-02 0. -1.
       -1   -1    0    0    0  501  0.00000000000E+00  0.00000000000E+00 -0.12376803835E+04  0.12376803835E+04  0.50400001928E-02 0.  1.
    10030    2    1    2    0    0  0.00000000000E+00  0.00000000000E+00  0.10804392282E+04  0.35557999952E+04  0.33876783614E+04 0.  0.
        2    1    3    3  502    0 -0.93952497695E+02 -0.68996800133E+03  0.21609368420E+04  0.22703592116E+04  0.25500000920E-02 0. -1.
       -2    1    3    3    0  502  0.93952497695E+02  0.68996800133E+03 -0.10804976138E+04  0.12854407836E+04  0.25500000920E-02 0.  1.
</event>
<event>
 5   0  0.1256208E-06  0.3356098E+04  0.7818609E-02  0.8148766E-01
       -2   -1    0    0    0  501  0.00000000000E+00  0.00000000000E+00  0.13019854945E+04  0.13019854945E+04  0.25500000920E-02 0.  1.
        2   -1    0    0  501    0  0.00000000000E+00  0.00000000000E+00 -0.21627344913E+04  0.21627344913E+04  0.25500000920E-02 0. -1.
    10030    2    1    2    0    0  0.00000000000E+00  0.00000000000E+00 -0.86074899675E+03  0.34647199858E+04  0.33560982919E+04 0.  0.
        3    1    3    3  502    0 -0.64910972041E+03 -0.11460597069E+04  0.64301388613E+03  0.14656954489E+04  0.10100000352E+00 0.  1.
       -3    1    3    3    0  502  0.64910972041E+03  0.11460597069E+04 -0.15037628829E+04  0.19990245369E+04  0.10100000352E+00 0. -1.
</event>
<event>
 5   0  0.4125758E-07  0.3342424E+04  0.7818609E-02  0.8152184E-01
        1   -1    0    0  501    0  0.00000000000E+00  0.00000000000E+00  0.17463813177E+04  0.17463813177E+04  0.50400001928E-02 0. -1.
       -1   -1    0    0    0  501  0.00000000000E+00  0.00000000000E+00 -0.15992778012E+04  0.15992778012E+04  0.50400001928E-02 0.  1.
    10030    2    1    2    0    0  0.00000000000E+00  0.00000000000E+00  0.14710351642E+03  0.33456591189E+04  0.33424235961E+04 0.  0.
        2    1    3    3  502    0 -0.10298405865E+04 -0.12716115381E+04 -0.26645533972E+03  0.16578799672E+04  0.25500000920E-02 0. -1.
       -2    1    3    3    0  502  0.10298405865E+04  0.12716115381E+04  0.41355885615E+03  0.16877791517E+04  0.25500000920E-02 0.  1.
</event>
<event>
 5   0  0.1269497E-06  0.3381823E+04  0.7818609E-02  0.8142382E-01
       -2   -1    0    0    0  501  0.00000000000E+00  0.00000000000E+00  0.12867598314E+04  0.12867598314E+04  0.25500000920E-02 0.  1.
        2   -1    0    0  501    0  0.00000000000E+00  0.00000000000E+00 -0.22220005655E+04  0.22220005655E+04  0.25500000920E-02 0. -1.
    10030    2    1    2    0    0  0.00000000000E+00  0.00000000000E+00 -0.93524073412E+03  0.35087603969E+04  0.33818226287E+04 0.  0.
        5    1    3    3  502    0  0.26148457692E+03  0.15930471811E+04  0.54235634910E+02  0.16152823590E+04  0.46999998093E+01 0.  1.
       -5    1    3    3    0  502 -0.26148457692E+03 -0.15930471811E+04 -0.98947636903E+03  0.18934780379E+04  0.46999998093E+01 0. -1.
</event>
<event>
 5   0  0.1300176E-06  0.3407224E+04  0.7818609E-02  0.8136136E-01
       -2   -1    0    0    0  501  0.00000000000E+00  0.00000000000E+00  0.13107537559E+04  0.13107537559E+04  0.25500000920E-02 0. -1.
        2   -1    0    0  501    0  0.00000000000E+00  0.00000000000E+00 -0.22142177905E+04  0.22142177905E+04  0.25500000920E-02 0.  1.
    10030    2    1    2    0    0  0.00000000000E+00  0.00000000000E+00 -0.90346403458E+03  0.35249715464E+04  0.34072242575E+04 0.  0.
        1    1    3    3  502    0 -0.16582382854E+04  0.28783269729E+03 -0.72484833339E+03  0.18324865563E+04  0.50400001928E-02 0.  1.
       -1    1    3    3    0  502  0.16582382854E+04 -0.28783269729E+03 -0.17861570119E+03  0.16924849900E+04  0.50400001928E-02 0. -1.
</event>
<event>
 5   0  0.4109937E-07  0.3392897E+04  0.7818609E-02  0.8139652E-01
        1   -1    0    0  501    0  0.00000000000E+00  0.00000000000E+00  0.17959135919E+04  0.17959135919E+04  0.50400001928E-02 0.  1.
       -1   -1    0    0    0  501  0.00000000000E+00  0.00000000000E+00 -0.16024920601E+04  0.16024920602E+04  0.50400001928E-02 0. -1.
    10030    2    1    2    0    0  0.00000000000E+00  0.00000000000E+00  0.19342153178E+03  0.33984056521E+04  0.33928968577E+04 0.  0.
        5    1    3    3  502    0 -0.12053786034E+04  0.65013439596E+03 -0.90606550177E+03  0.16421294388E+04  0.46999998093E+01 0. -1.
       -5    1    3    3    0  502  0.12053786034E+04 -0.65013439596E+03  0.10994870335E+04  0.17562762133E+04  0.46999998093E+01 0.  1.
</event>
<event>
 5   0  0.4464951E-07  0.3393641E+04  0.7818609E-02  0.8139469E-01
       -1   -1    0    0    0  501  0.00000000000E+00  0.00000000000E+00  0.14889842606E+04  0.14889842607E+04  0.50400001928E-02 0.  1.
        1   -1    0    0  501    0  0.00000000000E+00  0.00000000000E+00 -0.19336673448E+04  0.19336673448E+04  0.50400001928E-02 0. -1.
    10030    2    1    2    0    0  0.00000000000E+00  0.00000000000E+00 -0.44468308415E+03  0.34226516055E+04  0.33936412549E+04 0.  0.
        3    1    3    3  502    0  0.15751125921E+04  0.44113521359E+03  0.23275891912E+03  0.16521975303E+04  0.10100000352E+00 0.  1.
       -3    1    3    3    0  502 -0.15751125921E+04 -0.44113521359E+03 -0.67744200327E+03  0.17704540752E+04  0.10100000352E+00 0. -1.
</event>
<event>
 5   0  0.4272633E-07  0.3152947E+04  0.7818609E-02  0.8201356E-01
        1   -1    0    0  501    0  0.00000000000E+00  0.00000000000E+00  0.10915597709E+04  0.10915597709E+04  0.50400001928E-02 0. -1.
       -1   -1    0    0    0  501  0.00000000000E+00  0.00000000000E+00 -0.22768047027E+04  0.22768047027E+04  0.50400001928E-02 0.  1.
    10030    2    1    2    0    0  0.00000000000E+00  0.00000000000E+00 -0.11852449318E+04  0.33683644736E+04  0.31529468246E+04 0.  0.
        1    1    3    3  502    0  0.58622765557E+03  0.40187620770E+03  0.91067910407E+03  0.11552072459E+04  0.50400001928E-02 0. -1.
       -1    1    3    3    0  502 -0.58622765557E+03 -0.40187620770E+03 -0.20959240358E+04  0.22131572277E+04  0.50400001928E-02 0.  1.
</event>
<event>
 5   0  0.4109937E-07  0.3411097E+04  0.7818609E-02  0.8135188E-01
        1   -1    0    0  501    0  0.00000000000E+00  0.00000000000E+00  0.22086280305E+04  0.22086280305E+04  0.50400001928E-02 0.  1.
       -1   -1    0    0    0  501  0.00000000000E+00  0.00000000000E+00 -0.13170599136E+04  0.13170599136E+04  0.50400001928E-02 0. -1.
    10030    2    1    2    0    0  0.00000000000E+00  0.00000000000E+00  0.89156811691E+03  0.35256879440E+04  0.34110968575E+04 0.  0.
        5    1    3    3  502    0 -0.46446648732E+03 -0.22930696590E+03  0.21253538276E+04  0.21875698355E+04  0.46999998093E+01 0.  1.
       -5    1    3    3    0  502  0.46446648732E+03  0.22930696590E+03 -0.12337857107E+04  0.13381181086E+04  0.46999998093E+01 0. -1.
</event>
<event>
 5   0  0.1268230E-06  0.3401701E+04  0.7818609E-02  0.8137489E-01
       -2   -1    0    0    0  501  0.00000000000E+00  0.00000000000E+00  0.13225626595E+04  0.13225626595E+04  0.25500000920E-02 0.  1.
        2   -1    0    0  501    0  0.00000000000E+00  0.00000000000E+00 -0.21873387836E+04  0.21873387836E+04  0.25500000920E-02 0. -1.
    10030    2    1    2    0    0  0.00000000000E+00  0.00000000000E+00 -0.86477612408E+03  0.35099014431E+04  0.34017011032E+04 0.  0.
        2    1    3    3  502    0 -0.14800840623E+04 -0.70188050917E+03  0.40003573489E+02  0.16385619812E+04  0.25500000920E-02 0.  1.
       -2    1    3    3    0  502  0.14800840623E+04  0.70188050917E+03 -0.90477969757E+03  0.18713394619E+04  0.25500000920E-02 0. -1.
</event>
<event>
 5   0  0.4125758E-07  0.3398296E+04  0.7818609E-02  0.8138325E-01
       -1   -1    0    0    0  501  0.00000000000E+00  0.00000000000E+00  0.18175693369E+04  0.18175693369E+04  0.50400001928E-02 0.  1.
        1   -1    0    0  501    0  0.00000000000E+00  0.00000000000E+00 -0.15884426225E+04  0.15884426225E+04  0.50400001928E-02 0. -1.
    10030    2    1    2    0    0  0.00000000000E+00  0.00000000000E+00  0.22912671434E+03  0.34060119594E+04  0.33982963992E+04 0.  0.
        2    1    3    3  502    0 -0.79916403572E+03  0.76450401100E+03 -0.11783169495E+04  0.16160322931E+04  0.25500000920E-02 0. -1.
       -2    1    3    3    0  502  0.79916403572E+03 -0.76450401100E+03  0.14074436639E+04  0.17899796663E+04  0.25500000920E-02 0.  1.
</event>
<event>
 5   0  0.1269497E-06  0.3375513E+04  0.7818609E-02  0.8143943E-01
        2   -1    0    0  501    0  0.00000000000E+00  0.00000000000E+00  0.15008445097E+04  0.15008445097E+04  0.25500000920E-02 0.  1.
       -2   -1    0    0    0  501  0.00000000000E+00  0.00000000000E+00 -0.18979455691E+04  0.18979455691E+04  0.25500000920E-02 0. -1.
    10030    2    1    2    0    0  0.00000000000E+00  0.00000000000E+00 -0.39710105948E+03  0.33987900788E+04  0.33755125164E+04 0.  0.
        5    1    3    3  502    0 -0.25525164725E+03  0.11471174738E+04 -0.14182948932E+04  0.18419050997E+04  0.46999998093E+01 0. -1.
       -5    1    3    3    0  502  0.25525164725E+03 -0.11471174738E+04  0.10211938338E+04  0.15568849791E+04  0.46999998093E+01 0.  1.
</event>
<event>
 5   0  0.4272633E-07  0.3399664E+04  0.7818609E-02  0.8137989E-01
        1   -1    0    0  501    0  0.00000000000E+00  0.00000000000E+00  0.22563782649E+04  0.22563782649E+04  0.50400001928E-02 0.  1.
       -1   -1    0    0    0  501  0.00000000000E+00  0.00000000000E+00 -0.12805603938E+04  0.12805603938E+04  0.50400001928E-02 0. -1.
    10030    2    1    2    0    0  0.00000000000E+00  0.00000000000E+00  0.97581787109E+03  0.35369386588E+04  0.33996638890E+04 0.  0.
        1    1    3    3  502    0  0.75135476692E+03  0.14725460901E+04  0.89948718537E+03  0.18820210333E+04  0.50400001928E-02 0.  1.
       -1    1    3    3    0  502 -0.75135476692E+03 -0.14725460901E+04  0.76330685719E+02  0.16549176254E+04  0.50400001928E-02 0. -1.
</event>
<event>
 5   0  0.1256208E-06  0.3341704E+04  0.7818609E-02  0.8152364E-01
        2   -1    0    0  501    0  0.00000000000E+00  0.00000000000E+00  0.23119218310E+04  0.23119218310E+04  0.25500000920E-02 0. -1.
       -2   -1    0    0    0  501  0.00000000000E+00  0.00000000000E+00 -0.12075432829E+04  0.12075432829E+04  0.25500000920E-02 0.  1.
    10030    2    1    2    0    0  0.00000000000E+00  0.00000000000E+00  0.11043785481E+04  0.35194651139E+04  0.33417035641E+04 0.  0.
        3    1    3    3  502    0 -0.50324789773E+03 -0.15796040389E+04  0.77144183955E+03  0.18285321677E+04  0.10100000352E+00 0. -1.
       -3    1    3    3    0  502  0.50324789773E+03  0.15796040389E+04  0.33293670853E+03  0.16909329462E+04  0.10100000352E+00 0.  1.
</event>
<event>
 5   0  0.1269497E-06  0.3349165E+04  0.7818609E-02  0.8150497E-01
       -2   -1    0    0    0  501  0.00000000000E+00  0.00000000000E+00  0.12755517701E+04  0.12755517701E+04  0.25500000920E-02 0. -1.
        2   -1    0    0  501    0  0.00000000000E+00  0.00000000000E+00 -0.21984417880E+04  0.21984417880E+04  0.25500000920E-02 0.  1.
    10030    2    1    2    0    0  0.00000000000E+00  0.00000000000E+00 -0.92289001795E+03  0.34739935581E+04  0.33491648596E+04 0.  0.
        5    1    3    3  502    0 -0.10751324605E+04  0.54332606991E+03  0.74513469987E+03  0.14164606726E+04  0.46999998093E+01 0. -1.
       -5    1    3    3    0  502  0.10751324605E+04 -0.54332606991E+03 -0.16680247178E+04  0.20575328856E+04  0.46999998093E+01 0.  1.
</event>
<event>
 5   0  0.1269497E-06  0.3049976E+04  0.7818609E-02  0.8229602E-01
       -2   -1    0    0    0  501  0.00000000000E+00  0.00000000000E+00  0.19263385726E+04  0.19263385726E+04  0.25500000920E-02 0.  1.
        2   -1    0    0  501    0  0.00000000000E+00  0.00000000000E+00 -0.12072586205E+04  0.12072586205E+04  0.25500000920E-02 0. -1.
    10030    2    1    2    0    0  0.00000000000E+00  0.00000000000E+00  0.71907995213E+03  0.31335971931E+04  0.30499762935E+04 0.  0.
        5    1    3    3  502    0 -0.12833402415E+04  0.42252261369E+03 -0.36701103492E+03  0.14000738282E+04  0.46999998093E+01 0. -1.
       -5    1    3    3    0  502  0.12833402415E+04 -0.42252261369E+03  0.10860909870E+04  0.17335233649E+04  0.46999998093E+01 0.  1.
</event>
<event>
 5   0  0.1256208E-06  0.3339050E+04  0.7818609E-02  0.8153030E-01
       -2   -1    0    0    0  501  0.00000000000E+00  0.00000000000E+00  0.30268267270E+04  0.30268267270E+04  0.25500000920E-02 0. -1.
        2   -1    0    0  501    0  0.00000000000E+00  0.00000000000E+00 -0.92086986528E+03  0.92086986528E+03  0.25500000920E-02 0.  1.
    10030    2    1    2    0    0  0.00000000000E+00  0.00000000000E+00  0.21059568617E+04  0.39476965923E+04  0.33390498770E+04 0.  0.
        3    1    3    3  502    0 -0.15494952396E+04 -0.52285411303E+03  0.14504107085E+04  0.21858643953E+04  0.10100000352E+00 0. -1.
       -3    1    3    3    0  502  0.15494952396E+04  0.52285411303E+03  0.65554615325E+03  0.17618321970E+04  0.10100000352E+00 0.  1.
</event>
<event>
 5   0  0.4272633E-07  0.3399791E+04  0.7818609E-02  0.8137958E-01
       -1   -1    0    0    0  501  0.00000000000E+00  0.00000000000E+00  0.13207295184E+04  0.13207295184E+04  0.50400001928E-02 0. -1.
        1   -1    0    0  501    0  0.00000000000E+00  0.00000000000E+00 -0.21879158259E+04  0.21879158259E+04  0.50400001928E-02 0.  1.
    10030    2    1    2    0    0  0.00000000000E+00  0.00000000000E+00 -0.86718630748E+03  0.35086453443E+04  0.33997911789E+04 0.  0.
        1    1    3    3  502    0 -0.74454030107E+02  0.13186850897E+04  0.67079679782E+03  0.14813649491E+04  0.50400001928E-02 0. -1.
       -1    1    3    3    0  502  0.74454030107E+02 -0.13186850897E+04 -0.15379831053E+04  0.20272803952E+04  0.50400001928E-02 0.  1.
</event>
<event>
 5   0  0.4289684E-07  0.3389311E+04  0.7818609E-02  0.8140535E-01
       -1   -1    0    0    0  501  0.00000000000E+00  0.00000000000E+00  0.23118701778E+04  0.23118701778E+04  0.50400001928E-02 0.  1.
        1   -1    0    0  501    0  0.00000000000E+00  0.00000000000E+00 -0.12422222114E+04  0.12422222114E+04  0.50400001928E-02 0. -1.
    10030    2    1    2    0    0  0.00000000000E+00  0.00000000000E+00  0.10696479664E+04  0.35540923892E+04  0.33893105404E+04 0.  0.
        4    1    3    3  502    0 -0.14667297778E+04  0.71119804247E+03  0.10207721844E+04  0.19232983030E+04  0.12699999809E+01 0.  1.
       -4    1    3    3    0  502  0.14667297778E+04 -0.71119804247E+03  0.48875781978E+02  0.16307940863E+04  0.12699999809E+01 0. -1.
</event>
<event>
 5   0  0.4109937E-07  0.3406473E+04  0.7818609E-02  0.8136319E-01
       -1   -1    0    0    0  501  0.00000000000E+00  0.00000000000E+00  0.16486014775E+04  0.16486014775E+04  0.50400001928E-02 0. -1.
        1   -1    0    0  501    0  0.00000000000E+00  0.00000000000E+00 -0.17596823058E+04  0.17596823059E+04  0.50400001928E-02 0.  1.
    10030    2    1    2    0    0  0.00000000000E+00  0.00000000000E+00 -0.11108082836E+03  0.34082837833E+04  0.34064731611E+04 0.  0.
        5    1    3    3  502    0 -0.10628234690E+04 -0.10590283291E+04 -0.86210662042E+03  0.17304290344E+04  0.46999998093E+01 0.  1.
       -5    1    3    3    0  502  0.10628234690E+04  0.10590283291E+04  0.75102579205E+03  0.16778547489E+04  0.46999998093E+01 0. -1.
</event>
<event>
 5   0  0.1268230E-06  0.3390543E+04  0.7818609E-02  0.8140231E-01
        2   -1    0    0  501    0  0.00000000000E+00  0.00000000000E+00  0.18108669146E+04  0.18108669146E+04  0.25500000920E-02 0.  1.
       -2   -1    0    0    0  501  0.00000000000E+00  0.00000000000E+00 -0.15870551266E+04  0.15870551267E+04  0.25500000920E-02 0. -1.
    10030    2    1    2    0    0  0.00000000000E+00  0.00000000000E+00  0.22381178797E+03  0.33979220413E+04  0.33905430955E+04 0.  0.
        2    1    3    3  502    0  0.61364510484E+03 -0.15187494573E+04 -0.32583457691E+03  0.16701282587E+04  0.25500000920E-02 0.  1.
       -2    1    3    3    0  502 -0.61364510484E+03  0.15187494573E+04  0.54964636488E+03  0.17277937826E+04  0.25500000920E-02 0. -1.
</event>
<event>
 5   0  0.4464951E-07  0.3508386E+04  0.7818609E-02  0.8111806E-01
       -1   -1    0    0    0  501  0.00000000000E+00  0.00000000000E+00  0.17086016434E+04  0.17086016434E+04  0.50400001928E-02 0. -1.
        1   -1    0    0  501    0  0.00000000000E+00  0.00000000000E+00 -0.18010006203E+04  0.18010006203E+04  0.50400001928E-02 0.  1.
    10030    2    1    2    0    0  0.00000000000E+00  0.00000000000E+00 -0.92398976910E+02  0.35096022638E+04  0.35083857369E+04 0.  0.
        3    1    3    3  502    0 -0.73379450461E+03 -0.14731580938E+04 -0.65348779985E+03  0.17707895016E+04  0.10100000352E+00 0.  1.
       -3    1    3    3    0  502  0.73379450461E+03  0.14731580938E+04  0.56108882294E+03  0.17388127621E+04  0.10100000352E+00 0. -1.
</event>
<event>
 5   0  0.4289684E-07  0.3432090E+04  0.7818609E-02  0.8130075E-01
        1   -1    0    0  501    0  0.00000000000E+00  0.00000000000E+00  0.25155627105E+04  0.25155627105E+04  0.50400001928E-02 0. -1.
       -1   -1    0    0    0  501  0.00000000000E+00  0.00000000000E+00 -0.11706365285E+04  0.11706365285E+04  0.50400001928E-02 0.  1.
    10030    2    1    2    0    0  0.00000000000E+00  0.00000000000E+00  0.13449261821E+04  0.36861992390E+04  0.34320895085E+04 0.  0.
        4    1    3    3  502    0 -0.98934375484E+02  0.39349422387E+03 -0.11183771071E+04  0.11897036107E+04  0.12699999809E+01 0.  1.
       -4    1    3    3    0  502  0.98934375484E+02 -0.39349422387E+03  0.24633032891E+04  0.24964956283E+04  0.12699999809E+01 0. -1.
</event>
<event>
 5   0  0.1277635E-06  0.3294215E+04  0.7818609E-02  0.8164369E-01
       -2   -1    0    0    0  501  0.00000000000E+00  0.00000000000E+00  0.15678546317E+04  0.15678546317E+04  0.25500000920E-02 0.  1.
        2   -1    0    0  501    0  0.00000000000E+00  0.00000000000E+00 -0.17303660388E+04  0.17303660388E+04  0.25500000920E-02 0. -1.
    10030    2    1    2    0    0  0.00000000000E+00  0.00000000000E+00 -0.16251140710E+03  0.32982206704E+04  0.32942145700E+04 0.  0.
        4    1    3    3  502    0 -0.12654817382E+04 -0.51327358870E+03 -0.10032811450E+04  0.16945407860E+04  0.12699999809E+01 0. -1.
       -4    1    3    3    0  502  0.12654817382E+04  0.51327358870E+03  0.84076973793E+03  0.16036798844E+04  0.12699999809E+01 0.  1.
</event>
<event>
 5   0  0.4289684E-07  0.3312207E+04  0.7818609E-02  0.8159796E-01
        1   -1    0    0  501    0  0.00000000000E+00  0.00000000000E+00  0.15901738847E+04  0.15901738847E+04  0.50400001928E-02 0.  1.
       -1   -1    0    0    0  501  0.00000000000E+00  0.00000000000E+00 -0.17247661516E+04  0.17247661516E+04  0.50400001928E-02 0. -1.
    10030    2    1    2    0    0  0.00000000000E+00  0.00000000000E+00 -0.13459226688E+03  0.33149400363E+04  0.33122065705E+04 0.  0.
        4    1    3    3  502    0  0.55965277074E+03  0.27567593952E+03 -0.16026638837E+04  0.17198085895E+04  0.12699999809E+01 0. -1.
       -4    1    3    3    0  502 -0.55965277074E+03 -0.27567593952E+03  0.14680716168E+04  0.15951314468E+04  0.12699999809E+01 0.  1.
</event>
<event>
 5   0  0.4289684E-07  0.3282190E+04  0.7818609E-02  0.8167442E-01
       -1   -1    0    0    0  501  0.00000000000E+00  0.00000000000E+00  0.17000968287E+04  0.17000968288E+04  0.50400001928E-02 0.  1.
        1   -1    0    0  501    0  0.00000000000E+00  0.00000000000E+00 -0.15841409346E+04  0.15841409346E+04  0.50400001928E-02 0. -1.
    10030    2    1    2    0    0  0.00000000000E+00  0.00000000000E+00  0.11595589415E+03  0.32842377634E+04  0.32821901098E+04 0.  0.
        4    1    3    3  502    0 -0.11304490870E+04 -0.17949282049E+03 -0.11187908432E+04  0.16005709527E+04  0.12699999809E+01 0. -1.
       -4    1    3    3    0  502  0.11304490870E+04  0.17949282049E+03  0.12347467374E+04  0.16836668106E+04  0.12699999809E+01 0.  1.
</event>
<event>
 5   0  0.4272633E-07  0.3319879E+04  0.7818609E-02  0.8157856E-01
       -1   -1    0    0    0  501  0.00000000000E+00  0.00000000000E+00  0.13638616963E+04  0.13638616963E+04  0.50400001928E-02 0.  1.
        1   -1    0    0  501    0  0.00000000000E+00  0.00000000000E+00 -0.20202922980E+04  0.20202922981E+04  0.50400001928E-02 0. -1.
    10030    2    1    2    0    0  0.00000000000E+00  0.00000000000E+00 -0.65643060172E+03  0.33841539944E+04  0.33198790826E+04 0.  0.
        1    1    3    3  502    0  0.51700955163E+03  0.10406799715E+04  0.88009712826E+03  0.14576984032E+04  0.50400001928E-02 0.  1.
       -1    1    3    3    0  502 -0.51700955163E+03 -0.10406799715E+04 -0.15365277300E+04  0.19264555911E+04  0.50400001928E-02 0. -1.
</event>
<event>
 5   0  0.1300176E-06  0.3353416E+04  0.7818609E-02  0.8149435E-01
       -2   -1    0    0    0  501  0.00000000000E+00  0.00000000000E+00  0.12515629128E+04  0.12515629128E+04  0.25500000920E-02 0.  1.
        2   -1    0    0  501    0  0.00000000000E+00  0.00000000000E+00 -0.22462708692E+04  0.22462708692E+04  0.25500000920E-02 0. -1.
    10030    2    1    2    0    0  0.00000000000E+00  0.00000000000E+00 -0.99470795636E+03  0.34978337819E+04  0.33534157582E+04 0.  0.
        1    1    3    3  502    0  0.15362310736E+04 -0.65195384647E+03 -0.66650950618E+03  0.17970210492E+04  0.50400001928E-02 0.  1.
       -1    1    3    3    0  502 -0.15362310736E+04  0.65195384647E+03 -0.32819845018E+03  0.17008127328E+04  0.50400001928E-02 0. -1.
</event>
<event>
 5   0  0.4464951E-07  0.3267932E+04  0.7818609E-02  0.8171103E-01
       -1   -1    0    0    0  501  0.00000000000E+00  0.00000000000E+00  0.11068441273E+04  0.11068441273E+04  0.50400001928E-02 0. -1.
        1   -1    0    0  501    0  0.00000000000E+00  0.00000000000E+00 -0.24121233748E+04  0.24121233748E+04  0.50400001928E-02 0.  1.
    10030    2    1    2    0    0  0.00000000000E+00  0.00000000000E+00 -0.13052792475E+04  0.35189675021E+04  0.32679318180E+04 0.  0.
        3    1    3    3  502    0  0.11921818504E+04  0.26625019016E+03 -0.18212018282E+04  0.21929347545E+04  0.10100000352E+00 0.  1.
       -3    1    3    3    0  502 -0.11921818504E+04 -0.26625019016E+03  0.51592258070E+03  0.13260327476E+04  0.10100000352E+00 0. -1.
</event>
<event>
 5   0  0.1268230E-06  0.3333975E+04  0.7818609E-02  0.8154304E-01
       -2   -1    0    0    0  501  0.00000000000E+00  0.00000000000E+00  0.30134697245E+04  0.30134697245E+04  0.25500000920E-02 0. -1.
        2   -1    0    0  501    0  0.00000000000E+00  0.00000000000E+00 -0.92214186436E+03  0.92214186437E+03  0.25500000920E-02 0.  1.
    10030    2    1    2    0    0  0.00000000000E+00  0.00000000000E+00  0.20913278602E+04  0.39356115889E+04  0.33339745590E+04 0.  0.
        2    1    3    3  502    0 -0.20381651294E+03 -0.68311859972E+03 -0.73312930143E+03  0.10225804442E+04  0.25500000920E-02 0.  1.
       -2    1    3    3    0  502  0.20381651294E+03  0.68311859972E+03  0.28244571616E+04  0.29130311447E+04  0.25500000920E-02 0. -1.
</event>
<event>
 5   0  0.1256208E-06  0.3437210E+04  0.7818609E-02  0.8128834E-01
       -2   -1    0    0    0  501  0.00000000000E+00  0.00000000000E+00  0.16472498917E+04  0.16472498917E+04  0.25500000920E-02 0.  1.
        2   -1    0    0  501    0  0.00000000000E+00  0.00000000000E+00 -0.17930505813E+04  0.17930505813E+04  0.25500000920E-02 0. -1.
    10030    2    1    2    0    0  0.00000000000E+00  0.00000000000E+00 -0.14580068959E+03  0.34403004731E+04  0.34372095519E+04 0.  0.
        3    1    3    3  502    0 -0.97550058394E+03  0.11715728905E+04 -0.86697241940E+03  0.17538031854E+04  0.10100000352E+00 0. -1.
       -3    1    3    3    0  502  0.97550058394E+03 -0.11715728905E+04  0.72117172980E+03  0.16864972876E+04  0.10100000352E+00 0.  1.
</event>
<event>
 5   0  0.4109937E-07  0.3384268E+04  0.7818609E-02  0.8141778E-01
       -1   -1    0    0    0  501  0.00000000000E+00  0.00000000000E+00  0.13125446385E+04  0.13125446386E+04  0.50400001928E-02 0. -1.
        1   -1    0    0  501    0  0.00000000000E+00  0.00000000000E+00 -0.21815008474E+04  0.21815008474E+04  0.50400001928E-02 0.  1.
    10030    2    1    2    0    0  0.00000000000E+00  0.00000000000E+00 -0.86895620883E+03  0.34940454859E+04  0.33842678625E+04 0.  0.
        5    1    3    3  502    0  0.19987891803E+03  0.16660242320E+04 -0.65998202366E+03  0.18031047349E+04  0.46999998093E+01 0.  1.
       -5    1    3    3    0  502 -0.19987891803E+03 -0.16660242320E+04 -0.20897418517E+03  0.16909407510E+04  0.46999998093E+01 0. -1.
</event>
<event>
 5   0  0.1277635E-06  0.3391597E+04  0.7818609E-02  0.8139972E-01
       -2   -1    0    0    0  501  0.00000000000E+00  0.00000000000E+00  0.14459292368E+04  0.14459292368E+04  0.25500000920E-02 0. -1.
        2   -1    0    0  501    0  0.00000000000E+00  0.00000000000E+00 -0.19888475192E+04  0.19888475192E+04  0.25500000920E-02 0.  1.
    10030    2    1    2    0    0  0.00000000000E+00  0.00000000000E+00 -0.54291828245E+03  0.34347767560E+04  0.33915971314E+04 0.  0.
        4    1    3    3  502    0 -0.36075221575E+03  0.10943249372E+04  0.98858458490E+03  0.15182194584E+04  0.12699999809E+01 0. -1.
       -4    1    3    3    0  502  0.36075221575E+03 -0.10943249372E+04 -0.15315028673E+04  0.19165572976E+04  0.12699999809E+01 0.  1.
</event>
<event>
 5   0  0.1277635E-06  0.3373247E+04  0.7818609E-02  0.8144504E-01
       -2   -1    0    0    0  501  0.00000000000E+00  0.00000000000E+00  0.18091831155E+04  0.18091831155E+04  0.25500000920E-02 0.  1.
        2   -1    0    0  501    0  0.00000000000E+00  0.00000000000E+00 -0.15723663807E+04  0.15723663807E+04  0.25500000920E-02 0. -1.
    10030    2    1    2    0    0  0.00000000000E+00  0.00000000000E+00  0.23681673482E+03  0.33815494962E+04  0.33732469268E+04 0.  0.
        4    1    3    3  502    0  0.61488550388E+03 -0.15452548483E+04  0.39981331602E+03  0.17104821045E+04  0.12699999809E+01 0.  1.
       -4    1    3    3    0  502 -0.61488550388E+03  0.15452548483E+04 -0.16299658120E+03  0.16710673917E+04  0.12699999809E+01 0. -1.
</event>
<event>
 5   0  0.1268230E-06  0.3413796E+04  0.7818609E-02  0.8134529E-01
       -2   -1    0    0    0  501  0.00000000000E+00  0.00000000000E+00  0.19230992884E+04  0.19230992884E+04  0.25500000920E-02 0.  1.
        2   -1    0    0  501    0  0.00000000000E+00  0.00000000000E+00 -0.15150027190E+04  0.15150027190E+04  0.25500000920E-02 0. -1.
    10030    2    1    2    0    0  0.00000000000E+00  0.00000000000E+00  0.40809656932E+03  0.34381020074E+04  0.34137959229E+04 0.  0.
        2    1    3    3  502    0 -0.50720386629E+03 -0.15914437567E+04  0.55805010222E+03  0.17610703873E+04  0.25500000920E-02 0. -1.
       -2    1    3    3    0  502  0.50720386629E+03  0.15914437567E+04 -0.14995353290E+03  0.16770316200E+04  0.25500000920E-02 0.  1.
</event>
<event>
 5   0  0.4109937E-07  0.3454313E+04  0.7818609E-02  0.8124703E-01
        1   -1    0    0  501    0  0.00000000000E+00  0.00000000000E+00  0.24073702471E+04  0.24073702471E+04  0.50400001928E-02 0.  1.
       -1   -1    0    0    0  501  0.00000000000E+00  0.00000000000E+00 -0.12391403604E+04  0.12391403604E+04  0.50400001928E-02 0. -1.
    10030    2    1    2    0    0  0.00000000000E+00  0.00000000000E+00  0.11682298867E+04  0.36465106075E+04  0.34543130349E+04 0.  0.
        5    1    3    3  502    0 -0.15052123895E+04  0.27341365987E+03  0.14303590796E+04  0.20943659072E+04  0.46999998093E+01 0.  1.
       -5    1    3    3    0  502  0.15052123895E+04 -0.27341365987E+03 -0.26212919294E+03  0.15521447003E+04  0.46999998093E+01 0. -1.
</event>
<event>
 5   0  0.1256208E-06  0.3395092E+04  0.7818609E-02  0.8139112E-01
       -2   -1    0    0    0  501  0.00000000000E+00  0.00000000000E+00  0.23788157645E+04  0.23788157645E+04  0.25500000920E-02 0.  1.
        2   -1    0    0  501    0  0.00000000000E+00  0.00000000000E+00 -0.12113850442E+04  0.12113850442E+04  0.25500000920E-02 0. -1.
    10030    2    1    2    0    0  0.00000000000E+00  0.00000000000E+00  0.11674307203E+04  0.35902008087E+04  0.33950916571E+04 0.  0.
        3    1    3    3  502    0 -0.24763580182E+03 -0.14287787962E+04  0.15170047113E+04  0.20985794345E+04  0.10100000352E+00 0.  1.
       -3    1    3    3    0  502  0.24763580182E+03  0.14287787962E+04 -0.34957399099E+03  0.14916213742E+04  0.10100000352E+00 0. -1.
</event>
<event>
 5   0  0.4464951E-07  0.3288900E+04  0.7818609E-02  0.8165725E-01
        1   -1    0    0  501    0  0.00000000000E+00  0.00000000000E+00  0.10556715241E+04  0.10556715241E+04  0.50400001928E-02 0. -1.
       -1   -1    0    0    0  501  0.00000000000E+00  0.00000000000E+00 -0.25616077908E+04  0.25616077908E+04  0.50400001928E-02 0.  1.
    10030    2    1    2    0    0  0.00000000000E+00  0.00000000000E+00 -0.15059362667E+04  0.36172793149E+04  0.32889003637E+04 0.  0.
        3    1    3    3  502    0 -0.74086459354E+03 -0.19787872866E+03  0.84698638155E+03  0.11425507770E+04  0.10100000352E+00 0. -1.
       -3    1    3    3    0  502  0.74086459354E+03  0.19787872866E+03 -0.23529226483E+04  0.24747285379E+04  0.10100000352E+00 0.  1.
</event>
<event>
 5   0  0.1277635E-06  0.3384965E+04  0.7818609E-02  0.8141606E-01
       -2   -1    0    0    0  501  0.00000000000E+00  0.00000000000E+00  0.16798345935E+04  0.16798345935E+04  0.25500000920E-02 0.  1.
        2   -1    0    0  501    0  0.00000000000E+00  0.00000000000E+00 -0.17052256497E+04  0.17052256497E+04  0.25500000920E-02 0. -1.
    10030    2    1    2    0    0  0.00000000000E+00  0.00000000000E+00 -0.25391056182E+02  0.33850602432E+04  0.33849650138E+04 0.  0.
        4    1    3    3  502    0 -0.59362868186E+03 -0.11453871220E+04 -0.11082576135E+04  0.17007478420E+04  0.12699999809E+01 0. -1.
       -4    1    3    3    0  502  0.59362868186E+03  0.11453871220E+04  0.10828665573E+04  0.16843124013E+04  0.12699999809E+01 0.  1.
</event>
<event>
 5   0  0.4289684E-07  0.3412671E+04  0.7818609E-02  0.8134803E-01
        1   -1    0    0  501    0  0.00000000000E+00  0.00000000000E+00  0.32286816153E+04  0.32286816153E+04  0.50400001928E-02 0.  1.
       -1   -1    0    0    0  501  0.00000000000E+00  0.00000000000E+00 -0.90178635968E+03  0.90178635970E+03  0.50400001928E-02 0. -1.
    10030    2    1    2    0    0  0.00000000000E+00  0.00000000000E+00  0.23268952556E+04  0.41304679750E+04  0.34126711183E+04 0.  0.
        4    1    3    3  502    0 -0.46622682503E+02  0.15860765341E+04  0.40395341280E+03  0.16373736346E+04  0.12699999809E+01 0. -1.
       -4    1    3    3    0  502  0.46622682503E+02 -0.15860765341E+04  0.19229418428E+04  0.24930943404E+04  0.12699999809E+01 0.  1.
</event>
<event>
 5   0  0.4464951E-07  0.3426798E+04  0.7818609E-02  0.8131360E-01
       -1   -1    0    0    0  501  0.00000000000E+00  0.00000000000E+00  0.10014142107E+04  0.10014142107E+04  0.50400001928E-02 0. -1.
        1   -1    0    0  501    0  0.00000000000E+00  0.00000000000E+00 -0.29315900269E+04  0.29315900269E+04  0.50400001928E-02 0.  1.
    10030    2    1    2    0    0  0.00000000000E+00  0.00000000000E+00 -0.19301758162E+04  0.39330042376E+04  0.34267978714E+04 0.  0.
        3    1    3    3  502    0  0.79321438078E+03 -0.10404093495E+04  0.30473608708E+03  0.13433185629E+04  0.10100000352E+00 0. -1.
       -3    1    3    3    0  502 -0.79321438078E+03  0.10404093495E+04 -0.22349119033E+04  0.25896856748E+04  0.10100000352E+00 0.  1.
</event>
<event>
 5   0  0.1268230E-06  0.3374489E+04  0.7818609E-02  0.8144196E-01
        2   -1    0    0  501    0  0.00000000000E+00  0.00000000000E+00  0.24498002822E+04  0.24498002822E+04  0.25500000920E-02 0.  1.
       -2   -1    0    0    0  501  0.00000000000E+00  0.00000000000E+00 -0.11620516281E+04  0.11620516281E+04  0.25500000920E-02 0. -1.
    10030    2    1    2    0    0  0.00000000000E+00  0.00000000000E+00  0.12877486542E+04  0.36118519103E+04  0.33744892392E+04 0.  0.
        2    1    3    3  502    0 -0.81299818389E+03  0.12954017461E+04 -0.11882308845E+03  0.15339982586E+04  0.25500000920E-02 0. -1.
       -2    1    3    3    0  502  0.81299818389E+03 -0.12954017461E+04  0.14065717426E+04  0.20778536517E+04  0.25500000920E-02 0.  1.
</event>
<event>
 5   0  0.4464951E-07  0.3371467E+04  0.7818609E-02  0.8144945E-01
        1   -1    0    0  501    0  0.00000000000E+00  0.00000000000E+00  0.25791578272E+04  0.25791578272E+04  0.50400001928E-02 0.  1.
       -1   -1    0    0    0  501  0.00000000000E+00  0.00000000000E+00 -0.11017928506E+04  0.11017928506E+04  0.50400001928E-02 0. -1.
    10030    2    1    2    0    0  0.00000000000E+00  0.00000000000E+00  0.14773649766E+04  0.36809506778E+04  0.33714671314E+04 0.  0.
        3    1    3    3  502    0 -0.47471056366E+03 -0.90364200520E+03 -0.72602403637E+03  0.12526092385E+04  0.10100000352E+00 0.  1.
       -3    1    3    3    0  502  0.47471056366E+03  0.90364200520E+03  0.22033890130E+04  0.24283414393E+04  0.10100000352E+00 0. -1.
</event>
<event>
 5   0  0.1277635E-06  0.3430973E+04  0.7818609E-02  0.8130346E-01
       -2   -1    0    0    0  501  0.00000000000E+00  0.00000000000E+00  0.15625668535E+04  0.15625668535E+04  0.25500000920E-02 0.  1.
        2   -1    0    0  501    0  0.00000000000E+00  0.00000000000E+00 -0.18833716943E+04  0.18833716943E+04  0.25500000920E-02 0. -1.
    10030    2    1    2    0    0  0.00000000000E+00  0.00000000000E+00 -0.32080484081E+03  0.34459385478E+04  0.34309731461E+04 0.  0.
        4    1    3    3  502    0 -0.96431330988E+03  0.13583107660E+04 -0.57204900954E+03  0.17612921333E+04  0.12699999809E+01 0.  1.
       -4    1    3    3    0  502  0.96431330988E+03 -0.13583107660E+04  0.25124416873E+03  0.16846464145E+04  0.12699999809E+01 0. -1.
</event>
<event>
 5   0  0.1300176E-06  0.3474688E+04  0.7818609E-02  0.8119815E-01
       -2   -1    0    0    0  501  0.00000000000E+00  0.00000000000E+00  0.11637214174E+04  0.11637214174E+04  0.25500000920E-02 0.  1.
        2   -1    0    0  501    0  0.00000000000E+00  0.00000000000E+00 -0.25937169418E+04  0.25937169418E+04  0.25500000920E-02 0. -1.
    10030    2    1    2    0    0  0.00000000000E+00  0.00000000000E+00 -0.14299955243E+04  0.37574383592E+04  0.34746878743E+04 0.  0.
        1    1    3    3  502    0 -0.96505296818E+03 -0.12079592069E+04 -0.15718607318E+04  0.22048217246E+04  0.50400001928E-02 0. -1.
       -1    1    3    3    0  502  0.96505296818E+03  0.12079592069E+04  0.14186520751E+03  0.15526166346E+04  0.50400001928E-02 0.  1.
</event>
<event>
 5   0  0.1256208E-06  0.3465812E+04  0.7818609E-02  0.8121940E-01
       -2   -1    0    0    0  501  0.00000000000E+00  0.00000000000E+00  0.13004046704E+04  0.13004046704E+04  0.25500000920E-02 0.  1.
        2   -1    0    0  501    0  0.00000000000E+00  0.00000000000E+00 -0.23092527987E+04  0.23092527987E+04  0.25500000920E-02 0. -1.
    10030    2    1    2    0    0  0.00000000000E+00  0.00000000000E+00 -0.10088481283E+04  0.36096574691E+04  0.34658119537E+04 0.  0.
        3    1    3    3  502    0 -0.14803113723E+04  0.96779826791E+02 -0.14372972977E+04  0.20655535883E+04  0.10100000352E+00 0. -1.
       -3    1    3    3    0  502  0.14803113723E+04 -0.96779826791E+02  0.42844916935E+03  0.15441038808E+04  0.10100000352E+00 0.  1.
</event>
<event>
 5   0  0.1256208E-06  0.3006424E+04  0.7818609E-02  0.8241899E-01
        2   -1    0    0  501    0  0.00000000000E+00  0.00000000000E+00  0.33338889183E+04  0.33338889183E+04  0.25500000920E-02 0. -1.
       -2   -1    0    0    0  501  0.00000000000E+00  0.00000000000E+00 -0.67778086748E+03  0.67778086748E+03  0.25500000920E-02 0.  1.
    10030    2    1    2    0    0  0.00000000000E+00  0.00000000000E+00  0.26561080508E+04  0.40116697857E+04  0.30064238710E+04 0.  0.
        3    1    3    3  502    0 -0.42148251968E+03 -0.67904063070E+03 -0.37078958807E+03  0.88103837678E+03  0.10100000352E+00 0.  1.
       -3    1    3    3    0  502  0.42148251968E+03  0.67904063070E+03  0.30268976388E+04  0.31306314090E+04  0.10100000352E+00 0. -1.
</event>
<event>
 5   0  0.1269497E-06  0.3367158E+04  0.7818609E-02  0.8146014E-01
        2   -1    0    0  501    0  0.00000000000E+00  0.00000000000E+00  0.25996615268E+04  0.25996615268E+04  0.25500000920E-02 0. -1.
       -2   -1    0    0    0  501  0.00000000000E+00  0.00000000000E+00 -0.10903101927E+04  0.10903101927E+04  0.25500000920E-02 0.  1.
    10030    2    1    2    0    0  0.00000000000E+00  0.00000000000E+00  0.15093513341E+04  0.36899717195E+04  0.33671575314E+04 0.  0.
        5    1    3    3  502    0  0.12368010888E+04  0.11301411973E+04  0.57288215448E+03  0.17706247802E+04  0.46999998093E+01 0. -1.
       -5    1    3    3    0  502 -0.12368010888E+04 -0.11301411973E+04  0.93646917965E+03  0.19193469394E+04  0.46999998093E+01 0.  1.
</event>
<event>
 5   0  0.4464951E-07  0.3354205E+04  0.7818609E-02  0.8149238E-01
        1   -1    0    0  501    0  0.00000000000E+00  0.00000000000E+00  0.22630329378E+04  0.22630329378E+04  0.50400001928E-02 0.  1.
       -1   -1    0    0    0  501  0.00000000000E+00  0.00000000000E+00 -0.12428774338E+04  0.12428774339E+04  0.50400001928E-02 0. -1.
    10030    2    1    2    0    0  0.00000000000E+00  0.00000000000E+00  0.10201555039E+04  0.35059103716E+04  0.33542048658E+04 0.  0.
        3    1    3    3  502    0 -0.39814899912E+03  0.60840236788E+03  0.20897207290E+04  0.22126022693E+04  0.10100000352E+00 0.  1.
       -3    1    3    3    0  502  0.39814899912E+03 -0.60840236788E+03 -0.10695652251E+04  0.12933081023E+04  0.10100000352E+00 0. -1.
</event>
<event>
 5   0  0.4289684E-07  0.3393237E+04  0.7818609E-02  0.8139568E-01
       -1   -1    0    0    0  501  0.00000000000E+00  0.00000000000E+00  0.12508734087E+04  0.12508734087E+04  0.50400001928E-02 0.  1.
        1   -1    0    0  501    0  0.00000000000E+00  0.00000000000E+00 -0.23012029129E+04  0.23012029130E+04  0.50400001928E-02 0. -1.
    10030    2    1    2    0    0  0.00000000000E+00  0.00000000000E+00 -0.10503295043E+04  0.35520763216E+04  0.33932365268E+04 0.  0.
        4    1    3    3  502    0  0.72136884800E+03 -0.82375055274E+03  0.83148493157E+03  0.13748842833E+04  0.12699999809E+01 0.  1.
       -4    1    3    3    0  502 -0.72136884800E+03  0.82375055274E+03 -0.18818144359E+04  0.21771920384E+04  0.12699999809E+01 0. -1.
</event>
<event>
 5   0  0.1277635E-06  0.3428828E+04  0.7818609E-02  0.8130867E-01
       -2   -1    0    0    0  501  0.00000000000E+00  0.00000000000E+00  0.15515113579E+04  0.15515113579E+04  0.25500000920E-02 0. -1.
        2   -1    0    0  501    0  0.00000000000E+00  0.00000000000E+00 -0.18944211505E+04  0.18944211505E+04  0.25500000920E-02 0.  1.
    10030    2    1    2    0    0  0.00000000000E+00  0.00000000000E+00 -0.34290979259E+03  0.34459325084E+04  0.34288283314E+04 0.  0.
        4    1    3    3  502    0 -0.86979674672E+03  0.12002531175E+04 -0.10371812751E+04  0.18091159545E+04  0.12699999809E+01 0.  1.
       -4    1    3    3    0  502  0.86979674672E+03 -0.12002531175E+04  0.69427148251E+03  0.16368165538E+04  0.12699999809E+01 0. -1.
</event>
<event>
 5   0  0.4464951E-07  0.3398263E+04  0.7818609E-02  0.8138333E-01
       -1   -1    0    0    0  501  0.00000000000E+00  0.00000000000E+00  0.13171296132E+04  0.13171296132E+04  0.50400001928E-02 0.  1.
        1   -1    0    0  501    0  0.00000000000E+00  0.00000000000E+00 -0.21919237754E+04  0.21919237754E+04  0.50400001928E-02 0. -1.
    10030    2    1    2    0    0  0.00000000000E+00  0.00000000000E+00 -0.87479416219E+03  0.35090533886E+04  0.33982629177E+04 0.  0.
        3    1    3    3  502    0  0.13937237633E+04  0.41948618781E+03  0.46789119171E+03  0.15288416424E+04  0.10100000352E+00 0.  1.
       -3    1    3    3    0  502 -0.13937237633E+04 -0.41948618781E+03 -0.13426853539E+04  0.19802117462E+04  0.10100000352E+00 0. -1.
</event>
<event>
 5   0  0.4125758E-07  0.3369638E+04  0.7818609E-02  0.8145399E-01
       -1   -1    0    0    0  501  0.00000000000E+00  0.00000000000E+00  0.87275802965E+03  0.87275802967E+03  0.50400001928E-02 0.  1.
        1   -1    0    0  501    0  0.00000000000E+00  0.00000000000E+00 -0.32524644200E+04  0.32524644200E+04  0.50400001928E-02 0. -1.
    10030    2    1    2    0    0  0.00000000000E+00  0.00000000000E+00 -0.23797063903E+04  0.41252224496E+04  0.33696376296E+04 0.  0.
        2    1    3    3  502    0 -0.32581707735E+03 -0.93067194810E+03  0.48260688983E+03  0.10978235072E+04  0.25500000920E-02 0.  1.
       -2    1    3    3    0  502  0.32581707735E+03  0.93067194810E+03 -0.28623132801E+04  0.30273989424E+04  0.25500000920E-02 0. -1.
</event>
<event>
 5   0  0.4109937E-07  0.3482748E+04  0.7818609E-02  0.8117891E-01
       -1   -1    0    0    0  501  0.00000000000E+00  0.00000000000E+00  0.12365060852E+04  0.12365060852E+04  0.50400001928E-02 0.  1.
        1   -1    0    0  501    0  0.00000000000E+00  0.00000000000E+00 -0.24523805310E+04  0.24523805310E+04  0.50400001928E-02 0. -1.
    10030    2    1    2    0    0  0.00000000000E+00  0.00000000000E+00 -0.12158744458E+04  0.36888866163E+04  0.34827480241E+04 0.  0.
        5    1    3    3  502    0 -0.13556870052E+04  0.78865162576E+03 -0.14093606404E+04  0.21085962505E+04  0.46999998093E+01 0. -1.
       -5    1    3    3    0  502  0.13556870052E+04 -0.78865162576E+03  0.19348619457E+03  0.15802903658E+04  0.46999998093E+01 0.  1.
</event>
<event>
 5   0  0.4464951E-07  0.3204552E+04  0.7818609E-02  0.8187616E-01
        1   -1    0    0  501    0  0.00000000000E+00  0.00000000000E+00  0.14718765572E+04  0.14718765572E+04  0.50400001928E-02 0. -1.
       -1   -1    0    0    0  501  0.00000000000E+00  0.00000000000E+00 -0.17442284997E+04  0.17442284997E+04  0.50400001928E-02 0.  1.
    10030    2    1    2    0    0  0.00000000000E+00  0.00000000000E+00 -0.27235194244E+03  0.32161050569E+04  0.32045524113E+04 0.  0.
        3    1    3    3  502    0  0.20834428564E+03  0.15756628131E+04  0.67455441202E+02  0.15908082501E+04  0.10100000352E+00 0. -1.
       -3    1    3    3    0  502 -0.20834428564E+03 -0.15756628131E+04 -0.33980738364E+03  0.16252968068E+04  0.10100000352E+00 0.  1.
</event>
<event>
 5   0  0.4109937E-07  0.3428983E+04  0.7818609E-02  0.8130829E-01
       -1   -1    0    0    0  501  0.00000000000E+00  0.00000000000E+00  0.19288731403E+04  0.19288731403E+04  0.50400001928E-02 0. -1.
        1   -1    0    0  501    0  0.00000000000E+00  0.00000000000E+00 -0.15239371518E+04  0.15239371518E+04  0.50400001928E-02 0.  1.
    10030    2    1    2    0    0  0.00000000000E+00  0.00000000000E+00  0.40493598854E+03  0.34528102921E+04  0.34289831960E+04 0.  0.
        5    1    3    3  502    0  0.12241755293E+04 -0.78720214886E+02 -0.10036265803E+04  0.15849577286E+04  0.46999998093E+01 0.  1.
       -5    1    3    3    0  502 -0.12241755293E+04  0.78720214886E+02  0.14085625689E+04  0.18678525635E+04  0.46999998093E+01 0. -1.
</event>
<event>
 5   0  0.4125758E-07  0.3414351E+04  0.7818609E-02  0.8134393E-01
        1   -1    0    0  501    0  0.00000000000E+00  0.00000000000E+00  0.20320746374E+04  0.20320746374E+04  0.50400001928E-02 0. -1.
       -1   -1    0    0    0  501  0.00000000000E+00  0.00000000000E+00 -0.14342231458E+04  0.14342231458E+04  0.50400001928E-02 0.  1.
    10030    2    1    2    0    0  0.00000000000E+00  0.00000000000E+00  0.59785149163E+03  0.34662977832E+04  0.34143511706E+04 0.  0.
        2    1    3    3  502    0  0.12188265927E+03  0.14303678153E+04 -0.63905801136E+03  0.15713696610E+04  0.25500000920E-02 0.  1.
       -2    1    3    3    0  502 -0.12188265927E+03 -0.14303678153E+04  0.12369095030E+04  0.18949281222E+04  0.25500000920E-02 0. -1.
</event>
<event>
 5   0  0.4125758E-07  0.3295808E+04  0.7818609E-02  0.8163963E-01
        1   -1    0    0  501    0  0.00000000000E+00  0.00000000000E+00  0.20604954589E+04  0.20604954589E+04  0.50400001928E-02 0.  1.
       -1   -1    0    0    0  501  0.00000000000E+00  0.00000000000E+00 -0.13179292060E+04  0.13179292060E+04  0.50400001928E-02 0. -1.
    10030    2    1    2    0    0  0.00000000000E+00  0.00000000000E+00  0.74256625295E+03  0.33784246649E+04  0.32958077275E+04 0.  0.
        2    1    3    3  502    0 -0.71362177992E+03  0.14851627908E+04  0.34570602211E+03  0.16835905719E+04  0.25500000920E-02 0.  1.
       -2    1    3    3    0  502  0.71362177992E+03 -0.14851627908E+04  0.39686023084E+03  0.16948340930E+04  0.25500000920E-02 0. -1.
</event>
<event>
 5   0  0.1269497E-06  0.3293991E+04  0.7818609E-02  0.8164426E-01
       -2   -1    0    0    0  501  0.00000000000E+00  0.00000000000E+00  0.31673494430E+04  0.31673494430E+04  0.25500000920E-02 0. -1.
        2   -1    0    0  501    0  0.00000000000E+00  0.00000000000E+00 -0.85642420016E+03  0.85642420016E+03  0.25500000920E-02 0.  1.
    10030    2    1    2    0    0  0.00000000000E+00  0.00000000000E+00  0.23109252429E+04  0.40237736432E+04  0.32939913257E+04 0.  0.
        5    1    3    3  502    0  0.13475479097E+04  0.31760780926E+03  0.65738716839E+02  0.13860388733E+04  0.46999998093E+01 0.  1.
       -5    1    3    3    0  502 -0.13475479097E+04 -0.31760780926E+03  0.22451865260E+04  0.26377347699E+04  0.46999998093E+01 0. -1.
</event>
<event>
 5   0  0.4464951E-07  0.3421042E+04  0.7818609E-02  0.8132761E-01
       -1   -1    0    0    0  501  0.00000000000E+00  0.00000000000E+00  0.12286901761E+04  0.12286901761E+04  0.50400001928E-02 0.  1.
        1   -1    0    0  501    0  0.00000000000E+00  0.00000000000E+00 -0.23813023017E+04  0.23813023018E+04  0.50400001928E-02 0. -1.
    10030    2    1    2    0    0  0.00000000000E+00  0.00000000000E+00 -0.11526121257E+04  0.36099924779E+04  0.34210423818E+04 0.  0.
        3    1    3    3  502    0 -0.12015083873E+04  0.55514019269E+03  0.56708983897E+03  0.14399284475E+04  0.10100000352E+00 0.  1.
       -3    1    3    3    0  502  0.12015083873E+04 -0.55514019269E+03 -0.17197019646E+04  0.21700640303E+04  0.10100000352E+00 0. -1.
</event>
<event>
 5   0  0.1269497E-06  0.3379486E+04  0.7818609E-02  0.8142960E-01
       -2   -1    0    0    0  501  0.00000000000E+00  0.00000000000E+00  0.17209670440E+04  0.17209670440E+04  0.25500000920E-02 0. -1.
        2   -1    0    0  501    0  0.00000000000E+00  0.00000000000E+00 -0.16590854683E+04  0.16590854683E+04  0.25500000920E-02 0.  1.
    10030    2    1    2    0    0  0.00000000000E+00  0.00000000000E+00  0.61881575730E+02  0.33800525123E+04  0.33794860048E+04 0.  0.
        5    1    3    3  502    0 -0.18378822813E+03 -0.95538647269E+03  0.14127178529E+04  0.17153236566E+04  0.46999998093E+01 0. -1.
       -5    1    3    3    0  502  0.18378822813E+03  0.95538647269E+03 -0.13508362772E+04  0.16647288556E+04  0.46999998093E+01 0.  1.
</event>
<event>
 5   0  0.4464951E-07  0.3415380E+04  0.7818609E-02  0.8134142E-01
       -1   -1    0    0    0  501  0.00000000000E+00  0.00000000000E+00  0.16482216208E+04  0.16482216208E+04  0.50400001928E-02 0.  1.
        1   -1    0    0  501    0  0.00000000000E+00  0.00000000000E+00 -0.17693042403E+04  0.17693042403E+04  0.50400001928E-02 0. -1.
    10030    2    1    2    0    0  0.00000000000E+00  0.00000000000E+00 -0.12108261949E+03  0.34175258612E+04  0.34153802147E+04 0.  0.
        3    1    3    3  502    0 -0.14087243905E+04 -0.96359635008E+03 -0.40863799330E+01  0.17067627377E+04  0.10100000352E+00 0. -1.
       -3    1    3    3    0  502  0.14087243905E+04  0.96359635008E+03 -0.11699623956E+03  0.17107631234E+04  0.10100000352E+00 0.  1.
</event>
<event>
 5   0  0.1277635E-06  0.3380411E+04  0.7818609E-02  0.8142731E-01
        2   -1    0    0  501    0  0.00000000000E+00  0.00000000000E+00  0.16049779543E+04  0.16049779543E+04  0.25500000920E-02 0. -1.
       -2   -1    0    0    0  501  0.00000000000E+00  0.00000000000E+00 -0.17799586951E+04  0.17799586951E+04  0.25500000920E-02 0.  1.
    10030    2    1    2    0    0  0.00000000000E+00  0.00000000000E+00 -0.17498074079E+03  0.33849366495E+04  0.33804109013E+04 0.  0.
        4    1    3    3  502    0 -0.15865243503E+04 -0.64866398924E+02  0.49253092620E+03  0.16624847337E+04  0.12699999809E+01 0. -1.
       -4    1    3    3    0  502  0.15865243503E+04  0.64866398924E+02 -0.66751166699E+03  0.17224519158E+04  0.12699999809E+01 0.  1.
</event>
<event>
 5   0  0.4289684E-07  0.3409421E+04  0.7818609E-02  0.8135598E-01
        1   -1    0    0  501    0  0.00000000000E+00  0.00000000000E+00  0.20952569835E+04  0.20952569835E+04  0.50400001928E-02 0.  1.
       -1   -1    0    0    0  501  0.00000000000E+00  0.00000000000E+00 -0.13869602002E+04  0.13869602002E+04  0.50400001928E-02 0. -1.
    10030    2    1    2    0    0  0.00000000000E+00  0.00000000000E+00  0.70829678331E+03  0.34822171837E+04  0.34094210918E+04 0.  0.
        4    1    3    3  502    0  0.12732088936E+04 -0.85956106121E+02 -0.80028922280E+03  0.15062914034E+04  0.12699999809E+01 0. -1.
       -4    1    3    3    0  502 -0.12732088936E+04  0.85956106121E+02  0.15085860061E+04  0.19759257804E+04  0.12699999809E+01 0.  1.
</event>
<event>
 5   0  0.1277635E-06  0.3377080E+04  0.7818609E-02  0.8143555E-01
        2   -1    0    0  501    0  0.00000000000E+00  0.00000000000E+00  0.19832620210E+04  0.19832620210E+04  0.25500000920E-02 0. -1.
       -2   -1    0    0    0  501  0.00000000000E+00  0.00000000000E+00 -0.14376154243E+04  0.14376154243E+04  0.25500000920E-02 0.  1.
    10030    2    1    2    0    0  0.00000000000E+00  0.00000000000E+00  0.54564659667E+03  0.34208774454E+04  0.33770804384E+04 0.  0.
        4    1    3    3  502    0  0.94106234460E+03 -0.11651280843E+04  0.10627082742E+04  0.18364292195E+04  0.12699999809E+01 0. -1.
       -4    1    3    3    0  502 -0.94106234460E+03  0.11651280843E+04 -0.51706167757E+03  0.15844482259E+04  0.12699999809E+01 0.  1.
</event>
<event>
 5   0  0.1268230E-06  0.3410244E+04  0.7818609E-02  0.8135397E-01
        2   -1    0    0  501    0  0.00000000000E+00  0.00000000000E+00  0.15565217675E+04  0.15565217675E+04  0.25500000920E-02 0.  1.
       -2   -1    0    0    0  501  0.00000000000E+00  0.00000000000E+00 -0.18679090718E+04  0.18679090718E+04  0.25500000920E-02 0. -1.
    10030    2    1    2    0    0  0.00000000000E+00  0.00000000000E+00 -0.31138730430E+03  0.34244308394E+04  0.34102440558E+04 0.  0.
        2    1    3    3  502    0 -0.12469903192E+04 -0.11044510803E+04  0.21002480853E+03  0.16789602334E+04  0.25500000920E-02 0.  1.
       -2    1    3    3    0  502  0.12469903192E+04  0.11044510803E+04 -0.52141211283E+03  0.17454706060E+04  0.25500000920E-02 0. -1.
</event>
<event>
 5   0  0.4272633E-07  0.3400811E+04  0.7818609E-02  0.8137707E-01
       -1   -1    0    0    0  501  0.00000000000E+00  0.00000000000E+00  0.12918758482E+04  0.12918758482E+04  0.50400001928E-02 0.  1.
        1   -1    0    0  501    0  0.00000000000E+00  0.00000000000E+00 -0.22381239230E+04  0.22381239230E+04  0.50400001928E-02 0. -1.
    10030    2    1    2    0    0  0.00000000000E+00  0.00000000000E+00 -0.94624807477E+03  0.35299997712E+04  0.34008106336E+04 0.  0.
        1    1    3    3  502    0 -0.86364518926E+03 -0.14630653201E+04 -0.54604293583E+03  0.17845464498E+04  0.50400001928E-02 0.  1.
       -1    1    3    3    0  502  0.86364518926E+03  0.14630653201E+04 -0.40020513894E+03  0.17454533214E+04  0.50400001928E-02 0. -1.
</event>
<event>
 5   0  0.4272633E-07  0.3365902E+04  0.7818609E-02  0.8146326E-01
        1   -1    0    0  501    0  0.00000000000E+00  0.00000000000E+00  0.17047686108E+04  0.17047686109E+04  0.50400001928E-02 0. -1.
       -1   -1    0    0    0  501  0.00000000000E+00  0.00000000000E+00 -0.16614122784E+04  0.16614122784E+04  0.50400001928E-02 0.  1.
    10030    2    1    2    0    0  0.00000000000E+00  0.00000000000E+00  0.43356332457E+02  0.33661808892E+04  0.33659016634E+04 0.  0.
        1    1    3    3  502    0  0.94379810469E+03 -0.10150088994E+02 -0.13718022770E+04  0.16651424486E+04  0.50400001928E-02 0.  1.
       -1    1    3    3    0  502 -0.94379810469E+03  0.10150088994E+02  0.14151586095E+04  0.17010384407E+04  0.50400001928E-02 0. -1.
</event>
<event>
 5   0  0.1269497E-06  0.3399998E+04  0.7818609E-02  0.8137907E-01
        2   -1    0    0  501    0  0.00000000000E+00  0.00000000000E+00  0.20122315483E+04  0.20122315483E+04  0.25500000920E-02 0. -1.
       -2   -1    0    0    0  501  0.00000000000E+00  0.00000000000E+00 -0.14362147005E+04  0.14362147005E+04  0.25500000920E-02 0.  1.
    10030    2    1    2    0    0  0.00000000000E+00  0.00000000000E+00  0.57601684774E+03  0.34484462488E+04  0.33999979591E+04 0.  0.
        5    1    3    3  502    0  0.10291594522E+03  0.13087373319E+04 -0.80746994715E+03  0.15412381066E+04  0.46999998093E+01 0.  1.
       -5    1    3    3    0  502 -0.10291594522E+03 -0.13087373319E+04  0.13834867949E+04  0.19072081421E+04  0.46999998093E+01 0. -1.
</event>
<event>
 5   0  0.1256208E-06  0.3386448E+04  0.7818609E-02  0.8141240E-01
       -2   -1    0    0    0  501  0.00000000000E+00  0.00000000000E+00  0.11020360643E+04  0.11020360643E+04  0.25500000920E-02 0.  1.
        2   -1    0    0  501    0  0.00000000000E+00  0.00000000000E+00 -0.26015550854E+04  0.26015550854E+04  0.25500000920E-02 0. -1.
    10030    2    1    2    0    0  0.00000000000E+00  0.00000000000E+00 -0.14995190211E+04  0.37035911497E+04  0.33864480078E+04 0.  0.
        3    1    3    3  502    0  0.11825284858E+04 -0.10593227301E+04 -0.10601880148E+03  0.15911562659E+04  0.10100000352E+00 0.  1.
       -3    1    3    3    0  502 -0.11825284858E+04  0.10593227301E+04 -0.13935002196E+04  0.21124348838E+04  0.10100000352E+00 0. -1.
</event>
<event>
 5   0  0.1269497E-06  0.3417521E+04  0.7818609E-02  0.8133619E-01
        2   -1    0    0  501    0  0.00000000000E+00  0.00000000000E+00  0.20142989412E+04  0.20142989412E+04  0.25500000920E-02 0.  1.
       -2   -1    0    0    0  501  0.00000000000E+00  0.00000000000E+00 -0.14495674553E+04  0.14495674553E+04  0.25500000920E-02 0. -1.
    10030    2    1    2    0    0  0.00000000000E+00  0.00000000000E+00  0.56473148588E+03  0.34638663964E+04  0.34175208501E+04 0.  0.
        5    1    3    3  502    0  0.13175928041E+03  0.99122751980E+03  0.16867781171E+04  0.19609015810E+04  0.46999998093E+01 0.  1.
       -5    1    3    3    0  502 -0.13175928041E+03 -0.99122751980E+03 -0.11220466312E+04  0.15029648155E+04  0.46999998093E+01 0. -1.
</event>
<event>
 5   0  0.4125758E-07  0.3394582E+04  0.7818609E-02  0.8139237E-01
        1   -1    0    0  501    0  0.00000000000E+00  0.00000000000E+00  0.16880369692E+04  0.16880369692E+04  0.50400001928E-02 0.  1.
       -1   -1    0    0    0  501  0.00000000000E+00  0.00000000000E+00 -0.17065960538E+04  0.17065960538E+04  0.50400001928E-02 0. -1.
    10030    2    1    2    0    0  0.00000000000E+00  0.00000000000E+00 -0.18559084686E+02  0.33946330230E+04  0.33945822897E+04 0.  0.
        2    1    3    3  502    0 -0.71522542060E+03 -0.95018811529E+03  0.12016854470E+04  0.16906959426E+04  0.25500000920E-02 0.  1.
       -2    1    3    3    0  502  0.71522542060E+03  0.95018811529E+03 -0.12202445317E+04  0.17039370804E+04  0.25500000920E-02 0. -1.
</event>
<event>
 5   0  0.1277635E-06  0.3415506E+04  0.7818609E-02  0.8134111E-01
        2   -1    0    0  501    0  0.00000000000E+00  0.00000000000E+00  0.24949672037E+04  0.24949672037E+04  0.25500000920E-02 0. -1.
       -2   -1    0    0    0  501  0.00000000000E+00  0.00000000000E+00 -0.11689213779E+04  0.11689213779E+04  0.25500000920E-02 0.  1.
    10030    2    1    2    0    0  0.00000000000E+00  0.00000000000E+00  0.13260458258E+04  0.36638885817E+04  0.34155061128E+04 0.  0.
        4    1    3    3  502    0  0.12569113362E+04  0.60871986719E+03 -0.39133399264E+03  0.14503481963E+04  0.12699999809E+01 0.  1.
       -4    1    3    3    0  502 -0.12569113362E+04 -0.60871986719E+03  0.17173798185E+04  0.22135403854E+04  0.12699999809E+01 0. -1.
</event>
<event>
 5   0  0.4464951E-07  0.3294047E+04  0.7818609E-02  0.8164412E-01
       -1   -1    0    0    0  501  0.00000000000E+00  0.00000000000E+00  0.16106403001E+04  0.16106403001E+04  0.50400001928E-02 0.  1.
        1   -1    0    0  501    0  0.00000000000E+00  0.00000000000E+00 -0.16842281858E+04  0.16842281858E+04  0.50400001928E-02 0. -1.
    10030    2    1    2    0    0  0.00000000000E+00  0.00000000000E+00 -0.73587885715E+02  0.32948684859E+04  0.32940466242E+04 0.  0.
        3    1    3    3  502    0  0.13836614518E+04  0.76814109687E+03  0.41952819134E+03  0.16372427038E+04  0.10100000352E+00 0.  1.
       -3    1    3    3    0  502 -0.13836614518E+04 -0.76814109687E+03 -0.49311607705E+03  0.16576257821E+04  0.10100000352E+00 0. -1.
</event>
<event>
 5   0  0.1256208E-06  0.3399194E+04  0.7818609E-02  0.8138104E-01
        2   -1    0    0  501    0  0.00000000000E+00  0.00000000000E+00  0.21667432539E+04  0.21667432539E+04  0.25500000920E-02 0. -1.
       -2   -1    0    0    0  501  0.00000000000E+00  0.00000000000E+00 -0.13331668743E+04  0.13331668743E+04  0.25500000920E-02 0.  1.
    10030    2    1    2    0    0  0.00000000000E+00  0.00000000000E+00  0.83357637961E+03  0.34999101282E+04  0.33991942170E+04 0.  0.
        3    1    3    3  502    0 -0.48024437925E+03 -0.57794520976E+03  0.19864158325E+04  0.21237945285E+04  0.10100000352E+00 0. -1.
       -3    1    3    3    0  502  0.48024437925E+03  0.57794520976E+03 -0.11528394529E+04  0.13761155997E+04  0.10100000352E+00 0.  1.
</event>
<event>
 5   0  0.4272633E-07  0.2950746E+04  0.7818609E-02  0.8257937E-01
        1   -1    0    0  501    0  0.00000000000E+00  0.00000000000E+00  0.17480631039E+04  0.17480631039E+04  0.50400001928E-02 0. -1.
       -1   -1    0    0    0  501  0.00000000000E+00  0.00000000000E+00 -0.12452214390E+04  0.12452214390E+04  0.50400001928E-02 0.  1.
    10030    2    1    2    0    0  0.00000000000E+00  0.00000000000E+00  0.50284166490E+03  0.29932845430E+04  0.29507461116E+04 0.  0.
        1    1    3    3  502    0  0.13239179732E+04  0.65094583231E+03  0.26701704755E+03  0.14992622786E+04  0.50400001928E-02 0. -1.
       -1    1    3    3    0  502 -0.13239179732E+04 -0.65094583231E+03  0.23582461735E+03  0.14940222644E+04  0.50400001928E-02 0.  1.
</event>
<event>
 5   0  0.1269497E-06  0.3394139E+04  0.7818609E-02  0.8139346E-01
        2   -1    0    0  501    0  0.00000000000E+00  0.00000000000E+00  0.26198598672E+04  0.26198598672E+04  0.25500000920E-02 0.  1.
       -2   -1    0    0    0  501  0.00000000000E+00  0.00000000000E+00 -0.10993123401E+04  0.10993123401E+04  0.25500000920E-02 0. -1.
    10030    2    1    2    0    0  0.00000000000E+00  0.00000000000E+00  0.15205475272E+04  0.37191722073E+04  0.33941386426E+04 0.  0.
        5    1    3    3  502    0  0.13245072174E+04  0.10609734244E+04  0.75349993967E+03  0.18568166914E+04  0.46999998093E+01 0. -1.
       -5    1    3    3    0  502 -0.13245072174E+04 -0.10609734244E+04  0.76704758752E+03  0.18623555159E+04  0.46999998093E+01 0.  1.
</event>
<event>
 5   0  0.4289684E-07  0.3407016E+04  0.7818609E-02  0.8136186E-01
        1   -1    0    0  501    0  0.00000000000E+00  0.00000000000E+00  0.21009017058E+04  0.21009017058E+04  0.50400001928E-02 0.  1.
       -1   -1    0    0    0  501  0.00000000000E+00  0.00000000000E+00 -0.13812832050E+04  0.13812832050E+04  0.50400001928E-02 0. -1.
    10030    2    1    2    0    0  0.00000000000E+00  0.00000000000E+00  0.71961850078E+03  0.34821849107E+04  0.34070164317E+04 0.  0.
        4    1    3    3  502    0 -0.88632504199E+03  0.13898130699E+04 -0.79542483008E+02  0.16502972668E+04  0.12699999809E+01 0.  1.
       -4    1    3    3    0  502  0.88632504199E+03 -0.13898130699E+04  0.79916098378E+03  0.18318876440E+04  0.12699999809E+01 0. -1.
</event>
<event>
 5   0  0.1268230E-06  0.3401100E+04  0.7818609E-02  0.8137636E-01
       -2   -1    0    0    0  501  0.00000000000E+00  0.00000000000E+00  0.19158996938E+04  0.19158996938E+04  0.25500000920E-02 0. -1.
        2   -1    0    0  501    0  0.00000000000E+00  0.00000000000E+00 -0.15094057618E+04  0.15094057618E+04  0.25500000920E-02 0.  1.
    10030    2    1    2    0    0  0.00000000000E+00  0.00000000000E+00  0.40649393195E+03  0.34253054556E+04  0.34010998438E+04 0.  0.
        2    1    3    3  502    0 -0.38064655405E+03 -0.98720867389E+03 -0.11375421051E+04  0.15535362261E+04  0.25500000920E-02 0.  1.
       -2    1    3    3    0  502  0.38064655405E+03  0.98720867389E+03  0.15440360370E+04  0.18717692295E+04  0.25500000920E-02 0. -1.
</event>
<event>
 5   0  0.1256208E-06  0.3029736E+04  0.7818609E-02  0.8235290E-01
        2   -1    0    0  501    0  0.00000000000E+00  0.00000000000E+00  0.22902633151E+04  0.22902633151E+04  0.25500000920E-02 0.  1.
       -2   -1    0    0    0  501  0.00000000000E+00  0.00000000000E+00 -0.10019920224E+04  0.10019920224E+04  0.25500000920E-02 0. -1.
    10030    2    1    2    0    0  0.00000000000E+00  0.00000000000E+00  0.12882712928E+04  0.32922553375E+04  0.30297363390E+04 0.  0.
        3    1    3    3  502    0 -0.67961933685E+03 -0.13229538055E+04  0.95669812589E+03  0.17684344853E+04  0.10100000352E+00 0.  1.
       -3    1    3    3    0  502  0.67961933685E+03  0.13229538055E+04  0.33157316687E+03  0.15238208522E+04  0.10100000352E+00 0. -1.
</event>
<event>
 5   0  0.4109937E-07  0.3327689E+04  0.7818609E-02  0.8155885E-01
       -1   -1    0    0    0  501  0.00000000000E+00  0.00000000000E+00  0.13107292393E+04  0.13107292393E+04  0.50400001928E-02 0. -1.
        1   -1    0    0  501    0  0.00000000000E+00  0.00000000000E+00 -0.21120908774E+04  0.21120908774E+04  0.50400001928E-02 0.  1.
    10030    2    1    2    0    0  0.00000000000E+00  0.00000000000E+00 -0.80136163810E+03  0.34228201167E+04  0.33276894501E+04 0.  0.
        5    1    3    3  502    0 -0.56843809855E+03  0.10355797273E+04 -0.16058457697E+04  0.19935671470E+04  0.46999998093E+01 0.  1.
       -5    1    3    3    0  502  0.56843809855E+03 -0.10355797273E+04  0.80448413159E+03  0.14292529697E+04  0.46999998093E+01 0. -1.
</event>
<event>
 5   0  0.4125758E-07  0.3416213E+04  0.7818609E-02  0.8133939E-01
       -1   -1    0    0    0  501  0.00000000000E+00  0.00000000000E+00  0.11921846226E+04  0.11921846226E+04  0.50400001928E-02 0.  1.
        1   -1    0    0  501    0  0.00000000000E+00  0.00000000000E+00 -0.24472950692E+04  0.24472950692E+04  0.50400001928E-02 0. -1.
    10030    2    1    2    0    0  0.00000000000E+00  0.00000000000E+00 -0.12551104467E+04  0.36394796918E+04  0.34162128438E+04 0.  0.
        2    1    3    3  502    0 -0.87653886220E+03  0.65085526233E+03  0.77195588251E+03  0.13371046459E+04  0.25500000920E-02 0.  1.
       -2    1    3    3    0  502  0.87653886220E+03 -0.65085526233E+03 -0.20270663292E+04  0.23023750460E+04  0.25500000920E-02 0. -1.
</event>
<event>
 5   0  0.1277635E-06  0.3400147E+04  0.7818609E-02  0.8137870E-01
       -2   -1    0    0    0  501  0.00000000000E+00  0.00000000000E+00  0.18629391383E+04  0.18629391383E+04  0.25500000920E-02 0.  1.
        2   -1    0    0  501    0  0.00000000000E+00  0.00000000000E+00 -0.15514461691E+04  0.15514461691E+04  0.25500000920E-02 0. -1.
    10030    2    1    2    0    0  0.00000000000E+00  0.00000000000E+00  0.31149296920E+03  0.34143853073E+04  0.34001469317E+04 0.  0.
        4    1    3    3  502    0 -0.74765156416E+02 -0.73685597492E+03  0.16924165186E+04  0.18473824297E+04  0.12699999809E+01 0.  1.
       -4    1    3    3    0  502  0.74765156416E+02  0.73685597492E+03 -0.13809235494E+04  0.15670028776E+04  0.12699999809E+01 0. -1.
</event>
<event>
 5   0  0.1268230E-06  0.3395273E+04  0.7818609E-02  0.8139067E-01
       -2   -1    0    0    0  501  0.00000000000E+00  0.00000000000E+00  0.14802046136E+04  0.14802046136E+04  0.25500000920E-02 0. -1.
        2   -1    0    0  501    0  0.00000000000E+00  0.00000000000E+00 -0.19470079723E+04  0.19470079724E+04  0.25500000920E-02 0.  1.
    10030    2    1    2    0    0  0.00000000000E+00  0.00000000000E+00 -0.46680335878E+03  0.34272125859E+04  0.33952732929E+04 0.  0.
        2    1    3    3  502    0  0.16081158308E+04  0.70661701864E+02  0.31106142912E+03  0.16394477162E+04  0.25500000920E-02 0. -1.
       -2    1    3    3    0  502 -0.16081158308E+04 -0.70661701864E+02 -0.77786478790E+03  0.17877648698E+04  0.25500000920E-02 0.  1.
</event>
<event>
 5   0  0.4125758E-07  0.3367570E+04  0.7818609E-02  0.8145912E-01
        1   -1    0    0  501    0  0.00000000000E+00  0.00000000000E+00  0.23846767190E+04  0.23846767190E+04  0.50400001928E-02 0. -1.
       -1   -1    0    0    0  501  0.00000000000E+00  0.00000000000E+00 -0.11888955577E+04  0.11888955577E+04  0.50400001928E-02 0.  1.
    10030    2    1    2    0    0  0.00000000000E+00  0.00000000000E+00  0.11957811613E+04  0.35735722767E+04  0.33675697812E+04 0.  0.
        2    1    3    3  502    0 -0.52396918072E+01 -0.10367941406E+04 -0.80997855656E+03  0.13156879594E+04  0.25500000920E-02 0. -1.
       -2    1    3    3    0  502  0.52396918072E+01  0.10367941406E+04  0.20057597179E+04  0.22578843173E+04  0.25500000920E-02 0.  1.
</event>
<event>
 5   0  0.1268230E-06  0.3353485E+04  0.7818609E-02  0.8149418E-01
        2   -1    0    0  501    0  0.00000000000E+00  0.00000000000E+00  0.18397282151E+04  0.18397282151E+04  0.25500000920E-02 0. -1.
       -2   -1    0    0    0  501  0.00000000000E+00  0.00000000000E+00 -0.15281958009E+04  0.15281958009E+04  0.25500000920E-02 0.  1.
    10030    2    1    2    0    0  0.00000000000E+00  0.00000000000E+00  0.31153241423E+03  0.33679240160E+04  0.33534847148E+04 0.  0.
        2    1    3    3  502    0  0.32464871719E+03 -0.87144381192E+02  0.18055425535E+04  0.18365660471E+04  0.25500000920E-02 0. -1.
       -2    1    3    3    0  502 -0.32464871719E+03  0.87144381192E+02 -0.14940101393E+04  0.15313579689E+04  0.25500000920E-02 0.  1.
</event>
<event>
 5   0  0.1269497E-06  0.3416043E+04  0.7818609E-02  0.8133980E-01
       -2   -1    0    0    0  501  0.00000000000E+00  0.00000000000E+00  0.17173487823E+04  0.17173487823E+04  0.25500000920E-02 0.  1.
        2   -1    0    0  501    0  0.00000000000E+00  0.00000000000E+00 -0.16987451019E+04  0.16987451019E+04  0.25500000920E-02 0. -1.
    10030    2    1    2    0    0  0.00000000000E+00  0.00000000000E+00  0.18603680463E+02  0.34160938842E+04  0.34160432270E+04 0.  0.
        5    1    3    3  502    0 -0.14886894958E+04  0.70401855231E+03  0.46260449794E+03  0.17105155797E+04  0.46999998093E+01 0. -1.
       -5    1    3    3    0  502  0.14886894958E+04 -0.70401855231E+03 -0.44400081748E+03  0.17055783045E+04  0.46999998093E+01 0.  1.
</event>
<event>
 5   0  0.1277635E-06  0.3411433E+04  0.7818609E-02  0.8135106E-01
       -2   -1    0    0    0  501  0.00000000000E+00  0.00000000000E+00  0.13341946942E+04  0.13341946942E+04  0.25500000920E-02 0.  1.
        2   -1    0    0  501    0  0.00000000000E+00  0.00000000000E+00 -0.21806922383E+04  0.21806922384E+04  0.25500000920E-02 0. -1.
    10030    2    1    2    0    0  0.00000000000E+00  0.00000000000E+00 -0.84649754413E+03  0.35148869326E+04  0.34114325520E+04 0.  0.
        4    1    3    3  502    0  0.44440631718E+03 -0.82233842059E+03  0.10468094863E+04  0.14034062727E+04  0.12699999809E+01 0.  1.
       -4    1    3    3    0  502 -0.44440631718E+03  0.82233842059E+03 -0.18933070304E+04  0.21114806599E+04  0.12699999809E+01 0. -1.
</event>
<event>
 5   0  0.1268230E-06  0.3391208E+04  0.7818609E-02  0.8140068E-01
        2   -1    0    0  501    0  0.00000000000E+00  0.00000000000E+00  0.20222303282E+04  0.20222303282E+04  0.25500000920E-02 0.  1.
       -2   -1    0    0    0  501  0.00000000000E+00  0.00000000000E+00 -0.14217334472E+04  0.14217334472E+04  0.25500000920E-02 0. -1.
    10030    2    1    2    0    0  0.00000000000E+00  0.00000000000E+00  0.60049688105E+03  0.34439637754E+04  0.33912077469E+04 0.  0.
        2    1    3    3  502    0  0.10433491712E+04 -0.12444501209E+04  0.79552254571E+03  0.18083389387E+04  0.25500000920E-02 0.  1.
       -2    1    3    3    0  502 -0.10433491712E+04  0.12444501209E+04 -0.19502566466E+03  0.16356248367E+04  0.25500000920E-02 0. -1.
</event>
<event>
 5   0  0.1269497E-06  0.3358163E+04  0.7818609E-02  0.8148252E-01
       -2   -1    0    0    0  501  0.00000000000E+00  0.00000000000E+00  0.21350054289E+04  0.21350054289E+04  0.25500000920E-02 0. -1.
        2   -1    0    0  501    0  0.00000000000E+00  0.00000000000E+00 -0.13205184454E+04  0.13205184454E+04  0.25500000920E-02 0.  1.
    10030    2    1    2    0    0  0.00000000000E+00  0.00000000000E+00  0.81448698357E+03  0.34555238743E+04  0.33581626225E+04 0.  0.
        5    1    3    3  502    0 -0.77107738794E+03 -0.12001660395E+04  0.13185457487E+04  0.19425611553E+04  0.46999998093E+01 0.  1.
       -5    1    3    3    0  502  0.77107738794E+03  0.12001660395E+04 -0.50405876511E+03  0.15129627190E+04  0.46999998093E+01 0. -1.
</event>
<event>
 5   0  0.4272633E-07  0.3528677E+04  0.7818609E-02  0.8107027E-01
       -1   -1    0    0    0  501  0.00000000000E+00  0.00000000000E+00  0.16989545630E+04  0.16989545630E+04  0.50400001928E-02 0. -1.
        1   -1    0    0  501    0  0.00000000000E+00  0.00000000000E+00 -0.18322385953E+04  0.18322385953E+04  0.50400001928E-02 0.  1.
    10030    2    1    2    0    0  0.00000000000E+00  0.00000000000E+00 -0.13328403229E+03  0.35311931582E+04  0.35286768749E+04 0.  0.
        1    1    3    3  502    0 -0.14484556006E+04  0.43791442538E+03 -0.97453615293E+03  0.17998648239E+04  0.50400001928E-02 0. -1.
       -1    1    3    3    0  502  0.14484556006E+04 -0.43791442538E+03  0.84125212064E+03  0.17313283344E+04  0.50400001928E-02 0.  1.
</event>
<event>
 5   0  0.1256208E-06  0.3344877E+04  0.7818609E-02  0.8151569E-01
       -2   -1    0    0    0  501  0.00000000000E+00  0.00000000000E+00  0.11070860787E+04  0.11070860787E+04  0.25500000920E-02 0.  1.
        2   -1    0    0  501    0  0.00000000000E+00  0.00000000000E+00 -0.25264973431E+04  0.25264973431E+04  0.25500000920E-02 0. -1.
    10030    2    1    2    0    0  0.00000000000E+00  0.00000000000E+00 -0.14194112644E+04  0.36335834219E+04  0.33448767012E+04 0.  0.
        3    1    3    3  502    0 -0.85248186817E+03  0.14326176214E+04 -0.85517200994E+03  0.18736162258E+04  0.10100000352E+00 0.  1.
       -3    1    3    3    0  502  0.85248186817E+03 -0.14326176214E+04 -0.56423925444E+03  0.17599671961E+04  0.10100000352E+00 0. -1.
</event>
<event>
 5   0  0.4272633E-07  0.3077578E+04  0.7818609E-02  0.8221919E-01
        1   -1    0    0  501    0  0.00000000000E+00  0.00000000000E+00  0.17646352029E+04  0.17646352029E+04  0.50400001928E-02 0.  1.
       -1   -1    0    0    0  501  0.00000000000E+00  0.00000000000E+00 -0.13418475835E+04  0.13418475835E+04  0.50400001928E-02 0. -1.
    10030    2    1    2    0    0  0.00000000000E+00  0.00000000000E+00  0.42278761942E+03  0.31064827863E+04  0.30775779325E+04 0.  0.
        1    1    3    3  502    0  0.62454459084E+03 -0.52456439072E+03 -0.11057169419E+04  0.13739846075E+04  0.50400001928E-02 0. -1.
       -1    1    3    3    0  502 -0.62454459084E+03  0.52456439072E+03  0.15285045613E+04  0.17324981789E+04  0.50400001928E-02 0.  1.
</event>
<event>
 5   0  0.1268230E-06  0.3407291E+04  0.7818609E-02  0.8136119E-01
       -2   -1    0    0    0  501  0.00000000000E+00  0.00000000000E+00  0.30181578432E+04  0.30181578432E+04  0.25500000920E-02 0.  1.
        2   -1    0    0  501    0  0.00000000000E+00  0.00000000000E+00 -0.96164900105E+03  0.96164900105E+03  0.25500000920E-02 0. -1.
    10030    2    1    2    0    0  0.00000000000E+00  0.00000000000E+00  0.20565088422E+04  0.39798068443E+04  0.34072912848E+04 0.  0.
        2    1    3    3  502    0  0.28658845934E+03  0.85400623976E+03 -0.66072531461E+03  0.11171470557E+04  0.25500000920E-02 0. -1.
       -2    1    3    3    0  502 -0.28658845934E+03 -0.85400623976E+03  0.27172341568E+04  0.28626597886E+04  0.25500000920E-02 0.  1.
</event>
<event>
 5   0  0.1269497E-06  0.3386950E+04  0.7818609E-02  0.8141117E-01
       -2   -1    0    0    0  501  0.00000000000E+00  0.00000000000E+00  0.17337676410E+04  0.17337676410E+04  0.25500000920E-02 0. -1.
        2   -1    0    0  501    0  0.00000000000E+00  0.00000000000E+00 -0.16541186702E+04  0.16541186702E+04  0.25500000920E-02 0.  1.
    10030    2    1    2    0    0  0.00000000000E+00  0.00000000000E+00  0.79648970796E+02  0.33878863111E+04  0.33869499109E+04 0.  0.
        5    1    3    3  502    0  0.34183365820E+03  0.16071437375E+04 -0.37025726332E+03  0.16843021623E+04  0.46999998093E+01 0.  1.
       -5    1    3    3    0  502 -0.34183365820E+03 -0.16071437375E+04  0.44990623412E+03  0.17035841489E+04  0.46999998093E+01 0. -1.
</event>
<event>
 5   0  0.4464951E-07  0.3434732E+04  0.7818609E-02  0.8129434E-01
        1   -1    0    0  501    0  0.00000000000E+00  0.00000000000E+00  0.15175380515E+04  0.15175380515E+04  0.50400001928E-02 0. -1.
       -1   -1    0    0    0  501  0.00000000000E+00  0.00000000000E+00 -0.19435073444E+04  0.19435073444E+04  0.50400001928E-02 0.  1.
    10030    2    1    2    0    0  0.00000000000E+00  0.00000000000E+00 -0.42596929285E+03  0.34610453959E+04  0.34347322158E+04 0.  0.
        3    1    3    3  502    0  0.20214322316E+03  0.13532510215E+04 -0.12588163525E+04  0.18592387769E+04  0.10100000352E+00 0.  1.
       -3    1    3    3    0  502 -0.20214322316E+03 -0.13532510215E+04  0.83284705964E+03  0.16018066191E+04  0.10100000352E+00 0. -1.
</event>
<event>
 5   0  0.4272633E-07  0.3368268E+04  0.7818609E-02  0.8145739E-01
       -1   -1    0    0    0  501  0.00000000000E+00  0.00000000000E+00  0.11914121730E+04  0.11914121730E+04  0.50400001928E-02 0. -1.
        1   -1    0    0  501    0  0.00000000000E+00  0.00000000000E+00 -0.23806263647E+04  0.23806263647E+04  0.50400001928E-02 0.  1.
    10030    2    1    2    0    0  0.00000000000E+00  0.00000000000E+00 -0.11892141917E+04  0.35720385376E+04  0.33682679408E+04 0.  0.
        1    1    3    3  502    0 -0.78125583911E+03 -0.86862307559E+03  0.69180719558E+03  0.13577422176E+04  0.50400001928E-02 0. -1.
       -1    1    3    3    0  502  0.78125583911E+03  0.86862307559E+03 -0.18810213873E+04  0.22142963200E+04  0.50400001928E-02 0.  1.
</event>
<event>
 5   0  0.4109937E-07  0.3413384E+04  0.7818609E-02  0.8134629E-01
        1   -1    0    0  501    0  0.00000000000E+00  0.00000000000E+00  0.25884266906E+04  0.25884266906E+04  0.50400001928E-02 0.  1.
       -1   -1    0    0    0  501  0.00000000000E+00  0.00000000000E+00 -0.11253155298E+04  0.11253155298E+04  0.50400001928E-02 0. -1.
    10030    2    1    2    0    0  0.00000000000E+00  0.00000000000E+00  0.14631111608E+04  0.37137422204E+04  0.34133835135E+04 0.  0.
        5    1    3    3  502    0  0.60899831750E+03  0.15888200661E+04  0.87567484496E+03  0.19136500927E+04  0.46999998093E+01 0. -1.
       -5    1    3    3    0  502 -0.60899831750E+03 -0.15888200661E+04  0.58743631584E+03  0.18000921277E+04  0.46999998093E+01 0.  1.
</event>
<event>
 5   0  0.4464951E-07  0.3437680E+04  0.7818609E-02  0.8128720E-01
       -1   -1    0    0    0  501  0.00000000000E+00  0.00000000000E+00  0.19767120290E+04  0.19767120290E+04  0.50400001928E-02 0.  1.
        1   -1    0    0  501    0  0.00000000000E+00  0.00000000000E+00 -0.14946084689E+04  0.14946084689E+04  0.50400001928E-02 0. -1.
    10030    2    1    2    0    0  0.00000000000E+00  0.00000000000E+00  0.48210356016E+03  0.34713204979E+04  0.34376797635E+04 0.  0.
        3    1    3    3  502    0 -0.62826429700E+02  0.15928084883E+04  0.89032485601E+03  0.18258325225E+04  0.10100000352E+00 0.  1.
       -3    1    3    3    0  502  0.62826429700E+02 -0.15928084883E+04 -0.40822129585E+03  0.16454879754E+04  0.10100000352E+00 0. -1.
</event>
<event>
 5   0  0.1269497E-06  0.3372777E+04  0.7818609E-02  0.8144620E-01
       -2   -1    0    0    0  501  0.00000000000E+00  0.00000000000E+00  0.13236870617E+04  0.13236870617E+04  0.25500000920E-02 0.  1.
        2   -1    0    0  501    0  0.00000000000E+00  0.00000000000E+00 -0.21484725768E+04  0.21484725768E+04  0.25500000920E-02 0. -1.
    10030    2    1    2    0    0  0.00000000000E+00  0.00000000000E+00 -0.82478551512E+03  0.34721596386E+04  0.33727765135E+04 0.  0.
        5    1    3    3  502    0 -0.12560488932E+04 -0.11180646520E+04 -0.54324384996E+03  0.17671625162E+04  0.46999998093E+01 0.  1.
       -5    1    3    3    0  502  0.12560488932E+04  0.11180646520E+04 -0.28154166516E+03  0.17049971224E+04  0.46999998093E+01 0. -1.
</event>
<event>
 5   0  0.1269497E-06  0.3604090E+04  0.7818609E-02  0.8089555E-01
        2   -1    0    0  501    0  0.00000000000E+00  0.00000000000E+00  0.14825836009E+04  0.14825836009E+04  0.25500000920E-02 0.  1.
       -2   -1    0    0    0  501  0.00000000000E+00  0.00000000000E+00 -0.21903431037E+04  0.21903431037E+04  0.25500000920E-02 0. -1.
    10030    2    1    2    0    0  0.00000000000E+00  0.00000000000E+00 -0.70775950283E+03  0.36729267046E+04  0.36040903240E+04 0.  0.
        5    1    3    3  502    0  0.94305504068E+03 -0.12882185744E+04 -0.12055962617E+04  0.20005859995E+04  0.46999998093E+01 0. -1.
       -5    1    3    3    0  502 -0.94305504068E+03  0.12882185744E+04  0.49783675886E+03  0.16723407051E+04  0.46999998093E+01 0.  1.
</event>
<event>
 5   0  0.4272633E-07  0.3405153E+04  0.7818609E-02  0.8136643E-01
        1   -1    0    0  501    0  0.00000000000E+00  0.00000000000E+00  0.12388860174E+04  0.12388860174E+04  0.50400001928E-02 0.  1.
       -1   -1    0    0    0  501  0.00000000000E+00  0.00000000000E+00 -0.23398164823E+04  0.23398164823E+04  0.50400001928E-02 0. -1.
    10030    2    1    2    0    0  0.00000000000E+00  0.00000000000E+00 -0.11009304649E+04  0.35787024997E+04  0.34051525213E+04 0.  0.
        1    1    3    3  502    0 -0.22638157071E+02 -0.92235202112E+03  0.95337993099E+03  0.13267173888E+04  0.50400001928E-02 0.  1.
       -1    1    3    3    0  502  0.22638157071E+02  0.92235202112E+03 -0.20543103959E+04  0.22519851109E+04  0.50400001928E-02 0. -1.
</event>
<event>
 5   0  0.4060750E-07  0.3397690E+04  0.7818609E-02  0.8138474E-01
        3   -1    0    0  501    0  0.00000000000E+00  0.00000000000E+00  0.21704641288E+04  0.21704641312E+04  0.10100000352E+00 0.  1.
       -3   -1    0    0    0  501  0.00000000000E+00  0.00000000000E+00 -0.13297037195E+04  0.13297037234E+04  0.10100000352E+00 0. -1.
    10030    2    1    2    0    0  0.00000000000E+00  0.00000000000E+00  0.84076040928E+03  0.35001678545E+04  0.33976899423E+04 0.  0.
        2    1    3    3  502    0 -0.10155934239E+04  0.14693274141E+03  0.18151189822E+04  0.20851081873E+04  0.25500000920E-02 0.  1.
       -2    1    3    3    0  502  0.10155934239E+04 -0.14693274141E+03 -0.97435857290E+03  0.14150596672E+04  0.25500000920E-02 0. -1.
</event>
<event>
 5   0  0.1256208E-06  0.3372493E+04  0.7818609E-02  0.8144691E-01
        2   -1    0    0  501    0  0.00000000000E+00  0.00000000000E+00  0.24215724338E+04  0.24215724338E+04  0.25500000920E-02 0. -1.
       -2   -1    0    0    0  501  0.00000000000E+00  0.00000000000E+00 -0.11742071580E+04  0.11742071580E+04  0.25500000920E-02 0.  1.
    10030    2    1    2    0    0  0.00000000000E+00  0.00000000000E+00  0.12473652758E+04  0.35957795918E+04  0.33724932530E+04 0.  0.
        3    1    3    3  502    0  0.70804927761E+03  0.14182222536E+04  0.10506805239E+02  0.15851809182E+04  0.10100000352E+00 0.  1.
       -3    1    3    3    0  502 -0.70804927761E+03 -0.14182222536E+04  0.12368584706E+04  0.20105986737E+04  0.10100000352E+00 0. -1.
</event>
<event>
 5   0  0.1269497E-06  0.3361813E+04  0.7818609E-02  0.8147343E-01
        2   -1    0    0  501    0  0.00000000000E+00  0.00000000000E+00  0.11123578053E+04  0.11123578053E+04  0.25500000920E-02 0.  1.
       -2   -1    0    0    0  501  0.00000000000E+00  0.00000000000E+00 -0.25400518777E+04  0.25400518777E+04  0.25500000920E-02 0. -1.
    10030    2    1    2    0    0  0.00000000000E+00  0.00000000000E+00 -0.14276940725E+04  0.36524096830E+04  0.33618129228E+04 0.  0.
        5    1    3    3  502    0  0.13214760704E+03  0.12503440172E+04  0.49820444516E+03  0.13524248262E+04  0.46999998093E+01 0.  1.
       -5    1    3    3    0  502 -0.13214760704E+03 -0.12503440172E+04 -0.19258985176E+04  0.22999848568E+04  0.46999998093E+01 0. -1.
</event>
<event>
 5   0  0.1277635E-06  0.3410534E+04  0.7818609E-02  0.8135326E-01
       -2   -1    0    0    0  501  0.00000000000E+00  0.00000000000E+00  0.17212446282E+04  0.17212446282E+04  0.25500000920E-02 0.  1.
        2   -1    0    0  501    0  0.00000000000E+00  0.00000000000E+00 -0.16894380298E+04  0.16894380298E+04  0.25500000920E-02 0. -1.
    10030    2    1    2    0    0  0.00000000000E+00  0.00000000000E+00  0.31806598404E+02  0.34106826581E+04  0.34105343473E+04 0.  0.
        4    1    3    3  502    0  0.16355207230E+04 -0.42433358188E+03  0.24601653607E+03  0.17074872687E+04  0.12699999809E+01 0. -1.
       -4    1    3    3    0  502 -0.16355207230E+04  0.42433358188E+03 -0.21420993767E+03  0.17031953893E+04  0.12699999809E+01 0.  1.
</event>
<event>
 5   0  0.4464951E-07  0.3397696E+04  0.7818609E-02  0.8138472E-01
       -1   -1    0    0    0  501  0.00000000000E+00  0.00000000000E+00  0.14841039612E+04  0.14841039612E+04  0.50400001928E-02 0.  1.
        1   -1    0    0  501    0  0.00000000000E+00  0.00000000000E+00 -0.19446645102E+04  0.19446645102E+04  0.50400001928E-02 0. -1.
    10030    2    1    2    0    0  0.00000000000E+00  0.00000000000E+00 -0.46056054903E+03  0.34287684714E+04  0.33976958679E+04 0.  0.
        3    1    3    3  502    0  0.13083774084E+04  0.10717263903E+04 -0.39185508583E+03  0.17360873587E+04  0.10100000352E+00 0.  1.
       -3    1    3    3    0  502 -0.13083774084E+04 -0.10717263903E+04 -0.68705463207E+02  0.16926811127E+04  0.10100000352E+00 0. -1.
</event>
<event>
 5   0  0.4289684E-07  0.3692762E+04  0.7818609E-02  0.8069568E-01
       -1   -1    0    0    0  501  0.00000000000E+00  0.00000000000E+00  0.13934761460E+04  0.13934761460E+04  0.50400001928E-02 0.  1.
        1   -1    0    0  501    0  0.00000000000E+00  0.00000000000E+00 -0.24464874863E+04  0.24464874863E+04  0.50400001928E-02 0. -1.
    10030    2    1    2    0    0  0.00000000000E+00  0.00000000000E+00 -0.10530113403E+04  0.38399636324E+04  0.36927615432E+04 0.  0.
        4    1    3    3  502    0  0.10310672191E+04 -0.13471069681E+04 -0.12844815373E+04  0.21278372180E+04  0.12699999809E+01 0. -1.
       -4    1    3    3    0  502 -0.10310672191E+04  0.13471069681E+04  0.23147019702E+03  0.17121264144E+04  0.12699999809E+01 0.  1.
</event>
<event>
 5   0  0.4289684E-07  0.3394549E+04  0.7818609E-02  0.8139245E-01
       -1   -1    0    0    0  501  0.00000000000E+00  0.00000000000E+00  0.15246441624E+04  0.15246441624E+04  0.50400001928E-02 0.  1.
        1   -1    0    0  501    0  0.00000000000E+00  0.00000000000E+00 -0.18894512616E+04  0.18894512616E+04  0.50400001928E-02 0. -1.
    10030    2    1    2    0    0  0.00000000000E+00  0.00000000000E+00 -0.36480709922E+03  0.34140954240E+04  0.33945490635E+04 0.  0.
        4    1    3    3  502    0  0.13357829111E+04 -0.81827518546E+03 -0.83950235606E+03  0.17772608372E+04  0.12699999809E+01 0. -1.
       -4    1    3    3    0  502 -0.13357829111E+04  0.81827518546E+03  0.47469525684E+03  0.16368345868E+04  0.12699999809E+01 0.  1.
</event>
<event>
 5   0  0.4289684E-07  0.3410970E+04  0.7818609E-02  0.8135219E-01
       -1   -1    0    0    0  501  0.00000000000E+00  0.00000000000E+00  0.18830646201E+04  0.18830646201E+04  0.50400001928E-02 0.  1.
        1   -1    0    0  501    0  0.00000000000E+00  0.00000000000E+00 -0.15446520444E+04  0.15446520444E+04  0.50400001928E-02 0. -1.
    10030    2    1    2    0    0  0.00000000000E+00  0.00000000000E+00  0.33841257570E+03  0.34277166646E+04  0.34109703108E+04 0.  0.
        4    1    3    3  502    0  0.94262359917E+01  0.10174473154E+04 -0.12062319319E+04  0.15780636806E+04  0.12699999809E+01 0. -1.
       -4    1    3    3    0  502 -0.94262359917E+01 -0.10174473154E+04  0.15446445076E+04  0.18496529840E+04  0.12699999809E+01 0.  1.
</event>
<event>
 5   0  0.4272633E-07  0.3380766E+04  0.7818609E-02  0.8142643E-01
        1   -1    0    0  501    0  0.00000000000E+00  0.00000000000E+00  0.12581903459E+04  0.12581903459E+04  0.50400001928E-02 0.  1.
       -1   -1    0    0    0  501  0.00000000000E+00  0.00000000000E+00 -0.22710357207E+04  0.22710357207E+04  0.50400001928E-02 0. -1.
    10030    2    1    2    0    0  0.00000000000E+00  0.00000000000E+00 -0.10128453748E+04  0.35292260665E+04  0.33807663148E+04 0.  0.
        1    1    3    3  502    0  0.28146735190E+03  0.31095025869E+03 -0.22158542201E+04  0.22551992946E+04  0.50400001928E-02 0. -1.
       -1    1    3    3    0  502 -0.28146735190E+03 -0.31095025869E+03  0.12030088453E+04  0.12740267719E+04  0.50400001928E-02 0.  1.
</event>
<event>
 5   0  0.4109937E-07  0.3382555E+04  0.7818609E-02  0.8142201E-01
       -1   -1    0    0    0  501  0.00000000000E+00  0.00000000000E+00  0.13904449116E+04  0.13904449117E+04  0.50400001928E-02 0.  1.
        1   -1    0    0  501    0  0.00000000000E+00  0.00000000000E+00 -0.20571979041E+04  0.20571979041E+04  0.50400001928E-02 0. -1.
    10030    2    1    2    0    0  0.00000000000E+00  0.00000000000E+00 -0.66675299241E+03  0.34476428157E+04  0.33825554588E+04 0.  0.
        5    1    3    3  502    0  0.35419670154E+03 -0.15901010138E+04 -0.79656760820E+03  0.18133997304E+04  0.46999998093E+01 0.  1.
       -5    1    3    3    0  502 -0.35419670154E+03  0.15901010138E+04  0.12981461579E+03  0.16342430854E+04  0.46999998093E+01 0. -1.
</event>
<event>
 5   0  0.1277635E-06  0.3399441E+04  0.7818609E-02  0.8138044E-01
        2   -1    0    0  501    0  0.00000000000E+00  0.00000000000E+00  0.15365472572E+04  0.15365472572E+04  0.25500000920E-02 0.  1.
       -2   -1    0    0    0  501  0.00000000000E+00  0.00000000000E+00 -0.18802217237E+04  0.18802217237E+04  0.25500000920E-02 0. -1.
    10030    2    1    2    0    0  0.00000000000E+00  0.00000000000E+00 -0.34367446645E+03  0.34167689809E+04  0.33994408555E+04 0.  0.
        4    1    3    3  502    0  0.23315163611E+03 -0.89938975660E+02  0.15179819776E+04  0.15384146391E+04  0.12699999809E+01 0.  1.
       -4    1    3    3    0  502 -0.23315163611E+03  0.89938975660E+02 -0.18616564440E+04  0.18783543418E+04  0.12699999809E+01 0. -1.
</event>
<event>
 5   0  0.4060750E-07  0.3397041E+04  0.7818609E-02  0.8138633E-01
        3   -1    0    0  501    0  0.00000000000E+00  0.00000000000E+00  0.22866275082E+04  0.22866275104E+04  0.10100000352E+00 0. -1.
       -3   -1    0    0    0  501  0.00000000000E+00  0.00000000000E+00 -0.12616707808E+04  0.12616707849E+04  0.10100000352E+00 0.  1.
    10030    2    1    2    0    0  0.00000000000E+00  0.00000000000E+00  0.10249567273E+04  0.35482982953E+04  0.33970405501E+04 0.  0.
        2    1    3    3  502    0  0.56191392900E+03  0.12830863215E+04  0.15159378807E+04  0.20640071294E+04  0.25500000920E-02 0. -1.
       -2    1    3    3    0  502 -0.56191392900E+03 -0.12830863215E+04 -0.49098115334E+03  0.14842911659E+04  0.25500000920E-02 0.  1.
</event>
<event>
 5   0  0.1277635E-06  0.3041568E+04  0.7818609E-02  0.8231960E-01
       -2   -1    0    0    0  501  0.00000000000E+00  0.00000000000E+00  0.11059385091E+04  0.11059385091E+04  0.25500000920E-02 0.  1.
        2   -1    0    0  501    0  0.00000000000E+00  0.00000000000E+00 -0.20912410648E+04  0.20912410648E+04  0.25500000920E-02 0. -1.
    10030    2    1    2    0    0  0.00000000000E+00  0.00000000000E+00 -0.98530255570E+03  0.31971795739E+04  0.30415680334E+04 0.  0.
        4    1    3    3  502    0  0.23792579817E+03 -0.11539795127E+04 -0.15033556150E+04  0.19100673075E+04  0.12699999809E+01 0. -1.
       -4    1    3    3    0  502 -0.23792579817E+03  0.11539795127E+04  0.51805305926E+03  0.12871122664E+04  0.12699999809E+01 0.  1.
</event>
<event>
 5   0  0.4272633E-07  0.3407562E+04  0.7818609E-02  0.8136053E-01
        1   -1    0    0  501    0  0.00000000000E+00  0.00000000000E+00  0.97776071097E+03  0.97776071098E+03  0.50400001928E-02 0. -1.
       -1   -1    0    0    0  501  0.00000000000E+00  0.00000000000E+00 -0.29688963314E+04  0.29688963314E+04  0.50400001928E-02 0.  1.
    10030    2    1    2    0    0  0.00000000000E+00  0.00000000000E+00 -0.19911356204E+04  0.39466570423E+04  0.34075622887E+04 0.  0.
        1    1    3    3  502    0 -0.16431195201E+04 -0.35922471271E+03 -0.13106040143E+04  0.21322680492E+04  0.50400001928E-02 0.  1.
       -1    1    3    3    0  502  0.16431195201E+04  0.35922471271E+03 -0.68053160613E+03  0.18143889931E+04  0.50400001928E-02 0. -1.
</event>
<event>
 5   0  0.1300176E-06  0.3478415E+04  0.7818609E-02  0.8118924E-01
       -2   -1    0    0    0  501  0.00000000000E+00  0.00000000000E+00  0.10778211395E+04  0.10778211395E+04  0.25500000920E-02 0.  1.
        2   -1    0    0  501    0  0.00000000000E+00  0.00000000000E+00 -0.28064417559E+04  0.28064417559E+04  0.25500000920E-02 0. -1.
    10030    2    1    2    0    0  0.00000000000E+00  0.00000000000E+00 -0.17286206164E+04  0.38842628954E+04  0.34784147259E+04 0.  0.
        1    1    3    3  502    0 -0.60898029204E+03  0.13068667241E+04  0.22184579437E+03  0.14587574120E+04  0.50400001928E-02 0.  1.
       -1    1    3    3    0  502  0.60898029204E+03 -0.13068667241E+04 -0.19504664108E+04  0.24255054834E+04  0.50400001928E-02 0. -1.
</event>
<event>
 5   0  0.4464951E-07  0.3379694E+04  0.7818609E-02  0.8142908E-01
       -1   -1    0    0    0  501  0.00000000000E+00  0.00000000000E+00  0.11030061420E+04  0.11030061420E+04  0.50400001928E-02 0. -1.
        1   -1    0    0  501    0  0.00000000000E+00  0.00000000000E+00 -0.25889092488E+04  0.25889092488E+04  0.50400001928E-02 0.  1.
    10030    2    1    2    0    0  0.00000000000E+00  0.00000000000E+00 -0.14859031069E+04  0.36919153908E+04  0.33796939521E+04 0.  0.
        3    1    3    3  502    0  0.26044999008E+03 -0.56715764210E+03  0.97249825724E+03  0.11555322838E+04  0.10100000352E+00 0. -1.
       -3    1    3    3    0  502 -0.26044999008E+03  0.56715764210E+03 -0.24584013641E+04  0.25363831070E+04  0.10100000352E+00 0.  1.
</event>
<event>
 5   0  0.1268230E-06  0.3456875E+04  0.7818609E-02  0.8124087E-01
       -2   -1    0    0    0  501  0.00000000000E+00  0.00000000000E+00  0.13661818972E+04  0.13661818972E+04  0.25500000920E-02 0.  1.
        2   -1    0    0  501    0  0.00000000000E+00  0.00000000000E+00 -0.21867489831E+04  0.21867489831E+04  0.25500000920E-02 0. -1.
    10030    2    1    2    0    0  0.00000000000E+00  0.00000000000E+00 -0.82056708584E+03  0.35529308803E+04  0.34568753952E+04 0.  0.
        2    1    3    3  502    0 -0.12462552073E+04  0.86983680516E+03  0.43583457113E+03  0.15810502468E+04  0.25500000920E-02 0.  1.
       -2    1    3    3    0  502  0.12462552073E+04 -0.86983680516E+03 -0.12564016570E+04  0.19718806336E+04  0.25500000920E-02 0. -1.
</event>
<event>
 5   0  0.4272633E-07  0.3399788E+04  0.7818609E-02  0.8137958E-01
        1   -1    0    0  501    0  0.00000000000E+00  0.00000000000E+00  0.19528503124E+04  0.19528503124E+04  0.50400001928E-02 0. -1.
       -1   -1    0    0    0  501  0.00000000000E+00  0.00000000000E+00 -0.14797034718E+04  0.14797034719E+04  0.50400001928E-02 0.  1.
    10030    2    1    2    0    0  0.00000000000E+00  0.00000000000E+00  0.47314684051E+03  0.34325537842E+04  0.33997878682E+04 0.  0.
        1    1    3    3  502    0  0.29509533681E+03  0.14681865314E+04 -0.57553332884E+03  0.16043352397E+04  0.50400001928E-02 0.  1.
       -1    1    3    3    0  502 -0.29509533681E+03 -0.14681865314E+04  0.10486801694E+04  0.18282185445E+04  0.50400001928E-02 0. -1.
</event>
<event>
 5   0  0.4109937E-07  0.3412613E+04  0.7818609E-02  0.8134818E-01
       -1   -1    0    0    0  501  0.00000000000E+00  0.00000000000E+00  0.18293096739E+04  0.18293096739E+04  0.50400001928E-02 0.  1.
        1   -1    0    0  501    0  0.00000000000E+00  0.00000000000E+00 -0.15915743808E+04  0.15915743808E+04  0.50400001928E-02 0. -1.
    10030    2    1    2    0    0  0.00000000000E+00  0.00000000000E+00  0.23773529310E+03  0.34208840546E+04  0.34126133162E+04 0.  0.
        5    1    3    3  502    0  0.54790577886E+03 -0.10335507186E+04  0.13640667780E+04  0.17969774888E+04  0.46999998093E+01 0.  1.
       -5    1    3    3    0  502 -0.54790577886E+03  0.10335507186E+04 -0.11263314849E+04  0.16239065658E+04  0.46999998093E+01 0. -1.
</event>
<event>
 5   0  0.4272633E-07  0.2863159E+04  0.7818609E-02  0.8283924E-01
        1   -1    0    0  501    0  0.00000000000E+00  0.00000000000E+00  0.24823418221E+04  0.24823418221E+04  0.50400001928E-02 0.  1.
       -1   -1    0    0    0  501  0.00000000000E+00  0.00000000000E+00 -0.82559910247E+03  0.82559910249E+03  0.50400001928E-02 0. -1.
    10030    2    1    2    0    0  0.00000000000E+00  0.00000000000E+00  0.16567427196E+04  0.33079409246E+04  0.28631585219E+04 0.  0.
        1    1    3    3  502    0  0.99554423248E+03 -0.80554312645E+03  0.15676227931E+04  0.20242157170E+04  0.50400001928E-02 0. -1.
       -1    1    3    3    0  502 -0.99554423248E+03  0.80554312645E+03  0.89119926570E+02  0.12837252076E+04  0.50400001928E-02 0.  1.
</event>
<event>
 5   0  0.1269497E-06  0.3362866E+04  0.7818609E-02  0.8147081E-01
       -2   -1    0    0    0  501  0.00000000000E+00  0.00000000000E+00  0.11131887118E+04  0.11131887118E+04  0.25500000920E-02 0. -1.
        2   -1    0    0  501    0  0.00000000000E+00  0.00000000000E+00 -0.25397466089E+04  0.25397466089E+04  0.25500000920E-02 0.  1.
    10030    2    1    2    0    0  0.00000000000E+00  0.00000000000E+00 -0.14265578971E+04  0.36529353206E+04  0.33628661917E+04 0.  0.
        5    1    3    3  502    0  0.19470550261E+03 -0.12234136253E+04  0.52168724523E+03  0.13441840660E+04  0.46999998093E+01 0. -1.
       -5    1    3    3    0  502 -0.19470550261E+03  0.12234136253E+04 -0.19482451423E+04  0.23087512547E+04  0.46999998093E+01 0.  1.
</event>
<event>
 5   0  0.1256208E-06  0.3357664E+04  0.7818609E-02  0.8148376E-01
        2   -1    0    0  501    0  0.00000000000E+00  0.00000000000E+00  0.93216480171E+03  0.93216480171E+03  0.25500000920E-02 0.  1.
       -2   -1    0    0    0  501  0.00000000000E+00  0.00000000000E+00 -0.30235814127E+04  0.30235814128E+04  0.25500000920E-02 0. -1.
    10030    2    1    2    0    0  0.00000000000E+00  0.00000000000E+00 -0.20914166110E+04  0.39557462145E+04  0.33576635734E+04 0.  0.
        3    1    3    3  502    0 -0.31203922848E+03 -0.66538095982E+03 -0.28240037948E+04  0.29180640406E+04  0.10100000352E+00 0. -1.
       -3    1    3    3    0  502  0.31203922848E+03  0.66538095982E+03  0.73258718380E+03  0.10376821738E+04  0.10100000352E+00 0.  1.
</event>
<event>
 5   0  0.1300176E-06  0.3420413E+04  0.7818609E-02  0.8132914E-01
        2   -1    0    0  501    0  0.00000000000E+00  0.00000000000E+00  0.20795470644E+04  0.20795470644E+04  0.25500000920E-02 0.  1.
       -2   -1    0    0    0  501  0.00000000000E+00  0.00000000000E+00 -0.14064629283E+04  0.14064629283E+04  0.25500000920E-02 0. -1.
    10030    2    1    2    0    0  0.00000000000E+00  0.00000000000E+00  0.67308413605E+03  0.34860099927E+04  0.34204127551E+04 0.  0.
        1    1    3    3  502    0  0.15353393824E+04 -0.49954005899E+02 -0.42956774622E+03  0.15950833428E+04  0.50400001928E-02 0. -1.
       -1    1    3    3    0  502 -0.15353393824E+04  0.49954005899E+02  0.11026518823E+04  0.18909266499E+04  0.50400001928E-02 0.  1.
</event>
<event>
 5   0  0.4125758E-07  0.3394557E+04  0.7818609E-02  0.8139243E-01
       -1   -1    0    0    0  501  0.00000000000E+00  0.00000000000E+00  0.10406687403E+04  0.10406687403E+04  0.50400001928E-02 0. -1.
        1   -1    0    0  501    0  0.00000000000E+00  0.00000000000E+00 -0.27681768383E+04  0.27681768383E+04  0.50400001928E-02 0.  1.
    10030    2    1    2    0    0  0.00000000000E+00  0.00000000000E+00 -0.17275080980E+04  0.38088455786E+04  0.33945574694E+04 0.  0.
        2    1    3    3  502    0  0.91040885419E+03 -0.10629889436E+04  0.21362244060E+03  0.14157769327E+04  0.25500000920E-02 0. -1.
       -2    1    3    3    0  502 -0.91040885419E+03  0.10629889436E+04 -0.19411305386E+04  0.23930686459E+04  0.25500000920E-02 0.  1.
</event>
<event>
 5   0  0.4272633E-07  0.3723459E+04  0.7818609E-02  0.8062783E-01
       -1   -1    0    0    0  501  0.00000000000E+00  0.00000000000E+00  0.23767159749E+04  0.23767159749E+04  0.50400001928E-02 0. -1.
        1   -1    0    0  501    0  0.00000000000E+00  0.00000000000E+00 -0.14583298424E+04  0.14583298425E+04  0.50400001928E-02 0.  1.
    10030    2    1    2    0    0  0.00000000000E+00  0.00000000000E+00  0.91838613247E+03  0.38350458174E+04  0.37234585177E+04 0.  0.
        1    1    3    3  502    0 -0.37314701816E+02 -0.49481008960E+03 -0.13889641745E+04  0.14749409784E+04  0.50400001928E-02 0.  1.
       -1    1    3    3    0  502  0.37314701816E+02  0.49481008960E+03  0.23073503070E+04  0.23601048390E+04  0.50400001928E-02 0. -1.
</event>
<event>
 5   0  0.1269497E-06  0.3415677E+04  0.7818609E-02  0.8134069E-01
       -2   -1    0    0    0  501  0.00000000000E+00  0.00000000000E+00  0.22428276056E+04  0.22428276056E+04  0.25500000920E-02 0.  1.
        2   -1    0    0  501    0  0.00000000000E+00  0.00000000000E+00 -0.13004617962E+04  0.13004617962E+04  0.25500000920E-02 0. -1.
    10030    2    1    2    0    0  0.00000000000E+00  0.00000000000E+00  0.94236580939E+03  0.35432894018E+04  0.34156765752E+04 0.  0.
        5    1    3    3  502    0 -0.10972603997E+04  0.12551725863E+04  0.85549806512E+03  0.18738563540E+04  0.46999998093E+01 0.  1.
       -5    1    3    3    0  502  0.10972603997E+04 -0.12551725863E+04  0.86867744266E+02  0.16694330478E+04  0.46999998093E+01 0. -1.
</event>
<event>
 5   0  0.4109937E-07  0.3407283E+04  0.7818609E-02  0.8136121E-01
        1   -1    0    0  501    0  0.00000000000E+00  0.00000000000E+00  0.22203572912E+04  0.22203572912E+04  0.50400001928E-02 0.  1.
       -1   -1    0    0    0  501  0.00000000000E+00  0.00000000000E+00 -0.13071748371E+04  0.13071748371E+04  0.50400001928E-02 0. -1.
    10030    2    1    2    0    0  0.00000000000E+00  0.00000000000E+00  0.91318245419E+03  0.35275321283E+04  0.34072834813E+04 0.  0.
        5    1    3    3  502    0 -0.54045340500E+03 -0.95130911361E+03 -0.89536417300E+03  0.14137814559E+04  0.46999998093E+01 0. -1.
       -5    1    3    3    0  502  0.54045340500E+03  0.95130911361E+03  0.18085466272E+04  0.21137506725E+04  0.46999998093E+01 0.  1.
</event>
<event>
 5   0  0.4289684E-07  0.3290365E+04  0.7818609E-02  0.8165351E-01
        1   -1    0    0  501    0  0.00000000000E+00  0.00000000000E+00  0.22067333805E+04  0.22067333806E+04  0.50400001928E-02 0.  1.
       -1   -1    0    0    0  501  0.00000000000E+00  0.00000000000E+00 -0.12265301927E+04  0.12265301927E+04  0.50400001928E-02 0. -1.
    10030    2    1    2    0    0  0.00000000000E+00  0.00000000000E+00  0.98020318786E+03  0.34332635732E+04  0.32903647934E+04 0.  0.
        4    1    3    3  502    0  0.77108306045E+03 -0.31319668242E+03  0.19708755240E+04  0.21393955203E+04  0.12699999809E+01 0.  1.
       -4    1    3    3    0  502 -0.77108306045E+03  0.31319668242E+03 -0.99067233616E+03  0.12938680530E+04  0.12699999809E+01 0. -1.
</event>
<event>
 5   0  0.1269497E-06  0.3432984E+04  0.7818609E-02  0.8129858E-01
       -2   -1    0    0    0  501  0.00000000000E+00  0.00000000000E+00  0.18029216557E+04  0.18029216557E+04  0.25500000920E-02 0. -1.
        2   -1    0    0  501    0  0.00000000000E+00  0.00000000000E+00 -0.16342054269E+04  0.16342054269E+04  0.25500000920E-02 0.  1.
    10030    2    1    2    0    0  0.00000000000E+00  0.00000000000E+00  0.16871622873E+03  0.34371270826E+04  0.34329837483E+04 0.  0.
        5    1    3    3  502    0  0.21424302593E+03  0.15278579723E+04 -0.66892764676E+03  0.16815874477E+04  0.46999998093E+01 0.  1.
       -5    1    3    3    0  502 -0.21424302593E+03 -0.15278579723E+04  0.83764387549E+03  0.17555396349E+04  0.46999998093E+01 0. -1.
</event>
<event>
 5   0  0.4060750E-07  0.3413118E+04  0.7818609E-02  0.8134694E-01
       -3   -1    0    0    0  501  0.00000000000E+00  0.00000000000E+00  0.12109114592E+04  0.12109114634E+04  0.10100000352E+00 0. -1.
        3   -1    0    0  501    0  0.00000000000E+00  0.00000000000E+00 -0.24050832089E+04  0.24050832110E+04  0.10100000352E+00 0.  1.
    10030    2    1    2    0    0  0.00000000000E+00  0.00000000000E+00 -0.11941717497E+04  0.36159946744E+04  0.34131175364E+04 0.  0.
        3    1    3    3  502    0 -0.13916964354E+03 -0.12156399114E+04 -0.18574167147E+04  0.22242179403E+04  0.10100000352E+00 0.  1.
       -3    1    3    3    0  502  0.13916964354E+03  0.12156399114E+04  0.66324496497E+03  0.13917767341E+04  0.10100000352E+00 0. -1.
</event>
<event>
 5   0  0.1269497E-06  0.3408919E+04  0.7818609E-02  0.8135721E-01
        2   -1    0    0  501    0  0.00000000000E+00  0.00000000000E+00  0.13957897777E+04  0.13957897777E+04  0.25500000920E-02 0.  1.
       -2   -1    0    0    0  501  0.00000000000E+00  0.00000000000E+00 -0.20813892042E+04  0.20813892042E+04  0.25500000920E-02 0. -1.
    10030    2    1    2    0    0  0.00000000000E+00  0.00000000000E+00 -0.68559942644E+03  0.34771789819E+04  0.34089187580E+04 0.  0.
        5    1    3    3  502    0 -0.15033150663E+04  0.76842952504E+03 -0.58140589862E+03  0.17856357502E+04  0.46999998093E+01 0.  1.
       -5    1    3    3    0  502  0.15033150663E+04 -0.76842952504E+03 -0.10419352782E+03  0.16915432317E+04  0.46999998093E+01 0. -1.
</event>
<event>
 5   0  0.1277635E-06  0.3383752E+04  0.7818609E-02  0.8141906E-01
        2   -1    0    0  501    0  0.00000000000E+00  0.00000000000E+00  0.19187406852E+04  0.19187406852E+04  0.25500000920E-02 0. -1.
       -2   -1    0    0    0  501  0.00000000000E+00  0.00000000000E+00 -0.14918352391E+04  0.14918352391E+04  0.25500000920E-02 0.  1.
    10030    2    1    2    0    0  0.00000000000E+00  0.00000000000E+00  0.42690544610E+03  0.34105759244E+04  0.33837523367E+04 0.  0.
        4    1    3    3  502    0 -0.91366333559E+03 -0.75065632166E+03 -0.10061715386E+04  0.15526262854E+04  0.12699999809E+01 0.  1.
       -4    1    3    3    0  502  0.91366333559E+03  0.75065632166E+03  0.14330769847E+04  0.18579496390E+04  0.12699999809E+01 0. -1.
</event>
<event>
 5   0  0.1300176E-06  0.3139016E+04  0.7818609E-02  0.8205111E-01
        2   -1    0    0  501    0  0.00000000000E+00  0.00000000000E+00  0.23338216948E+04  0.23338216948E+04  0.25500000920E-02 0.  1.
       -2   -1    0    0    0  501  0.00000000000E+00  0.00000000000E+00 -0.10555029859E+04  0.10555029859E+04  0.25500000920E-02 0. -1.
    10030    2    1    2    0    0  0.00000000000E+00  0.00000000000E+00  0.12783187089E+04  0.33893246807E+04  0.31390162583E+04 0.  0.
        1    1    3    3  502    0  0.36036398053E+03 -0.56398118026E+03  0.21720185426E+04  0.22727959696E+04  0.50400001928E-02 0.  1.
       -1    1    3    3    0  502 -0.36036398053E+03  0.56398118026E+03 -0.89369983363E+03  0.11165287111E+04  0.50400001928E-02 0. -1.
</event>
<event>
 5   0  0.1300176E-06  0.3384332E+04  0.7818609E-02  0.8141762E-01
       -2   -1    0    0    0  501  0.00000000000E+00  0.00000000000E+00  0.18200591402E+04  0.18200591402E+04  0.25500000920E-02 0. -1.
        2   -1    0    0  501    0  0.00000000000E+00  0.00000000000E+00 -0.15732600554E+04  0.15732600554E+04  0.25500000920E-02 0.  1.
    10030    2    1    2    0    0  0.00000000000E+00  0.00000000000E+00  0.24679908488E+03  0.33933191956E+04  0.33843323381E+04 0.  0.
        1    1    3    3  502    0 -0.92318573418E+03  0.34397341982E+03  0.15028569242E+04  0.17969887445E+04  0.50400001928E-02 0. -1.
       -1    1    3    3    0  502  0.92318573418E+03 -0.34397341982E+03 -0.12560578393E+04  0.15963304511E+04  0.50400001928E-02 0.  1.
</event>
<event>
 5   0  0.4125758E-07  0.3405431E+04  0.7818609E-02  0.8136575E-01
       -1   -1    0    0    0  501  0.00000000000E+00  0.00000000000E+00  0.19566914857E+04  0.19566914857E+04  0.50400001928E-02 0. -1.
        1   -1    0    0  501    0  0.00000000000E+00  0.00000000000E+00 -0.14817051944E+04  0.14817051944E+04  0.50400001928E-02 0.  1.
    10030    2    1    2    0    0  0.00000000000E+00  0.00000000000E+00  0.47498629135E+03  0.34383966801E+04  0.34054309202E+04 0.  0.
        2    1    3    3  502    0  0.54615159920E+03 -0.72326699946E+03 -0.12179333981E+04  0.15181431039E+04  0.25500000920E-02 0.  1.
       -2    1    3    3    0  502 -0.54615159920E+03  0.72326699946E+03  0.16929196894E+04  0.19202535761E+04  0.25500000920E-02 0. -1.
</event>
<event>
 5   0  0.1300176E-06  0.3401659E+04  0.7818609E-02  0.8137499E-01
        2   -1    0    0  501    0  0.00000000000E+00  0.00000000000E+00  0.12375626962E+04  0.12375626962E+04  0.25500000920E-02 0.  1.
       -2   -1    0    0    0  501  0.00000000000E+00  0.00000000000E+00 -0.23375147457E+04  0.23375147457E+04  0.25500000920E-02 0. -1.
    10030    2    1    2    0    0  0.00000000000E+00  0.00000000000E+00 -0.10999520495E+04  0.35750774419E+04  0.34016590370E+04 0.  0.
        1    1    3    3  502    0 -0.64695617691E+03 -0.21368779973E+03  0.10878706012E+04  0.12836187968E+04  0.50400001928E-02 0.  1.
       -1    1    3    3    0  502  0.64695617691E+03  0.21368779973E+03 -0.21878226508E+04  0.22914586450E+04  0.50400001928E-02 0. -1.
</event>
<event>
 5   0  0.4109937E-07  0.3389599E+04  0.7818609E-02  0.8140464E-01
        1   -1    0    0  501    0  0.00000000000E+00  0.00000000000E+00  0.13856246784E+04  0.13856246784E+04  0.50400001928E-02 0. -1.
       -1   -1    0    0    0  501  0.00000000000E+00  0.00000000000E+00 -0.20729605267E+04  0.20729605267E+04  0.50400001928E-02 0.  1.
    10030    2    1    2    0    0  0.00000000000E+00  0.00000000000E+00 -0.68733584833E+03  0.34585852051E+04  0.33895989516E+04 0.  0.
        5    1    3    3  502    0  0.89550905867E+03 -0.89884134526E+03 -0.14901330721E+04  0.19571333375E+04  0.46999998093E+01 0.  1.
       -5    1    3    3    0  502 -0.89550905867E+03  0.89884134526E+03  0.80279722382E+03  0.15014518676E+04  0.46999998093E+01 0. -1.
</event>
<event>
 5   0  0.4464951E-07  0.3422928E+04  0.7818609E-02  0.8132302E-01
        1   -1    0    0  501    0  0.00000000000E+00  0.00000000000E+00  0.21404716207E+04  0.21404716207E+04  0.50400001928E-02 0. -1.
       -1   -1    0    0    0  501  0.00000000000E+00  0.00000000000E+00 -0.13684408224E+04  0.13684408224E+04  0.50400001928E-02 0.  1.
    10030    2    1    2    0    0  0.00000000000E+00  0.00000000000E+00  0.77203079826E+03  0.35089124431E+04  0.34229278373E+04 0.  0.
        3    1    3    3  502    0  0.12486457417E+04 -0.10527072808E+04 -0.13850157732E+03  0.16390520139E+04  0.10100000352E+00 0. -1.
       -3    1    3    3    0  502 -0.12486457417E+04  0.10527072808E+04  0.91053237557E+03  0.18698604291E+04  0.10100000352E+00 0.  1.
</event>
<event>
 5   0  0.1277635E-06  0.3355392E+04  0.7818609E-02  0.8148942E-01
        2   -1    0    0  501    0  0.00000000000E+00  0.00000000000E+00  0.22429971222E+04  0.22429971222E+04  0.25500000920E-02 0.  1.
       -2   -1    0    0    0  501  0.00000000000E+00  0.00000000000E+00 -0.12548676215E+04  0.12548676215E+04  0.25500000920E-02 0. -1.
    10030    2    1    2    0    0  0.00000000000E+00  0.00000000000E+00  0.98812950063E+03  0.34978647437E+04  0.33553923549E+04 0.  0.
        4    1    3    3  502    0 -0.42237016486E+03 -0.26270167491E+03  0.21643634058E+04  0.22207834860E+04  0.12699999809E+01 0.  1.
       -4    1    3    3    0  502  0.42237016486E+03  0.26270167491E+03 -0.11762339052E+04  0.12770812577E+04  0.12699999809E+01 0. -1.
</event>
<event>
 5   0  0.4272633E-07  0.3400284E+04  0.7818609E-02  0.8137836E-01
        1   -1    0    0  501    0  0.00000000000E+00  0.00000000000E+00  0.20110423943E+04  0.20110423943E+04  0.50400001928E-02 0.  1.
       -1   -1    0    0    0  501  0.00000000000E+00  0.00000000000E+00 -0.14373061826E+04  0.14373061826E+04  0.50400001928E-02 0. -1.
    10030    2    1    2    0    0  0.00000000000E+00  0.00000000000E+00  0.57373621172E+03  0.34483485768E+04  0.34002844979E+04 0.  0.
        1    1    3    3  502    0  0.10157380875E+03 -0.12429676961E+04  0.14587091304E+04  0.19191451898E+04  0.50400001928E-02 0.  1.
       -1    1    3    3    0  502 -0.10157380875E+03  0.12429676961E+04 -0.88497291871E+03  0.15292033871E+04  0.50400001928E-02 0. -1.
</event>
<event>
 5   0  0.1256208E-06  0.3430795E+04  0.7818609E-02  0.8130389E-01
        2   -1    0    0  501    0  0.00000000000E+00  0.00000000000E+00  0.18073250224E+04  0.18073250224E+04  0.25500000920E-02 0.  1.
       -2   -1    0    0    0  501  0.00000000000E+00  0.00000000000E+00 -0.16281453113E+04  0.16281453113E+04  0.25500000920E-02 0. -1.
    10030    2    1    2    0    0  0.00000000000E+00  0.00000000000E+00  0.17917971112E+03  0.34354703337E+04  0.34307945210E+04 0.  0.
        3    1    3    3  502    0  0.13686904517E+03  0.17003970320E+04  0.27012575234E+03  0.17271511614E+04  0.10100000352E+00 0. -1.
       -3    1    3    3    0  502 -0.13686904517E+03 -0.17003970320E+04 -0.90946041220E+02  0.17083191724E+04  0.10100000352E+00 0.  1.
</event>
<event>
 5   0  0.1256208E-06  0.3410071E+04  0.7818609E-02  0.8135439E-01
        2   -1    0    0  501    0  0.00000000000E+00  0.00000000000E+00  0.19876214180E+04  0.19876214180E+04  0.25500000920E-02 0.  1.
       -2   -1    0    0    0  501  0.00000000000E+00  0.00000000000E+00 -0.14626259410E+04  0.14626259410E+04  0.25500000920E-02 0. -1.
    10030    2    1    2    0    0  0.00000000000E+00  0.00000000000E+00  0.52499547702E+03  0.34502473590E+04  0.34100713464E+04 0.  0.
        3    1    3    3  502    0  0.96665317222E+03 -0.13836802107E+04  0.50649732612E+03  0.17622510697E+04  0.10100000352E+00 0. -1.
       -3    1    3    3    0  502 -0.96665317222E+03  0.13836802107E+04  0.18498150901E+02  0.16879962893E+04  0.10100000352E+00 0.  1.
</event>
<event>
 5   0  0.1256208E-06  0.3800591E+04  0.7818609E-02  0.8046028E-01
       -2   -1    0    0    0  501  0.00000000000E+00  0.00000000000E+00  0.17699950953E+04  0.17699950953E+04  0.25500000920E-02 0. -1.
        2   -1    0    0  501    0  0.00000000000E+00  0.00000000000E+00 -0.20401879956E+04  0.20401879956E+04  0.25500000920E-02 0.  1.
    10030    2    1    2    0    0  0.00000000000E+00  0.00000000000E+00 -0.27019290026E+03  0.38101830909E+04  0.38005908728E+04 0.  0.
        3    1    3    3  502    0 -0.12723393568E+04 -0.22075126310E+03 -0.15327255439E+04  0.20042021260E+04  0.10100000352E+00 0.  1.
       -3    1    3    3    0  502  0.12723393568E+04  0.22075126310E+03  0.12625326436E+04  0.18059809648E+04  0.10100000352E+00 0. -1.
</event>
<event>
 5   0  0.4125758E-07  0.3325991E+04  0.7818609E-02  0.8156313E-01
       -1   -1    0    0    0  501  0.00000000000E+00  0.00000000000E+00  0.13855373464E+04  0.13855373465E+04  0.50400001928E-02 0.  1.
        1   -1    0    0  501    0  0.00000000000E+00  0.00000000000E+00 -0.19960157041E+04  0.19960157042E+04  0.50400001928E-02 0. -1.
    10030    2    1    2    0    0  0.00000000000E+00  0.00000000000E+00 -0.61047835770E+03  0.33815530506E+04  0.33259911619E+04 0.  0.
        2    1    3    3  502    0 -0.49113023625E+03  0.15444115034E+04  0.74004870573E+02  0.16223108585E+04  0.25500000920E-02 0.  1.
       -2    1    3    3    0  502  0.49113023625E+03 -0.15444115034E+04 -0.68448322828E+03  0.17592421921E+04  0.25500000920E-02 0. -1.
</event>
<event>
 5   0  0.1269497E-06  0.3350005E+04  0.7818609E-02  0.8150287E-01
        2   -1    0    0  501    0  0.00000000000E+00  0.00000000000E+00  0.13154629731E+04  0.13154629731E+04  0.25500000920E-02 0. -1.
       -2   -1    0    0    0  501  0.00000000000E+00  0.00000000000E+00 -0.21328111955E+04  0.21328111955E+04  0.25500000920E-02 0.  1.
    10030    2    1    2    0    0  0.00000000000E+00  0.00000000000E+00 -0.81734822241E+03  0.34482741687E+04  0.33500054665E+04 0.  0.
        5    1    3    3  502    0  0.14651334572E+04 -0.69697959072E+03 -0.83707425743E+03  0.18256812426E+04  0.46999998093E+01 0. -1.
       -5    1    3    3    0  502 -0.14651334572E+04  0.69697959072E+03  0.19726035022E+02  0.16225929260E+04  0.46999998093E+01 0.  1.
</event>
<event>
 5   0  0.1269497E-06  0.3392546E+04  0.7818609E-02  0.8139738E-01
       -2   -1    0    0    0  501  0.00000000000E+00  0.00000000000E+00  0.12352937127E+04  0.12352937127E+04  0.25500000920E-02 0.  1.
        2   -1    0    0  501    0  0.00000000000E+00  0.00000000000E+00 -0.23292780032E+04  0.23292780032E+04  0.25500000920E-02 0. -1.
    10030    2    1    2    0    0  0.00000000000E+00  0.00000000000E+00 -0.10939842905E+04  0.35645717159E+04  0.33925462252E+04 0.  0.
        5    1    3    3  502    0  0.13530149556E+04  0.41195589087E+03 -0.15309404495E+04  0.20842643489E+04  0.46999998093E+01 0. -1.
       -5    1    3    3    0  502 -0.13530149556E+04 -0.41195589087E+03  0.43695615897E+03  0.14803073671E+04  0.46999998093E+01 0.  1.
</event>
<event>
 5   0  0.1277635E-06  0.3387832E+04  0.7818609E-02  0.8140899E-01
        2   -1    0    0  501    0  0.00000000000E+00  0.00000000000E+00  0.21003617407E+04  0.21003617407E+04  0.25500000920E-02 0. -1.
       -2   -1    0    0    0  501  0.00000000000E+00  0.00000000000E+00 -0.13661223636E+04  0.13661223636E+04  0.25500000920E-02 0.  1.
    10030    2    1    2    0    0  0.00000000000E+00  0.00000000000E+00  0.73423937702E+03  0.34664841043E+04  0.33878318410E+04 0.  0.
        4    1    3    3  502    0  0.14853707223E+04 -0.55017292360E+03  0.98133331788E+03  0.18633392397E+04  0.12699999809E+01 0. -1.
       -4    1    3    3    0  502 -0.14853707223E+04  0.55017292360E+03 -0.24709394086E+03  0.16031448646E+04  0.12699999809E+01 0.  1.
</event>
<event>
 5   0  0.1277635E-06  0.3416854E+04  0.7818609E-02  0.8133782E-01
        2   -1    0    0  501    0  0.00000000000E+00  0.00000000000E+00  0.16749795217E+04  0.16749795217E+04  0.25500000920E-02 0. -1.
       -2   -1    0    0    0  501  0.00000000000E+00  0.00000000000E+00 -0.17425422587E+04  0.17425422587E+04  0.25500000920E-02 0.  1.
    10030    2    1    2    0    0  0.00000000000E+00  0.00000000000E+00 -0.67562737040E+02  0.34175217804E+04  0.34168538740E+04 0.  0.
        4    1    3    3  502    0 -0.50330081474E+03  0.16233199008E+04  0.14015425134E+03  0.17053222679E+04  0.12699999809E+01 0.  1.
       -4    1    3    3    0  502  0.50330081474E+03 -0.16233199008E+04 -0.20771698838E+03  0.17121995125E+04  0.12699999809E+01 0. -1.
</event>
<event>
 5   0  0.4289684E-07  0.2804074E+04  0.7818609E-02  0.8302005E-01
        1   -1    0    0  501    0  0.00000000000E+00  0.00000000000E+00  0.15828359107E+04  0.15828359108E+04  0.50400001928E-02 0.  1.
       -1   -1    0    0    0  501  0.00000000000E+00  0.00000000000E+00 -0.12418901131E+04  0.12418901131E+04  0.50400001928E-02 0. -1.
    10030    2    1    2    0    0  0.00000000000E+00  0.00000000000E+00  0.34094579769E+03  0.28247260238E+04  0.28040743700E+04 0.  0.
        4    1    3    3  502    0  0.73658987118E+02 -0.13424539696E+04  0.57101711953E+03  0.14607088931E+04  0.12699999809E+01 0. -1.
       -4    1    3    3    0  502 -0.73658987118E+02  0.13424539696E+04 -0.23007132185E+03  0.13640171307E+04  0.12699999809E+01 0.  1.
</event>
<event>
 5   0  0.1256208E-06  0.3404349E+04  0.7818609E-02  0.8136840E-01
       -2   -1    0    0    0  501  0.00000000000E+00  0.00000000000E+00  0.16910714344E+04  0.16910714344E+04  0.25500000920E-02 0.  1.
        2   -1    0    0  501    0  0.00000000000E+00  0.00000000000E+00 -0.17133504139E+04  0.17133504139E+04  0.25500000920E-02 0. -1.
    10030    2    1    2    0    0  0.00000000000E+00  0.00000000000E+00 -0.22278979509E+02  0.34044218483E+04  0.34043489492E+04 0.  0.
        3    1    3    3  502    0 -0.12801626618E+04 -0.29178137128E+03  0.10721404270E+04  0.16951217994E+04  0.10100000352E+00 0.  1.
       -3    1    3    3    0  502  0.12801626618E+04  0.29178137128E+03 -0.10944194065E+04  0.17093000489E+04  0.10100000352E+00 0. -1.
</event>
<event>
 5   0  0.4289684E-07  0.3380336E+04  0.7818609E-02  0.8142749E-01
        1   -1    0    0  501    0  0.00000000000E+00  0.00000000000E+00  0.13895461930E+04  0.13895461930E+04  0.50400001928E-02 0. -1.
       -1   -1    0    0    0  501  0.00000000000E+00  0.00000000000E+00 -0.20558280560E+04  0.20558280560E+04  0.50400001928E-02 0.  1.
    10030    2    1    2    0    0  0.00000000000E+00  0.00000000000E+00 -0.66628186301E+03  0.34453742491E+04  0.33803361068E+04 0.  0.
        4    1    3    3  502    0  0.16440198407E+04 -0.31378082739E+03 -0.93225589809E+02  0.16762912240E+04  0.12699999809E+01 0.  1.
       -4    1    3    3    0  502 -0.16440198407E+04  0.31378082739E+03 -0.57305627320E+03  0.17690830250E+04  0.12699999809E+01 0. -1.
</event>
<event>
 5   0  0.1300176E-06  0.3392044E+04  0.7818609E-02  0.8139862E-01
       -2   -1    0    0    0  501  0.00000000000E+00  0.00000000000E+00  0.10626754591E+04  0.10626754591E+04  0.25500000920E-02 0.  1.
        2   -1    0    0  501    0  0.00000000000E+00  0.00000000000E+00 -0.27068388807E+04  0.27068388807E+04  0.25500000920E-02 0. -1.
    10030    2    1    2    0    0  0.00000000000E+00  0.00000000000E+00 -0.16441634216E+04  0.37695143398E+04  0.33920443690E+04 0.  0.
        1    1    3    3  502    0  0.15240382796E+04  0.33237962851E+03 -0.82163542470E+02  0.15620242453E+04  0.50400001928E-02 0.  1.
       -1    1    3    3    0  502 -0.15240382796E+04 -0.33237962851E+03 -0.15619998792E+04  0.22074900946E+04  0.50400001928E-02 0. -1.
</event>
<event>
 5   0  0.1268230E-06  0.3405442E+04  0.7818609E-02  0.8136572E-01
       -2   -1    0    0    0  501  0.00000000000E+00  0.00000000000E+00  0.13169583762E+04  0.13169583762E+04  0.25500000920E-02 0. -1.
        2   -1    0    0  501    0  0.00000000000E+00  0.00000000000E+00 -0.22014813851E+04  0.22014813851E+04  0.25500000920E-02 0.  1.
    10030    2    1    2    0    0  0.00000000000E+00  0.00000000000E+00 -0.88452300894E+03  0.35184397612E+04  0.34054423208E+04 0.  0.
        2    1    3    3  502    0 -0.13271315579E+04  0.87365337498E+03 -0.10747094529E+04  0.19182150036E+04  0.25500000920E-02 0.  1.
       -2    1    3    3    0  502  0.13271315579E+04 -0.87365337498E+03  0.19018644400E+03  0.16002247577E+04  0.25500000920E-02 0. -1.
</event>
<event>
 5   0  0.4272633E-07  0.2981705E+04  0.7818609E-02  0.8248975E-01
       -1   -1    0    0    0  501  0.00000000000E+00  0.00000000000E+00  0.13998964722E+04  0.13998964723E+04  0.50400001928E-02 0. -1.
        1   -1    0    0  501    0  0.00000000000E+00  0.00000000000E+00 -0.15877181315E+04  0.15877181315E+04  0.50400001928E-02 0.  1.
    10030    2    1    2    0    0  0.00000000000E+00  0.00000000000E+00 -0.18782165923E+03  0.29876146037E+04  0.29817048890E+04 0.  0.
        1    1    3    3  502    0  0.13750874799E+04  0.54023730241E+03 -0.29410445154E+03  0.15063928269E+04  0.50400001928E-02 0.  1.
       -1    1    3    3    0  502 -0.13750874799E+04 -0.54023730241E+03  0.10628279230E+03  0.14812217769E+04  0.50400001928E-02 0. -1.
</event>
<event>
 5   0  0.4125758E-07  0.3399049E+04  0.7818609E-02  0.8138140E-01
       -1   -1    0    0    0  501  0.00000000000E+00  0.00000000000E+00  0.16326274812E+04  0.16326274812E+04  0.50400001928E-02 0.  1.
        1   -1    0    0  501    0  0.00000000000E+00  0.00000000000E+00 -0.17691624963E+04  0.17691624963E+04  0.50400001928E-02 0. -1.
    10030    2    1    2    0    0  0.00000000000E+00  0.00000000000E+00 -0.13653501512E+03  0.34017899774E+04  0.33990488729E+04 0.  0.
        2    1    3    3  502    0 -0.15286240305E+04  0.72448649788E+03  0.95605791333E+02  0.16943177328E+04  0.25500000920E-02 0.  1.
       -2    1    3    3    0  502  0.15286240305E+04 -0.72448649788E+03 -0.23214080645E+03  0.17074722447E+04  0.25500000920E-02 0. -1.
</event>
<event>
 5   0  0.1277635E-06  0.3235345E+04  0.7818609E-02  0.8179545E-01
        2   -1    0    0  501    0  0.00000000000E+00  0.00000000000E+00  0.19274684630E+04  0.19274684630E+04  0.25500000920E-02 0.  1.
       -2   -1    0    0    0  501  0.00000000000E+00  0.00000000000E+00 -0.13576686955E+04  0.13576686955E+04  0.25500000920E-02 0. -1.
    10030    2    1    2    0    0  0.00000000000E+00  0.00000000000E+00  0.56979976744E+03  0.32851371585E+04  0.32353445528E+04 0.  0.
        4    1    3    3  502    0  0.48821957015E+02 -0.78940350022E+03  0.17177592004E+04  0.18910948556E+04  0.12699999809E+01 0.  1.
       -4    1    3    3    0  502 -0.48821957015E+02  0.78940350022E+03 -0.11479594329E+04  0.13940423029E+04  0.12699999809E+01 0. -1.
</event>
<event>
 5   0  0.1277635E-06  0.3413342E+04  0.7818609E-02  0.8134640E-01
       -2   -1    0    0    0  501  0.00000000000E+00  0.00000000000E+00  0.12879369015E+04  0.12879369015E+04  0.25500000920E-02 0. -1.
        2   -1    0    0  501    0  0.00000000000E+00  0.00000000000E+00 -0.22615439495E+04  0.22615439495E+04  0.25500000920E-02 0.  1.
    10030    2    1    2    0    0  0.00000000000E+00  0.00000000000E+00 -0.97360704797E+03  0.35494808510E+04  0.34133420027E+04 0.  0.
        4    1    3    3  502    0 -0.71037432891E+03  0.59012717486E+03  0.10056542153E+04  0.13653658057E+04  0.12699999809E+01 0. -1.
       -4    1    3    3    0  502  0.71037432891E+03 -0.59012717486E+03 -0.19792612633E+04  0.21841150453E+04  0.12699999809E+01 0.  1.
</event>
<event>
 5   0  0.4289684E-07  0.3334239E+04  0.7818609E-02  0.8154237E-01
        1   -1    0    0  501    0  0.00000000000E+00  0.00000000000E+00  0.11342479926E+04  0.11342479926E+04  0.50400001928E-02 0.  1.
       -1   -1    0    0    0  501  0.00000000000E+00  0.00000000000E+00 -0.24503354138E+04  0.24503354138E+04  0.50400001928E-02 0. -1.
    10030    2    1    2    0    0  0.00000000000E+00  0.00000000000E+00 -0.13160874212E+04  0.35845834064E+04  0.33342393581E+04 0.  0.
        4    1    3    3  502    0  0.11186632709E+04 -0.12282485203E+04 -0.80733888527E+03  0.18471057441E+04  0.12699999809E+01 0.  1.
       -4    1    3    3    0  502 -0.11186632709E+04  0.12282485203E+04 -0.50874853592E+03  0.17374776623E+04  0.12699999809E+01 0. -1.
</event>
<event>
 5   0  0.4125758E-07  0.3417588E+04  0.7818609E-02  0.8133603E-01
       -1   -1    0    0    0  501  0.00000000000E+00  0.00000000000E+00  0.21258539493E+04  0.21258539493E+04  0.50400001928E-02 0.  1.
        1   -1    0    0  501    0  0.00000000000E+00  0.00000000000E+00 -0.13735547309E+04  0.13735547309E+04  0.50400001928E-02 0. -1.
    10030    2    1    2    0    0  0.00000000000E+00  0.00000000000E+00  0.75229921841E+03  0.34994086802E+04  0.34175878917E+04 0.  0.
        2    1    3    3  502    0  0.26666025489E+03  0.79468843030E+03 -0.11485737546E+04  0.14219209059E+04  0.25500000920E-02 0. -1.
       -2    1    3    3    0  502 -0.26666025489E+03 -0.79468843030E+03  0.19008729731E+04  0.20774877743E+04  0.25500000920E-02 0.  1.
</event>
<event>
 5   0  0.1269497E-06  0.3356610E+04  0.7818609E-02  0.8148639E-01
       -2   -1    0    0    0  501  0.00000000000E+00  0.00000000000E+00  0.13819138359E+04  0.13819138359E+04  0.25500000920E-02 0.  1.
        2   -1    0    0  501    0  0.00000000000E+00  0.00000000000E+00 -0.20382657677E+04  0.20382657678E+04  0.25500000920E-02 0. -1.
    10030    2    1    2    0    0  0.00000000000E+00  0.00000000000E+00 -0.65635193183E+03  0.34201796037E+04  0.33566099957E+04 0.  0.
        5    1    3    3  502    0 -0.74644366525E+03 -0.10241408544E+04  0.79295427237E+03  0.14949385282E+04  0.46999998093E+01 0.  1.
       -5    1    3    3    0  502  0.74644366525E+03  0.10241408544E+04 -0.14493062042E+04  0.19252410755E+04  0.46999998093E+01 0. -1.
</event>
<event>
 5   0  0.1269497E-06  0.3400562E+04  0.7818609E-02  0.8137768E-01
        2   -1    0    0  501    0  0.00000000000E+00  0.00000000000E+00  0.17157086998E+04  0.17157086998E+04  0.25500000920E-02 0. -1.
       -2   -1    0    0    0  501  0.00000000000E+00  0.00000000000E+00 -0.16849917203E+04  0.16849917203E+04  0.25500000920E-02 0.  1.
    10030    2    1    2    0    0  0.00000000000E+00  0.00000000000E+00  0.30716979569E+02  0.34007004201E+04  0.34005616910E+04 0.  0.
        5    1    3    3  502    0  0.27036525684E+03 -0.16770068020E+04 -0.58696389136E+02  0.16996813060E+04  0.46999998093E+01 0. -1.
       -5    1    3    3    0  502 -0.27036525684E+03  0.16770068020E+04  0.89413368706E+02  0.17010191141E+04  0.46999998093E+01 0.  1.
</event>
<event>
 5   0  0.4109937E-07  0.3427067E+04  0.7818609E-02  0.8131295E-01
       -1   -1    0    0    0  501  0.00000000000E+00  0.00000000000E+00  0.17931583992E+04  0.17931583992E+04  0.50400001928E-02 0.  1.
        1   -1    0    0  501    0  0.00000000000E+00  0.00000000000E+00 -0.16374448018E+04  0.16374448018E+04  0.50400001928E-02 0. -1.
    10030    2    1    2    0    0  0.00000000000E+00  0.00000000000E+00  0.15571359743E+03  0.34306032011E+04  0.34270674926E+04 0.  0.
        5    1    3    3  502    0  0.14737929392E+04 -0.17109250730E+03  0.93596785391E+03  0.17542508907E+04  0.46999998093E+01 0. -1.
       -5    1    3    3    0  502 -0.14737929392E+04  0.17109250730E+03 -0.78025425648E+03  0.16763523104E+04  0.46999998093E+01 0.  1.
</event>
<event>
 5   0  0.1268230E-06  0.3329299E+04  0.7818609E-02  0.8155480E-01
        2   -1    0    0  501    0  0.00000000000E+00  0.00000000000E+00  0.16761684370E+04  0.16761684370E+04  0.25500000920E-02 0.  1.
       -2   -1    0    0    0  501  0.00000000000E+00  0.00000000000E+00 -0.16532093141E+04  0.16532093141E+04  0.25500000920E-02 0. -1.
    10030    2    1    2    0    0  0.00000000000E+00  0.00000000000E+00  0.22959122871E+02  0.33293777511E+04  0.33292985880E+04 0.  0.
        2    1    3    3  502    0 -0.19955080594E+03  0.14591780956E+04  0.78740782078E+03  0.16700396148E+04  0.25500000920E-02 0.  1.
       -2    1    3    3    0  502  0.19955080594E+03 -0.14591780956E+04 -0.76444869791E+03  0.16593381363E+04  0.25500000920E-02 0. -1.
</event>
<event>
 5   0  0.4289684E-07  0.3407794E+04  0.7818609E-02  0.8135996E-01
        1   -1    0    0  501    0  0.00000000000E+00  0.00000000000E+00  0.16184906094E+04  0.16184906095E+04  0.50400001928E-02 0. -1.
       -1   -1    0    0    0  501  0.00000000000E+00  0.00000000000E+00 -0.17938103409E+04  0.17938103409E+04  0.50400001928E-02 0.  1.
    10030    2    1    2    0    0  0.00000000000E+00  0.00000000000E+00 -0.17531973146E+03  0.34123009504E+04  0.34077941205E+04 0.  0.
        4    1    3    3  502    0 -0.16462605754E+04  0.21905158752E+02  0.35179394699E+03  0.16835718910E+04  0.12699999809E+01 0.  1.
       -4    1    3    3    0  502  0.16462605754E+04 -0.21905158752E+02 -0.52711367846E+03  0.17287290594E+04  0.12699999809E+01 0. -1.
</event>
<event>
 5   0  0.1256208E-06  0.3330348E+04  0.7818609E-02  0.8155216E-01
        2   -1    0    0  501    0  0.00000000000E+00  0.00000000000E+00  0.20728799800E+04  0.20728799800E+04  0.25500000920E-02 0. -1.
       -2   -1    0    0    0  501  0.00000000000E+00  0.00000000000E+00 -0.13376582129E+04  0.13376582129E+04  0.25500000920E-02 0.  1.
    10030    2    1    2    0    0  0.00000000000E+00  0.00000000000E+00  0.73522176711E+03  0.34105381929E+04  0.33303482879E+04 0.  0.
        3    1    3    3  502    0 -0.90374683815E+03 -0.70900722962E+03  0.16021906793E+04  0.19714118246E+04  0.10100000352E+00 0. -1.
       -3    1    3    3    0  502  0.90374683815E+03  0.70900722962E+03 -0.86696891219E+03  0.14391263683E+04  0.10100000352E+00 0.  1.
</event>
<event>
 5   0  0.4125758E-07  0.3388713E+04  0.7818609E-02  0.8140682E-01
        1   -1    0    0  501    0  0.00000000000E+00  0.00000000000E+00  0.20310863208E+04  0.20310863208E+04  0.50400001928E-02 0. -1.
       -1   -1    0    0    0  501  0.00000000000E+00  0.00000000000E+00 -0.14134528207E+04  0.14134528207E+04  0.50400001928E-02 0.  1.
    10030    2    1    2    0    0  0.00000000000E+00  0.00000000000E+00  0.61763350011E+03  0.34445391416E+04  0.33887134369E+04 0.  0.
        2    1    3    3  502    0 -0.13821486231E+04 -0.33580364987E+03 -0.62708249760E+03  0.15544553279E+04  0.25500000920E-02 0.  1.
       -2    1    3    3    0  502  0.13821486231E+04  0.33580364987E+03  0.12447159977E+04  0.18900838137E+04  0.25500000920E-02 0. -1.
</event>
<event>
 5   0  0.1268230E-06  0.3430104E+04  0.7818609E-02  0.8130557E-01
       -2   -1    0    0    0  501  0.00000000000E+00  0.00000000000E+00  0.29032521140E+04  0.29032521140E+04  0.25500000920E-02 0.  1.
        2   -1    0    0  501    0  0.00000000000E+00  0.00000000000E+00 -0.10131408269E+04  0.10131408269E+04  0.25500000920E-02 0. -1.
    10030    2    1    2    0    0  0.00000000000E+00  0.00000000000E+00  0.18901112871E+04  0.39163929409E+04  0.34301039328E+04 0.  0.
        2    1    3    3  502    0 -0.30345587845E+03  0.15496037995E+04  0.18079727099E+03  0.15893536607E+04  0.25500000920E-02 0. -1.
       -2    1    3    3    0  502  0.30345587845E+03 -0.15496037995E+04  0.17093140161E+04  0.23270392802E+04  0.25500000920E-02 0.  1.
</event>
<event>
 5   0  0.4464951E-07  0.3354843E+04  0.7818609E-02  0.8149079E-01
       -1   -1    0    0    0  501  0.00000000000E+00  0.00000000000E+00  0.12265584729E+04  0.12265584729E+04  0.50400001928E-02 0.  1.
        1   -1    0    0  501    0  0.00000000000E+00  0.00000000000E+00 -0.22940145839E+04  0.22940145839E+04  0.50400001928E-02 0. -1.
    10030    2    1    2    0    0  0.00000000000E+00  0.00000000000E+00 -0.10674561110E+04  0.35205730568E+04  0.33548430812E+04 0.  0.
        3    1    3    3  502    0 -0.35827244398E+03  0.10016316152E+04 -0.18947633133E+04  0.21729595165E+04  0.10100000352E+00 0. -1.
       -3    1    3    3    0  502  0.35827244398E+03 -0.10016316152E+04  0.82730720235E+03  0.13476135403E+04  0.10100000352E+00 0.  1.
</event>
<event>
 5   0  0.1268230E-06  0.3400866E+04  0.7818609E-02  0.8137694E-01
       -2   -1    0    0    0  501  0.00000000000E+00  0.00000000000E+00  0.14766823593E+04  0.14766823593E+04  0.25500000920E-02 0.  1.
        2   -1    0    0  501    0  0.00000000000E+00  0.00000000000E+00 -0.19580867658E+04  0.19580867658E+04  0.25500000920E-02 0. -1.
    10030    2    1    2    0    0  0.00000000000E+00  0.00000000000E+00 -0.48140440650E+03  0.34347691251E+04  0.34008658809E+04 0.  0.
        2    1    3    3  502    0  0.14703737899E+04 -0.45586097903E+03  0.48876105982E+03  0.16151457172E+04  0.25500000920E-02 0.  1.
       -2    1    3    3    0  502 -0.14703737899E+04  0.45586097903E+03 -0.97016546632E+03  0.18196234078E+04  0.25500000920E-02 0. -1.
</event>
<event>
 5   0  0.4109937E-07  0.3361061E+04  0.7818609E-02  0.8147530E-01
       -1   -1    0    0    0  501  0.00000000000E+00  0.00000000000E+00  0.16562032134E+04  0.16562032134E+04  0.50400001928E-02 0.  1.
        1   -1    0    0  501    0  0.00000000000E+00  0.00000000000E+00 -0.17052153001E+04  0.17052153001E+04  0.50400001928E-02 0. -1.
    10030    2    1    2    0    0  0.00000000000E+00  0.00000000000E+00 -0.49012086710E+02  0.33614185135E+04  0.33610611774E+04 0.  0.
        5    1    3    3  502    0 -0.12793463514E+04 -0.10611865884E+04  0.22314279271E+03  0.16770983448E+04  0.46999998093E+01 0. -1.
       -5    1    3    3    0  502  0.12793463514E+04  0.10611865884E+04 -0.27215487942E+03  0.16843201687E+04  0.46999998093E+01 0.  1.
</event>
<event>
 5   0  0.4289684E-07  0.3348086E+04  0.7818609E-02  0.8150766E-01
       -1   -1    0    0    0  501  0.00000000000E+00  0.00000000000E+00  0.23655347956E+04  0.23655347956E+04  0.50400001928E-02 0. -1.
        1   -1    0    0  501    0  0.00000000000E+00  0.00000000000E+00 -0.11846878848E+04  0.11846878848E+04  0.50400001928E-02 0.  1.
    10030    2    1    2    0    0  0.00000000000E+00  0.00000000000E+00  0.11808469108E+04  0.35502226804E+04  0.33480862674E+04 0.  0.
        4    1    3    3  502    0 -0.15013198748E+04  0.14533414920E+03  0.13604442006E+04  0.20312295334E+04  0.12699999809E+01 0. -1.
       -4    1    3    3    0  502  0.15013198748E+04 -0.14533414920E+03 -0.17959728984E+03  0.15189931471E+04  0.12699999809E+01 0.  1.
</event>
<event>
 5   0  0.1256208E-06  0.3402485E+04  0.7818609E-02  0.8137297E-01
       -2   -1    0    0    0  501  0.00000000000E+00  0.00000000000E+00  0.16076585693E+04  0.16076585693E+04  0.25500000920E-02 0.  1.
        2   -1    0    0  501    0  0.00000000000E+00  0.00000000000E+00 -0.18002741217E+04  0.18002741217E+04  0.25500000920E-02 0. -1.
    10030    2    1    2    0    0  0.00000000000E+00  0.00000000000E+00 -0.19261555241E+03  0.34079326909E+04  0.34024850440E+04 0.  0.
        3    1    3    3  502    0 -0.95549538391E+03 -0.41395944486E+03  0.12511685531E+04  0.16278073009E+04  0.10100000352E+00 0.  1.
       -3    1    3    3    0  502  0.95549538391E+03  0.41395944486E+03 -0.14437841055E+04  0.17801253900E+04  0.10100000352E+00 0. -1.
</event>
<event>
 5   0  0.4464951E-07  0.3401899E+04  0.7818609E-02  0.8137440E-01
        1   -1    0    0  501    0  0.00000000000E+00  0.00000000000E+00  0.29810133749E+04  0.29810133749E+04  0.50400001928E-02 0.  1.
       -1   -1    0    0    0  501  0.00000000000E+00  0.00000000000E+00 -0.97055238378E+03  0.97055238379E+03  0.50400001928E-02 0. -1.
    10030    2    1    2    0    0  0.00000000000E+00  0.00000000000E+00  0.20104609911E+04  0.39515657587E+04  0.34018992561E+04 0.  0.
        3    1    3    3  502    0  0.13069919493E+04 -0.37569082418E+03  0.21920057795E+04  0.25795854121E+04  0.10100000352E+00 0.  1.
       -3    1    3    3    0  502 -0.13069919493E+04  0.37569082418E+03 -0.18154478838E+03  0.13719803466E+04  0.10100000352E+00 0. -1.
</event>
<event>
 5   0  0.4125758E-07  0.3463549E+04  0.7818609E-02  0.8122483E-01
        1   -1    0    0  501    0  0.00000000000E+00  0.00000000000E+00  0.19585844574E+04  0.19585844574E+04  0.50400001928E-02 0. -1.
       -1   -1    0    0    0  501  0.00000000000E+00  0.00000000000E+00 -0.15312294705E+04  0.15312294705E+04  0.50400001928E-02 0.  1.
    10030    2    1    2    0    0  0.00000000000E+00  0.00000000000E+00  0.42735498690E+03  0.34898139279E+04  0.34635486090E+04 0.  0.
        2    1    3    3  502    0 -0.16609412268E+04 -0.10424195759E+03 -0.26896450131E+03  0.16858036801E+04  0.25500000920E-02 0.  1.
       -2    1    3    3    0  502  0.16609412268E+04  0.10424195759E+03  0.69631948821E+03  0.18040102479E+04  0.25500000920E-02 0. -1.
</event>
<event>
 5   0  0.4125758E-07  0.3351381E+04  0.7818609E-02  0.8149943E-01
        1   -1    0    0  501    0  0.00000000000E+00  0.00000000000E+00  0.25529484951E+04  0.25529484951E+04  0.50400001928E-02 0. -1.
       -1   -1    0    0    0  501  0.00000000000E+00  0.00000000000E+00 -0.10998806193E+04  0.10998806193E+04  0.50400001928E-02 0.  1.
    10030    2    1    2    0    0  0.00000000000E+00  0.00000000000E+00  0.14530678758E+04  0.36528291144E+04  0.33513809523E+04 0.  0.
        2    1    3    3  502    0 -0.41109557707E+03  0.90996411695E+03  0.21932745228E+04  0.24098729013E+04  0.25500000920E-02 0. -1.
       -2    1    3    3    0  502  0.41109557707E+03 -0.90996411695E+03 -0.74020664701E+03  0.12429562132E+04  0.25500000920E-02 0.  1.
</event>
<event>
 5   0  0.1277635E-06  0.2906682E+04  0.7818609E-02  0.8270892E-01
       -2   -1    0    0    0  501  0.00000000000E+00  0.00000000000E+00  0.11887313401E+04  0.11887313401E+04  0.25500000920E-02 0. -1.
        2   -1    0    0  501    0  0.00000000000E+00  0.00000000000E+00 -0.17768526097E+04  0.17768526097E+04  0.25500000920E-02 0.  1.
    10030    2    1    2    0    0  0.00000000000E+00  0.00000000000E+00 -0.58812126959E+03  0.29655839499E+04  0.29066822214E+04 0.  0.
        4    1    3    3  502    0  0.11350440619E+04  0.29500628765E+03  0.58173091431E+03  0.13091089343E+04  0.12699999809E+01 0. -1.
       -4    1    3    3    0  502 -0.11350440619E+04 -0.29500628765E+03 -0.11698521839E+04  0.16564750156E+04  0.12699999809E+01 0.  1.
</event>
<event>
 5   0  0.4272633E-07  0.3425391E+04  0.7818609E-02  0.8131703E-01
       -1   -1    0    0    0  501  0.00000000000E+00  0.00000000000E+00  0.30495329890E+04  0.30495329890E+04  0.50400001928E-02 0.  1.
        1   -1    0    0  501    0  0.00000000000E+00  0.00000000000E+00 -0.96189319463E+03  0.96189319464E+03  0.50400001928E-02 0. -1.
    10030    2    1    2    0    0  0.00000000000E+00  0.00000000000E+00  0.20876397944E+04  0.40114261837E+04  0.34253905056E+04 0.  0.
        1    1    3    3  502    0 -0.61055092785E+03 -0.18324590281E+03  0.29054314348E+04  0.29745391775E+04  0.50400001928E-02 0.  1.
       -1    1    3    3    0  502  0.61055092785E+03  0.18324590281E+03 -0.81779164038E+03  0.10368870061E+04  0.50400001928E-02 0. -1.
</event>
<event>
 5   0  0.4272633E-07  0.3403942E+04  0.7818609E-02  0.8136939E-01
        1   -1    0    0  501    0  0.00000000000E+00  0.00000000000E+00  0.14728498587E+04  0.14728498587E+04  0.50400001928E-02 0.  1.
       -1   -1    0    0    0  501  0.00000000000E+00  0.00000000000E+00 -0.19667350933E+04  0.19667350933E+04  0.50400001928E-02 0. -1.
    10030    2    1    2    0    0  0.00000000000E+00  0.00000000000E+00 -0.49388523461E+03  0.34395849519E+04  0.34039421289E+04 0.  0.
        1    1    3    3  502    0  0.33873488899E+03  0.31898302286E+03  0.14073358195E+04  0.14822569287E+04  0.50400001928E-02 0.  1.
       -1    1    3    3    0  502 -0.33873488899E+03 -0.31898302286E+03 -0.19012210541E+04  0.19573280232E+04  0.50400001928E-02 0. -1.
</event>
<event>
 5   0  0.1269497E-06  0.3408771E+04  0.7818609E-02  0.8135757E-01
        2   -1    0    0  501    0  0.00000000000E+00  0.00000000000E+00  0.18229105833E+04  0.18229105833E+04  0.25500000920E-02 0. -1.
       -2   -1    0    0    0  501  0.00000000000E+00  0.00000000000E+00 -0.15935668430E+04  0.15935668430E+04  0.25500000920E-02 0.  1.
    10030    2    1    2    0    0  0.00000000000E+00  0.00000000000E+00  0.22934374030E+03  0.34164774263E+04  0.34087709593E+04 0.  0.
        5    1    3    3  502    0 -0.10069681640E+03  0.15398774880E+04 -0.61052821195E+03  0.16595569633E+04  0.46999998093E+01 0.  1.
       -5    1    3    3    0  502  0.10069681640E+03 -0.15398774880E+04  0.83987195225E+03  0.17569204630E+04  0.46999998093E+01 0. -1.
</event>
<event>
 5   0  0.1300176E-06  0.3409677E+04  0.7818609E-02  0.8135535E-01
       -2   -1    0    0    0  501  0.00000000000E+00  0.00000000000E+00  0.11438372221E+04  0.11438372221E+04  0.25500000920E-02 0. -1.
        2   -1    0    0  501    0  0.00000000000E+00  0.00000000000E+00 -0.25409854910E+04  0.25409854910E+04  0.25500000920E-02 0.  1.
    10030    2    1    2    0    0  0.00000000000E+00  0.00000000000E+00 -0.13971482689E+04  0.36848227130E+04  0.34096766916E+04 0.  0.
        1    1    3    3  502    0 -0.51054566722E+02 -0.27746988686E+03 -0.25155824092E+04  0.25313535834E+04  0.50400001928E-02 0.  1.
       -1    1    3    3    0  502  0.51054566722E+02  0.27746988686E+03  0.11184341403E+04  0.11534691296E+04  0.50400001928E-02 0. -1.
</event>
<event>
 5   0  0.1300176E-06  0.3394833E+04  0.7818609E-02  0.8139176E-01
       -2   -1    0    0    0  501  0.00000000000E+00  0.00000000000E+00  0.14510354808E+04  0.14510354808E+04  0.25500000920E-02 0.  1.
        2   -1    0    0  501    0  0.00000000000E+00  0.00000000000E+00 -0.19856319695E+04  0.19856319695E+04  0.25500000920E-02 0. -1.
    10030    2    1    2    0    0  0.00000000000E+00  0.00000000000E+00 -0.53459648875E+03  0.34366674503E+04  0.33948328027E+04 0.  0.
        1    1    3    3  502    0  0.98668007630E+03 -0.10962638656E+04 -0.11178245662E+04  0.18506387537E+04  0.50400001928E-02 0. -1.
       -1    1    3    3    0  502 -0.98668007630E+03  0.10962638656E+04  0.58322807749E+03  0.15860286966E+04  0.50400001928E-02 0.  1.
</event>
<event>
 5   0  0.4464951E-07  0.3331763E+04  0.7818609E-02  0.8154860E-01
        1   -1    0    0  501    0  0.00000000000E+00  0.00000000000E+00  0.10130827533E+04  0.10130827533E+04  0.50400001928E-02 0. -1.
       -1   -1    0    0    0  501  0.00000000000E+00  0.00000000000E+00 -0.27393227558E+04  0.27393227558E+04  0.50400001928E-02 0.  1.
    10030    2    1    2    0    0  0.00000000000E+00  0.00000000000E+00 -0.17262400024E+04  0.37524055091E+04  0.33317626804E+04 0.  0.
        3    1    3    3  502    0 -0.14520779647E+04 -0.76746302492E+03 -0.54932031091E+03  0.17318437356E+04  0.10100000352E+00 0. -1.
       -3    1    3    3    0  502  0.14520779647E+04  0.76746302492E+03 -0.11769196915E+04  0.20205617735E+04  0.10100000352E+00 0.  1.
</event>
<event>
 5   0  0.1269497E-06  0.3377353E+04  0.7818609E-02  0.8143487E-01
       -2   -1    0    0    0  501  0.00000000000E+00  0.00000000000E+00  0.13143480058E+04  0.13143480058E+04  0.25500000920E-02 0. -1.
        2   -1    0    0  501    0  0.00000000000E+00  0.00000000000E+00 -0.21696142876E+04  0.21696142876E+04  0.25500000920E-02 0.  1.
    10030    2    1    2    0    0  0.00000000000E+00  0.00000000000E+00 -0.85526628174E+03  0.34839622934E+04  0.33773529352E+04 0.  0.
        5    1    3    3  502    0 -0.85099770505E+03  0.14063760263E+04 -0.28755117338E+02  0.16440619113E+04  0.46999998093E+01 0. -1.
       -5    1    3    3    0  502  0.85099770505E+03 -0.14063760263E+04 -0.82651116440E+03  0.18399003821E+04  0.46999998093E+01 0.  1.
</event>
<event>
 5   0  0.1268230E-06  0.3352837E+04  0.7818609E-02  0.8149580E-01
        2   -1    0    0  501    0  0.00000000000E+00  0.00000000000E+00  0.31746782541E+04  0.31746782541E+04  0.25500000920E-02 0.  1.
       -2   -1    0    0    0  501  0.00000000000E+00  0.00000000000E+00 -0.88524832976E+03  0.88524832977E+03  0.25500000920E-02 0. -1.
    10030    2    1    2    0    0  0.00000000000E+00  0.00000000000E+00  0.22894299243E+04  0.40599265838E+04  0.33528367822E+04 0.  0.
        2    1    3    3  502    0 -0.67980417663E+03 -0.15295341621E+04  0.10313159454E+04  0.19660165439E+04  0.25500000920E-02 0. -1.
       -2    1    3    3    0  502  0.67980417663E+03  0.15295341621E+04  0.12581139789E+04  0.20939100400E+04  0.25500000920E-02 0.  1.
</event>
<event>
 5   0  0.4109937E-07  0.3434322E+04  0.7818609E-02  0.8129534E-01
        1   -1    0    0  501    0  0.00000000000E+00  0.00000000000E+00  0.12033227329E+04  0.12033227329E+04  0.50400001928E-02 0.  1.
       -1   -1    0    0    0  501  0.00000000000E+00  0.00000000000E+00 -0.24504160858E+04  0.24504160858E+04  0.50400001928E-02 0. -1.
    10030    2    1    2    0    0  0.00000000000E+00  0.00000000000E+00 -0.12470933529E+04  0.36537388187E+04  0.34343216979E+04 0.  0.
        5    1    3    3  502    0  0.12772315409E+04  0.28651021770E+03 -0.18059538660E+04  0.22304483787E+04  0.46999998093E+01 0. -1.
       -5    1    3    3    0  502 -0.12772315409E+04 -0.28651021770E+03  0.55886051306E+03  0.14232904401E+04  0.46999998093E+01 0.  1.
</event>
<event>
 5   0  0.1300176E-06  0.3264750E+04  0.7818609E-02  0.8171923E-01
        2   -1    0    0  501    0  0.00000000000E+00  0.00000000000E+00  0.22629261291E+04  0.22629261291E+04  0.25500000920E-02 0. -1.
       -2   -1    0    0    0  501  0.00000000000E+00  0.00000000000E+00 -0.11775235364E+04  0.11775235364E+04  0.25500000920E-02 0.  1.
    10030    2    1    2    0    0  0.00000000000E+00  0.00000000000E+00  0.10854025926E+04  0.34404496655E+04  0.32647503906E+04 0.  0.
        1    1    3    3  502    0 -0.52707912832E+03 -0.14098909384E+04  0.12083967192E+04  0.19302402691E+04  0.50400001928E-02 0. -1.
       -1    1    3    3    0  502  0.52707912832E+03  0.14098909384E+04 -0.12299412658E+03  0.15102093964E+04  0.50400001928E-02 0.  1.
</event>
<event>
 5   0  0.1277635E-06  0.3363779E+04  0.7818609E-02  0.8146854E-01
        2   -1    0    0  501    0  0.00000000000E+00  0.00000000000E+00  0.22324223115E+04  0.22324223115E+04  0.25500000920E-02 0.  1.
       -2   -1    0    0    0  501  0.00000000000E+00  0.00000000000E+00 -0.12671220749E+04  0.12671220749E+04  0.25500000920E-02 0. -1.
    10030    2    1    2    0    0  0.00000000000E+00  0.00000000000E+00  0.96530023656E+03  0.34995443864E+04  0.33637785845E+04 0.  0.
        4    1    3    3  502    0  0.14593316427E+04 -0.73088880269E+03  0.90512216560E+03  0.18663051821E+04  0.12699999809E+01 0. -1.
       -4    1    3    3    0  502 -0.14593316427E+04  0.73088880269E+03  0.60178070965E+02  0.16332392043E+04  0.12699999809E+01 0.  1.
</event>
<event>
 5   0  0.1300176E-06  0.3415359E+04  0.7818609E-02  0.8134147E-01
        2   -1    0    0  501    0  0.00000000000E+00  0.00000000000E+00  0.23743112836E+04  0.23743112836E+04  0.25500000920E-02 0.  1.
       -2   -1    0    0    0  501  0.00000000000E+00  0.00000000000E+00 -0.12282168355E+04  0.12282168355E+04  0.25500000920E-02 0. -1.
    10030    2    1    2    0    0  0.00000000000E+00  0.00000000000E+00  0.11460944480E+04  0.36025281191E+04  0.34153588926E+04 0.  0.
        1    1    3    3  502    0  0.19351858907E+03  0.16966608168E+04  0.58133395006E+03  0.18039003667E+04  0.50400001928E-02 0.  1.
       -1    1    3    3    0  502 -0.19351858907E+03 -0.16966608168E+04  0.56476049796E+03  0.17986277524E+04  0.50400001928E-02 0. -1.
</event>
<event>
 5   0  0.1268230E-06  0.3405814E+04  0.7818609E-02  0.8136481E-01
       -2   -1    0    0    0  501  0.00000000000E+00  0.00000000000E+00  0.14851755442E+04  0.14851755442E+04  0.25500000920E-02 0.  1.
        2   -1    0    0  501    0  0.00000000000E+00  0.00000000000E+00 -0.19525582612E+04  0.19525582612E+04  0.25500000920E-02 0. -1.
    10030    2    1    2    0    0  0.00000000000E+00  0.00000000000E+00 -0.46738271705E+03  0.34377338054E+04  0.34058137225E+04 0.  0.
        2    1    3    3  502    0 -0.16580766774E+04  0.11169148580E+03  0.14154339303E+03  0.16678512489E+04  0.25500000920E-02 0. -1.
       -2    1    3    3    0  502  0.16580766774E+04 -0.11169148580E+03 -0.60892611008E+03  0.17698825565E+04  0.25500000920E-02 0.  1.
</event>
<event>
 5   0  0.4125758E-07  0.3389512E+04  0.7818609E-02  0.8140485E-01
        1   -1    0    0  501    0  0.00000000000E+00  0.00000000000E+00  0.18108250195E+04  0.18108250195E+04  0.50400001928E-02 0.  1.
       -1   -1    0    0    0  501  0.00000000000E+00  0.00000000000E+00 -0.15861269507E+04  0.15861269508E+04  0.50400001928E-02 0. -1.
    10030    2    1    2    0    0  0.00000000000E+00  0.00000000000E+00  0.22469806878E+03  0.33969519703E+04  0.33895122756E+04 0.  0.
        2    1    3    3  502    0  0.93099344936E+03 -0.14134765068E+04  0.25361468801E+02  0.16927220215E+04  0.25500000920E-02 0. -1.
       -2    1    3    3    0  502 -0.93099344936E+03  0.14134765068E+04  0.19933659998E+03  0.17042299487E+04  0.25500000920E-02 0.  1.
</event>
<event>
 5   0  0.4125758E-07  0.3587021E+04  0.7818609E-02  0.8093471E-01
        1   -1    0    0  501    0  0.00000000000E+00  0.00000000000E+00  0.20004848648E+04  0.20004848648E+04  0.50400001928E-02 0.  1.
       -1   -1    0    0    0  501  0.00000000000E+00  0.00000000000E+00 -0.16079499549E+04  0.16079499549E+04  0.50400001928E-02 0. -1.
    10030    2    1    2    0    0  0.00000000000E+00  0.00000000000E+00  0.39253490992E+03  0.36084348197E+04  0.35870207962E+04 0.  0.
        2    1    3    3  502    0  0.55446786173E+03 -0.16954285532E+04  0.86953184170E+01  0.17838128257E+04  0.25500000920E-02 0. -1.
       -2    1    3    3    0  502 -0.55446786173E+03  0.16954285532E+04  0.38383959151E+03  0.18246219939E+04  0.25500000920E-02 0.  1.
</event>
<event>
 5   0  0.1300176E-06  0.3401637E+04  0.7818609E-02  0.8137505E-01
       -2   -1    0    0    0  501  0.00000000000E+00  0.00000000000E+00  0.16015717602E+04  0.16015717602E+04  0.25500000920E-02 0. -1.
        2   -1    0    0  501    0  0.00000000000E+00  0.00000000000E+00 -0.18062159175E+04  0.18062159175E+04  0.25500000920E-02 0.  1.
    10030    2    1    2    0    0  0.00000000000E+00  0.00000000000E+00 -0.20464415726E+03  0.34077876777E+04  0.34016374917E+04 0.  0.
        1    1    3    3  502    0 -0.18812635085E+03 -0.15865269231E+03 -0.17882855484E+04  0.18051391646E+04  0.50400001928E-02 0.  1.
       -1    1    3    3    0  502  0.18812635085E+03  0.15865269231E+03  0.15836413912E+04  0.16026485131E+04  0.50400001928E-02 0. -1.
</event>
<event>
 5   0  0.4464951E-07  0.3375428E+04  0.7818609E-02  0.8143964E-01
       -1   -1    0    0    0  501  0.00000000000E+00  0.00000000000E+00  0.11812248539E+04  0.11812248539E+04  0.50400001928E-02 0.  1.
        1   -1    0    0  501    0  0.00000000000E+00  0.00000000000E+00 -0.24113767774E+04  0.24113767774E+04  0.50400001928E-02 0. -1.
    10030    2    1    2    0    0  0.00000000000E+00  0.00000000000E+00 -0.12301519236E+04  0.35926016313E+04  0.33754277842E+04 0.  0.
        3    1    3    3  502    0  0.16185815682E+04 -0.46526116486E+03 -0.73217232020E+03  0.18363960796E+04  0.10100000352E+00 0.  1.
       -3    1    3    3    0  502 -0.16185815682E+04  0.46526116486E+03 -0.49797960336E+03  0.17562055518E+04  0.10100000352E+00 0. -1.
</event>
<event>
 5   0  0.4109937E-07  0.3419929E+04  0.7818609E-02  0.8133032E-01
        1   -1    0    0  501    0  0.00000000000E+00  0.00000000000E+00  0.22060738188E+04  0.22060738188E+04  0.50400001928E-02 0. -1.
       -1   -1    0    0    0  501  0.00000000000E+00  0.00000000000E+00 -0.13254219579E+04  0.13254219579E+04  0.50400001928E-02 0.  1.
    10030    2    1    2    0    0  0.00000000000E+00  0.00000000000E+00  0.88065186089E+03  0.35314957766E+04  0.34199290519E+04 0.  0.
        5    1    3    3  502    0  0.60919040146E+03  0.11363975445E+04  0.16001059650E+04  0.20549631416E+04  0.46999998093E+01 0. -1.
       -5    1    3    3    0  502 -0.60919040146E+03 -0.11363975445E+04 -0.71945410410E+03  0.14765326350E+04  0.46999998093E+01 0.  1.
</event>
<event>
 5   0  0.1256208E-06  0.3401876E+04  0.7818609E-02  0.8137446E-01
        2   -1    0    0  501    0  0.00000000000E+00  0.00000000000E+00  0.25222482962E+04  0.25222482962E+04  0.25500000920E-02 0.  1.
       -2   -1    0    0    0  501  0.00000000000E+00  0.00000000000E+00 -0.11470680153E+04  0.11470680153E+04  0.25500000920E-02 0. -1.
    10030    2    1    2    0    0  0.00000000000E+00  0.00000000000E+00  0.13751802809E+04  0.36693163114E+04  0.34018761571E+04 0.  0.
        3    1    3    3  502    0  0.75569626278E+03 -0.14417612501E+04  0.12197729372E+04  0.20341087415E+04  0.10100000352E+00 0. -1.
       -3    1    3    3    0  502 -0.75569626278E+03  0.14417612501E+04  0.15540734377E+03  0.16352075699E+04  0.10100000352E+00 0.  1.
</event>
<event>
 5   0  0.4289684E-07  0.3410431E+04  0.7818609E-02  0.8135351E-01
       -1   -1    0    0    0  501  0.00000000000E+00  0.00000000000E+00  0.29576879463E+04  0.29576879463E+04  0.50400001928E-02 0.  1.
        1   -1    0    0  501    0  0.00000000000E+00  0.00000000000E+00 -0.98311907625E+03  0.98311907627E+03  0.50400001928E-02 0. -1.
    10030    2    1    2    0    0  0.00000000000E+00  0.00000000000E+00  0.19745688700E+04  0.39408070226E+04  0.34104307304E+04 0.  0.
        4    1    3    3  502    0  0.49001731283E+03  0.12603399247E+04  0.21876781469E+04  0.25718691607E+04  0.12699999809E+01 0.  1.
       -4    1    3    3    0  502 -0.49001731283E+03 -0.12603399247E+04 -0.21310927683E+03  0.13689378618E+04  0.12699999809E+01 0. -1.
</event>
<event>
 5   0  0.1268230E-06  0.3412217E+04  0.7818609E-02  0.8134914E-01
        2   -1    0    0  501    0  0.00000000000E+00  0.00000000000E+00  0.17702286859E+04  0.17702286859E+04  0.25500000920E-02 0. -1.
       -2   -1    0    0    0  501  0.00000000000E+00  0.00000000000E+00 -0.16443105417E+04  0.16443105417E+04  0.25500000920E-02 0.  1.
    10030    2    1    2    0    0  0.00000000000E+00  0.00000000000E+00  0.12591814413E+03  0.34145392276E+04  0.34122166927E+04 0.  0.
        2    1    3    3  502    0 -0.53936990474E+03  0.16115174354E+04 -0.88462628853E+02  0.17016856277E+04  0.25500000920E-02 0.  1.
       -2    1    3    3    0  502  0.53936990474E+03 -0.16115174354E+04  0.21438077298E+03  0.17128535999E+04  0.25500000920E-02 0. -1.
</event>
<event>
 5   0  0.4272633E-07  0.3138135E+04  0.7818609E-02  0.8205349E-01
        1   -1    0    0  501    0  0.00000000000E+00  0.00000000000E+00  0.27819769140E+04  0.27819769140E+04  0.50400001928E-02 0.  1.
       -1   -1    0    0    0  501  0.00000000000E+00  0.00000000000E+00 -0.88497258097E+03  0.88497258099E+03  0.50400001928E-02 0. -1.
    10030    2    1    2    0    0  0.00000000000E+00  0.00000000000E+00  0.18970043331E+04  0.36669494950E+04  0.31381352997E+04 0.  0.
        1    1    3    3  502    0 -0.14666114895E+04 -0.18915222040E+03  0.33545575956E+03  0.15163305676E+04  0.50400001928E-02 0. -1.
       -1    1    3    3    0  502  0.14666114895E+04  0.18915222040E+03  0.15615485735E+04  0.21506189274E+04  0.50400001928E-02 0.  1.
</event>
<event>
 5   0  0.4272633E-07  0.3367253E+04  0.7818609E-02  0.8145991E-01
       -1   -1    0    0    0  501  0.00000000000E+00  0.00000000000E+00  0.11735407173E+04  0.11735407173E+04  0.50400001928E-02 0. -1.
        1   -1    0    0  501    0  0.00000000000E+00  0.00000000000E+00 -0.24154238621E+04  0.24154238621E+04  0.50400001928E-02 0.  1.
    10030    2    1    2    0    0  0.00000000000E+00  0.00000000000E+00 -0.12418831448E+04  0.35889645793E+04  0.33672530357E+04 0.  0.
        1    1    3    3  502    0 -0.53705967914E+03 -0.15575020622E+04 -0.99070243288E+03  0.19224299944E+04  0.50400001928E-02 0.  1.
       -1    1    3    3    0  502  0.53705967914E+03  0.15575020622E+04 -0.25118071191E+03  0.16665345850E+04  0.50400001928E-02 0. -1.
</event>
<event>
 5   0  0.1269497E-06  0.3348980E+04  0.7818609E-02  0.8150543E-01
       -2   -1    0    0    0  501  0.00000000000E+00  0.00000000000E+00  0.14817820989E+04  0.14817820989E+04  0.25500000920E-02 0. -1.
        2   -1    0    0  501    0  0.00000000000E+00  0.00000000000E+00 -0.18922600665E+04  0.18922600665E+04  0.25500000920E-02 0.  1.
    10030    2    1    2    0    0  0.00000000000E+00  0.00000000000E+00 -0.41047796758E+03  0.33740421654E+04  0.33489801988E+04 0.  0.
        5    1    3    3  502    0  0.33064009853E+03 -0.12749136951E+04  0.83650437161E+03  0.15602850568E+04  0.46999998093E+01 0. -1.
       -5    1    3    3    0  502 -0.33064009853E+03  0.12749136951E+04 -0.12469823392E+04  0.18137571086E+04  0.46999998093E+01 0.  1.
</event>
<event>
 5   0  0.4464951E-07  0.3387301E+04  0.7818609E-02  0.8141030E-01
        1   -1    0    0  501    0  0.00000000000E+00  0.00000000000E+00  0.13219386030E+04  0.13219386030E+04  0.50400001928E-02 0. -1.
       -1   -1    0    0    0  501  0.00000000000E+00  0.00000000000E+00 -0.21698827742E+04  0.21698827742E+04  0.50400001928E-02 0.  1.
    10030    2    1    2    0    0  0.00000000000E+00  0.00000000000E+00 -0.84794417120E+03  0.34918213772E+04  0.33873008743E+04 0.  0.
        3    1    3    3  502    0 -0.12434092678E+04 -0.83033155255E+03  0.39614847099E+03  0.15467548984E+04  0.10100000352E+00 0. -1.
       -3    1    3    3    0  502  0.12434092678E+04  0.83033155255E+03 -0.12440926422E+04  0.19450664788E+04  0.10100000352E+00 0.  1.
</event>
<event>
 5   0  0.4109937E-07  0.2916949E+04  0.7818609E-02  0.8267853E-01
       -1   -1    0    0    0  501  0.00000000000E+00  0.00000000000E+00  0.13648679463E+04  0.13648679463E+04  0.50400001928E-02 0.  1.
        1   -1    0    0  501    0  0.00000000000E+00  0.00000000000E+00 -0.15585003347E+04  0.15585003347E+04  0.50400001928E-02 0. -1.
    10030    2    1    2    0    0  0.00000000000E+00  0.00000000000E+00 -0.19363238844E+03  0.29233682810E+04  0.29169485091E+04 0.  0.
        5    1    3    3  502    0 -0.24926749476E+03 -0.40340104117E+03 -0.14790754932E+04  0.15532395464E+04  0.46999998093E+01 0. -1.
       -5    1    3    3    0  502  0.24926749476E+03  0.40340104117E+03  0.12854431047E+04  0.13701287346E+04  0.46999998093E+01 0.  1.
</event>
<event>
 5   0  0.1268230E-06  0.3393850E+04  0.7818609E-02  0.8139417E-01
       -2   -1    0    0    0  501  0.00000000000E+00  0.00000000000E+00  0.15574444540E+04  0.15574444540E+04  0.25500000920E-02 0. -1.
        2   -1    0    0  501    0  0.00000000000E+00  0.00000000000E+00 -0.18488970413E+04  0.18488970413E+04  0.25500000920E-02 0.  1.
    10030    2    1    2    0    0  0.00000000000E+00  0.00000000000E+00 -0.29145258732E+03  0.34063414953E+04  0.33938499926E+04 0.  0.
        2    1    3    3  502    0  0.76982401727E+03  0.12627473897E+03 -0.16582500625E+04  0.18325849495E+04  0.25500000920E-02 0.  1.
       -2    1    3    3    0  502 -0.76982401727E+03 -0.12627473897E+03  0.13667974752E+04  0.15737565458E+04  0.25500000920E-02 0. -1.
</event>
<event>
 5   0  0.1277635E-06  0.3427698E+04  0.7818609E-02  0.8131142E-01
       -2   -1    0    0    0  501  0.00000000000E+00  0.00000000000E+00  0.15679707607E+04  0.15679707607E+04  0.25500000920E-02 0.  1.
        2   -1    0    0  501    0  0.00000000000E+00  0.00000000000E+00 -0.18732989206E+04  0.18732989206E+04  0.25500000920E-02 0. -1.
    10030    2    1    2    0    0  0.00000000000E+00  0.00000000000E+00 -0.30532815991E+03  0.34412696814E+04  0.34276977309E+04 0.  0.
        4    1    3    3  502    0 -0.26562452671E+03  0.16406149815E+04  0.26744518341E+03  0.16833604623E+04  0.12699999809E+01 0. -1.
       -4    1    3    3    0  502  0.26562452671E+03 -0.16406149815E+04 -0.57277334332E+03  0.17579092191E+04  0.12699999809E+01 0.  1.
</event>
<event>
 5   0  0.4464951E-07  0.3369363E+04  0.7818609E-02  0.8145467E-01
        1   -1    0    0  501    0  0.00000000000E+00  0.00000000000E+00  0.16520423142E+04  0.16520423142E+04  0.50400001928E-02 0. -1.
       -1   -1    0    0    0  501  0.00000000000E+00  0.00000000000E+00 -0.17179654534E+04  0.17179654534E+04  0.50400001928E-02 0.  1.
    10030    2    1    2    0    0  0.00000000000E+00  0.00000000000E+00 -0.65923139173E+02  0.33700077677E+04  0.33693629211E+04 0.  0.
        3    1    3    3  502    0  0.11145863424E+03 -0.37464766056E+03  0.16060612170E+04  0.16529417835E+04  0.10100000352E+00 0. -1.
       -3    1    3    3    0  502 -0.11145863424E+03  0.37464766056E+03 -0.16719843561E+04  0.17170659842E+04  0.10100000352E+00 0.  1.
</event>
<event>
 5   0  0.1268230E-06  0.3395390E+04  0.7818609E-02  0.8139039E-01
       -2   -1    0    0    0  501  0.00000000000E+00  0.00000000000E+00  0.15147015923E+04  0.15147015923E+04  0.25500000920E-02 0. -1.
        2   -1    0    0  501    0  0.00000000000E+00  0.00000000000E+00 -0.19027961710E+04  0.19027961710E+04  0.25500000920E-02 0.  1.
    10030    2    1    2    0    0  0.00000000000E+00  0.00000000000E+00 -0.38809457873E+03  0.34174977633E+04  0.33953900454E+04 0.  0.
        2    1    3    3  502    0  0.15305750752E+03  0.11077787654E+04  0.10915979823E+04  0.15627496756E+04  0.25500000920E-02 0. -1.
       -2    1    3    3    0  502 -0.15305750752E+03 -0.11077787654E+04 -0.14796925610E+04  0.18547480877E+04  0.25500000920E-02 0.  1.
</event>
<event>
 5   0  0.1277635E-06  0.3566841E+04  0.7818609E-02  0.8098130E-01
       -2   -1    0    0    0  501  0.00000000000E+00  0.00000000000E+00  0.11295810927E+04  0.11295810927E+04  0.25500000920E-02 0. -1.
        2   -1    0    0  501    0  0.00000000000E+00  0.00000000000E+00 -0.28157243505E+04  0.28157243505E+04  0.25500000920E-02 0.  1.
    10030    2    1    2    0    0  0.00000000000E+00  0.00000000000E+00 -0.16861432577E+04  0.39453054432E+04  0.35668411732E+04 0.  0.
        4    1    3    3  502    0  0.14402846247E+04 -0.10330198618E+04 -0.62452803292E+03  0.18792516361E+04  0.12699999809E+01 0. -1.
       -4    1    3    3    0  502 -0.14402846247E+04  0.10330198618E+04 -0.10616152248E+04  0.20660538070E+04  0.12699999809E+01 0.  1.
</event>
<event>
 5   0  0.1256208E-06  0.3372437E+04  0.7818609E-02  0.8144705E-01
        2   -1    0    0  501    0  0.00000000000E+00  0.00000000000E+00  0.29004549981E+04  0.29004549981E+04  0.25500000920E-02 0.  1.
       -2   -1    0    0    0  501  0.00000000000E+00  0.00000000000E+00 -0.98030553676E+03  0.98030553676E+03  0.25500000920E-02 0. -1.
    10030    2    1    2    0    0  0.00000000000E+00  0.00000000000E+00  0.19201494613E+04  0.38807605348E+04  0.33724365635E+04 0.  0.
        3    1    3    3  502    0  0.10973030582E+04  0.12802067882E+04  0.93921314278E+03  0.19300582271E+04  0.10100000352E+00 0. -1.
       -3    1    3    3    0  502 -0.10973030582E+04 -0.12802067882E+04  0.98093631852E+03  0.19507023077E+04  0.10100000352E+00 0.  1.
</event>
<event>
 5   0  0.4109937E-07  0.3390958E+04  0.7818609E-02  0.8140129E-01
        1   -1    0    0  501    0  0.00000000000E+00  0.00000000000E+00  0.11024531069E+04  0.11024531069E+04  0.50400001928E-02 0. -1.
       -1   -1    0    0    0  501  0.00000000000E+00  0.00000000000E+00 -0.26075023664E+04  0.26075023664E+04  0.50400001928E-02 0.  1.
    10030    2    1    2    0    0  0.00000000000E+00  0.00000000000E+00 -0.15050492595E+04  0.37099554733E+04  0.33909580269E+04 0.  0.
        5    1    3    3  502    0 -0.52474885224E+03  0.10531689699E+04 -0.20880560226E+04  0.23967741405E+04  0.46999998093E+01 0.  1.
       -5    1    3    3    0  502  0.52474885224E+03 -0.10531689699E+04  0.58300676312E+03  0.13131813328E+04  0.46999998093E+01 0. -1.
</event>
<event>
 5   0  0.1268230E-06  0.3371549E+04  0.7818609E-02  0.8144925E-01
        2   -1    0    0  501    0  0.00000000000E+00  0.00000000000E+00  0.30279011016E+04  0.30279011016E+04  0.25500000920E-02 0.  1.
       -2   -1    0    0    0  501  0.00000000000E+00  0.00000000000E+00 -0.93854977170E+03  0.93854977170E+03  0.25500000920E-02 0. -1.
    10030    2    1    2    0    0  0.00000000000E+00  0.00000000000E+00  0.20893513299E+04  0.39664508733E+04  0.33715491321E+04 0.  0.
        2    1    3    3  502    0 -0.70937900456E+03 -0.66855666039E+03 -0.57337791882E+03  0.11309061933E+04  0.25500000920E-02 0. -1.
       -2    1    3    3    0  502  0.70937900456E+03  0.66855666039E+03  0.26627292487E+04  0.28355446800E+04  0.25500000920E-02 0.  1.
</event>
<event>
 5   0  0.4060750E-07  0.3262058E+04  0.7818609E-02  0.8172617E-01
        3   -1    0    0  501    0  0.00000000000E+00  0.00000000000E+00  0.20617819630E+04  0.20617819655E+04  0.10100000352E+00 0. -1.
       -3   -1    0    0    0  501  0.00000000000E+00  0.00000000000E+00 -0.12902700586E+04  0.12902700626E+04  0.10100000352E+00 0.  1.
    10030    2    1    2    0    0  0.00000000000E+00  0.00000000000E+00  0.77151190444E+03  0.33520520281E+04  0.32620579670E+04 0.  0.
        5    1    3    3  502    0  0.11354824924E+04  0.83615328385E+03  0.12279775165E+04  0.18698726362E+04  0.46999998093E+01 0. -1.
       -5    1    3    3    0  502 -0.11354824924E+04 -0.83615328385E+03 -0.45646561208E+03  0.14821793919E+04  0.46999998093E+01 0.  1.
</event>
<event>
 5   0  0.4289684E-07  0.3429312E+04  0.7818609E-02  0.8130749E-01
       -1   -1    0    0    0  501  0.00000000000E+00  0.00000000000E+00  0.16155278958E+04  0.16155278958E+04  0.50400001928E-02 0. -1.
        1   -1    0    0  501    0  0.00000000000E+00  0.00000000000E+00 -0.18198667281E+04  0.18198667281E+04  0.50400001928E-02 0.  1.
    10030    2    1    2    0    0  0.00000000000E+00  0.00000000000E+00 -0.20433883235E+03  0.34353946239E+04  0.34293121560E+04 0.  0.
        4    1    3    3  502    0 -0.60355022737E+03  0.12031626718E+04 -0.11662070634E+04  0.17809867544E+04  0.12699999809E+01 0.  1.
       -4    1    3    3    0  502  0.60355022737E+03 -0.12031626718E+04  0.96186823107E+03  0.16544078695E+04  0.12699999809E+01 0. -1.
</event>
<event>
 5   0  0.1268230E-06  0.3184219E+04  0.7818609E-02  0.8192997E-01
       -2   -1    0    0    0  501  0.00000000000E+00  0.00000000000E+00  0.16135211185E+04  0.16135211185E+04  0.25500000920E-02 0. -1.
        2   -1    0    0  501    0  0.00000000000E+00  0.00000000000E+00 -0.15709815462E+04  0.15709815462E+04  0.25500000920E-02 0.  1.
    10030    2    1    2    0    0  0.00000000000E+00  0.00000000000E+00  0.42539572382E+02  0.31845026647E+04  0.31842185236E+04 0.  0.
        2    1    3    3  502    0 -0.58302598909E+03 -0.83854442521E+03  0.12427451580E+04  0.16085681785E+04  0.25500000920E-02 0. -1.
       -2    1    3    3    0  502  0.58302598909E+03  0.83854442521E+03 -0.12002055857E+04  0.15759344862E+04  0.25500000920E-02 0.  1.
</event>
<event>
 5   0  0.4109937E-07  0.3421928E+04  0.7818609E-02  0.8132545E-01
       -1   -1    0    0    0  501  0.00000000000E+00  0.00000000000E+00  0.15807624917E+04  0.15807624917E+04  0.50400001928E-02 0.  1.
        1   -1    0    0  501    0  0.00000000000E+00  0.00000000000E+00 -0.18518900131E+04  0.18518900131E+04  0.50400001928E-02 0. -1.
    10030    2    1    2    0    0  0.00000000000E+00  0.00000000000E+00 -0.27112752142E+03  0.34326525047E+04  0.34219282701E+04 0.  0.
        5    1    3    3  502    0 -0.11034508119E+04  0.12197235004E+04 -0.60825925472E+03  0.17536620321E+04  0.46999998093E+01 0.  1.
       -5    1    3    3    0  502  0.11034508119E+04 -0.12197235004E+04  0.33713173329E+03  0.16789904727E+04  0.46999998093E+01 0. -1.
</event>
<event>
 5   0  0.4109937E-07  0.3472619E+04  0.7818609E-02  0.8120310E-01
       -1   -1    0    0    0  501  0.00000000000E+00  0.00000000000E+00  0.10314415819E+04  0.10314415820E+04  0.50400001928E-02 0. -1.
        1   -1    0    0  501    0  0.00000000000E+00  0.00000000000E+00 -0.29228709396E+04  0.29228709396E+04  0.50400001928E-02 0.  1.
    10030    2    1    2    0    0  0.00000000000E+00  0.00000000000E+00 -0.18914293576E+04  0.39543125215E+04  0.34726189689E+04 0.  0.
        5    1    3    3  502    0  0.57338547110E+03 -0.13554986305E+04  0.10326156292E+03  0.14754092571E+04  0.46999998093E+01 0. -1.
       -5    1    3    3    0  502 -0.57338547110E+03  0.13554986305E+04 -0.19946909205E+04  0.24789032644E+04  0.46999998093E+01 0.  1.
</event>
<event>
 5   0  0.4464951E-07  0.3427446E+04  0.7818609E-02  0.8131203E-01
       -1   -1    0    0    0  501  0.00000000000E+00  0.00000000000E+00  0.12033453662E+04  0.12033453662E+04  0.50400001928E-02 0.  1.
        1   -1    0    0  501    0  0.00000000000E+00  0.00000000000E+00 -0.24405685174E+04  0.24405685174E+04  0.50400001928E-02 0. -1.
    10030    2    1    2    0    0  0.00000000000E+00  0.00000000000E+00 -0.12372231512E+04  0.36439138837E+04  0.34274461725E+04 0.  0.
        3    1    3    3  502    0  0.13269805601E+04  0.29655438545E+03 -0.17275741207E+04  0.21984845378E+04  0.10100000352E+00 0. -1.
       -3    1    3    3    0  502 -0.13269805601E+04 -0.29655438545E+03  0.49035096942E+03  0.14454293458E+04  0.10100000352E+00 0.  1.
</event>
<event>
 5   0  0.4125758E-07  0.3269661E+04  0.7818609E-02  0.8170658E-01
        1   -1    0    0  501    0  0.00000000000E+00  0.00000000000E+00  0.24174834851E+04  0.24174834851E+04  0.50400001928E-02 0. -1.
       -1   -1    0    0    0  501  0.00000000000E+00  0.00000000000E+00 -0.11055593839E+04  0.11055593839E+04  0.50400001928E-02 0.  1.
    10030    2    1    2    0    0  0.00000000000E+00  0.00000000000E+00  0.13119241012E+04  0.35230428689E+04  0.32696614823E+04 0.  0.
        2    1    3    3  502    0 -0.31398304546E+03  0.13502717111E+04  0.15896300064E+04  0.21092042585E+04  0.25500000920E-02 0. -1.
       -2    1    3    3    0  502  0.31398304546E+03 -0.13502717111E+04 -0.27770590521E+03  0.14138386105E+04  0.25500000920E-02 0.  1.
</event>
<event>
 5   0  0.1269497E-06  0.3339095E+04  0.7818609E-02  0.8153018E-01
        2   -1    0    0  501    0  0.00000000000E+00  0.00000000000E+00  0.16169666357E+04  0.16169666357E+04  0.25500000920E-02 0. -1.
       -2   -1    0    0    0  501  0.00000000000E+00  0.00000000000E+00 -0.17238380239E+04  0.17238380239E+04  0.25500000920E-02 0.  1.
    10030    2    1    2    0    0  0.00000000000E+00  0.00000000000E+00 -0.10687138827E+03  0.33408046596E+04  0.33390948295E+04 0.  0.
        5    1    3    3  502    0  0.14781197392E+04 -0.67690045833E+02  0.72023032224E+03  0.16456529746E+04  0.46999998093E+01 0. -1.
       -5    1    3    3    0  502 -0.14781197392E+04  0.67690045833E+02 -0.82710171050E+03  0.16951516850E+04  0.46999998093E+01 0.  1.
</event>
<event>
 5   0  0.4289684E-07  0.3096676E+04  0.7818609E-02  0.8216651E-01
        1   -1    0    0  501    0  0.00000000000E+00  0.00000000000E+00  0.17306705525E+04  0.17306705525E+04  0.50400001928E-02 0. -1.
       -1   -1    0    0    0  501  0.00000000000E+00  0.00000000000E+00 -0.13852148164E+04  0.13852148164E+04  0.50400001928E-02 0.  1.
    10030    2    1    2    0    0  0.00000000000E+00  0.00000000000E+00  0.34545573606E+03  0.31158853689E+04  0.30966759544E+04 0.  0.
        4    1    3    3  502    0  0.64482095213E+03  0.10924041076E+04  0.10660460070E+04  0.16569841570E+04  0.12699999809E+01 0. -1.
       -4    1    3    3    0  502 -0.64482095213E+03 -0.10924041076E+04 -0.72059027090E+03  0.14589012119E+04  0.12699999809E+01 0.  1.
</event>
<event>
 5   0  0.4109937E-07  0.3374991E+04  0.7818609E-02  0.8144072E-01
        1   -1    0    0  501    0  0.00000000000E+00  0.00000000000E+00  0.26418884658E+04  0.26418884658E+04  0.50400001928E-02 0.  1.
       -1   -1    0    0    0  501  0.00000000000E+00  0.00000000000E+00 -0.10778810581E+04  0.10778810581E+04  0.50400001928E-02 0. -1.
    10030    2    1    2    0    0  0.00000000000E+00  0.00000000000E+00  0.15640074076E+04  0.37197695239E+04  0.33749912800E+04 0.  0.
        5    1    3    3  502    0 -0.11850395749E+04  0.46427914516E+03  0.20032339643E+04  0.23733609764E+04  0.46999998093E+01 0.  1.
       -5    1    3    3    0  502  0.11850395749E+04 -0.46427914516E+03 -0.43922655667E+03  0.13464085475E+04  0.46999998093E+01 0. -1.
</event>
<event>
 5   0  0.1268230E-06  0.3449590E+04  0.7818609E-02  0.8125841E-01
        2   -1    0    0  501    0  0.00000000000E+00  0.00000000000E+00  0.17158110235E+04  0.17158110235E+04  0.25500000920E-02 0. -1.
       -2   -1    0    0    0  501  0.00000000000E+00  0.00000000000E+00 -0.17338264804E+04  0.17338264804E+04  0.25500000920E-02 0.  1.
    10030    2    1    2    0    0  0.00000000000E+00  0.00000000000E+00 -0.18015456887E+02  0.34496375038E+04  0.34495904614E+04 0.  0.
        2    1    3    3  502    0 -0.14151971707E+04 -0.75781795727E+03  0.62175240871E+03  0.17215246574E+04  0.25500000920E-02 0.  1.
       -2    1    3    3    0  502  0.14151971707E+04  0.75781795727E+03 -0.63976786560E+03  0.17281128465E+04  0.25500000920E-02 0. -1.
</event>
<event>
 5   0  0.4125758E-07  0.3420484E+04  0.7818609E-02  0.8132897E-01
        1   -1    0    0  501    0  0.00000000000E+00  0.00000000000E+00  0.25647677328E+04  0.25647677328E+04  0.50400001928E-02 0.  1.
       -1   -1    0    0    0  501  0.00000000000E+00  0.00000000000E+00 -0.11404258565E+04  0.11404258565E+04  0.50400001928E-02 0. -1.
    10030    2    1    2    0    0  0.00000000000E+00  0.00000000000E+00  0.14243418764E+04  0.37051935893E+04  0.34204838478E+04 0.  0.
        2    1    3    3  502    0  0.11727029505E+04  0.12440733792E+04  0.66401067676E+03  0.18340831393E+04  0.25500000920E-02 0.  1.
       -2    1    3    3    0  502 -0.11727029505E+04 -0.12440733792E+04  0.76033119962E+03  0.18711104500E+04  0.25500000920E-02 0. -1.
</event>
<event>
 5   0  0.1269497E-06  0.3407491E+04  0.7818609E-02  0.8136070E-01
        2   -1    0    0  501    0  0.00000000000E+00  0.00000000000E+00  0.22348281919E+04  0.22348281919E+04  0.25500000920E-02 0. -1.
       -2   -1    0    0    0  501  0.00000000000E+00  0.00000000000E+00 -0.12988685709E+04  0.12988685709E+04  0.25500000920E-02 0.  1.
    10030    2    1    2    0    0  0.00000000000E+00  0.00000000000E+00  0.93595962097E+03  0.35336967628E+04  0.34074906308E+04 0.  0.
        5    1    3    3  502    0 -0.13623353493E+04 -0.36314126595E+03 -0.52394937554E+03  0.15041190848E+04  0.46999998093E+01 0.  1.
       -5    1    3    3    0  502  0.13623353493E+04  0.36314126595E+03  0.14599089965E+04  0.20295776780E+04  0.46999998093E+01 0. -1.
</event>
<event>
 5   0  0.4272633E-07  0.3405995E+04  0.7818609E-02  0.8136436E-01
        1   -1    0    0  501    0  0.00000000000E+00  0.00000000000E+00  0.90956117080E+03  0.90956117081E+03  0.50400001928E-02 0. -1.
       -1   -1    0    0    0  501  0.00000000000E+00  0.00000000000E+00 -0.31885713723E+04  0.31885713723E+04  0.50400001928E-02 0.  1.
    10030    2    1    2    0    0  0.00000000000E+00  0.00000000000E+00 -0.22790102015E+04  0.40981325432E+04  0.34059951325E+04 0.  0.
        1    1    3    3  502    0 -0.11671477701E+04  0.11984355176E+04 -0.75575965050E+03  0.18356618034E+04  0.50400001928E-02 0. -1.
       -1    1    3    3    0  502  0.11671477701E+04 -0.11984355176E+04 -0.15232505510E+04  0.22624707398E+04  0.50400001928E-02 0.  1.
</event>
<event>
 5   0  0.1256208E-06  0.3401759E+04  0.7818609E-02  0.8137475E-01
       -2   -1    0    0    0  501  0.00000000000E+00  0.00000000000E+00  0.13150097804E+04  0.13150097804E+04  0.25500000920E-02 0.  1.
        2   -1    0    0  501    0  0.00000000000E+00  0.00000000000E+00 -0.21999762865E+04  0.21999762865E+04  0.25500000920E-02 0. -1.
    10030    2    1    2    0    0  0.00000000000E+00  0.00000000000E+00 -0.88496650609E+03  0.35149860668E+04  0.34017585648E+04 0.  0.
        3    1    3    3  502    0 -0.90093294298E+03 -0.14072955167E+04 -0.11437746399E+03  0.16748859823E+04  0.10100000352E+00 0. -1.
       -3    1    3    3    0  502  0.90093294298E+03  0.14072955167E+04 -0.77058904210E+03  0.18401000846E+04  0.10100000352E+00 0.  1.
</event>
<event>
 5   0  0.1269497E-06  0.3236746E+04  0.7818609E-02  0.8179180E-01
       -2   -1    0    0    0  501  0.00000000000E+00  0.00000000000E+00  0.13172664003E+04  0.13172664003E+04  0.25500000920E-02 0.  1.
        2   -1    0    0  501    0  0.00000000000E+00  0.00000000000E+00 -0.19883078679E+04  0.19883078679E+04  0.25500000920E-02 0. -1.
    10030    2    1    2    0    0  0.00000000000E+00  0.00000000000E+00 -0.67104146764E+03  0.33055742682E+04  0.32367459881E+04 0.  0.
        5    1    3    3  502    0  0.41811260533E+03  0.57621421458E+03 -0.18197904258E+04  0.19540983229E+04  0.46999998093E+01 0. -1.
       -5    1    3    3    0  502 -0.41811260533E+03 -0.57621421458E+03  0.11487489582E+04  0.13514759453E+04  0.46999998093E+01 0.  1.
</event>
<event>
 5   0  0.4272633E-07  0.3426290E+04  0.7818609E-02  0.8131484E-01
       -1   -1    0    0    0  501  0.00000000000E+00  0.00000000000E+00  0.12810862518E+04  0.12810862518E+04  0.50400001928E-02 0. -1.
        1   -1    0    0  501    0  0.00000000000E+00  0.00000000000E+00 -0.22909203590E+04  0.22909203591E+04  0.50400001928E-02 0.  1.
    10030    2    1    2    0    0  0.00000000000E+00  0.00000000000E+00 -0.10098341073E+04  0.35720066108E+04  0.34262904581E+04 0.  0.
        1    1    3    3  502    0  0.17105347837E+04  0.19375908052E+02 -0.60138282585E+03  0.18132749310E+04  0.50400001928E-02 0. -1.
       -1    1    3    3    0  502 -0.17105347837E+04 -0.19375908052E+02 -0.40845128144E+03  0.17587316798E+04  0.50400001928E-02 0.  1.
</event>
<event>
 5   0  0.1268230E-06  0.3395264E+04  0.7818609E-02  0.8139070E-01
        2   -1    0    0  501    0  0.00000000000E+00  0.00000000000E+00  0.10071180088E+04  0.10071180088E+04  0.25500000920E-02 0. -1.
       -2   -1    0    0    0  501  0.00000000000E+00  0.00000000000E+00 -0.28615858253E+04  0.28615858253E+04  0.25500000920E-02 0.  1.
    10030    2    1    2    0    0  0.00000000000E+00  0.00000000000E+00 -0.18544678165E+04  0.38687038341E+04  0.33952641242E+04 0.  0.
        2    1    3    3  502    0 -0.40070429554E+03 -0.10035581647E+04  0.56463437118E+03  0.12192230704E+04  0.25500000920E-02 0. -1.
       -2    1    3    3    0  502  0.40070429554E+03  0.10035581647E+04 -0.24191021877E+04  0.26494807636E+04  0.25500000920E-02 0.  1.
</event>
<event>
 5   0  0.1269497E-06  0.3413679E+04  0.7818609E-02  0.8134557E-01
        2   -1    0    0  501    0  0.00000000000E+00  0.00000000000E+00  0.14153413420E+04  0.14153413420E+04  0.25500000920E-02 0.  1.
       -2   -1    0    0    0  501  0.00000000000E+00  0.00000000000E+00 -0.20583737032E+04  0.20583737032E+04  0.25500000920E-02 0. -1.
    10030    2    1    2    0    0  0.00000000000E+00  0.00000000000E+00 -0.64303236117E+03  0.34737150452E+04  0.34136791879E+04 0.  0.
        5    1    3    3  502    0  0.12130615982E+04 -0.73815682098E+03  0.64217959812E+03  0.15584641991E+04  0.46999998093E+01 0.  1.
       -5    1    3    3    0  502 -0.12130615982E+04  0.73815682098E+03 -0.12852119593E+04  0.19152508462E+04  0.46999998093E+01 0. -1.
</event>
<event>
 5   0  0.4125758E-07  0.3394155E+04  0.7818609E-02  0.8139342E-01
       -1   -1    0    0    0  501  0.00000000000E+00  0.00000000000E+00  0.15309389334E+04  0.15309389334E+04  0.50400001928E-02 0.  1.
        1   -1    0    0  501    0  0.00000000000E+00  0.00000000000E+00 -0.18812455040E+04  0.18812455040E+04  0.50400001928E-02 0. -1.
    10030    2    1    2    0    0  0.00000000000E+00  0.00000000000E+00 -0.35030657058E+03  0.34121844374E+04  0.33941549672E+04 0.  0.
        2    1    3    3  502    0  0.53337153434E+03  0.81678526034E+02 -0.17927109099E+04  0.18721562386E+04  0.25500000920E-02 0. -1.
       -2    1    3    3    0  502 -0.53337153434E+03 -0.81678526034E+02  0.14424043393E+04  0.15400281989E+04  0.25500000920E-02 0.  1.
</event>
<event>
 5   0  0.1269497E-06  0.3365169E+04  0.7818609E-02  0.8146508E-01
        2   -1    0    0  501    0  0.00000000000E+00  0.00000000000E+00  0.14701554933E+04  0.14701554933E+04  0.25500000920E-02 0. -1.
       -2   -1    0    0    0  501  0.00000000000E+00  0.00000000000E+00 -0.19257081863E+04  0.19257081863E+04  0.25500000920E-02 0.  1.
    10030    2    1    2    0    0  0.00000000000E+00  0.00000000000E+00 -0.45555269304E+03  0.33958636796E+04  0.33651689221E+04 0.  0.
        5    1    3    3  502    0 -0.52933546415E+03 -0.78315782259E+03 -0.16324268780E+04  0.18863647078E+04  0.46999998093E+01 0.  1.
       -5    1    3    3    0  502  0.52933546415E+03  0.78315782259E+03  0.11768741849E+04  0.15094989718E+04  0.46999998093E+01 0. -1.
</event>
<event>
 5   0  0.4289684E-07  0.3674739E+04  0.7818609E-02  0.8073583E-01
       -1   -1    0    0    0  501  0.00000000000E+00  0.00000000000E+00  0.16585995290E+04  0.16585995290E+04  0.50400001928E-02 0. -1.
        1   -1    0    0  501    0  0.00000000000E+00  0.00000000000E+00 -0.20354081138E+04  0.20354081138E+04  0.50400001928E-02 0.  1.
    10030    2    1    2    0    0  0.00000000000E+00  0.00000000000E+00 -0.37680858476E+03  0.36940076428E+04  0.36747391411E+04 0.  0.
        4    1    3    3  502    0 -0.32720646405E+02 -0.15310199853E+04  0.83221864294E+03  0.17428948100E+04  0.12699999809E+01 0. -1.
       -4    1    3    3    0  502  0.32720646405E+02  0.15310199853E+04 -0.12090272277E+04  0.19511128328E+04  0.12699999809E+01 0.  1.
</event>
<event>
 5   0  0.4109937E-07  0.3397181E+04  0.7818609E-02  0.8138599E-01
       -1   -1    0    0    0  501  0.00000000000E+00  0.00000000000E+00  0.15752585520E+04  0.15752585520E+04  0.50400001928E-02 0.  1.
        1   -1    0    0  501    0  0.00000000000E+00  0.00000000000E+00 -0.18315785914E+04  0.18315785914E+04  0.50400001928E-02 0. -1.
    10030    2    1    2    0    0  0.00000000000E+00  0.00000000000E+00 -0.25632003940E+03  0.34068371433E+04  0.33971810901E+04 0.  0.
        5    1    3    3  502    0  0.15590012832E+04  0.45857742591E+03 -0.62394311066E+03  0.17407197798E+04  0.46999998093E+01 0. -1.
       -5    1    3    3    0  502 -0.15590012832E+04 -0.45857742591E+03  0.36762307126E+03  0.16661173635E+04  0.46999998093E+01 0.  1.
</event>
<event>
 5   0  0.4109937E-07  0.3388690E+04  0.7818609E-02  0.8140688E-01
       -1   -1    0    0    0  501  0.00000000000E+00  0.00000000000E+00  0.13550631109E+04  0.13550631109E+04  0.50400001928E-02 0. -1.
        1   -1    0    0  501    0  0.00000000000E+00  0.00000000000E+00 -0.21185763074E+04  0.21185763074E+04  0.50400001928E-02 0.  1.
    10030    2    1    2    0    0  0.00000000000E+00  0.00000000000E+00 -0.76351319645E+03  0.34736394183E+04  0.33886897774E+04 0.  0.
        5    1    3    3  502    0  0.12492486912E+04  0.28749357970E+02  0.79118960521E+03  0.14790036848E+04  0.46999998093E+01 0. -1.
       -5    1    3    3    0  502 -0.12492486912E+04 -0.28749357970E+02 -0.15547028017E+04  0.19946357336E+04  0.46999998093E+01 0.  1.
</event>
<event>
 5   0  0.1256208E-06  0.3345588E+04  0.7818609E-02  0.8151391E-01
       -2   -1    0    0    0  501  0.00000000000E+00  0.00000000000E+00  0.23633668299E+04  0.23633668299E+04  0.25500000920E-02 0. -1.
        2   -1    0    0  501    0  0.00000000000E+00  0.00000000000E+00 -0.11840056861E+04  0.11840056861E+04  0.25500000920E-02 0.  1.
    10030    2    1    2    0    0  0.00000000000E+00  0.00000000000E+00  0.11793611439E+04  0.35473725160E+04  0.33455879991E+04 0.  0.
        3    1    3    3  502    0  0.13060231553E+04 -0.56956657850E+03 -0.33961471410E+03  0.14647323078E+04  0.10100000352E+00 0.  1.
       -3    1    3    3    0  502 -0.13060231553E+04  0.56956657850E+03  0.15189758580E+04  0.20826402082E+04  0.10100000352E+00 0. -1.
</event>
<event>
 5   0  0.4109937E-07  0.3249518E+04  0.7818609E-02  0.8175861E-01
       -1   -1    0    0    0  501  0.00000000000E+00  0.00000000000E+00  0.11338954144E+04  0.11338954144E+04  0.50400001928E-02 0. -1.
        1   -1    0    0  501    0  0.00000000000E+00  0.00000000000E+00 -0.23281173937E+04  0.23281173937E+04  0.50400001928E-02 0.  1.
    10030    2    1    2    0    0  0.00000000000E+00  0.00000000000E+00 -0.11942219792E+04  0.34620128081E+04  0.32495178947E+04 0.  0.
        5    1    3    3  502    0 -0.12579843136E+04  0.97994470967E+03 -0.92893145645E+03  0.18454679374E+04  0.46999998093E+01 0. -1.
       -5    1    3    3    0  502  0.12579843136E+04 -0.97994470967E+03 -0.26529052279E+03  0.16165448706E+04  0.46999998093E+01 0.  1.
</event>
<event>
 5   0  0.4109937E-07  0.3431905E+04  0.7818609E-02  0.8130120E-01
        1   -1    0    0  501    0  0.00000000000E+00  0.00000000000E+00  0.20556802950E+04  0.20556802950E+04  0.50400001928E-02 0. -1.
       -1   -1    0    0    0  501  0.00000000000E+00  0.00000000000E+00 -0.14323688821E+04  0.14323688821E+04  0.50400001928E-02 0.  1.
    10030    2    1    2    0    0  0.00000000000E+00  0.00000000000E+00  0.62331141283E+03  0.34880491771E+04  0.34319047109E+04 0.  0.
        5    1    3    3  502    0 -0.11091407562E+04  0.96379194079E+02 -0.10154578060E+04  0.15068705358E+04  0.46999998093E+01 0.  1.
       -5    1    3    3    0  502  0.11091407562E+04 -0.96379194079E+02  0.16387692188E+04  0.19811786413E+04  0.46999998093E+01 0. -1.
</event>
<event>
 5   0  0.1256208E-06  0.3402201E+04  0.7818609E-02  0.8137366E-01
       -2   -1    0    0    0  501  0.00000000000E+00  0.00000000000E+00  0.18245507077E+04  0.18245507077E+04  0.25500000920E-02 0. -1.
        2   -1    0    0  501    0  0.00000000000E+00  0.00000000000E+00 -0.15860026366E+04  0.15860026366E+04  0.25500000920E-02 0.  1.
    10030    2    1    2    0    0  0.00000000000E+00  0.00000000000E+00  0.23854807114E+03  0.34105533443E+04  0.34022006014E+04 0.  0.
        3    1    3    3  502    0 -0.31862774300E+03  0.25644608527E+03 -0.15359775640E+04  0.15895015951E+04  0.10100000352E+00 0.  1.
       -3    1    3    3    0  502  0.31862774300E+03 -0.25644608527E+03  0.17745256352E+04  0.18210517492E+04  0.10100000352E+00 0. -1.
</event>
<event>
 5   0  0.1300176E-06  0.3461817E+04  0.7818609E-02  0.8122899E-01
       -2   -1    0    0    0  501  0.00000000000E+00  0.00000000000E+00  0.19022503169E+04  0.19022503169E+04  0.25500000920E-02 0. -1.
        2   -1    0    0  501    0  0.00000000000E+00  0.00000000000E+00 -0.15749997844E+04  0.15749997844E+04  0.25500000920E-02 0.  1.
    10030    2    1    2    0    0  0.00000000000E+00  0.00000000000E+00  0.32725053256E+03  0.34772501013E+04  0.34618167710E+04 0.  0.
        1    1    3    3  502    0 -0.37014181928E+03 -0.16615193374E+04  0.47869925308E+03  0.17682772548E+04  0.50400001928E-02 0.  1.
       -1    1    3    3    0  502  0.37014181928E+03  0.16615193374E+04 -0.15144872052E+03  0.17089728465E+04  0.50400001928E-02 0. -1.
</event>
<event>
 5   0  0.1277635E-06  0.3390777E+04  0.7818609E-02  0.8140174E-01
       -2   -1    0    0    0  501  0.00000000000E+00  0.00000000000E+00  0.15929712072E+04  0.15929712072E+04  0.25500000920E-02 0. -1.
        2   -1    0    0  501    0  0.00000000000E+00  0.00000000000E+00 -0.18043903391E+04  0.18043903391E+04  0.25500000920E-02 0.  1.
    10030    2    1    2    0    0  0.00000000000E+00  0.00000000000E+00 -0.21141913193E+03  0.33973615463E+04  0.33907768176E+04 0.  0.
        4    1    3    3  502    0  0.15474733137E+04  0.65116405111E+02 -0.79656030638E+03  0.17416726837E+04  0.12699999809E+01 0. -1.
       -4    1    3    3    0  502 -0.15474733137E+04 -0.65116405111E+02  0.58514117445E+03  0.16556888626E+04  0.12699999809E+01 0.  1.
</event>
<event>
 5   0  0.4125758E-07  0.3367721E+04  0.7818609E-02  0.8145874E-01
       -1   -1    0    0    0  501  0.00000000000E+00  0.00000000000E+00  0.14260031464E+04  0.14260031464E+04  0.50400001928E-02 0.  1.
        1   -1    0    0  501    0  0.00000000000E+00  0.00000000000E+00 -0.19883444513E+04  0.19883444513E+04  0.50400001928E-02 0. -1.
    10030    2    1    2    0    0  0.00000000000E+00  0.00000000000E+00 -0.56234130489E+03  0.34143475978E+04  0.33677205607E+04 0.  0.
        2    1    3    3  502    0 -0.54736180548E+03  0.14463142694E+04 -0.95669564283E+03  0.18184324197E+04  0.25500000920E-02 0. -1.
       -2    1    3    3    0  502  0.54736180548E+03 -0.14463142694E+04  0.39435433794E+03  0.15959151781E+04  0.25500000920E-02 0.  1.
</event>
<event>
 5   0  0.1269497E-06  0.3403178E+04  0.7818609E-02  0.8137127E-01
        2   -1    0    0  501    0  0.00000000000E+00  0.00000000000E+00  0.21864251646E+04  0.21864251646E+04  0.25500000920E-02 0.  1.
       -2   -1    0    0    0  501  0.00000000000E+00  0.00000000000E+00 -0.13242644018E+04  0.13242644018E+04  0.25500000920E-02 0. -1.
    10030    2    1    2    0    0  0.00000000000E+00  0.00000000000E+00  0.86216076282E+03  0.35106895664E+04  0.34031779341E+04 0.  0.
        5    1    3    3  502    0 -0.13290782532E+03 -0.54370751222E+03 -0.12265753862E+04  0.13482550266E+04  0.46999998093E+01 0. -1.
       -5    1    3    3    0  502  0.13290782532E+03  0.54370751222E+03  0.20887361490E+04  0.21624345398E+04  0.46999998093E+01 0.  1.
</event>
<event>
 5   0  0.4289684E-07  0.3418726E+04  0.7818609E-02  0.8133326E-01
       -1   -1    0    0    0  501  0.00000000000E+00  0.00000000000E+00  0.20524018616E+04  0.20524018616E+04  0.50400001928E-02 0.  1.
        1   -1    0    0  501    0  0.00000000000E+00  0.00000000000E+00 -0.14236594420E+04  0.14236594420E+04  0.50400001928E-02 0. -1.
    10030    2    1    2    0    0  0.00000000000E+00  0.00000000000E+00  0.62874241964E+03  0.34760613037E+04  0.34187256627E+04 0.  0.
        4    1    3    3  502    0 -0.16389471662E+04  0.39289540988E+03  0.24270444611E+02  0.16855578554E+04  0.12699999809E+01 0. -1.
       -4    1    3    3    0  502  0.16389471662E+04 -0.39289540988E+03  0.60447197502E+03  0.17905034482E+04  0.12699999809E+01 0.  1.
</event>
<event>
 5   0  0.1300176E-06  0.3409637E+04  0.7818609E-02  0.8135545E-01
        2   -1    0    0  501    0  0.00000000000E+00  0.00000000000E+00  0.10740801704E+04  0.10740801704E+04  0.25500000920E-02 0. -1.
       -2   -1    0    0    0  501  0.00000000000E+00  0.00000000000E+00 -0.27059496510E+04  0.27059496510E+04  0.25500000920E-02 0.  1.
    10030    2    1    2    0    0  0.00000000000E+00  0.00000000000E+00 -0.16318694806E+04  0.37800298214E+04  0.34096374365E+04 0.  0.
        1    1    3    3  502    0 -0.54097189690E+03 -0.13017043252E+04 -0.18789044276E+04  0.23489075315E+04  0.50400001928E-02 0.  1.
       -1    1    3    3    0  502  0.54097189690E+03  0.13017043252E+04  0.24703494693E+03  0.14311222899E+04  0.50400001928E-02 0. -1.
</event>
<event>
 5   0  0.1269497E-06  0.3438854E+04  0.7818609E-02  0.8128436E-01
        2   -1    0    0  501    0  0.00000000000E+00  0.00000000000E+00  0.27528294458E+04  0.27528294458E+04  0.25500000920E-02 0. -1.
       -2   -1    0    0    0  501  0.00000000000E+00  0.00000000000E+00 -0.10739600769E+04  0.10739600769E+04  0.25500000920E-02 0.  1.
    10030    2    1    2    0    0  0.00000000000E+00  0.00000000000E+00  0.16788693689E+04  0.38267895227E+04  0.34388538342E+04 0.  0.
        5    1    3    3  502    0 -0.14767620785E+04 -0.74399986466E+03  0.31506067113E+03  0.16833440978E+04  0.46999998093E+01 0.  1.
       -5    1    3    3    0  502  0.14767620785E+04  0.74399986466E+03  0.13638086978E+04  0.21434454248E+04  0.46999998093E+01 0. -1.
</event>
<event>
 5   0  0.1268230E-06  0.3215375E+04  0.7818609E-02  0.8184769E-01
       -2   -1    0    0    0  501  0.00000000000E+00  0.00000000000E+00  0.16277130859E+04  0.16277130859E+04  0.25500000920E-02 0. -1.
        2   -1    0    0  501    0  0.00000000000E+00  0.00000000000E+00 -0.15879078384E+04  0.15879078384E+04  0.25500000920E-02 0.  1.
    10030    2    1    2    0    0  0.00000000000E+00  0.00000000000E+00  0.39805247542E+02  0.32156209243E+04  0.32153745460E+04 0.  0.
        2    1    3    3  502    0  0.10453873026E+04  0.12172705951E+04  0.12028986334E+03  0.16090531270E+04  0.25500000920E-02 0.  1.
       -2    1    3    3    0  502 -0.10453873026E+04 -0.12172705951E+04 -0.80484615801E+02  0.16065677974E+04  0.25500000920E-02 0. -1.
</event>
<event>
 5   0  0.4272633E-07  0.3358307E+04  0.7818609E-02  0.8148216E-01
        1   -1    0    0  501    0  0.00000000000E+00  0.00000000000E+00  0.16133359079E+04  0.16133359079E+04  0.50400001928E-02 0.  1.
       -1   -1    0    0    0  501  0.00000000000E+00  0.00000000000E+00 -0.17476558581E+04  0.17476558581E+04  0.50400001928E-02 0. -1.
    10030    2    1    2    0    0  0.00000000000E+00  0.00000000000E+00 -0.13431995013E+03  0.33609917660E+04  0.33583066868E+04 0.  0.
        1    1    3    3  502    0  0.12704970734E+04 -0.88500451406E+03 -0.71741798499E+03  0.17064830408E+04  0.50400001928E-02 0. -1.
       -1    1    3    3    0  502 -0.12704970734E+04  0.88500451406E+03  0.58309803486E+03  0.16545087252E+04  0.50400001928E-02 0.  1.
</event>
<event>
 5   0  0.4289684E-07  0.3032513E+04  0.7818609E-02  0.8234507E-01
       -1   -1    0    0    0  501  0.00000000000E+00  0.00000000000E+00  0.17262473102E+04  0.17262473102E+04  0.50400001928E-02 0. -1.
        1   -1    0    0  501    0  0.00000000000E+00  0.00000000000E+00 -0.13318099518E+04  0.13318099518E+04  0.50400001928E-02 0.  1.
    10030    2    1    2    0    0  0.00000000000E+00  0.00000000000E+00  0.39443735836E+03  0.30580572620E+04  0.30325127185E+04 0.  0.
        4    1    3    3  502    0 -0.20075215607E+03 -0.15645578104E+03  0.17045511325E+04  0.17234488724E+04  0.12699999809E+01 0. -1.
       -4    1    3    3    0  502  0.20075215607E+03  0.15645578104E+03 -0.13101137741E+04  0.13346083896E+04  0.12699999809E+01 0.  1.
</event>
<event>
 5   0  0.1268230E-06  0.3405802E+04  0.7818609E-02  0.8136484E-01
       -2   -1    0    0    0  501  0.00000000000E+00  0.00000000000E+00  0.15953142506E+04  0.15953142506E+04  0.25500000920E-02 0.  1.
        2   -1    0    0  501    0  0.00000000000E+00  0.00000000000E+00 -0.18177432421E+04  0.18177432421E+04  0.25500000920E-02 0. -1.
    10030    2    1    2    0    0  0.00000000000E+00  0.00000000000E+00 -0.22242899146E+03  0.34130574927E+04  0.34058019309E+04 0.  0.
        2    1    3    3  502    0  0.64435252079E+03  0.95371457977E+03  0.11464930450E+04  0.16245639332E+04  0.25500000920E-02 0.  1.
       -2    1    3    3    0  502 -0.64435252079E+03 -0.95371457977E+03 -0.13689220364E+04  0.17884935596E+04  0.25500000920E-02 0. -1.
</event>
<event>
 5   0  0.1269497E-06  0.3391227E+04  0.7818609E-02  0.8140063E-01
       -2   -1    0    0    0  501  0.00000000000E+00  0.00000000000E+00  0.15085386512E+04  0.15085386512E+04  0.25500000920E-02 0.  1.
        2   -1    0    0  501    0  0.00000000000E+00  0.00000000000E+00 -0.19058875411E+04  0.19058875411E+04  0.25500000920E-02 0. -1.
    10030    2    1    2    0    0  0.00000000000E+00  0.00000000000E+00 -0.39734888994E+03  0.34144261923E+04  0.33912269287E+04 0.  0.
        5    1    3    3  502    0  0.16545385958E+04  0.37006684610E+03 -0.22405592511E+03  0.17101668290E+04  0.46999998093E+01 0. -1.
       -5    1    3    3    0  502 -0.16545385958E+04 -0.37006684610E+03 -0.17329296482E+03  0.17042593632E+04  0.46999998093E+01 0.  1.
</event>
<event>
 5   0  0.4272633E-07  0.3238264E+04  0.7818609E-02  0.8178784E-01
        1   -1    0    0  501    0  0.00000000000E+00  0.00000000000E+00  0.18961703840E+04  0.18961703840E+04  0.50400001928E-02 0.  1.
       -1   -1    0    0    0  501  0.00000000000E+00  0.00000000000E+00 -0.13825701495E+04  0.13825701495E+04  0.50400001928E-02 0. -1.
    10030    2    1    2    0    0  0.00000000000E+00  0.00000000000E+00  0.51360023446E+03  0.32787405335E+04  0.32382640851E+04 0.  0.
        1    1    3    3  502    0 -0.15953950900E+04 -0.49975591312E+02  0.53186756894E+03  0.16824583691E+04  0.50400001928E-02 0. -1.
       -1    1    3    3    0  502  0.15953950900E+04  0.49975591312E+02 -0.18267334479E+02  0.15962821644E+04  0.50400001928E-02 0.  1.
</event>
<event>
 5   0  0.4125758E-07  0.3337605E+04  0.7818609E-02  0.8153392E-01
       -1   -1    0    0    0  501  0.00000000000E+00  0.00000000000E+00  0.15915147655E+04  0.15915147655E+04  0.50400001928E-02 0. -1.
        1   -1    0    0  501    0  0.00000000000E+00  0.00000000000E+00 -0.17498433807E+04  0.17498433808E+04  0.50400001928E-02 0.  1.
    10030    2    1    2    0    0  0.00000000000E+00  0.00000000000E+00 -0.15832861526E+03  0.33413581462E+04  0.33376048764E+04 0.  0.
        2    1    3    3  502    0 -0.26825114582E+03  0.14714420455E+04  0.66180394309E+03  0.16355686564E+04  0.25500000920E-02 0. -1.
       -2    1    3    3    0  502  0.26825114582E+03 -0.14714420455E+04 -0.82013255834E+03  0.17057894899E+04  0.25500000920E-02 0.  1.
</event>
<event>
 5   0  0.1277635E-06  0.3398250E+04  0.7818609E-02  0.8138336E-01
       -2   -1    0    0    0  501  0.00000000000E+00  0.00000000000E+00  0.14892456915E+04  0.14892456915E+04  0.25500000920E-02 0.  1.
        2   -1    0    0  501    0  0.00000000000E+00  0.00000000000E+00 -0.19385820945E+04  0.19385820945E+04  0.25500000920E-02 0. -1.
    10030    2    1    2    0    0  0.00000000000E+00  0.00000000000E+00 -0.44933640300E+03  0.34278277859E+04  0.33982495681E+04 0.  0.
        4    1    3    3  502    0  0.83421898705E+03  0.11588706601E+04  0.70428236867E+03  0.15921425165E+04  0.12699999809E+01 0.  1.
       -4    1    3    3    0  502 -0.83421898705E+03 -0.11588706601E+04 -0.11536187717E+04  0.18356852694E+04  0.12699999809E+01 0. -1.
</event>
<event>
 5   0  0.4060750E-07  0.3385946E+04  0.7818609E-02  0.8141364E-01
        3   -1    0    0  501    0  0.00000000000E+00  0.00000000000E+00  0.19591559856E+04  0.19591559882E+04  0.10100000352E+00 0. -1.
       -3   -1    0    0    0  501  0.00000000000E+00  0.00000000000E+00 -0.14629549060E+04  0.14629549095E+04  0.10100000352E+00 0.  1.
    10030    2    1    2    0    0  0.00000000000E+00  0.00000000000E+00  0.49620107960E+03  0.34221108977E+04  0.33859455821E+04 0.  0.
        3    1    3    3  502    0  0.64755181103E+03 -0.10170325775E+04 -0.95307087864E+03  0.15368873484E+04  0.10100000352E+00 0.  1.
       -3    1    3    3    0  502 -0.64755181103E+03  0.10170325775E+04  0.14492719582E+04  0.18852235493E+04  0.10100000352E+00 0. -1.
</event>
<event>
 5   0  0.1277635E-06  0.3404401E+04  0.7818609E-02  0.8136827E-01
       -2   -1    0    0    0  501  0.00000000000E+00  0.00000000000E+00  0.12864132292E+04  0.12864132292E+04  0.25500000920E-02 0. -1.
        2   -1    0    0  501    0  0.00000000000E+00  0.00000000000E+00 -0.22523764934E+04  0.22523764934E+04  0.25500000920E-02 0.  1.
    10030    2    1    2    0    0  0.00000000000E+00  0.00000000000E+00 -0.96596326417E+03  0.35387897226E+04  0.34044012209E+04 0.  0.
        4    1    3    3  502    0  0.13810242762E+04 -0.31262814574E+03 -0.14650081520E+04  0.20374530442E+04  0.12699999809E+01 0.  1.
       -4    1    3    3    0  502 -0.13810242762E+04  0.31262814574E+03  0.49904488781E+03  0.15013366784E+04  0.12699999809E+01 0. -1.
</event>
<event>
 5   0  0.1277635E-06  0.3239106E+04  0.7818609E-02  0.8178565E-01
        2   -1    0    0  501    0  0.00000000000E+00  0.00000000000E+00  0.22243154664E+04  0.22243154664E+04  0.25500000920E-02 0.  1.
       -2   -1    0    0    0  501  0.00000000000E+00  0.00000000000E+00 -0.11792172712E+04  0.11792172712E+04  0.25500000920E-02 0. -1.
    10030    2    1    2    0    0  0.00000000000E+00  0.00000000000E+00  0.10450981951E+04  0.34035327376E+04  0.32391055646E+04 0.  0.
        4    1    3    3  502    0 -0.64435637330E+03 -0.21044390100E+03  0.20680883914E+04  0.21763439478E+04  0.12699999809E+01 0.  1.
       -4    1    3    3    0  502  0.64435637330E+03  0.21044390100E+03 -0.10229901963E+04  0.12271887899E+04  0.12699999809E+01 0. -1.
</event>
<event>
 5   0  0.1256208E-06  0.2923123E+04  0.7818609E-02  0.8266031E-01
        2   -1    0    0  501    0  0.00000000000E+00  0.00000000000E+00  0.20796715558E+04  0.20796715558E+04  0.25500000920E-02 0.  1.
       -2   -1    0    0    0  501  0.00000000000E+00  0.00000000000E+00 -0.10271628977E+04  0.10271628977E+04  0.25500000920E-02 0. -1.
    10030    2    1    2    0    0  0.00000000000E+00  0.00000000000E+00  0.10525086581E+04  0.31068344535E+04  0.29231226191E+04 0.  0.
        3    1    3    3  502    0 -0.14089602527E+03  0.23088515653E+03 -0.10003302929E+04  0.10362530341E+04  0.10100000352E+00 0. -1.
       -3    1    3    3    0  502  0.14089602527E+03 -0.23088515653E+03  0.20528389510E+04  0.20705814194E+04  0.10100000352E+00 0.  1.
</event>
<event>
 5   0  0.4125758E-07  0.3367873E+04  0.7818609E-02  0.8145837E-01
       -1   -1    0    0    0  501  0.00000000000E+00  0.00000000000E+00  0.18925791661E+04  0.18925791661E+04  0.50400001928E-02 0. -1.
        1   -1    0    0  501    0  0.00000000000E+00  0.00000000000E+00 -0.14982949502E+04  0.14982949502E+04  0.50400001928E-02 0.  1.
    10030    2    1    2    0    0  0.00000000000E+00  0.00000000000E+00  0.39428421585E+03  0.33908741163E+04  0.33678728048E+04 0.  0.
        2    1    3    3  502    0  0.19573603919E+03 -0.11719722697E+04 -0.10042424282E+04  0.15557424120E+04  0.25500000920E-02 0.  1.
       -2    1    3    3    0  502 -0.19573603919E+03  0.11719722697E+04  0.13985266441E+04  0.18351317043E+04  0.25500000920E-02 0. -1.
</event>
<event>
 5   0  0.4272633E-07  0.3409107E+04  0.7818609E-02  0.8135675E-01
       -1   -1    0    0    0  501  0.00000000000E+00  0.00000000000E+00  0.12096090441E+04  0.12096090441E+04  0.50400001928E-02 0. -1.
        1   -1    0    0  501    0  0.00000000000E+00  0.00000000000E+00 -0.24020184585E+04  0.24020184585E+04  0.50400001928E-02 0.  1.
    10030    2    1    2    0    0  0.00000000000E+00  0.00000000000E+00 -0.11924094144E+04  0.36116275027E+04  0.34091073621E+04 0.  0.
        1    1    3    3  502    0 -0.55244916449E+03 -0.12995042786E+04  0.41528735385E+03  0.14718610790E+04  0.50400001928E-02 0. -1.
       -1    1    3    3    0  502  0.55244916449E+03  0.12995042786E+04 -0.16076967682E+04  0.21397664237E+04  0.50400001928E-02 0.  1.
</event>
<event>
 5   0  0.4060750E-07  0.3441592E+04  0.7818609E-02  0.8127773E-01
       -3   -1    0    0    0  501  0.00000000000E+00  0.00000000000E+00  0.25368456666E+04  0.25368456686E+04  0.10100000352E+00 0.  1.
        3   -1    0    0  501    0  0.00000000000E+00  0.00000000000E+00 -0.11672519460E+04  0.11672519504E+04  0.10100000352E+00 0. -1.
    10030    2    1    2    0    0  0.00000000000E+00  0.00000000000E+00  0.13695937206E+04  0.37040976190E+04  0.34415915231E+04 0.  0.
        4    1    3    3  502    0 -0.36439668182E+03  0.14534326155E+04 -0.22583904776E+03  0.15153402911E+04  0.12699999809E+01 0. -1.
       -4    1    3    3    0  502  0.36439668182E+03 -0.14534326155E+04  0.15954327683E+04  0.21887573279E+04  0.12699999809E+01 0.  1.
</event>
<event>
 5   0  0.1300176E-06  0.3394131E+04  0.7818609E-02  0.8139348E-01
        2   -1    0    0  501    0  0.00000000000E+00  0.00000000000E+00  0.20360612078E+04  0.20360612078E+04  0.25500000920E-02 0. -1.
       -2   -1    0    0    0  501  0.00000000000E+00  0.00000000000E+00 -0.14145113288E+04  0.14145113288E+04  0.25500000920E-02 0.  1.
    10030    2    1    2    0    0  0.00000000000E+00  0.00000000000E+00  0.62154987908E+03  0.34505725366E+04  0.33941311964E+04 0.  0.
        1    1    3    3  502    0  0.10225650746E+04 -0.63832532278E+03  0.15251821616E+04  0.19440368246E+04  0.50400001928E-02 0.  1.
       -1    1    3    3    0  502 -0.10225650746E+04  0.63832532278E+03 -0.90363228250E+03  0.15065357120E+04  0.50400001928E-02 0. -1.
</event>
<event>
 5   0  0.1269497E-06  0.3396228E+04  0.7818609E-02  0.8138833E-01
        2   -1    0    0  501    0  0.00000000000E+00  0.00000000000E+00  0.24961407587E+04  0.24961407587E+04  0.25500000920E-02 0. -1.
       -2   -1    0    0    0  501  0.00000000000E+00  0.00000000000E+00 -0.11552197599E+04  0.11552197599E+04  0.25500000920E-02 0.  1.
    10030    2    1    2    0    0  0.00000000000E+00  0.00000000000E+00  0.13409209989E+04  0.36513605186E+04  0.33962279829E+04 0.  0.
        5    1    3    3  502    0  0.80825134938E+03 -0.55439728545E+03  0.21613347779E+04  0.23731870356E+04  0.46999998093E+01 0. -1.
       -5    1    3    3    0  502 -0.80825134938E+03  0.55439728545E+03 -0.82041377900E+03  0.12781734830E+04  0.46999998093E+01 0.  1.
</event>
<event>
 5   0  0.1277635E-06  0.3379047E+04  0.7818609E-02  0.8143068E-01
        2   -1    0    0  501    0  0.00000000000E+00  0.00000000000E+00  0.20693081315E+04  0.20693081315E+04  0.25500000920E-02 0. -1.
       -2   -1    0    0    0  501  0.00000000000E+00  0.00000000000E+00 -0.13794416515E+04  0.13794416515E+04  0.25500000920E-02 0.  1.
    10030    2    1    2    0    0  0.00000000000E+00  0.00000000000E+00  0.68986647998E+03  0.34487497830E+04  0.33790471002E+04 0.  0.
        4    1    3    3  502    0 -0.97299801701E+03 -0.82822273547E+03  0.14730896339E+04  0.19500442874E+04  0.12699999809E+01 0. -1.
       -4    1    3    3    0  502  0.97299801701E+03  0.82822273547E+03 -0.78322315389E+03  0.14987054955E+04  0.12699999809E+01 0.  1.
</event>
<event>
 5   0  0.4109937E-07  0.3425485E+04  0.7818609E-02  0.8131680E-01
       -1   -1    0    0    0  501  0.00000000000E+00  0.00000000000E+00  0.18761149975E+04  0.18761149975E+04  0.50400001928E-02 0. -1.
        1   -1    0    0  501    0  0.00000000000E+00  0.00000000000E+00 -0.15635968906E+04  0.15635968906E+04  0.50400001928E-02 0.  1.
    10030    2    1    2    0    0  0.00000000000E+00  0.00000000000E+00  0.31251810694E+03  0.34397118881E+04  0.34254854118E+04 0.  0.
        5    1    3    3  502    0  0.15215643630E+04  0.73982081624E+03  0.42377218538E+03  0.17441610895E+04  0.46999998093E+01 0. -1.
       -5    1    3    3    0  502 -0.15215643630E+04 -0.73982081624E+03 -0.11125407844E+03  0.16955507987E+04  0.46999998093E+01 0.  1.
</event>
<event>
 5   0  0.4464951E-07  0.2941411E+04  0.7818609E-02  0.8260662E-01
       -1   -1    0    0    0  501  0.00000000000E+00  0.00000000000E+00  0.14849000997E+04  0.14849000997E+04  0.50400001928E-02 0. -1.
        1   -1    0    0  501    0  0.00000000000E+00  0.00000000000E+00 -0.14566466060E+04  0.14566466061E+04  0.50400001928E-02 0.  1.
    10030    2    1    2    0    0  0.00000000000E+00  0.00000000000E+00  0.28253493680E+02  0.29415467058E+04  0.29414110156E+04 0.  0.
        3    1    3    3  502    0 -0.73240610932E+03  0.99832892628E+03 -0.77956931787E+03  0.14631499190E+04  0.10100000352E+00 0.  1.
       -3    1    3    3    0  502  0.73240610932E+03 -0.99832892628E+03  0.80782281155E+03  0.14783967868E+04  0.10100000352E+00 0. -1.
</event>
<event>
 5   0  0.4125758E-07  0.3404413E+04  0.7818609E-02  0.8136824E-01
        1   -1    0    0  501    0  0.00000000000E+00  0.00000000000E+00  0.23820395440E+04  0.23820395440E+04  0.50400001928E-02 0. -1.
       -1   -1    0    0    0  501  0.00000000000E+00  0.00000000000E+00 -0.12163975412E+04  0.12163975412E+04  0.50400001928E-02 0.  1.
    10030    2    1    2    0    0  0.00000000000E+00  0.00000000000E+00  0.11656420028E+04  0.35984370852E+04  0.34044130445E+04 0.  0.
        2    1    3    3  502    0  0.30688339717E+03  0.14370803899E+04  0.14909299854E+04  0.20933823559E+04  0.25500000920E-02 0.  1.
       -2    1    3    3    0  502 -0.30688339717E+03 -0.14370803899E+04 -0.32528798258E+03  0.15050547293E+04  0.25500000920E-02 0. -1.
</event>
<event>
 5   0  0.4125758E-07  0.3378848E+04  0.7818609E-02  0.8143117E-01
       -1   -1    0    0    0  501  0.00000000000E+00  0.00000000000E+00  0.11943338912E+04  0.11943338912E+04  0.50400001928E-02 0. -1.
        1   -1    0    0  501    0  0.00000000000E+00  0.00000000000E+00 -0.23897448869E+04  0.23897448869E+04  0.50400001928E-02 0.  1.
    10030    2    1    2    0    0  0.00000000000E+00  0.00000000000E+00 -0.11954109957E+04  0.35840787781E+04  0.33788479159E+04 0.  0.
        2    1    3    3  502    0 -0.15328666007E+02  0.71319804593E+03  0.10267396028E+04  0.12502322315E+04  0.25500000920E-02 0. -1.
       -2    1    3    3    0  502  0.15328666007E+02 -0.71319804593E+03 -0.22221505985E+04  0.23338465466E+04  0.25500000920E-02 0.  1.
</event>
<event>
 5   0  0.4109937E-07  0.3298957E+04  0.7818609E-02  0.8163161E-01
       -1   -1    0    0    0  501  0.00000000000E+00  0.00000000000E+00  0.22395783746E+04  0.22395783746E+04  0.50400001928E-02 0.  1.
        1   -1    0    0  501    0  0.00000000000E+00  0.00000000000E+00 -0.12148622184E+04  0.12148622184E+04  0.50400001928E-02 0. -1.
    10030    2    1    2    0    0  0.00000000000E+00  0.00000000000E+00  0.10247161563E+04  0.34544405930E+04  0.32989568972E+04 0.  0.
        5    1    3    3  502    0  0.59780106216E+03  0.15373295030E+04  0.51549103175E+03  0.17281496476E+04  0.46999998093E+01 0. -1.
       -5    1    3    3    0  502 -0.59780106216E+03 -0.15373295030E+04  0.50922512451E+03  0.17262909454E+04  0.46999998093E+01 0.  1.
</event>
<event>
 5   0  0.1300176E-06  0.3405671E+04  0.7818609E-02  0.8136516E-01
        2   -1    0    0  501    0  0.00000000000E+00  0.00000000000E+00  0.20558804830E+04  0.20558804830E+04  0.25500000920E-02 0.  1.
       -2   -1    0    0    0  501  0.00000000000E+00  0.00000000000E+00 -0.14104173930E+04  0.14104173930E+04  0.25500000920E-02 0. -1.
    10030    2    1    2    0    0  0.00000000000E+00  0.00000000000E+00  0.64546308999E+03  0.34662978761E+04  0.34056714999E+04 0.  0.
        1    1    3    3  502    0  0.37527317880E+03 -0.89380061407E+03 -0.11021689087E+04  0.14678166779E+04  0.50400001928E-02 0. -1.
       -1    1    3    3    0  502 -0.37527317880E+03  0.89380061407E+03  0.17476319987E+04  0.19984811982E+04  0.50400001928E-02 0.  1.
</event>
<event>
 5   0  0.4289684E-07  0.3354797E+04  0.7818609E-02  0.8149091E-01
        1   -1    0    0  501    0  0.00000000000E+00  0.00000000000E+00  0.13972410116E+04  0.13972410116E+04  0.50400001928E-02 0. -1.
       -1   -1    0    0    0  501  0.00000000000E+00  0.00000000000E+00 -0.20137297852E+04  0.20137297852E+04  0.50400001928E-02 0.  1.
    10030    2    1    2    0    0  0.00000000000E+00  0.00000000000E+00 -0.61648877364E+03  0.34109707968E+04  0.33547970682E+04 0.  0.
        4    1    3    3  502    0 -0.87759011057E+03  0.13256962683E+04  0.23552775682E+03  0.16072056294E+04  0.12699999809E+01 0. -1.
       -4    1    3    3    0  502  0.87759011057E+03 -0.13256962683E+04 -0.85201653046E+03  0.18037651674E+04  0.12699999809E+01 0.  1.
</event>
<event>
 5   0  0.4272633E-07  0.3217684E+04  0.7818609E-02  0.8184162E-01
        1   -1    0    0  501    0  0.00000000000E+00  0.00000000000E+00  0.21558565238E+04  0.21558565238E+04  0.50400001928E-02 0. -1.
       -1   -1    0    0    0  501  0.00000000000E+00  0.00000000000E+00 -0.12006236066E+04  0.12006236066E+04  0.50400001928E-02 0.  1.
    10030    2    1    2    0    0  0.00000000000E+00  0.00000000000E+00  0.95523291722E+03  0.33564801305E+04  0.32176837850E+04 0.  0.
        1    1    3    3  502    0  0.99839931041E+03 -0.12615495167E+04  0.48595299510E+03  0.16806125906E+04  0.50400001928E-02 0. -1.
       -1    1    3    3    0  502 -0.99839931041E+03  0.12615495167E+04  0.46927992212E+03  0.16758675399E+04  0.50400001928E-02 0.  1.
</event>
<event>
 5   0  0.1277635E-06  0.3314846E+04  0.7818609E-02  0.8159128E-01
        2   -1    0    0  501    0  0.00000000000E+00  0.00000000000E+00  0.20208920424E+04  0.20208920424E+04  0.25500000920E-02 0. -1.
       -2   -1    0    0    0  501  0.00000000000E+00  0.00000000000E+00 -0.13593256708E+04  0.13593256708E+04  0.25500000920E-02 0.  1.
    10030    2    1    2    0    0  0.00000000000E+00  0.00000000000E+00  0.66156637163E+03  0.33802177132E+04  0.33148456562E+04 0.  0.
        4    1    3    3  502    0  0.10618774779E+04  0.58353839096E+03  0.14839916004E+04  0.19158114507E+04  0.12699999809E+01 0. -1.
       -4    1    3    3    0  502 -0.10618774779E+04 -0.58353839096E+03 -0.82242522878E+03  0.14644062625E+04  0.12699999809E+01 0.  1.
</event>
<event>
 5   0  0.4109937E-07  0.3351728E+04  0.7818609E-02  0.8149856E-01
        1   -1    0    0  501    0  0.00000000000E+00  0.00000000000E+00  0.20089797306E+04  0.20089797306E+04  0.50400001928E-02 0. -1.
       -1   -1    0    0    0  501  0.00000000000E+00  0.00000000000E+00 -0.13979836668E+04  0.13979836668E+04  0.50400001928E-02 0.  1.
    10030    2    1    2    0    0  0.00000000000E+00  0.00000000000E+00  0.61099606379E+03  0.34069633974E+04  0.33517284200E+04 0.  0.
        5    1    3    3  502    0  0.15589876555E+04  0.56768452932E+03  0.65405378171E+02  0.16604240989E+04  0.46999998093E+01 0.  1.
       -5    1    3    3    0  502 -0.15589876555E+04 -0.56768452932E+03  0.54559068562E+03  0.17465392985E+04  0.46999998093E+01 0. -1.
</event>
<event>
 5   0  0.4060750E-07  0.3403564E+04  0.7818609E-02  0.8137032E-01
        3   -1    0    0  501    0  0.00000000000E+00  0.00000000000E+00  0.23992269462E+04  0.23992269483E+04  0.10100000352E+00 0.  1.
       -3   -1    0    0    0  501  0.00000000000E+00  0.00000000000E+00 -0.12070811192E+04  0.12070811235E+04  0.10100000352E+00 0. -1.
    10030    2    1    2    0    0  0.00000000000E+00  0.00000000000E+00  0.11921458269E+04  0.36063080718E+04  0.34035637552E+04 0.  0.
        2    1    3    3  502    0 -0.92571305578E+03 -0.22151017276E+03  0.20907966911E+04  0.22972684261E+04  0.25500000920E-02 0.  1.
       -2    1    3    3    0  502  0.92571305578E+03  0.22151017276E+03 -0.89865086413E+03  0.13090396456E+04  0.25500000920E-02 0. -1.
</event>
<event>
 5   0  0.4289684E-07  0.3185696E+04  0.7818609E-02  0.8192605E-01
        1   -1    0    0  501    0  0.00000000000E+00  0.00000000000E+00  0.14180626863E+04  0.14180626863E+04  0.50400001928E-02 0.  1.
       -1   -1    0    0    0  501  0.00000000000E+00  0.00000000000E+00 -0.17891772265E+04  0.17891772266E+04  0.50400001928E-02 0. -1.
    10030    2    1    2    0    0  0.00000000000E+00  0.00000000000E+00 -0.37111454024E+03  0.32072399129E+04  0.31856964477E+04 0.  0.
        4    1    3    3  502    0  0.13702882053E+04 -0.42650157338E+03  0.51018085060E+03  0.15231150551E+04  0.12699999809E+01 0.  1.
       -4    1    3    3    0  502 -0.13702882053E+04  0.42650157338E+03 -0.88129539084E+03  0.16841248578E+04  0.12699999809E+01 0. -1.
</event>
<event>
 5   0  0.1300176E-06  0.3409443E+04  0.7818609E-02  0.8135593E-01
       -2   -1    0    0    0  501  0.00000000000E+00  0.00000000000E+00  0.24355180442E+04  0.24355180442E+04  0.25500000920E-02 0. -1.
        2   -1    0    0  501    0  0.00000000000E+00  0.00000000000E+00 -0.11932064110E+04  0.11932064110E+04  0.25500000920E-02 0.  1.
    10030    2    1    2    0    0  0.00000000000E+00  0.00000000000E+00  0.12423116332E+04  0.36287244552E+04  0.34094432064E+04 0.  0.
        1    1    3    3  502    0  0.88386993200E+03 -0.14576862520E+04  0.62189200287E+03  0.18146142646E+04  0.50400001928E-02 0.  1.
       -1    1    3    3    0  502 -0.88386993200E+03  0.14576862520E+04  0.62041963036E+03  0.18141101906E+04  0.50400001928E-02 0. -1.
</event>
<event>
 5   0  0.4289684E-07  0.3447498E+04  0.7818609E-02  0.8126346E-01
        1   -1    0    0  501    0  0.00000000000E+00  0.00000000000E+00  0.23125028540E+04  0.23125028541E+04  0.50400001928E-02 0. -1.
       -1   -1    0    0    0  501  0.00000000000E+00  0.00000000000E+00 -0.12848891331E+04  0.12848891331E+04  0.50400001928E-02 0.  1.
    10030    2    1    2    0    0  0.00000000000E+00  0.00000000000E+00  0.10276137210E+04  0.35973919871E+04  0.34474975198E+04 0.  0.
        4    1    3    3  502    0  0.43236426549E+03  0.45323711250E+03 -0.11619263523E+04  0.13200140906E+04  0.12699999809E+01 0.  1.
       -4    1    3    3    0  502 -0.43236426549E+03 -0.45323711250E+03  0.21895400733E+04  0.22773778965E+04  0.12699999809E+01 0. -1.
</event>
<event>
 5   0  0.1300176E-06  0.3405444E+04  0.7818609E-02  0.8136572E-01
        2   -1    0    0  501    0  0.00000000000E+00  0.00000000000E+00  0.13513106513E+04  0.13513106513E+04  0.25500000920E-02 0. -1.
       -2   -1    0    0    0  501  0.00000000000E+00  0.00000000000E+00 -0.21455182279E+04  0.21455182279E+04  0.25500000920E-02 0.  1.
    10030    2    1    2    0    0  0.00000000000E+00  0.00000000000E+00 -0.79420757665E+03  0.34968288792E+04  0.34054436621E+04 0.  0.
        1    1    3    3  502    0  0.11699382809E+04 -0.10224294684E+04 -0.11123178233E+04  0.19108554469E+04  0.50400001928E-02 0.  1.
       -1    1    3    3    0  502 -0.11699382809E+04  0.10224294684E+04  0.31811024662E+03  0.15859734323E+04  0.50400001928E-02 0. -1.
</event>
<event>
 5   0  0.1256208E-06  0.3393581E+04  0.7818609E-02  0.8139483E-01
        2   -1    0    0  501    0  0.00000000000E+00  0.00000000000E+00  0.22916622829E+04  0.22916622829E+04  0.25500000920E-02 0. -1.
       -2   -1    0    0    0  501  0.00000000000E+00  0.00000000000E+00 -0.12563363952E+04  0.12563363952E+04  0.25500000920E-02 0.  1.
    10030    2    1    2    0    0  0.00000000000E+00  0.00000000000E+00  0.10353258877E+04  0.35479986780E+04  0.33935814305E+04 0.  0.
        3    1    3    3  502    0  0.70436502354E+03 -0.71312825014E+03 -0.91372795314E+03  0.13563114576E+04  0.10100000352E+00 0.  1.
       -3    1    3    3    0  502 -0.70436502354E+03  0.71312825014E+03  0.19490538408E+04  0.21916872204E+04  0.10100000352E+00 0. -1.
</event>
<event>
 5   0  0.1256208E-06  0.3361689E+04  0.7818609E-02  0.8147374E-01
        2   -1    0    0  501    0  0.00000000000E+00  0.00000000000E+00  0.25231697358E+04  0.25231697358E+04  0.25500000920E-02 0.  1.
       -2   -1    0    0    0  501  0.00000000000E+00  0.00000000000E+00 -0.11197177264E+04  0.11197177264E+04  0.25500000920E-02 0. -1.
    10030    2    1    2    0    0  0.00000000000E+00  0.00000000000E+00  0.14034520095E+04  0.36428874622E+04  0.33616887898E+04 0.  0.
        3    1    3    3  502    0  0.95518422510E+01  0.12545925086E+04  0.19138357547E+04  0.22884188661E+04  0.10100000352E+00 0.  1.
       -3    1    3    3    0  502 -0.95518422510E+01 -0.12545925086E+04 -0.51038374522E+03  0.13544685962E+04  0.10100000352E+00 0. -1.
</event>
<event>
 5   0  0.4272633E-07  0.3413933E+04  0.7818609E-02  0.8134495E-01
       -1   -1    0    0    0  501  0.00000000000E+00  0.00000000000E+00  0.14639332674E+04  0.14639332674E+04  0.50400001928E-02 0.  1.
        1   -1    0    0  501    0  0.00000000000E+00  0.00000000000E+00 -0.19903469134E+04  0.19903469134E+04  0.50400001928E-02 0. -1.
    10030    2    1    2    0    0  0.00000000000E+00  0.00000000000E+00 -0.52641364607E+03  0.34542801808E+04  0.34139332508E+04 0.  0.
        1    1    3    3  502    0 -0.51821897152E+03 -0.10848416649E+04 -0.14892629075E+04  0.19139844168E+04  0.50400001928E-02 0. -1.
       -1    1    3    3    0  502  0.51821897152E+03  0.10848416649E+04  0.96284926139E+03  0.15402957640E+04  0.50400001928E-02 0.  1.
</event>
<event>
 5   0  0.4109937E-07  0.3254624E+04  0.7818609E-02  0.8174538E-01
       -1   -1    0    0    0  501  0.00000000000E+00  0.00000000000E+00  0.24776172220E+04  0.24776172220E+04  0.50400001928E-02 0. -1.
        1   -1    0    0  501    0  0.00000000000E+00  0.00000000000E+00 -0.10688273759E+04  0.10688273759E+04  0.50400001928E-02 0.  1.
    10030    2    1    2    0    0  0.00000000000E+00  0.00000000000E+00  0.14087898461E+04  0.35464445979E+04  0.32546244723E+04 0.  0.
        5    1    3    3  502    0 -0.59797931894E+03  0.13766229047E+04  0.13896303471E+04  0.20454252563E+04  0.46999998093E+01 0. -1.
       -5    1    3    3    0  502  0.59797931894E+03 -0.13766229047E+04  0.19159499079E+02  0.15010193416E+04  0.46999998093E+01 0.  1.
</event>
<event>
 5   0  0.1256208E-06  0.3265036E+04  0.7818609E-02  0.8171849E-01
        2   -1    0    0  501    0  0.00000000000E+00  0.00000000000E+00  0.21485097526E+04  0.21485097526E+04  0.25500000920E-02 0.  1.
       -2   -1    0    0    0  501  0.00000000000E+00  0.00000000000E+00 -0.12404480284E+04  0.12404480284E+04  0.25500000920E-02 0. -1.
    10030    2    1    2    0    0  0.00000000000E+00  0.00000000000E+00  0.90806172416E+03  0.33889577810E+04  0.32650357956E+04 0.  0.
        3    1    3    3  502    0 -0.13324832396E+04  0.94127207079E+03  0.39166733246E+03  0.16777687578E+04  0.10100000352E+00 0. -1.
       -3    1    3    3    0  502  0.13324832396E+04 -0.94127207079E+03  0.51639439169E+03  0.17111890232E+04  0.10100000352E+00 0.  1.
</event>
<event>
 5   0  0.4109937E-07  0.3493065E+04  0.7818609E-02  0.8115435E-01
       -1   -1    0    0    0  501  0.00000000000E+00  0.00000000000E+00  0.19058640059E+04  0.19058640059E+04  0.50400001928E-02 0.  1.
        1   -1    0    0  501    0  0.00000000000E+00  0.00000000000E+00 -0.16005214962E+04  0.16005214962E+04  0.50400001928E-02 0. -1.
    10030    2    1    2    0    0  0.00000000000E+00  0.00000000000E+00  0.30534250971E+03  0.35063855021E+04  0.34930653073E+04 0.  0.
        5    1    3    3  502    0  0.12302541631E+04  0.38888186835E+03  0.13342750131E+04  0.18560889833E+04  0.46999998093E+01 0.  1.
       -5    1    3    3    0  502 -0.12302541631E+04 -0.38888186835E+03 -0.10289325034E+04  0.16502965188E+04  0.46999998093E+01 0. -1.
</event>
<event>
 5   0  0.1268230E-06  0.3379636E+04  0.7818609E-02  0.8142922E-01
        2   -1    0    0  501    0  0.00000000000E+00  0.00000000000E+00  0.13928155882E+04  0.13928155882E+04  0.25500000920E-02 0.  1.
       -2   -1    0    0    0  501  0.00000000000E+00  0.00000000000E+00 -0.20501531120E+04  0.20501531120E+04  0.25500000920E-02 0. -1.
    10030    2    1    2    0    0  0.00000000000E+00  0.00000000000E+00 -0.65733752386E+03  0.34429687002E+04  0.33796362008E+04 0.  0.
        2    1    3    3  502    0  0.66064425243E+03  0.43597527525E+03 -0.18496163662E+04  0.20118662905E+04  0.25500000920E-02 0. -1.
       -2    1    3    3    0  502 -0.66064425243E+03 -0.43597527525E+03  0.11922788423E+04  0.14311024096E+04  0.25500000920E-02 0.  1.
</event>
<event>
 5   0  0.4464951E-07  0.3411819E+04  0.7818609E-02  0.8135012E-01
        1   -1    0    0  501    0  0.00000000000E+00  0.00000000000E+00  0.21742207183E+04  0.21742207183E+04  0.50400001928E-02 0. -1.
       -1   -1    0    0    0  501  0.00000000000E+00  0.00000000000E+00 -0.13384692518E+04  0.13384692518E+04  0.50400001928E-02 0.  1.
    10030    2    1    2    0    0  0.00000000000E+00  0.00000000000E+00  0.83575146653E+03  0.35126899701E+04  0.34118192086E+04 0.  0.
        3    1    3    3  502    0 -0.10609288030E+04  0.11725965005E+04 -0.24102589130E+03  0.15995768092E+04  0.10100000352E+00 0.  1.
       -3    1    3    3    0  502  0.10609288030E+04 -0.11725965005E+04  0.10767773578E+04  0.19131131609E+04  0.10100000352E+00 0. -1.
</event>
<event>
 5   0  0.4272633E-07  0.3444144E+04  0.7818609E-02  0.8127156E-01
        1   -1    0    0  501    0  0.00000000000E+00  0.00000000000E+00  0.22406105522E+04  0.22406105522E+04  0.50400001928E-02 0. -1.
       -1   -1    0    0    0  501  0.00000000000E+00  0.00000000000E+00 -0.13235373616E+04  0.13235373616E+04  0.50400001928E-02 0.  1.
    10030    2    1    2    0    0  0.00000000000E+00  0.00000000000E+00  0.91707319062E+03  0.35641479138E+04  0.34441438870E+04 0.  0.
        1    1    3    3  502    0 -0.76807946481E+03 -0.77066023286E+03 -0.92276300334E+03  0.14266586204E+04  0.50400001928E-02 0.  1.
       -1    1    3    3    0  502  0.76807946481E+03  0.77066023286E+03  0.18398361940E+04  0.21374892934E+04  0.50400001928E-02 0. -1.
</event>
<event>
 5   0  0.4289684E-07  0.3409313E+04  0.7818609E-02  0.8135624E-01
        1   -1    0    0  501    0  0.00000000000E+00  0.00000000000E+00  0.15313193415E+04  0.15313193415E+04  0.50400001928E-02 0.  1.
       -1   -1    0    0    0  501  0.00000000000E+00  0.00000000000E+00 -0.18976150516E+04  0.18976150516E+04  0.50400001928E-02 0. -1.
    10030    2    1    2    0    0  0.00000000000E+00  0.00000000000E+00 -0.36629571016E+03  0.34289343931E+04  0.34093134976E+04 0.  0.
        4    1    3    3  502    0 -0.61337217090E+03  0.21617255796E+03  0.14016416691E+04  0.15451721510E+04  0.12699999809E+01 0.  1.
       -4    1    3    3    0  502  0.61337217090E+03 -0.21617255796E+03 -0.17679373793E+04  0.18837622421E+04  0.12699999809E+01 0. -1.
</event>
<event>
 5   0  0.1277635E-06  0.3437383E+04  0.7818609E-02  0.8128792E-01
        2   -1    0    0  501    0  0.00000000000E+00  0.00000000000E+00  0.23314479039E+04  0.23314479039E+04  0.25500000920E-02 0. -1.
       -2   -1    0    0    0  501  0.00000000000E+00  0.00000000000E+00 -0.12669813718E+04  0.12669813718E+04  0.25500000920E-02 0.  1.
    10030    2    1    2    0    0  0.00000000000E+00  0.00000000000E+00  0.10644665321E+04  0.35984292757E+04  0.34373833441E+04 0.  0.
        4    1    3    3  502    0 -0.15257701399E+03  0.14499670147E+04  0.14849343161E+04  0.20810371513E+04  0.12699999809E+01 0. -1.
       -4    1    3    3    0  502  0.15257701399E+03 -0.14499670147E+04 -0.42046778403E+03  0.15173921244E+04  0.12699999809E+01 0.  1.
</event>
<event>
 5   0  0.4464951E-07  0.3397864E+04  0.7818609E-02  0.8138431E-01
        1   -1    0    0  501    0  0.00000000000E+00  0.00000000000E+00  0.23270867215E+04  0.23270867215E+04  0.50400001928E-02 0. -1.
       -1   -1    0    0    0  501  0.00000000000E+00  0.00000000000E+00 -0.12403360674E+04  0.12403360674E+04  0.50400001928E-02 0.  1.
    10030    2    1    2    0    0  0.00000000000E+00  0.00000000000E+00  0.10867506540E+04  0.35674227889E+04  0.33978637952E+04 0.  0.
        3    1    3    3  502    0  0.72445781729E+03 -0.15360845486E+04  0.49672006592E+03  0.17694987153E+04  0.10100000352E+00 0. -1.
       -3    1    3    3    0  502 -0.72445781729E+03  0.15360845486E+04  0.59003058811E+03  0.17979240736E+04  0.10100000352E+00 0.  1.
</event>
<event>
 5   0  0.4109937E-07  0.3399489E+04  0.7818609E-02  0.8138032E-01
        1   -1    0    0  501    0  0.00000000000E+00  0.00000000000E+00  0.15658773511E+04  0.15658773511E+04  0.50400001928E-02 0.  1.
       -1   -1    0    0    0  501  0.00000000000E+00  0.00000000000E+00 -0.18450558752E+04  0.18450558752E+04  0.50400001928E-02 0. -1.
    10030    2    1    2    0    0  0.00000000000E+00  0.00000000000E+00 -0.27917852407E+03  0.34109332263E+04  0.33994889066E+04 0.  0.
        5    1    3    3  502    0 -0.10409621425E+04 -0.13422072247E+04 -0.76236379139E+02  0.17002812978E+04  0.46999998093E+01 0. -1.
       -5    1    3    3    0  502  0.10409621425E+04  0.13422072247E+04 -0.20294214493E+03  0.17106519285E+04  0.46999998093E+01 0.  1.
</event>
<event>
 5   0  0.4289684E-07  0.3431723E+04  0.7818609E-02  0.8130164E-01
       -1   -1    0    0    0  501  0.00000000000E+00  0.00000000000E+00  0.16104264554E+04  0.16104264554E+04  0.50400001928E-02 0.  1.
        1   -1    0    0  501    0  0.00000000000E+00  0.00000000000E+00 -0.18281996817E+04  0.18281996817E+04  0.50400001928E-02 0. -1.
    10030    2    1    2    0    0  0.00000000000E+00  0.00000000000E+00 -0.21777322632E+03  0.34386261371E+04  0.34317232599E+04 0.  0.
        4    1    3    3  502    0 -0.99499436846E+03  0.13181278930E+04  0.35756516338E+03  0.16897719948E+04  0.12699999809E+01 0.  1.
       -4    1    3    3    0  502  0.99499436846E+03 -0.13181278930E+04 -0.57533838970E+03  0.17488541423E+04  0.12699999809E+01 0. -1.
</event>
<event>
 5   0  0.1268230E-06  0.3399527E+04  0.7818609E-02  0.8138022E-01
        2   -1    0    0  501    0  0.00000000000E+00  0.00000000000E+00  0.17087770389E+04  0.17087770389E+04  0.25500000920E-02 0.  1.
       -2   -1    0    0    0  501  0.00000000000E+00  0.00000000000E+00 -0.16907974351E+04  0.16907974351E+04  0.25500000920E-02 0. -1.
    10030    2    1    2    0    0  0.00000000000E+00  0.00000000000E+00  0.17979603815E+02  0.33995744741E+04  0.33995269287E+04 0.  0.
        2    1    3    3  502    0 -0.84208351213E+03 -0.14157074018E+04  0.42835678332E+03  0.17020051770E+04  0.25500000920E-02 0.  1.
       -2    1    3    3    0  502  0.84208351213E+03  0.14157074018E+04 -0.41037717950E+03  0.16975692970E+04  0.25500000920E-02 0. -1.
</event>
<event>
 5   0  0.1277635E-06  0.3391191E+04  0.7818609E-02  0.8140072E-01
       -2   -1    0    0    0  501  0.00000000000E+00  0.00000000000E+00  0.11562495602E+04  0.11562495602E+04  0.25500000920E-02 0.  1.
        2   -1    0    0  501    0  0.00000000000E+00  0.00000000000E+00 -0.24865256453E+04  0.24865256453E+04  0.25500000920E-02 0. -1.
    10030    2    1    2    0    0  0.00000000000E+00  0.00000000000E+00 -0.13302760850E+04  0.36427752055E+04  0.33911910497E+04 0.  0.
        4    1    3    3  502    0 -0.13642099863E+04 -0.43140001923E+03 -0.16425116015E+04  0.21783068740E+04  0.12699999809E+01 0. -1.
       -4    1    3    3    0  502  0.13642099863E+04  0.43140001923E+03  0.31223551650E+03  0.14644683315E+04  0.12699999809E+01 0.  1.
</event>
<event>
 5   0  0.1277635E-06  0.3464134E+04  0.7818609E-02  0.8122343E-01
       -2   -1    0    0    0  501  0.00000000000E+00  0.00000000000E+00  0.17951234420E+04  0.17951234420E+04  0.25500000920E-02 0. -1.
        2   -1    0    0  501    0  0.00000000000E+00  0.00000000000E+00 -0.16712257461E+04  0.16712257461E+04  0.25500000920E-02 0.  1.
    10030    2    1    2    0    0  0.00000000000E+00  0.00000000000E+00  0.12389769584E+03  0.34663491881E+04  0.34641342432E+04 0.  0.
        4    1    3    3  502    0  0.34923973751E+03  0.11242872646E+03  0.17557941050E+04  0.17937176937E+04  0.12699999809E+01 0. -1.
       -4    1    3    3    0  502 -0.34923973751E+03 -0.11242872646E+03 -0.16318964092E+04  0.16726314944E+04  0.12699999809E+01 0.  1.
</event>
<event>
 5   0  0.4289684E-07  0.3442027E+04  0.7818609E-02  0.8127668E-01
       -1   -1    0    0    0  501  0.00000000000E+00  0.00000000000E+00  0.19453091023E+04  0.19453091023E+04  0.50400001928E-02 0.  1.
        1   -1    0    0  501    0  0.00000000000E+00  0.00000000000E+00 -0.15225789272E+04  0.15225789273E+04  0.50400001928E-02 0. -1.
    10030    2    1    2    0    0  0.00000000000E+00  0.00000000000E+00  0.42273017501E+03  0.34678880295E+04  0.34420265229E+04 0.  0.
        4    1    3    3  502    0  0.12348670199E+04  0.13345118798E+03  0.14116089157E+04  0.18802518768E+04  0.12699999809E+01 0.  1.
       -4    1    3    3    0  502 -0.12348670199E+04 -0.13345118798E+03 -0.98887874073E+03  0.15876361527E+04  0.12699999809E+01 0. -1.
</event>
<event>
 5   0  0.1268230E-06  0.3342914E+04  0.7818609E-02  0.8152061E-01
       -2   -1    0    0    0  501  0.00000000000E+00  0.00000000000E+00  0.15818852076E+04  0.15818852076E+04  0.25500000920E-02 0.  1.
        2   -1    0    0  501    0  0.00000000000E+00  0.00000000000E+00 -0.17661010282E+04  0.17661010282E+04  0.25500000920E-02 0. -1.
    10030    2    1    2    0    0  0.00000000000E+00  0.00000000000E+00 -0.18421582066E+03  0.33479862358E+04  0.33429143523E+04 0.  0.
        2    1    3    3  502    0  0.24686817032E+03 -0.16516051615E+02 -0.17476592952E+04  0.17650863111E+04  0.25500000920E-02 0. -1.
       -2    1    3    3    0  502 -0.24686817032E+03  0.16516051615E+02  0.15634434746E+04  0.15828999247E+04  0.25500000920E-02 0.  1.
</event>
<event>
 5   0  0.1277635E-06  0.3387518E+04  0.7818609E-02  0.8140977E-01
        2   -1    0    0  501    0  0.00000000000E+00  0.00000000000E+00  0.11631135312E+04  0.11631135313E+04  0.25500000920E-02 0. -1.
       -2   -1    0    0    0  501  0.00000000000E+00  0.00000000000E+00 -0.24665006558E+04  0.24665006558E+04  0.25500000920E-02 0.  1.
    10030    2    1    2    0    0  0.00000000000E+00  0.00000000000E+00 -0.13033871245E+04  0.36296141870E+04  0.33875184354E+04 0.  0.
        4    1    3    3  502    0 -0.65091362085E+03  0.13484880868E+04 -0.14999206024E+04  0.21194037106E+04  0.12699999809E+01 0.  1.
       -4    1    3    3    0  502  0.65091362085E+03 -0.13484880868E+04  0.19653347792E+03  0.15102104764E+04  0.12699999809E+01 0. -1.
</event>
<event>
 5   0  0.1269497E-06  0.3147378E+04  0.7818609E-02  0.8202854E-01
       -2   -1    0    0    0  501  0.00000000000E+00  0.00000000000E+00  0.13777429906E+04  0.13777429906E+04  0.25500000920E-02 0. -1.
        2   -1    0    0  501    0  0.00000000000E+00  0.00000000000E+00 -0.17975026614E+04  0.17975026614E+04  0.25500000920E-02 0.  1.
    10030    2    1    2    0    0  0.00000000000E+00  0.00000000000E+00 -0.41975967075E+03  0.31752456520E+04  0.31473777609E+04 0.  0.
        5    1    3    3  502    0 -0.50392600587E+03 -0.14845522716E+04 -0.34760872143E+03  0.16058302462E+04  0.46999998093E+01 0. -1.
       -5    1    3    3    0  502  0.50392600587E+03  0.14845522716E+04 -0.72150949321E+02  0.15694154058E+04  0.46999998093E+01 0.  1.
</event>
<event>
 5   0  0.4125758E-07  0.3407815E+04  0.7818609E-02  0.8135991E-01
       -1   -1    0    0    0  501  0.00000000000E+00  0.00000000000E+00  0.25302154142E+04  0.25302154142E+04  0.50400001928E-02 0. -1.
        1   -1    0    0  501    0  0.00000000000E+00  0.00000000000E+00 -0.11474518085E+04  0.11474518086E+04  0.50400001928E-02 0.  1.
    10030    2    1    2    0    0  0.00000000000E+00  0.00000000000E+00  0.13827636057E+04  0.36776672228E+04  0.34078146975E+04 0.  0.
        2    1    3    3  502    0  0.27765595925E+03  0.12173935715E+04  0.19425681357E+04  0.23092663124E+04  0.25500000920E-02 0. -1.
       -2    1    3    3    0  502 -0.27765595925E+03 -0.12173935715E+04 -0.55980453002E+03  0.13684009104E+04  0.25500000920E-02 0.  1.
</event>
<event>
 5   0  0.1269497E-06  0.3332909E+04  0.7818609E-02  0.8154572E-01
       -2   -1    0    0    0  501  0.00000000000E+00  0.00000000000E+00  0.10656712963E+04  0.10656712963E+04  0.25500000920E-02 0. -1.
        2   -1    0    0  501    0  0.00000000000E+00  0.00000000000E+00 -0.26059354491E+04  0.26059354491E+04  0.25500000920E-02 0.  1.
    10030    2    1    2    0    0  0.00000000000E+00  0.00000000000E+00 -0.15402641528E+04  0.36716067454E+04  0.33329090045E+04 0.  0.
        5    1    3    3  502    0  0.15047470520E+04  0.16791109389E+03 -0.32647462578E+01  0.15140972804E+04  0.46999998093E+01 0. -1.
       -5    1    3    3    0  502 -0.15047470520E+04 -0.16791109389E+03 -0.15369994066E+04  0.21575094650E+04  0.46999998093E+01 0.  1.
</event>
<event>
 5   0  0.4060750E-07  0.3400419E+04  0.7818609E-02  0.8137803E-01
        3   -1    0    0  501    0  0.00000000000E+00  0.00000000000E+00  0.13491092010E+04  0.13491092048E+04  0.10100000352E+00 0.  1.
       -3   -1    0    0    0  501  0.00000000000E+00  0.00000000000E+00 -0.21426824465E+04  0.21426824489E+04  0.10100000352E+00 0. -1.
    10030    2    1    2    0    0  0.00000000000E+00  0.00000000000E+00 -0.79357324552E+03  0.34917916537E+04  0.34004191590E+04 0.  0.
        4    1    3    3  502    0 -0.92892378768E+03  0.11852811944E+04 -0.12072474646E+04  0.19300878132E+04  0.12699999809E+01 0.  1.
       -4    1    3    3    0  502  0.92892378768E+03 -0.11852811944E+04  0.41367421906E+03  0.15617038405E+04  0.12699999809E+01 0. -1.
</event>
<event>
 5   0  0.4125758E-07  0.2818150E+04  0.7818609E-02  0.8297655E-01
       -1   -1    0    0    0  501  0.00000000000E+00  0.00000000000E+00  0.88076061916E+03  0.88076061917E+03  0.50400001928E-02 0.  1.
        1   -1    0    0  501    0  0.00000000000E+00  0.00000000000E+00 -0.22542936247E+04  0.22542936247E+04  0.50400001928E-02 0. -1.
    10030    2    1    2    0    0  0.00000000000E+00  0.00000000000E+00 -0.13735330056E+04  0.31350542439E+04  0.28181504919E+04 0.  0.
        2    1    3    3  502    0 -0.11621890887E+04  0.48339773852E+03 -0.13913408144E+04  0.18762159026E+04  0.25500000920E-02 0. -1.
       -2    1    3    3    0  502  0.11621890887E+04 -0.48339773852E+03  0.17807808833E+02  0.12588383413E+04  0.25500000920E-02 0.  1.
</event>
<event>
 5   0  0.1300176E-06  0.3396918E+04  0.7818609E-02  0.8138663E-01
        2   -1    0    0  501    0  0.00000000000E+00  0.00000000000E+00  0.32162366804E+04  0.32162366804E+04  0.25500000920E-02 0.  1.
       -2   -1    0    0    0  501  0.00000000000E+00  0.00000000000E+00 -0.89693759058E+03  0.89693759059E+03  0.25500000920E-02 0. -1.
    10030    2    1    2    0    0  0.00000000000E+00  0.00000000000E+00  0.23192990898E+04  0.41131742710E+04  0.33969183557E+04 0.  0.
        1    1    3    3  502    0 -0.53385003331E+02 -0.14581013142E+04  0.22123650283E+04  0.26501827144E+04  0.50400001928E-02 0.  1.
       -1    1    3    3    0  502  0.53385003331E+02  0.14581013142E+04  0.10693406154E+03  0.14629915566E+04  0.50400001928E-02 0. -1.
</event>
<event>
 5   0  0.4289684E-07  0.3208949E+04  0.7818609E-02  0.8186458E-01
        1   -1    0    0  501    0  0.00000000000E+00  0.00000000000E+00  0.18430370728E+04  0.18430370728E+04  0.50400001928E-02 0.  1.
       -1   -1    0    0    0  501  0.00000000000E+00  0.00000000000E+00 -0.13967910182E+04  0.13967910182E+04  0.50400001928E-02 0. -1.
    10030    2    1    2    0    0  0.00000000000E+00  0.00000000000E+00  0.44624605462E+03  0.32398280911E+04  0.32089485067E+04 0.  0.
        4    1    3    3  502    0 -0.12252808924E+04 -0.68080470363E+03 -0.56511238938E+03  0.15113444132E+04  0.12699999809E+01 0. -1.
       -4    1    3    3    0  502  0.12252808924E+04  0.68080470363E+03  0.10113584440E+04  0.17284836779E+04  0.12699999809E+01 0.  1.
</event>
<event>
 5   0  0.1256208E-06  0.3371622E+04  0.7818609E-02  0.8144907E-01
       -2   -1    0    0    0  501  0.00000000000E+00  0.00000000000E+00  0.10845837230E+04  0.10845837230E+04  0.25500000920E-02 0. -1.
        2   -1    0    0  501    0  0.00000000000E+00  0.00000000000E+00 -0.26203222640E+04  0.26203222640E+04  0.25500000920E-02 0.  1.
    10030    2    1    2    0    0  0.00000000000E+00  0.00000000000E+00 -0.15357385410E+04  0.37049059870E+04  0.33716220882E+04 0.  0.
        3    1    3    3  502    0  0.15858073780E+04 -0.46920064408E+03 -0.11273536895E+04  0.20014646227E+04  0.10100000352E+00 0. -1.
       -3    1    3    3    0  502 -0.15858073780E+04  0.46920064408E+03 -0.40838485153E+03  0.17034413643E+04  0.10100000352E+00 0.  1.
</event>
<event>
 5   0  0.4109937E-07  0.3444664E+04  0.7818609E-02  0.8127030E-01
        1   -1    0    0  501    0  0.00000000000E+00  0.00000000000E+00  0.21813459570E+04  0.21813459570E+04  0.50400001928E-02 0.  1.
       -1   -1    0    0    0  501  0.00000000000E+00  0.00000000000E+00 -0.13599071511E+04  0.13599071511E+04  0.50400001928E-02 0. -1.
    10030    2    1    2    0    0  0.00000000000E+00  0.00000000000E+00  0.82143880589E+03  0.35412531081E+04  0.34446642600E+04 0.  0.
        5    1    3    3  502    0 -0.37603495279E+03 -0.11542130146E+04  0.16667791197E+04  0.20619856189E+04  0.46999998093E+01 0.  1.
       -5    1    3    3    0  502  0.37603495279E+03  0.11542130146E+04 -0.84534031378E+03  0.14792674893E+04  0.46999998093E+01 0. -1.
</event>
<event>
 5   0  0.4464951E-07  0.3386883E+04  0.7818609E-02  0.8141133E-01
       -1   -1    0    0    0  501  0.00000000000E+00  0.00000000000E+00  0.20310860706E+04  0.20310860706E+04  0.50400001928E-02 0.  1.
        1   -1    0    0  501    0  0.00000000000E+00  0.00000000000E+00 -0.14119262869E+04  0.14119262869E+04  0.50400001928E-02 0. -1.
    10030    2    1    2    0    0  0.00000000000E+00  0.00000000000E+00  0.61915978362E+03  0.34430123575E+04  0.33868828229E+04 0.  0.
        3    1    3    3  502    0  0.13357404892E+03  0.73500138179E+03 -0.12353679531E+04  0.14436769194E+04  0.10100000352E+00 0. -1.
       -3    1    3    3    0  502 -0.13357404892E+03 -0.73500138179E+03  0.18545277367E+04  0.19993354381E+04  0.10100000352E+00 0.  1.
</event>
<event>
 5   0  0.1268230E-06  0.3438589E+04  0.7818609E-02  0.8128500E-01
        2   -1    0    0  501    0  0.00000000000E+00  0.00000000000E+00  0.14854784938E+04  0.14854784938E+04  0.25500000920E-02 0. -1.
       -2   -1    0    0    0  501  0.00000000000E+00  0.00000000000E+00 -0.19899134370E+04  0.19899134370E+04  0.25500000920E-02 0.  1.
    10030    2    1    2    0    0  0.00000000000E+00  0.00000000000E+00 -0.50443494322E+03  0.34753919308E+04  0.34385890218E+04 0.  0.
        2    1    3    3  502    0  0.15739270716E+04  0.38684641960E+02  0.44599515305E+03  0.16363540585E+04  0.25500000920E-02 0. -1.
       -2    1    3    3    0  502 -0.15739270716E+04 -0.38684641960E+02 -0.95043009627E+03  0.18390378724E+04  0.25500000920E-02 0.  1.
</event>
<event>
 5   0  0.1269497E-06  0.3440873E+04  0.7818609E-02  0.8127947E-01
       -2   -1    0    0    0  501  0.00000000000E+00  0.00000000000E+00  0.28194314808E+04  0.28194314808E+04  0.25500000920E-02 0.  1.
        2   -1    0    0  501    0  0.00000000000E+00  0.00000000000E+00 -0.10498220137E+04  0.10498220137E+04  0.25500000920E-02 0. -1.
    10030    2    1    2    0    0  0.00000000000E+00  0.00000000000E+00  0.17696094671E+04  0.38692534945E+04  0.34408727001E+04 0.  0.
        5    1    3    3  502    0 -0.12158207819E+04  0.11196122963E+03  0.22477793054E+04  0.25579854156E+04  0.46999998093E+01 0.  1.
       -5    1    3    3    0  502  0.12158207819E+04 -0.11196122963E+03 -0.47816983828E+03  0.13112680789E+04  0.46999998093E+01 0. -1.
</event>
<event>
 5   0  0.4289684E-07  0.3462420E+04  0.7818609E-02  0.8122754E-01
        1   -1    0    0  501    0  0.00000000000E+00  0.00000000000E+00  0.17339556784E+04  0.17339556784E+04  0.50400001928E-02 0.  1.
       -1   -1    0    0    0  501  0.00000000000E+00  0.00000000000E+00 -0.17284685754E+04  0.17284685754E+04  0.50400001928E-02 0. -1.
    10030    2    1    2    0    0  0.00000000000E+00  0.00000000000E+00  0.54871030265E+01  0.34624242538E+04  0.34624199059E+04 0.  0.
        4    1    3    3  502    0 -0.13345248244E+04  0.10346162914E+04 -0.37896219497E+03  0.17306072158E+04  0.12699999809E+01 0. -1.
       -4    1    3    3    0  502  0.13345248244E+04 -0.10346162914E+04  0.38444929799E+03  0.17318170380E+04  0.12699999809E+01 0.  1.
</event>
<event>
 5   0  0.1277635E-06  0.3405745E+04  0.7818609E-02  0.8136498E-01
       -2   -1    0    0    0  501  0.00000000000E+00  0.00000000000E+00  0.19875271516E+04  0.19875271516E+04  0.25500000920E-02 0. -1.
        2   -1    0    0  501    0  0.00000000000E+00  0.00000000000E+00 -0.14589858549E+04  0.14589858549E+04  0.25500000920E-02 0.  1.
    10030    2    1    2    0    0  0.00000000000E+00  0.00000000000E+00  0.52854129670E+03  0.34465130064E+04  0.34057445590E+04 0.  0.
        4    1    3    3  502    0 -0.15210479882E+04 -0.66471704997E+03  0.64873507195E+03  0.17822161893E+04  0.12699999809E+01 0. -1.
       -4    1    3    3    0  502  0.15210479882E+04  0.66471704997E+03 -0.12019377525E+03  0.16642968171E+04  0.12699999809E+01 0.  1.
</event>
<event>
 5   0  0.4109937E-07  0.3338045E+04  0.7818609E-02  0.8153282E-01
       -1   -1    0    0    0  501  0.00000000000E+00  0.00000000000E+00  0.12985868000E+04  0.12985868000E+04  0.50400001928E-02 0.  1.
        1   -1    0    0  501    0  0.00000000000E+00  0.00000000000E+00 -0.21451284710E+04  0.21451284710E+04  0.50400001928E-02 0. -1.
    10030    2    1    2    0    0  0.00000000000E+00  0.00000000000E+00 -0.84654167098E+03  0.34437152710E+04  0.33380446473E+04 0.  0.
        5    1    3    3  502    0  0.15551046768E+04  0.56190166470E+03 -0.65745773483E+03  0.17794259748E+04  0.46999998093E+01 0. -1.
       -5    1    3    3    0  502 -0.15551046768E+04 -0.56190166470E+03 -0.18908393615E+03  0.16642892962E+04  0.46999998093E+01 0.  1.
</event>
<event>
 5   0  0.1268230E-06  0.3382986E+04  0.7818609E-02  0.8142095E-01
        2   -1    0    0  501    0  0.00000000000E+00  0.00000000000E+00  0.14649055793E+04  0.14649055793E+04  0.25500000920E-02 0.  1.
       -2   -1    0    0    0  501  0.00000000000E+00  0.00000000000E+00 -0.19531287613E+04  0.19531287613E+04  0.25500000920E-02 0. -1.
    10030    2    1    2    0    0  0.00000000000E+00  0.00000000000E+00 -0.48822318200E+03  0.34180343405E+04  0.33829863845E+04 0.  0.
        2    1    3    3  502    0  0.87697497062E+03  0.12583942635E+04 -0.96459679390E+03  0.18119294126E+04  0.25500000920E-02 0.  1.
       -2    1    3    3    0  502 -0.87697497062E+03 -0.12583942635E+04  0.47637361190E+03  0.16061049279E+04  0.25500000920E-02 0. -1.
</event>
<event>
 5   0  0.1256208E-06  0.3450052E+04  0.7818609E-02  0.8125730E-01
       -2   -1    0    0    0  501  0.00000000000E+00  0.00000000000E+00  0.16335452368E+04  0.16335452368E+04  0.25500000920E-02 0.  1.
        2   -1    0    0  501    0  0.00000000000E+00  0.00000000000E+00 -0.18216303235E+04  0.18216303235E+04  0.25500000920E-02 0. -1.
    10030    2    1    2    0    0  0.00000000000E+00  0.00000000000E+00 -0.18808508665E+03  0.34551755603E+04  0.34500524855E+04 0.  0.
        3    1    3    3  502    0 -0.14743798886E+04  0.89523228826E+03 -0.72132625236E+02  0.17263950972E+04  0.10100000352E+00 0. -1.
       -3    1    3    3    0  502  0.14743798886E+04 -0.89523228826E+03 -0.11595246141E+03  0.17287804630E+04  0.10100000352E+00 0.  1.
</event>
<event>
 5   0  0.4125758E-07  0.3433512E+04  0.7818609E-02  0.8129730E-01
       -1   -1    0    0    0  501  0.00000000000E+00  0.00000000000E+00  0.16686165278E+04  0.16686165278E+04  0.50400001928E-02 0.  1.
        1   -1    0    0  501    0  0.00000000000E+00  0.00000000000E+00 -0.17662839906E+04  0.17662839906E+04  0.50400001928E-02 0. -1.
    10030    2    1    2    0    0  0.00000000000E+00  0.00000000000E+00 -0.97667462814E+02  0.34349005184E+04  0.34335117065E+04 0.  0.
        2    1    3    3  502    0 -0.35148330943E+03 -0.14351716730E+04  0.82558641205E+03  0.16925871238E+04  0.25500000920E-02 0.  1.
       -2    1    3    3    0  502  0.35148330943E+03  0.14351716730E+04 -0.92325387487E+03  0.17423133947E+04  0.25500000920E-02 0. -1.
</event>
<event>
 5   0  0.4109937E-07  0.3429315E+04  0.7818609E-02  0.8130749E-01
       -1   -1    0    0    0  501  0.00000000000E+00  0.00000000000E+00  0.16664560523E+04  0.16664560523E+04  0.50400001928E-02 0.  1.
        1   -1    0    0  501    0  0.00000000000E+00  0.00000000000E+00 -0.17642528550E+04  0.17642528550E+04  0.50400001928E-02 0. -1.
    10030    2    1    2    0    0  0.00000000000E+00  0.00000000000E+00 -0.97796802615E+02  0.34307089073E+04  0.34293147117E+04 0.  0.
        5    1    3    3  502    0 -0.87699443411E+03  0.16194680957E+03  0.14161701828E+04  0.16735907754E+04  0.46999998093E+01 0.  1.
       -5    1    3    3    0  502  0.87699443411E+03 -0.16194680957E+03 -0.15139669855E+04  0.17571181320E+04  0.46999998093E+01 0. -1.
</event>
<event>
 5   0  0.1256208E-06  0.3018840E+04  0.7818609E-02  0.8238371E-01
        2   -1    0    0  501    0  0.00000000000E+00  0.00000000000E+00  0.14305423915E+04  0.14305423915E+04  0.25500000920E-02 0. -1.
       -2   -1    0    0    0  501  0.00000000000E+00  0.00000000000E+00 -0.15926466393E+04  0.15926466393E+04  0.25500000920E-02 0.  1.
    10030    2    1    2    0    0  0.00000000000E+00  0.00000000000E+00 -0.16210424785E+03  0.30231890308E+04  0.30188398647E+04 0.  0.
        3    1    3    3  502    0  0.77972224292E+02  0.92804757056E+03 -0.12706171972E+04  0.15753793299E+04  0.10100000352E+00 0.  1.
       -3    1    3    3    0  502 -0.77972224292E+02 -0.92804757056E+03  0.11085129494E+04  0.14478097009E+04  0.10100000352E+00 0. -1.
</event>
<event>
 5   0  0.1256208E-06  0.3253825E+04  0.7818609E-02  0.8174745E-01
       -2   -1    0    0    0  501  0.00000000000E+00  0.00000000000E+00  0.25038160730E+04  0.25038160730E+04  0.25500000920E-02 0. -1.
        2   -1    0    0  501    0  0.00000000000E+00  0.00000000000E+00 -0.10571239202E+04  0.10571239202E+04  0.25500000920E-02 0.  1.
    10030    2    1    2    0    0  0.00000000000E+00  0.00000000000E+00  0.14466921528E+04  0.35609399932E+04  0.32538247418E+04 0.  0.
        3    1    3    3  502    0 -0.12420788015E+04 -0.90821036825E+03  0.13016521867E+04  0.20154166436E+04  0.10100000352E+00 0.  1.
       -3    1    3    3    0  502  0.12420788015E+04  0.90821036825E+03  0.14503996601E+03  0.15455233495E+04  0.10100000352E+00 0. -1.
</event>
<event>
 5   0  0.1268230E-06  0.3375565E+04  0.7818609E-02  0.8143930E-01
       -2   -1    0    0    0  501  0.00000000000E+00  0.00000000000E+00  0.17441750735E+04  0.17441750735E+04  0.25500000920E-02 0. -1.
        2   -1    0    0  501    0  0.00000000000E+00  0.00000000000E+00 -0.16332128964E+04  0.16332128964E+04  0.25500000920E-02 0.  1.
    10030    2    1    2    0    0  0.00000000000E+00  0.00000000000E+00  0.11096217710E+03  0.33773879698E+04  0.33755646778E+04 0.  0.
        2    1    3    3  502    0 -0.54358743057E+03  0.14104721496E+04 -0.69571752471E+03  0.16640137781E+04  0.25500000920E-02 0.  1.
       -2    1    3    3    0  502  0.54358743057E+03 -0.14104721496E+04  0.80667970181E+03  0.17133741917E+04  0.25500000920E-02 0. -1.
</event>
<event>
 5   0  0.4272633E-07  0.3403785E+04  0.7818609E-02  0.8136978E-01
       -1   -1    0    0    0  501  0.00000000000E+00  0.00000000000E+00  0.14173459431E+04  0.14173459431E+04  0.50400001928E-02 0. -1.
        1   -1    0    0  501    0  0.00000000000E+00  0.00000000000E+00 -0.20435647805E+04  0.20435647806E+04  0.50400001928E-02 0.  1.
    10030    2    1    2    0    0  0.00000000000E+00  0.00000000000E+00 -0.62621883748E+03  0.34609107236E+04  0.34037850996E+04 0.  0.
        1    1    3    3  502    0  0.14119830225E+04 -0.93226428388E+03 -0.12665931041E+03  0.16967189903E+04  0.50400001928E-02 0.  1.
       -1    1    3    3    0  502 -0.14119830225E+04  0.93226428388E+03 -0.49955952707E+03  0.17641917334E+04  0.50400001928E-02 0. -1.
</event>
<event>
 5   0  0.1277635E-06  0.3363519E+04  0.7818609E-02  0.8146918E-01
       -2   -1    0    0    0  501  0.00000000000E+00  0.00000000000E+00  0.12212967854E+04  0.12212967854E+04  0.25500000920E-02 0.  1.
        2   -1    0    0  501    0  0.00000000000E+00  0.00000000000E+00 -0.23158290897E+04  0.23158290897E+04  0.25500000920E-02 0. -1.
    10030    2    1    2    0    0  0.00000000000E+00  0.00000000000E+00 -0.10945323043E+04  0.35371258750E+04  0.33635187662E+04 0.  0.
        4    1    3    3  502    0  0.11320792683E+04  0.84235144664E+03 -0.15094525866E+04  0.20663030159E+04  0.12699999809E+01 0. -1.
       -4    1    3    3    0  502 -0.11320792683E+04 -0.84235144664E+03  0.41492028229E+03  0.14708228591E+04  0.12699999809E+01 0.  1.
</event>
<event>
 5   0  0.1256208E-06  0.3393557E+04  0.7818609E-02  0.8139489E-01
        2   -1    0    0  501    0  0.00000000000E+00  0.00000000000E+00  0.26730239335E+04  0.26730239335E+04  0.25500000920E-02 0.  1.
       -2   -1    0    0    0  501  0.00000000000E+00  0.00000000000E+00 -0.10770788005E+04  0.10770788005E+04  0.25500000920E-02 0. -1.
    10030    2    1    2    0    0  0.00000000000E+00  0.00000000000E+00  0.15959451330E+04  0.37501027340E+04  0.33935570789E+04 0.  0.
        3    1    3    3  502    0 -0.91281697041E+03  0.12432785972E+04  0.15794350715E+04  0.22076212644E+04  0.10100000352E+00 0.  1.
       -3    1    3    3    0  502  0.91281697041E+03 -0.12432785972E+04  0.16510061454E+02  0.15424814696E+04  0.10100000352E+00 0. -1.
</event>
<event>
 5   0  0.4125758E-07  0.3256611E+04  0.7818609E-02  0.8174024E-01
       -1   -1    0    0    0  501  0.00000000000E+00  0.00000000000E+00  0.25865477631E+04  0.25865477631E+04  0.50400001928E-02 0.  1.
        1   -1    0    0  501    0  0.00000000000E+00  0.00000000000E+00 -0.10250643971E+04  0.10250643971E+04  0.50400001928E-02 0. -1.
    10030    2    1    2    0    0  0.00000000000E+00  0.00000000000E+00  0.15614833660E+04  0.36116121602E+04  0.32566105222E+04 0.  0.
        2    1    3    3  502    0 -0.78308008555E+03 -0.96825876172E+03  0.19442182731E+04  0.23088361015E+04  0.25500000920E-02 0.  1.
       -2    1    3    3    0  502  0.78308008555E+03  0.96825876172E+03 -0.38273490710E+03  0.13027760587E+04  0.25500000920E-02 0. -1.
</event>
<event>
 5   0  0.4272633E-07  0.3355462E+04  0.7818609E-02  0.8148925E-01
        1   -1    0    0  501    0  0.00000000000E+00  0.00000000000E+00  0.23009821490E+04  0.23009821490E+04  0.50400001928E-02 0.  1.
       -1   -1    0    0    0  501  0.00000000000E+00  0.00000000000E+00 -0.12232955362E+04  0.12232955362E+04  0.50400001928E-02 0. -1.
    10030    2    1    2    0    0  0.00000000000E+00  0.00000000000E+00  0.10776866128E+04  0.35242776852E+04  0.33554619305E+04 0.  0.
        1    1    3    3  502    0 -0.53024489347E+03  0.13914653465E+04 -0.27299032105E+03  0.15138887584E+04  0.50400001928E-02 0. -1.
       -1    1    3    3    0  502  0.53024489347E+03 -0.13914653465E+04  0.13506769338E+04  0.20103889268E+04  0.50400001928E-02 0.  1.
</event>
<event>
 5   0  0.1300176E-06  0.3366955E+04  0.7818609E-02  0.8146065E-01
       -2   -1    0    0    0  501  0.00000000000E+00  0.00000000000E+00  0.11666883677E+04  0.11666883677E+04  0.25500000920E-02 0. -1.
        2   -1    0    0  501    0  0.00000000000E+00  0.00000000000E+00 -0.24291802067E+04  0.24291802067E+04  0.25500000920E-02 0.  1.
    10030    2    1    2    0    0  0.00000000000E+00  0.00000000000E+00 -0.12624918390E+04  0.35958685744E+04  0.33669548795E+04 0.  0.
        1    1    3    3  502    0 -0.35409656900E+03 -0.68302647318E+03  0.96795269351E+03  0.12364634892E+04  0.50400001928E-02 0. -1.
       -1    1    3    3    0  502  0.35409656900E+03  0.68302647318E+03 -0.22304445325E+04  0.23594050852E+04  0.50400001928E-02 0.  1.
</event>
<event>
 5   0  0.4109937E-07  0.3340579E+04  0.7818609E-02  0.8152646E-01
       -1   -1    0    0    0  501  0.00000000000E+00  0.00000000000E+00  0.13212406791E+04  0.13212406791E+04  0.50400001928E-02 0.  1.
        1   -1    0    0  501    0  0.00000000000E+00  0.00000000000E+00 -0.21115515581E+04  0.21115515581E+04  0.50400001928E-02 0. -1.
    10030    2    1    2    0    0  0.00000000000E+00  0.00000000000E+00 -0.79031087900E+03  0.34327922371E+04  0.33405794794E+04 0.  0.
        5    1    3    3  502    0 -0.67588011548E+03  0.51347890191E+03 -0.18733953107E+04  0.20567222937E+04  0.46999998093E+01 0. -1.
       -5    1    3    3    0  502  0.67588011548E+03 -0.51347890191E+03  0.10830844317E+04  0.13760699435E+04  0.46999998093E+01 0.  1.
</event>
<event>
 5   0  0.4272633E-07  0.3352591E+04  0.7818609E-02  0.8149641E-01
        1   -1    0    0  501    0  0.00000000000E+00  0.00000000000E+00  0.18481239071E+04  0.18481239071E+04  0.50400001928E-02 0.  1.
       -1   -1    0    0    0  501  0.00000000000E+00  0.00000000000E+00 -0.15204423522E+04  0.15204423522E+04  0.50400001928E-02 0. -1.
    10030    2    1    2    0    0  0.00000000000E+00  0.00000000000E+00  0.32768155487E+03  0.33685662592E+04  0.33525905568E+04 0.  0.
        1    1    3    3  502    0  0.11057272933E+04 -0.80780398779E+02 -0.10994521836E+04  0.15613947047E+04  0.50400001928E-02 0. -1.
       -1    1    3    3    0  502 -0.11057272933E+04  0.80780398779E+02  0.14271337385E+04  0.18071715545E+04  0.50400001928E-02 0.  1.
</event>
<event>
 5   0  0.1256208E-06  0.3419733E+04  0.7818609E-02  0.8133080E-01
       -2   -1    0    0    0  501  0.00000000000E+00  0.00000000000E+00  0.16303786131E+04  0.16303786131E+04  0.25500000920E-02 0.  1.
        2   -1    0    0  501    0  0.00000000000E+00  0.00000000000E+00 -0.17932293444E+04  0.17932293444E+04  0.25500000920E-02 0. -1.
    10030    2    1    2    0    0  0.00000000000E+00  0.00000000000E+00 -0.16285073132E+03  0.34236079575E+04  0.34197326044E+04 0.  0.
        3    1    3    3  502    0 -0.63631972194E+03  0.67525893427E+03 -0.15192859917E+04  0.17801986832E+04  0.10100000352E+00 0. -1.
       -3    1    3    3    0  502  0.63631972194E+03 -0.67525893427E+03  0.13564352604E+04  0.16434092742E+04  0.10100000352E+00 0.  1.
</event>
<event>
 5   0  0.4272633E-07  0.3409707E+04  0.7818609E-02  0.8135528E-01
        1   -1    0    0  501    0  0.00000000000E+00  0.00000000000E+00  0.22822528716E+04  0.22822528716E+04  0.50400001928E-02 0.  1.
       -1   -1    0    0    0  501  0.00000000000E+00  0.00000000000E+00 -0.12735332261E+04  0.12735332261E+04  0.50400001928E-02 0. -1.
    10030    2    1    2    0    0  0.00000000000E+00  0.00000000000E+00  0.10087196455E+04  0.35557860976E+04  0.34097066514E+04 0.  0.
        1    1    3    3  502    0 -0.10782131523E+04 -0.51048643721E+03  0.17744820947E+04  0.21382064233E+04  0.50400001928E-02 0.  1.
       -1    1    3    3    0  502  0.10782131523E+04  0.51048643721E+03 -0.76576244923E+03  0.14175796743E+04  0.50400001928E-02 0. -1.
</event>
<event>
 5   0  0.4272633E-07  0.3370704E+04  0.7818609E-02  0.8145134E-01
       -1   -1    0    0    0  501  0.00000000000E+00  0.00000000000E+00  0.23264640409E+04  0.23264640409E+04  0.50400001928E-02 0.  1.
        1   -1    0    0  501    0  0.00000000000E+00  0.00000000000E+00 -0.12209135029E+04  0.12209135030E+04  0.50400001928E-02 0. -1.
    10030    2    1    2    0    0  0.00000000000E+00  0.00000000000E+00  0.11055505380E+04  0.35473775439E+04  0.33707039987E+04 0.  0.
        1    1    3    3  502    0  0.43347008909E+03 -0.98982623061E+03 -0.80836691531E+03  0.13494848479E+04  0.50400001928E-02 0. -1.
       -1    1    3    3    0  502 -0.43347008909E+03  0.98982623061E+03  0.19139174533E+04  0.21978926960E+04  0.50400001928E-02 0.  1.
</event>
<event>
 5   0  0.4125758E-07  0.3370320E+04  0.7818609E-02  0.8145229E-01
       -1   -1    0    0    0  501  0.00000000000E+00  0.00000000000E+00  0.15119599684E+04  0.15119599684E+04  0.50400001928E-02 0. -1.
        1   -1    0    0  501    0  0.00000000000E+00  0.00000000000E+00 -0.18782006311E+04  0.18782006311E+04  0.50400001928E-02 0.  1.
    10030    2    1    2    0    0  0.00000000000E+00  0.00000000000E+00 -0.36624066263E+03  0.33901605995E+04  0.33703199652E+04 0.  0.
        2    1    3    3  502    0 -0.58761218227E+03  0.12988613802E+04  0.72074344085E+03  0.15974354664E+04  0.25500000920E-02 0. -1.
       -2    1    3    3    0  502  0.58761218227E+03 -0.12988613802E+04 -0.10869841035E+04  0.17927251331E+04  0.25500000920E-02 0.  1.
</event>
<event>
 5   0  0.1300176E-06  0.3378878E+04  0.7818609E-02  0.8143110E-01
       -2   -1    0    0    0  501  0.00000000000E+00  0.00000000000E+00  0.11116417186E+04  0.11116417186E+04  0.25500000920E-02 0. -1.
        2   -1    0    0  501    0  0.00000000000E+00  0.00000000000E+00 -0.25675570996E+04  0.25675570996E+04  0.25500000920E-02 0.  1.
    10030    2    1    2    0    0  0.00000000000E+00  0.00000000000E+00 -0.14559153810E+04  0.36791988182E+04  0.33788776757E+04 0.  0.
        1    1    3    3  502    0 -0.77864225559E+03  0.11328316237E+03 -0.23558586516E+04  0.24837847780E+04  0.50400001928E-02 0.  1.
       -1    1    3    3    0  502  0.77864225559E+03 -0.11328316237E+03  0.89994327062E+03  0.11954140402E+04  0.50400001928E-02 0. -1.
</event>
<event>
 5   0  0.1256208E-06  0.3377691E+04  0.7818609E-02  0.8143403E-01
       -2   -1    0    0    0  501  0.00000000000E+00  0.00000000000E+00  0.16894504791E+04  0.16894504791E+04  0.25500000920E-02 0. -1.
        2   -1    0    0  501    0  0.00000000000E+00  0.00000000000E+00 -0.16882411022E+04  0.16882411022E+04  0.25500000920E-02 0.  1.
    10030    2    1    2    0    0  0.00000000000E+00  0.00000000000E+00  0.12093769644E+01  0.33776915813E+04  0.33776913648E+04 0.  0.
        3    1    3    3  502    0 -0.10326702266E+04 -0.11534954315E+04  0.67531965019E+03  0.16890873712E+04  0.10100000352E+00 0.  1.
       -3    1    3    3    0  502  0.10326702266E+04  0.11534954315E+04 -0.67411027323E+03  0.16886042101E+04  0.10100000352E+00 0. -1.
</event>
<event>
 5   0  0.1268230E-06  0.3298533E+04  0.7818609E-02  0.8163269E-01
       -2   -1    0    0    0  501  0.00000000000E+00  0.00000000000E+00  0.92536156685E+03  0.92536156686E+03  0.25500000920E-02 0. -1.
        2   -1    0    0  501    0  0.00000000000E+00  0.00000000000E+00 -0.29394787332E+04  0.29394787332E+04  0.25500000920E-02 0.  1.
    10030    2    1    2    0    0  0.00000000000E+00  0.00000000000E+00 -0.20141171664E+04  0.38648403001E+04  0.32985333991E+04 0.  0.
        2    1    3    3  502    0  0.39860827746E+03  0.15931397693E+04 -0.82898658738E+03  0.18396199731E+04  0.25500000920E-02 0. -1.
       -2    1    3    3    0  502 -0.39860827746E+03 -0.15931397693E+04 -0.11851305790E+04  0.20252203270E+04  0.25500000920E-02 0.  1.
</event>
<event>
 5   0  0.1277635E-06  0.3412670E+04  0.7818609E-02  0.8134804E-01
        2   -1    0    0  501    0  0.00000000000E+00  0.00000000000E+00  0.14459054059E+04  0.14459054059E+04  0.25500000920E-02 0. -1.
       -2   -1    0    0    0  501  0.00000000000E+00  0.00000000000E+00 -0.20136724024E+04  0.20136724024E+04  0.25500000920E-02 0.  1.
    10030    2    1    2    0    0  0.00000000000E+00  0.00000000000E+00 -0.56776699652E+03  0.34595778083E+04  0.34126703986E+04 0.  0.
        4    1    3    3  502    0 -0.22753910387E+03  0.12427720943E+04 -0.14465221209E+04  0.19205947988E+04  0.12699999809E+01 0.  1.
       -4    1    3    3    0  502  0.22753910387E+03 -0.12427720943E+04  0.87875512435E+03  0.15389830095E+04  0.12699999809E+01 0. -1.
</event>
<event>
 5   0  0.1256208E-06  0.3275847E+04  0.7818609E-02  0.8169068E-01
        2   -1    0    0  501    0  0.00000000000E+00  0.00000000000E+00  0.16040489115E+04  0.16040489115E+04  0.25500000920E-02 0. -1.
       -2   -1    0    0    0  501  0.00000000000E+00  0.00000000000E+00 -0.16725138114E+04  0.16725138114E+04  0.25500000920E-02 0.  1.
    10030    2    1    2    0    0  0.00000000000E+00  0.00000000000E+00 -0.68464899855E+02  0.32765627229E+04  0.32758473460E+04 0.  0.
        3    1    3    3  502    0  0.15994075526E+04  0.26989999448E+03 -0.26197367922E+03  0.16430400924E+04  0.10100000352E+00 0. -1.
       -3    1    3    3    0  502 -0.15994075526E+04 -0.26989999448E+03  0.19350877936E+03  0.16335226305E+04  0.10100000352E+00 0.  1.
</event>
<event>
 5   0  0.4272633E-07  0.3423712E+04  0.7818609E-02  0.8132111E-01
        1   -1    0    0  501    0  0.00000000000E+00  0.00000000000E+00  0.24594599852E+04  0.24594599852E+04  0.50400001928E-02 0. -1.
       -1   -1    0    0    0  501  0.00000000000E+00  0.00000000000E+00 -0.11915015096E+04  0.11915015096E+04  0.50400001928E-02 0.  1.
    10030    2    1    2    0    0  0.00000000000E+00  0.00000000000E+00  0.12679584756E+04  0.36509614949E+04  0.34237116031E+04 0.  0.
        1    1    3    3  502    0 -0.99710513323E+03  0.42842003205E+03 -0.77778564259E+03  0.13351827127E+04  0.50400001928E-02 0.  1.
       -1    1    3    3    0  502  0.99710513323E+03 -0.42842003205E+03  0.20457441182E+04  0.23157787821E+04  0.50400001928E-02 0. -1.
</event>
<event>
 5   0  0.1277635E-06  0.3390436E+04  0.7818609E-02  0.8140258E-01
        2   -1    0    0  501    0  0.00000000000E+00  0.00000000000E+00  0.18293489075E+04  0.18293489075E+04  0.25500000920E-02 0. -1.
       -2   -1    0    0    0  501  0.00000000000E+00  0.00000000000E+00 -0.15709216502E+04  0.15709216502E+04  0.25500000920E-02 0.  1.
    10030    2    1    2    0    0  0.00000000000E+00  0.00000000000E+00  0.25842725726E+03  0.34002705577E+04  0.33904358448E+04 0.  0.
        4    1    3    3  502    0  0.70668552423E+03 -0.29824259914E+03 -0.13869285209E+04  0.15849054903E+04  0.12699999809E+01 0.  1.
       -4    1    3    3    0  502 -0.70668552423E+03  0.29824259914E+03  0.16453557782E+04  0.18153650674E+04  0.12699999809E+01 0. -1.
</event>
<event>
 5   0  0.1268230E-06  0.3377001E+04  0.7818609E-02  0.8143574E-01
       -2   -1    0    0    0  501  0.00000000000E+00  0.00000000000E+00  0.13984870607E+04  0.13984870607E+04  0.25500000920E-02 0.  1.
        2   -1    0    0  501    0  0.00000000000E+00  0.00000000000E+00 -0.20386559430E+04  0.20386559430E+04  0.25500000920E-02 0. -1.
    10030    2    1    2    0    0  0.00000000000E+00  0.00000000000E+00 -0.64016888227E+03  0.34371430037E+04  0.33770010112E+04 0.  0.
        2    1    3    3  502    0 -0.34135879174E+03  0.61001725648E+03 -0.18844633070E+04  0.20099375198E+04  0.25500000920E-02 0. -1.
       -2    1    3    3    0  502  0.34135879174E+03 -0.61001725648E+03  0.12442944247E+04  0.14272054839E+04  0.25500000920E-02 0.  1.
</event>
<event>
 5   0  0.4125758E-07  0.3398320E+04  0.7818609E-02  0.8138319E-01
        1   -1    0    0  501    0  0.00000000000E+00  0.00000000000E+00  0.22749171372E+04  0.22749171372E+04  0.50400001928E-02 0.  1.
       -1   -1    0    0    0  501  0.00000000000E+00  0.00000000000E+00 -0.12691209031E+04  0.12691209032E+04  0.50400001928E-02 0. -1.
    10030    2    1    2    0    0  0.00000000000E+00  0.00000000000E+00  0.10057962341E+04  0.35440380404E+04  0.33983201096E+04 0.  0.
        2    1    3    3  502    0 -0.31386387268E+03 -0.15507453450E+04  0.11489980868E+04  0.19553818704E+04  0.25500000920E-02 0.  1.
       -2    1    3    3    0  502  0.31386387268E+03  0.15507453450E+04 -0.14320185269E+03  0.15886561700E+04  0.25500000920E-02 0. -1.
</event>
<event>
 5   0  0.4125758E-07  0.3383754E+04  0.7818609E-02  0.8141905E-01
        1   -1    0    0  501    0  0.00000000000E+00  0.00000000000E+00  0.25000053225E+04  0.25000053225E+04  0.50400001928E-02 0. -1.
       -1   -1    0    0    0  501  0.00000000000E+00  0.00000000000E+00 -0.11449769122E+04  0.11449769122E+04  0.50400001928E-02 0.  1.
    10030    2    1    2    0    0  0.00000000000E+00  0.00000000000E+00  0.13550284103E+04  0.36449822346E+04  0.33837543495E+04 0.  0.
        2    1    3    3  502    0 -0.59731853818E+03 -0.22865647095E+03  0.23647608396E+04  0.24497279535E+04  0.25500000920E-02 0. -1.
       -2    1    3    3    0  502  0.59731853818E+03  0.22865647095E+03 -0.10097324293E+04  0.11952542811E+04  0.25500000920E-02 0.  1.
</event>
<event>
 5   0  0.1300176E-06  0.3320023E+04  0.7818609E-02  0.8157819E-01
        2   -1    0    0  501    0  0.00000000000E+00  0.00000000000E+00  0.21029429013E+04  0.21029429013E+04  0.25500000920E-02 0. -1.
       -2   -1    0    0    0  501  0.00000000000E+00  0.00000000000E+00 -0.13103720422E+04  0.13103720422E+04  0.25500000920E-02 0.  1.
    10030    2    1    2    0    0  0.00000000000E+00  0.00000000000E+00  0.79257085912E+03  0.34133149434E+04  0.33200226409E+04 0.  0.
        1    1    3    3  502    0  0.12984692072E+04  0.71721320567E+03  0.11623547514E+04  0.18845385728E+04  0.50400001928E-02 0. -1.
       -1    1    3    3    0  502 -0.12984692072E+04 -0.71721320567E+03 -0.36978389226E+03  0.15287763706E+04  0.50400001928E-02 0.  1.
</event>
<event>
 5   0  0.4272633E-07  0.3536722E+04  0.7818609E-02  0.8105142E-01
       -1   -1    0    0    0  501  0.00000000000E+00  0.00000000000E+00  0.14227626285E+04  0.14227626286E+04  0.50400001928E-02 0. -1.
        1   -1    0    0  501    0  0.00000000000E+00  0.00000000000E+00 -0.21979073883E+04  0.21979073883E+04  0.50400001928E-02 0.  1.
    10030    2    1    2    0    0  0.00000000000E+00  0.00000000000E+00 -0.77514475972E+03  0.36206700168E+04  0.35367219246E+04 0.  0.
        1    1    3    3  502    0  0.89358051245E+03  0.39513602333E+03 -0.18964920246E+04  0.21333777464E+04  0.50400001928E-02 0.  1.
       -1    1    3    3    0  502 -0.89358051245E+03 -0.39513602333E+03  0.11213472649E+04  0.14872922705E+04  0.50400001928E-02 0. -1.
</event>
<event>
 5   0  0.4109937E-07  0.3366822E+04  0.7818609E-02  0.8146098E-01
        1   -1    0    0  501    0  0.00000000000E+00  0.00000000000E+00  0.19817057807E+04  0.19817057807E+04  0.50400001928E-02 0. -1.
       -1   -1    0    0    0  501  0.00000000000E+00  0.00000000000E+00 -0.14300170752E+04  0.14300170753E+04  0.50400001928E-02 0.  1.
    10030    2    1    2    0    0  0.00000000000E+00  0.00000000000E+00  0.55168870549E+03  0.34117228560E+04  0.33668223028E+04 0.  0.
        5    1    3    3  502    0  0.33996658671E+03 -0.57588882997E+03 -0.12896291250E+04  0.14527183467E+04  0.46999998093E+01 0.  1.
       -5    1    3    3    0  502 -0.33996658671E+03  0.57588882997E+03  0.18413178305E+04  0.19590045093E+04  0.46999998093E+01 0. -1.
</event>
<event>
 5   0  0.4272633E-07  0.3366213E+04  0.7818609E-02  0.8146249E-01
        1   -1    0    0  501    0  0.00000000000E+00  0.00000000000E+00  0.22698490973E+04  0.22698490973E+04  0.50400001928E-02 0. -1.
       -1   -1    0    0    0  501  0.00000000000E+00  0.00000000000E+00 -0.12480331124E+04  0.12480331124E+04  0.50400001928E-02 0.  1.
    10030    2    1    2    0    0  0.00000000000E+00  0.00000000000E+00  0.10218159849E+04  0.35178822098E+04  0.33662126099E+04 0.  0.
        1    1    3    3  502    0  0.27725427539E+03  0.16340400524E+04  0.81718265614E+03  0.18479026813E+04  0.50400001928E-02 0. -1.
       -1    1    3    3    0  502 -0.27725427539E+03 -0.16340400524E+04  0.20463332876E+03  0.16699795284E+04  0.50400001928E-02 0.  1.
</event>
<event>
 5   0  0.4464951E-07  0.3390510E+04  0.7818609E-02  0.8140240E-01
       -1   -1    0    0    0  501  0.00000000000E+00  0.00000000000E+00  0.10429243949E+04  0.10429243949E+04  0.50400001928E-02 0.  1.
        1   -1    0    0  501    0  0.00000000000E+00  0.00000000000E+00 -0.27556059835E+04  0.27556059835E+04  0.50400001928E-02 0. -1.
    10030    2    1    2    0    0  0.00000000000E+00  0.00000000000E+00 -0.17126815886E+04  0.37985303785E+04  0.33905095210E+04 0.  0.
        3    1    3    3  502    0 -0.58427475184E+03  0.18261037841E+02 -0.26391208712E+04  0.27030851696E+04  0.10100000352E+00 0. -1.
       -3    1    3    3    0  502  0.58427475184E+03 -0.18261037841E+02  0.92643928259E+03  0.10954452089E+04  0.10100000352E+00 0.  1.
</event>
<event>
 5   0  0.1256208E-06  0.3414445E+04  0.7818609E-02  0.8134370E-01
       -2   -1    0    0    0  501  0.00000000000E+00  0.00000000000E+00  0.17147141215E+04  0.17147141215E+04  0.25500000920E-02 0. -1.
        2   -1    0    0  501    0  0.00000000000E+00  0.00000000000E+00 -0.16997638429E+04  0.16997638429E+04  0.25500000920E-02 0.  1.
    10030    2    1    2    0    0  0.00000000000E+00  0.00000000000E+00  0.14950278560E+02  0.34144779644E+04  0.34144452344E+04 0.  0.
        3    1    3    3  502    0  0.69975076761E+03  0.70962360357E+03 -0.13786810911E+04  0.17011697025E+04  0.10100000352E+00 0.  1.
       -3    1    3    3    0  502 -0.69975076761E+03 -0.70962360357E+03  0.13936313697E+04  0.17133082619E+04  0.10100000352E+00 0. -1.
</event>
<event>
 5   0  0.1300176E-06  0.3399744E+04  0.7818609E-02  0.8137969E-01
       -2   -1    0    0    0  501  0.00000000000E+00  0.00000000000E+00  0.11478716209E+04  0.11478716209E+04  0.25500000920E-02 0. -1.
        2   -1    0    0  501    0  0.00000000000E+00  0.00000000000E+00 -0.25173235230E+04  0.25173235230E+04  0.25500000920E-02 0.  1.
    10030    2    1    2    0    0  0.00000000000E+00  0.00000000000E+00 -0.13694519021E+04  0.36651951438E+04  0.33997436565E+04 0.  0.
        1    1    3    3  502    0  0.87334448986E+03  0.14300249852E+04 -0.37627041201E+03  0.17173472215E+04  0.50400001928E-02 0. -1.
       -1    1    3    3    0  502 -0.87334448986E+03 -0.14300249852E+04 -0.99318149007E+03  0.19478479223E+04  0.50400001928E-02 0.  1.
</event>
<event>
 5   0  0.1277635E-06  0.3408786E+04  0.7818609E-02  0.8135753E-01
        2   -1    0    0  501    0  0.00000000000E+00  0.00000000000E+00  0.18675390409E+04  0.18675390409E+04  0.25500000920E-02 0. -1.
       -2   -1    0    0    0  501  0.00000000000E+00  0.00000000000E+00 -0.15554989562E+04  0.15554989562E+04  0.25500000920E-02 0.  1.
    10030    2    1    2    0    0  0.00000000000E+00  0.00000000000E+00  0.31204008475E+03  0.34230379971E+04  0.34087857245E+04 0.  0.
        4    1    3    3  502    0  0.48682096837E+03 -0.25978892099E+03 -0.14633191026E+04  0.15639019623E+04  0.12699999809E+01 0.  1.
       -4    1    3    3    0  502 -0.48682096837E+03  0.25978892099E+03  0.17753591874E+04  0.18591360348E+04  0.12699999809E+01 0. -1.
</event>
<event>
 5   0  0.4125758E-07  0.3328674E+04  0.7818609E-02  0.8155637E-01
       -1   -1    0    0    0  501  0.00000000000E+00  0.00000000000E+00  0.17938265465E+04  0.17938265465E+04  0.50400001928E-02 0.  1.
        1   -1    0    0  501    0  0.00000000000E+00  0.00000000000E+00 -0.15441951966E+04  0.15441951966E+04  0.50400001928E-02 0. -1.
    10030    2    1    2    0    0  0.00000000000E+00  0.00000000000E+00  0.24963134987E+03  0.33380217431E+04  0.33286744128E+04 0.  0.
        2    1    3    3  502    0  0.35318387705E+03  0.12069695032E+04  0.12180624036E+04  0.17507684746E+04  0.25500000920E-02 0.  1.
       -2    1    3    3    0  502 -0.35318387705E+03 -0.12069695032E+04 -0.96843105373E+03  0.15872532685E+04  0.25500000920E-02 0. -1.
</event>
<event>
 5   0  0.1269497E-06  0.3398941E+04  0.7818609E-02  0.8138166E-01
        2   -1    0    0  501    0  0.00000000000E+00  0.00000000000E+00  0.30133742537E+04  0.30133742537E+04  0.25500000920E-02 0.  1.
       -2   -1    0    0    0  501  0.00000000000E+00  0.00000000000E+00 -0.95846021788E+03  0.95846021788E+03  0.25500000920E-02 0. -1.
    10030    2    1    2    0    0  0.00000000000E+00  0.00000000000E+00  0.20549140359E+04  0.39718344716E+04  0.33989406254E+04 0.  0.
        5    1    3    3  502    0  0.12649024209E+04  0.10965209569E+04  0.13698262434E+04  0.21630493222E+04  0.46999998093E+01 0. -1.
       -5    1    3    3    0  502 -0.12649024209E+04 -0.10965209569E+04  0.68508779247E+03  0.18087851494E+04  0.46999998093E+01 0.  1.
</event>
<event>
 5   0  0.1269497E-06  0.3400349E+04  0.7818609E-02  0.8137821E-01
        2   -1    0    0  501    0  0.00000000000E+00  0.00000000000E+00  0.19074950772E+04  0.19074950772E+04  0.25500000920E-02 0. -1.
       -2   -1    0    0    0  501  0.00000000000E+00  0.00000000000E+00 -0.15153872391E+04  0.15153872391E+04  0.25500000920E-02 0.  1.
    10030    2    1    2    0    0  0.00000000000E+00  0.00000000000E+00  0.39210783813E+03  0.34228823163E+04  0.34003492165E+04 0.  0.
        5    1    3    3  502    0 -0.14065854135E+04 -0.68906839910E+03  0.86170277007E+03  0.17876944756E+04  0.46999998093E+01 0. -1.
       -5    1    3    3    0  502  0.14065854135E+04  0.68906839910E+03 -0.46959493194E+03  0.16351878407E+04  0.46999998093E+01 0.  1.
</event>
<event>
 5   0  0.1256208E-06  0.3380619E+04  0.7818609E-02  0.8142680E-01
        2   -1    0    0  501    0  0.00000000000E+00  0.00000000000E+00  0.22720459792E+04  0.22720459792E+04  0.25500000920E-02 0.  1.
       -2   -1    0    0    0  501  0.00000000000E+00  0.00000000000E+00 -0.12575209338E+04  0.12575209338E+04  0.25500000920E-02 0. -1.
    10030    2    1    2    0    0  0.00000000000E+00  0.00000000000E+00  0.10145250455E+04  0.35295669130E+04  0.33806185123E+04 0.  0.
        3    1    3    3  502    0 -0.48467519342E+03  0.12713150900E+04 -0.53992098047E+03  0.14637850855E+04  0.10100000352E+00 0. -1.
       -3    1    3    3    0  502  0.48467519342E+03 -0.12713150900E+04  0.15544460259E+04  0.20657818275E+04  0.10100000352E+00 0.  1.
</event>
<event>
 5   0  0.1269497E-06  0.3367194E+04  0.7818609E-02  0.8146005E-01
        2   -1    0    0  501    0  0.00000000000E+00  0.00000000000E+00  0.21469945215E+04  0.21469945215E+04  0.25500000920E-02 0.  1.
       -2   -1    0    0    0  501  0.00000000000E+00  0.00000000000E+00 -0.13202169865E+04  0.13202169865E+04  0.25500000920E-02 0. -1.
    10030    2    1    2    0    0  0.00000000000E+00  0.00000000000E+00  0.82677753497E+03  0.34672115080E+04  0.33671938687E+04 0.  0.
        5    1    3    3  502    0  0.10971418432E+04 -0.94294337565E+03  0.13001387868E+04  0.19450566544E+04  0.46999998093E+01 0.  1.
       -5    1    3    3    0  502 -0.10971418432E+04  0.94294337565E+03 -0.47336125181E+03  0.15221548537E+04  0.46999998093E+01 0. -1.
</event>
<event>
 5   0  0.1268230E-06  0.3384290E+04  0.7818609E-02  0.8141773E-01
       -2   -1    0    0    0  501  0.00000000000E+00  0.00000000000E+00  0.15843078483E+04  0.15843078483E+04  0.25500000920E-02 0. -1.
        2   -1    0    0  501    0  0.00000000000E+00  0.00000000000E+00 -0.18073217790E+04  0.18073217790E+04  0.25500000920E-02 0.  1.
    10030    2    1    2    0    0  0.00000000000E+00  0.00000000000E+00 -0.22301393069E+03  0.33916296273E+04  0.33842896323E+04 0.  0.
        2    1    3    3  502    0 -0.54563096192E+03 -0.15403885455E+04  0.32858559915E+03  0.16668768742E+04  0.25500000920E-02 0. -1.
       -2    1    3    3    0  502  0.54563096192E+03  0.15403885455E+04 -0.55159952983E+03  0.17247527531E+04  0.25500000920E-02 0.  1.
</event>
<event>
 5   0  0.1269497E-06  0.3418314E+04  0.7818609E-02  0.8133426E-01
        2   -1    0    0  501    0  0.00000000000E+00  0.00000000000E+00  0.26835915657E+04  0.26835915657E+04  0.25500000920E-02 0. -1.
       -2   -1    0    0    0  501  0.00000000000E+00  0.00000000000E+00 -0.10885478200E+04  0.10885478200E+04  0.25500000920E-02 0.  1.
    10030    2    1    2    0    0  0.00000000000E+00  0.00000000000E+00  0.15950437458E+04  0.37721393857E+04  0.34183140573E+04 0.  0.
        5    1    3    3  502    0 -0.13011113013E+04 -0.10147972832E+04  0.12891613448E+04  0.20939587406E+04  0.46999998093E+01 0. -1.
       -5    1    3    3    0  502  0.13011113013E+04  0.10147972832E+04  0.30588240090E+03  0.16781806451E+04  0.46999998093E+01 0.  1.
</event>
<event>
 5   0  0.1268230E-06  0.3415969E+04  0.7818609E-02  0.8133998E-01
       -2   -1    0    0    0  501  0.00000000000E+00  0.00000000000E+00  0.13437582260E+04  0.13437582260E+04  0.25500000920E-02 0. -1.
        2   -1    0    0  501    0  0.00000000000E+00  0.00000000000E+00 -0.21709350575E+04  0.21709350575E+04  0.25500000920E-02 0.  1.
    10030    2    1    2    0    0  0.00000000000E+00  0.00000000000E+00 -0.82717683156E+03  0.35146932835E+04  0.34159694622E+04 0.  0.
        2    1    3    3  502    0  0.22523321361E+03 -0.59194570642E+03  0.12184705958E+04  0.13732444476E+04  0.25500000920E-02 0. -1.
       -2    1    3    3    0  502 -0.22523321361E+03  0.59194570642E+03 -0.20456474274E+04  0.21414488360E+04  0.25500000920E-02 0.  1.
</event>
<event>
 5   0  0.1277635E-06  0.3412552E+04  0.7818609E-02  0.8134833E-01
       -2   -1    0    0    0  501  0.00000000000E+00  0.00000000000E+00  0.19037005450E+04  0.19037005450E+04  0.25500000920E-02 0. -1.
        2   -1    0    0  501    0  0.00000000000E+00  0.00000000000E+00 -0.15293253001E+04  0.15293253001E+04  0.25500000920E-02 0.  1.
    10030    2    1    2    0    0  0.00000000000E+00  0.00000000000E+00  0.37437524488E+03  0.34330258451E+04  0.34125517768E+04 0.  0.
        4    1    3    3  502    0  0.13434262265E+04 -0.54978891350E+03 -0.71502856674E+03  0.16181252546E+04  0.12699999809E+01 0.  1.
       -4    1    3    3    0  502 -0.13434262265E+04  0.54978891350E+03  0.10894038116E+04  0.18149005905E+04  0.12699999809E+01 0. -1.
</event>
<event>
 5   0  0.1300176E-06  0.3396348E+04  0.7818609E-02  0.8138803E-01
       -2   -1    0    0    0  501  0.00000000000E+00  0.00000000000E+00  0.15961426361E+04  0.15961426361E+04  0.25500000920E-02 0. -1.
        2   -1    0    0  501    0  0.00000000000E+00  0.00000000000E+00 -0.18067278825E+04  0.18067278825E+04  0.25500000920E-02 0.  1.
    10030    2    1    2    0    0  0.00000000000E+00  0.00000000000E+00 -0.21058524643E+03  0.34028705185E+04  0.33963482772E+04 0.  0.
        1    1    3    3  502    0 -0.65103761940E+03  0.14470541976E+04 -0.71141682960E+03  0.17389450072E+04  0.50400001928E-02 0.  1.
       -1    1    3    3    0  502  0.65103761940E+03 -0.14470541976E+04  0.50083158318E+03  0.16639255113E+04  0.50400001928E-02 0. -1.
</event>
<event>
 5   0  0.4272633E-07  0.3371248E+04  0.7818609E-02  0.8144999E-01
        1   -1    0    0  501    0  0.00000000000E+00  0.00000000000E+00  0.20146748584E+04  0.20146748585E+04  0.50400001928E-02 0.  1.
       -1   -1    0    0    0  501  0.00000000000E+00  0.00000000000E+00 -0.14103164118E+04  0.14103164118E+04  0.50400001928E-02 0. -1.
    10030    2    1    2    0    0  0.00000000000E+00  0.00000000000E+00  0.60435844665E+03  0.34249912703E+04  0.33712484437E+04 0.  0.
        1    1    3    3  502    0  0.30978960094E+03  0.44255068687E+03  0.19243513167E+04  0.19987367754E+04  0.50400001928E-02 0.  1.
       -1    1    3    3    0  502 -0.30978960094E+03 -0.44255068687E+03 -0.13199928700E+04  0.14262544949E+04  0.50400001928E-02 0. -1.
</event>
<event>
 5   0  0.4109937E-07  0.3288978E+04  0.7818609E-02  0.8165706E-01
        1   -1    0    0  501    0  0.00000000000E+00  0.00000000000E+00  0.23683976179E+04  0.23683976179E+04  0.50400001928E-02 0. -1.
       -1   -1    0    0    0  501  0.00000000000E+00  0.00000000000E+00 -0.11418454370E+04  0.11418454370E+04  0.50400001928E-02 0.  1.
    10030    2    1    2    0    0  0.00000000000E+00  0.00000000000E+00  0.12265521809E+04  0.35102430549E+04  0.32889779647E+04 0.  0.
        5    1    3    3  502    0  0.61557854112E+02 -0.16261292738E+04  0.86637132701E+03  0.18435582851E+04  0.46999998093E+01 0. -1.
       -5    1    3    3    0  502 -0.61557854112E+02  0.16261292738E+04  0.36018085388E+03  0.16666847698E+04  0.46999998093E+01 0.  1.
</event>
<event>
 5   0  0.4125758E-07  0.3433666E+04  0.7818609E-02  0.8129693E-01
       -1   -1    0    0    0  501  0.00000000000E+00  0.00000000000E+00  0.13639046983E+04  0.13639046983E+04  0.50400001928E-02 0.  1.
        1   -1    0    0  501    0  0.00000000000E+00  0.00000000000E+00 -0.21610863025E+04  0.21610863025E+04  0.50400001928E-02 0. -1.
    10030    2    1    2    0    0  0.00000000000E+00  0.00000000000E+00 -0.79718160416E+03  0.35249910008E+04  0.34336661232E+04 0.  0.
        2    1    3    3  502    0 -0.11956985410E+04 -0.91773686635E+03  0.44520678308E+03  0.15716695061E+04  0.25500000920E-02 0.  1.
       -2    1    3    3    0  502  0.11956985410E+04  0.91773686635E+03 -0.12423883872E+04  0.19533214947E+04  0.25500000920E-02 0. -1.
</event>
<event>
 5   0  0.4060750E-07  0.3406746E+04  0.7818609E-02  0.8136253E-01
       -3   -1    0    0    0  501  0.00000000000E+00  0.00000000000E+00  0.24211017719E+04  0.24211017740E+04  0.10100000352E+00 0. -1.
        3   -1    0    0  501    0  0.00000000000E+00  0.00000000000E+00 -0.11984127973E+04  0.11984128015E+04  0.10100000352E+00 0.  1.
    10030    2    1    2    0    0  0.00000000000E+00  0.00000000000E+00  0.12226889746E+04  0.36195145755E+04  0.34067458716E+04 0.  0.
        2    1    3    3  502    0  0.98846098932E+03  0.10636937361E+04 -0.33476559813E+03  0.14901568700E+04  0.25500000920E-02 0.  1.
       -2    1    3    3    0  502 -0.98846098932E+03 -0.10636937361E+04  0.15574545728E+04  0.21293577055E+04  0.25500000920E-02 0. -1.
</event>
<event>
 5   0  0.1300176E-06  0.3395878E+04  0.7818609E-02  0.8138919E-01
        2   -1    0    0  501    0  0.00000000000E+00  0.00000000000E+00  0.16748012765E+04  0.16748012765E+04  0.25500000920E-02 0.  1.
       -2   -1    0    0    0  501  0.00000000000E+00  0.00000000000E+00 -0.17213961528E+04  0.17213961528E+04  0.25500000920E-02 0. -1.
    10030    2    1    2    0    0  0.00000000000E+00  0.00000000000E+00 -0.46594876319E+02  0.33961974293E+04  0.33958777800E+04 0.  0.
        1    1    3    3  502    0 -0.12320444703E+04  0.41150023845E+03  0.10703000959E+04  0.16830948632E+04  0.50400001928E-02 0.  1.
       -1    1    3    3    0  502  0.12320444703E+04 -0.41150023845E+03 -0.11168949723E+04  0.17131025661E+04  0.50400001928E-02 0. -1.
</event>
<event>
 5   0  0.1277635E-06  0.3881123E+04  0.7818609E-02  0.8028967E-01
       -2   -1    0    0    0  501  0.00000000000E+00  0.00000000000E+00  0.16923027036E+04  0.16923027036E+04  0.25500000920E-02 0. -1.
        2   -1    0    0  501    0  0.00000000000E+00  0.00000000000E+00 -0.22252395355E+04  0.22252395355E+04  0.25500000920E-02 0.  1.
    10030    2    1    2    0    0  0.00000000000E+00  0.00000000000E+00 -0.53293683190E+03  0.39175422391E+04  0.38811229726E+04 0.  0.
        4    1    3    3  502    0  0.16440824896E+04 -0.16868996004E+03 -0.12930239060E+04  0.20984222572E+04  0.12699999809E+01 0.  1.
       -4    1    3    3    0  502 -0.16440824896E+04  0.16868996004E+03  0.76008707405E+03  0.18191199819E+04  0.12699999809E+01 0. -1.
</event>
<event>
 5   0  0.4289684E-07  0.3360420E+04  0.7818609E-02  0.8147690E-01
        1   -1    0    0  501    0  0.00000000000E+00  0.00000000000E+00  0.20934193506E+04  0.20934193506E+04  0.50400001928E-02 0. -1.
       -1   -1    0    0    0  501  0.00000000000E+00  0.00000000000E+00 -0.13485615578E+04  0.13485615578E+04  0.50400001928E-02 0.  1.
    10030    2    1    2    0    0  0.00000000000E+00  0.00000000000E+00  0.74485779276E+03  0.34419809084E+04  0.33604195337E+04 0.  0.
        4    1    3    3  502    0  0.14915527753E+04 -0.75307681757E+03  0.55349290686E+03  0.17601733965E+04  0.12699999809E+01 0. -1.
       -4    1    3    3    0  502 -0.14915527753E+04  0.75307681757E+03  0.19136488590E+03  0.16818075119E+04  0.12699999809E+01 0.  1.
</event>
<event>
 5   0  0.4125758E-07  0.3391278E+04  0.7818609E-02  0.8140050E-01
       -1   -1    0    0    0  501  0.00000000000E+00  0.00000000000E+00  0.95786827890E+03  0.95786827891E+03  0.50400001928E-02 0.  1.
        1   -1    0    0  501    0  0.00000000000E+00  0.00000000000E+00 -0.30016563413E+04  0.30016563414E+04  0.50400001928E-02 0. -1.
    10030    2    1    2    0    0  0.00000000000E+00  0.00000000000E+00 -0.20437880625E+04  0.39595246203E+04  0.33912778674E+04 0.  0.
        2    1    3    3  502    0 -0.15899600735E+04  0.50344137335E+03 -0.13794140623E+04  0.21643034462E+04  0.25500000920E-02 0. -1.
       -2    1    3    3    0  502  0.15899600735E+04 -0.50344137335E+03 -0.66437400016E+03  0.17952211741E+04  0.25500000920E-02 0.  1.
</event>
<event>
 5   0  0.4125758E-07  0.3386569E+04  0.7818609E-02  0.8141211E-01
        1   -1    0    0  501    0  0.00000000000E+00  0.00000000000E+00  0.24205084119E+04  0.24205084119E+04  0.50400001928E-02 0.  1.
       -1   -1    0    0    0  501  0.00000000000E+00  0.00000000000E+00 -0.11845494114E+04  0.11845494114E+04  0.50400001928E-02 0. -1.
    10030    2    1    2    0    0  0.00000000000E+00  0.00000000000E+00  0.12359590005E+04  0.36050578233E+04  0.33865686555E+04 0.  0.
        2    1    3    3  502    0 -0.83178808398E+03  0.99981665926E+03  0.17722348895E+04  0.21982541419E+04  0.25500000920E-02 0.  1.
       -2    1    3    3    0  502  0.83178808398E+03 -0.99981665926E+03 -0.53627588904E+03  0.14068036814E+04  0.25500000920E-02 0. -1.
</event>
<event>
 5   0  0.1268230E-06  0.3448671E+04  0.7818609E-02  0.8126063E-01
       -2   -1    0    0    0  501  0.00000000000E+00  0.00000000000E+00  0.14512271167E+04  0.14512271167E+04  0.25500000920E-02 0.  1.
        2   -1    0    0  501    0  0.00000000000E+00  0.00000000000E+00 -0.20488405462E+04  0.20488405462E+04  0.25500000920E-02 0. -1.
    10030    2    1    2    0    0  0.00000000000E+00  0.00000000000E+00 -0.59761342946E+03  0.35000676629E+04  0.34486710243E+04 0.  0.
        2    1    3    3  502    0 -0.50263995367E+03 -0.54165642985E+03 -0.18800033966E+04  0.20200127184E+04  0.25500000920E-02 0. -1.
       -2    1    3    3    0  502  0.50263995367E+03  0.54165642985E+03  0.12823899672E+04  0.14800549446E+04  0.25500000920E-02 0.  1.
</event>
<event>
 5   0  0.4272633E-07  0.3280950E+04  0.7818609E-02  0.8167760E-01
        1   -1    0    0  501    0  0.00000000000E+00  0.00000000000E+00  0.19133109233E+04  0.19133109233E+04  0.50400001928E-02 0. -1.
       -1   -1    0    0    0  501  0.00000000000E+00  0.00000000000E+00 -0.14065448163E+04  0.14065448163E+04  0.50400001928E-02 0.  1.
    10030    2    1    2    0    0  0.00000000000E+00  0.00000000000E+00  0.50676610705E+03  0.33198557396E+04  0.32809495950E+04 0.  0.
        1    1    3    3  502    0  0.10914605515E+03  0.81455799026E+03  0.16899865160E+04  0.18792211166E+04  0.50400001928E-02 0. -1.
       -1    1    3    3    0  502 -0.10914605515E+03 -0.81455799026E+03 -0.11832204090E+04  0.14406346230E+04  0.50400001928E-02 0.  1.
</event>
<event>
 5   0  0.4289684E-07  0.3388254E+04  0.7818609E-02  0.8140795E-01
        1   -1    0    0  501    0  0.00000000000E+00  0.00000000000E+00  0.20751270178E+04  0.20751270178E+04  0.50400001928E-02 0. -1.
       -1   -1    0    0    0  501  0.00000000000E+00  0.00000000000E+00 -0.13830794399E+04  0.13830794399E+04  0.50400001928E-02 0.  1.
    10030    2    1    2    0    0  0.00000000000E+00  0.00000000000E+00  0.69204757790E+03  0.34582064578E+04  0.33882535405E+04 0.  0.
        4    1    3    3  502    0  0.19141341590E+03  0.44626203712E+03 -0.13105301128E+04  0.13975978288E+04  0.12699999809E+01 0.  1.
       -4    1    3    3    0  502 -0.19141341590E+03 -0.44626203712E+03  0.20025776907E+04  0.20606086290E+04  0.12699999809E+01 0. -1.
</event>
<event>
 5   0  0.4464951E-07  0.3426776E+04  0.7818609E-02  0.8131366E-01
       -1   -1    0    0    0  501  0.00000000000E+00  0.00000000000E+00  0.16193796599E+04  0.16193796599E+04  0.50400001928E-02 0. -1.
        1   -1    0    0  501    0  0.00000000000E+00  0.00000000000E+00 -0.18128542318E+04  0.18128542318E+04  0.50400001928E-02 0.  1.
    10030    2    1    2    0    0  0.00000000000E+00  0.00000000000E+00 -0.19347457198E+03  0.34322338917E+04  0.34267764849E+04 0.  0.
        3    1    3    3  502    0 -0.11551290369E+04  0.45991147027E+03  0.10840624614E+04  0.16495554198E+04  0.10100000352E+00 0. -1.
       -3    1    3    3    0  502  0.11551290369E+04 -0.45991147027E+03 -0.12775370334E+04  0.17826784719E+04  0.10100000352E+00 0.  1.
</event>
<event>
 5   0  0.4289684E-07  0.3414020E+04  0.7818609E-02  0.8134474E-01
       -1   -1    0    0    0  501  0.00000000000E+00  0.00000000000E+00  0.11810678814E+04  0.11810678814E+04  0.50400001928E-02 0.  1.
        1   -1    0    0  501    0  0.00000000000E+00  0.00000000000E+00 -0.24671597472E+04  0.24671597472E+04  0.50400001928E-02 0. -1.
    10030    2    1    2    0    0  0.00000000000E+00  0.00000000000E+00 -0.12860918658E+04  0.36482276286E+04  0.34140199975E+04 0.  0.
        4    1    3    3  502    0  0.83566429995E+03  0.14661981551E+04 -0.36891330731E+03  0.17274751789E+04  0.12699999809E+01 0. -1.
       -4    1    3    3    0  502 -0.83566429995E+03 -0.14661981551E+04 -0.91717855846E+03  0.19207524498E+04  0.12699999809E+01 0.  1.
</event>
<event>
 5   0  0.1277635E-06  0.3390161E+04  0.7818609E-02  0.8140325E-01
        2   -1    0    0  501    0  0.00000000000E+00  0.00000000000E+00  0.28843114603E+04  0.28843114603E+04  0.25500000920E-02 0. -1.
       -2   -1    0    0    0  501  0.00000000000E+00  0.00000000000E+00 -0.99618142808E+03  0.99618142808E+03  0.25500000920E-02 0.  1.
    10030    2    1    2    0    0  0.00000000000E+00  0.00000000000E+00  0.18881300323E+04  0.38804928884E+04  0.33901607688E+04 0.  0.
        4    1    3    3  502    0  0.48148675143E+03  0.47722259616E+03  0.27223873884E+04  0.28055241227E+04  0.12699999809E+01 0. -1.
       -4    1    3    3    0  502 -0.48148675143E+03 -0.47722259616E+03 -0.83425735610E+03  0.10749687657E+04  0.12699999809E+01 0.  1.
</event>
<event>
 5   0  0.1268230E-06  0.3396011E+04  0.7818609E-02  0.8138886E-01
        2   -1    0    0  501    0  0.00000000000E+00  0.00000000000E+00  0.20494998344E+04  0.20494998344E+04  0.25500000920E-02 0.  1.
       -2   -1    0    0    0  501  0.00000000000E+00  0.00000000000E+00 -0.14067931328E+04  0.14067931328E+04  0.25500000920E-02 0. -1.
    10030    2    1    2    0    0  0.00000000000E+00  0.00000000000E+00  0.64270670168E+03  0.34562929672E+04  0.33960107731E+04 0.  0.
        2    1    3    3  502    0 -0.74741254907E+03 -0.14907502643E+04  0.64681159890E+03  0.17886662946E+04  0.25500000920E-02 0. -1.
       -2    1    3    3    0  502  0.74741254907E+03  0.14907502643E+04 -0.41048972211E+01  0.16676266726E+04  0.25500000920E-02 0.  1.
</event>
<event>
 5   0  0.1269497E-06  0.3392802E+04  0.7818609E-02  0.8139675E-01
        2   -1    0    0  501    0  0.00000000000E+00  0.00000000000E+00  0.25880672686E+04  0.25880672686E+04  0.25500000920E-02 0. -1.
       -2   -1    0    0    0  501  0.00000000000E+00  0.00000000000E+00 -0.11119400009E+04  0.11119400009E+04  0.25500000920E-02 0.  1.
    10030    2    1    2    0    0  0.00000000000E+00  0.00000000000E+00  0.14761272678E+04  0.37000072695E+04  0.33928015096E+04 0.  0.
        5    1    3    3  502    0 -0.35004631747E+03  0.10673213597E+04  0.21244076119E+04  0.24030890747E+04  0.46999998093E+01 0. -1.
       -5    1    3    3    0  502  0.35004631747E+03 -0.10673213597E+04 -0.64828034417E+03  0.12969181948E+04  0.46999998093E+01 0.  1.
</event>
<event>
 5   0  0.1256208E-06  0.3380508E+04  0.7818609E-02  0.8142707E-01
        2   -1    0    0  501    0  0.00000000000E+00  0.00000000000E+00  0.21511248023E+04  0.21511248023E+04  0.25500000920E-02 0.  1.
       -2   -1    0    0    0  501  0.00000000000E+00  0.00000000000E+00 -0.13281231910E+04  0.13281231910E+04  0.25500000920E-02 0. -1.
    10030    2    1    2    0    0  0.00000000000E+00  0.00000000000E+00  0.82300161122E+03  0.34792479933E+04  0.33805080900E+04 0.  0.
        3    1    3    3  502    0 -0.60629755109E+03 -0.15666403226E+04  0.21895321723E+03  0.16940776672E+04  0.10100000352E+00 0.  1.
       -3    1    3    3    0  502  0.60629755109E+03  0.15666403226E+04  0.60404839399E+03  0.17851703261E+04  0.10100000352E+00 0. -1.
</event>
<event>
 5   0  0.1300176E-06  0.3149555E+04  0.7818609E-02  0.8202268E-01
        2   -1    0    0  501    0  0.00000000000E+00  0.00000000000E+00  0.21085746492E+04  0.21085746492E+04  0.25500000920E-02 0. -1.
       -2   -1    0    0    0  501  0.00000000000E+00  0.00000000000E+00 -0.11761142445E+04  0.11761142446E+04  0.25500000920E-02 0.  1.
    10030    2    1    2    0    0  0.00000000000E+00  0.00000000000E+00  0.93246040466E+03  0.32846888938E+04  0.31495553214E+04 0.  0.
        1    1    3    3  502    0  0.13814282344E+04 -0.19502980253E+03 -0.29555083502E+03  0.14260893684E+04  0.50400001928E-02 0.  1.
       -1    1    3    3    0  502 -0.13814282344E+04  0.19502980253E+03  0.12280112397E+04  0.18585995253E+04  0.50400001928E-02 0. -1.
</event>
<event>
 5   0  0.4464951E-07  0.3398798E+04  0.7818609E-02  0.8138201E-01
       -1   -1    0    0    0  501  0.00000000000E+00  0.00000000000E+00  0.19580197197E+04  0.19580197197E+04  0.50400001928E-02 0.  1.
        1   -1    0    0  501    0  0.00000000000E+00  0.00000000000E+00 -0.14749376440E+04  0.14749376440E+04  0.50400001928E-02 0. -1.
    10030    2    1    2    0    0  0.00000000000E+00  0.00000000000E+00  0.48308207569E+03  0.34329573638E+04  0.33987980184E+04 0.  0.
        3    1    3    3  502    0  0.61818711127E+03  0.14717454674E+04  0.83029470268E+03  0.17993274657E+04  0.10100000352E+00 0.  1.
       -3    1    3    3    0  502 -0.61818711127E+03 -0.14717454674E+04 -0.34721262698E+03  0.16336298981E+04  0.10100000352E+00 0. -1.
</event>
<event>
 5   0  0.4464951E-07  0.3398297E+04  0.7818609E-02  0.8138324E-01
       -1   -1    0    0    0  501  0.00000000000E+00  0.00000000000E+00  0.14581510245E+04  0.14581510245E+04  0.50400001928E-02 0. -1.
        1   -1    0    0  501    0  0.00000000000E+00  0.00000000000E+00 -0.19799771121E+04  0.19799771121E+04  0.50400001928E-02 0.  1.
    10030    2    1    2    0    0  0.00000000000E+00  0.00000000000E+00 -0.52182608755E+03  0.34381281366E+04  0.33982970173E+04 0.  0.
        3    1    3    3  502    0 -0.23725917475E+03  0.13916880671E+04 -0.12175207350E+04  0.18642543663E+04  0.10100000352E+00 0.  1.
       -3    1    3    3    0  502  0.23725917475E+03 -0.13916880671E+04  0.69569464744E+03  0.15738737702E+04  0.10100000352E+00 0. -1.
</event>
<event>
 5   0  0.1269497E-06  0.3414080E+04  0.7818609E-02  0.8134459E-01
        2   -1    0    0  501    0  0.00000000000E+00  0.00000000000E+00  0.21433860614E+04  0.21433860615E+04  0.25500000920E-02 0.  1.
       -2   -1    0    0    0  501  0.00000000000E+00  0.00000000000E+00 -0.13595245626E+04  0.13595245626E+04  0.25500000920E-02 0. -1.
    10030    2    1    2    0    0  0.00000000000E+00  0.00000000000E+00  0.78386149883E+03  0.35029106241E+04  0.34140802555E+04 0.  0.
        5    1    3    3  502    0 -0.88255382726E+03 -0.85643664257E+03 -0.82275548599E+03  0.14796397063E+04  0.46999998093E+01 0. -1.
       -5    1    3    3    0  502  0.88255382726E+03  0.85643664257E+03  0.16066169848E+04  0.20232709178E+04  0.46999998093E+01 0.  1.
</event>
<event>
 5   0  0.4289684E-07  0.3417823E+04  0.7818609E-02  0.8133546E-01
       -1   -1    0    0    0  501  0.00000000000E+00  0.00000000000E+00  0.24145572987E+04  0.24145572987E+04  0.50400001928E-02 0. -1.
        1   -1    0    0  501    0  0.00000000000E+00  0.00000000000E+00 -0.12094882296E+04  0.12094882297E+04  0.50400001928E-02 0.  1.
    10030    2    1    2    0    0  0.00000000000E+00  0.00000000000E+00  0.12050690691E+04  0.36240455284E+04  0.34178230690E+04 0.  0.
        4    1    3    3  502    0  0.87902657503E+03 -0.99892719365E+03  0.17395374976E+04  0.21900994444E+04  0.12699999809E+01 0. -1.
       -4    1    3    3    0  502 -0.87902657503E+03  0.99892719365E+03 -0.53446842854E+03  0.14339460840E+04  0.12699999809E+01 0.  1.
</event>
<event>
 5   0  0.1300176E-06  0.3434066E+04  0.7818609E-02  0.8129596E-01
        2   -1    0    0  501    0  0.00000000000E+00  0.00000000000E+00  0.14925341470E+04  0.14925341470E+04  0.25500000920E-02 0.  1.
       -2   -1    0    0    0  501  0.00000000000E+00  0.00000000000E+00 -0.19752992637E+04  0.19752992637E+04  0.25500000920E-02 0. -1.
    10030    2    1    2    0    0  0.00000000000E+00  0.00000000000E+00 -0.48276511663E+03  0.34678334107E+04  0.34340655798E+04 0.  0.
        1    1    3    3  502    0 -0.77272222586E+03  0.10847011189E+04  0.85302946851E+03  0.15815610737E+04  0.50400001928E-02 0.  1.
       -1    1    3    3    0  502  0.77272222586E+03 -0.10847011189E+04 -0.13357945851E+04  0.18862723370E+04  0.50400001928E-02 0. -1.
</event>
<event>
 5   0  0.1256208E-06  0.3442417E+04  0.7818609E-02  0.8127573E-01
        2   -1    0    0  501    0  0.00000000000E+00  0.00000000000E+00  0.24841269970E+04  0.24841269970E+04  0.25500000920E-02 0. -1.
       -2   -1    0    0    0  501  0.00000000000E+00  0.00000000000E+00 -0.11925957676E+04  0.11925957676E+04  0.25500000920E-02 0.  1.
    10030    2    1    2    0    0  0.00000000000E+00  0.00000000000E+00  0.12915312294E+04  0.36767227647E+04  0.34424173732E+04 0.  0.
        3    1    3    3  502    0 -0.39980326318E+03 -0.98723920861E+03 -0.79832489802E+03  0.13310922422E+04  0.10100000352E+00 0.  1.
       -3    1    3    3    0  502  0.39980326318E+03  0.98723920861E+03  0.20898561274E+04  0.23456305224E+04  0.10100000352E+00 0. -1.
</event>
<event>
 5   0  0.4464951E-07  0.3403132E+04  0.7818609E-02  0.8137138E-01
       -1   -1    0    0    0  501  0.00000000000E+00  0.00000000000E+00  0.14101081531E+04  0.14101081531E+04  0.50400001928E-02 0.  1.
        1   -1    0    0  501    0  0.00000000000E+00  0.00000000000E+00 -0.20532653942E+04  0.20532653942E+04  0.50400001928E-02 0. -1.
    10030    2    1    2    0    0  0.00000000000E+00  0.00000000000E+00 -0.64315724103E+03  0.34633735473E+04  0.34031316594E+04 0.  0.
        3    1    3    3  502    0  0.36355638411E+03  0.12020658189E+04  0.84687026846E+03  0.15147028551E+04  0.10100000352E+00 0.  1.
       -3    1    3    3    0  502 -0.36355638411E+03 -0.12020658189E+04 -0.14900275095E+04  0.19486706922E+04  0.10100000352E+00 0. -1.
</event>
<event>
 5   0  0.1256208E-06  0.3355238E+04  0.7818609E-02  0.8148981E-01
       -2   -1    0    0    0  501  0.00000000000E+00  0.00000000000E+00  0.10520126910E+04  0.10520126910E+04  0.25500000920E-02 0. -1.
        2   -1    0    0  501    0  0.00000000000E+00  0.00000000000E+00 -0.26752574242E+04  0.26752574242E+04  0.25500000920E-02 0.  1.
    10030    2    1    2    0    0  0.00000000000E+00  0.00000000000E+00 -0.16232447333E+04  0.37272701152E+04  0.33552375545E+04 0.  0.
        3    1    3    3  502    0 -0.60375623456E+03  0.61692467283E+03 -0.24096267608E+04  0.25595739449E+04  0.10100000352E+00 0.  1.
       -3    1    3    3    0  502  0.60375623456E+03 -0.61692467283E+03  0.78638202753E+03  0.11676961703E+04  0.10100000352E+00 0. -1.
</event>
<event>
 5   0  0.1300176E-06  0.3341253E+04  0.7818609E-02  0.8152477E-01
       -2   -1    0    0    0  501  0.00000000000E+00  0.00000000000E+00  0.19939276949E+04  0.19939276949E+04  0.25500000920E-02 0. -1.
        2   -1    0    0  501    0  0.00000000000E+00  0.00000000000E+00 -0.13997463232E+04  0.13997463232E+04  0.25500000920E-02 0.  1.
    10030    2    1    2    0    0  0.00000000000E+00  0.00000000000E+00  0.59418137174E+03  0.33936740181E+04  0.33412530342E+04 0.  0.
        1    1    3    3  502    0  0.10370232644E+04  0.41049675186E+03  0.15604168088E+04  0.19180264470E+04  0.50400001928E-02 0. -1.
       -1    1    3    3    0  502 -0.10370232644E+04 -0.41049675186E+03 -0.96623543703E+03  0.14756475711E+04  0.50400001928E-02 0.  1.
</event>
<event>
 5   0  0.4125758E-07  0.3429220E+04  0.7818609E-02  0.8130772E-01
        1   -1    0    0  501    0  0.00000000000E+00  0.00000000000E+00  0.27331643901E+04  0.27331643901E+04  0.50400001928E-02 0. -1.
       -1   -1    0    0    0  501  0.00000000000E+00  0.00000000000E+00 -0.10756352606E+04  0.10756352606E+04  0.50400001928E-02 0.  1.
    10030    2    1    2    0    0  0.00000000000E+00  0.00000000000E+00  0.16575291295E+04  0.38087996507E+04  0.34292203143E+04 0.  0.
        2    1    3    3  502    0  0.10530404794E+04  0.95543254812E+03  0.18930246132E+04  0.23675488995E+04  0.25500000920E-02 0. -1.
       -2    1    3    3    0  502 -0.10530404794E+04 -0.95543254812E+03 -0.23549548372E+03  0.14412507513E+04  0.25500000920E-02 0.  1.
</event>
<event>
 5   0  0.1277635E-06  0.3389385E+04  0.7818609E-02  0.8140517E-01
       -2   -1    0    0    0  501  0.00000000000E+00  0.00000000000E+00  0.18113797082E+04  0.18113797082E+04  0.25500000920E-02 0. -1.
        2   -1    0    0  501    0  0.00000000000E+00  0.00000000000E+00 -0.15855218567E+04  0.15855218567E+04  0.25500000920E-02 0.  1.
    10030    2    1    2    0    0  0.00000000000E+00  0.00000000000E+00  0.22585785146E+03  0.33969015649E+04  0.33893846746E+04 0.  0.
        4    1    3    3  502    0  0.85210799136E+03  0.13897530986E+04  0.57707457886E+03  0.17293115354E+04  0.12699999809E+01 0. -1.
       -4    1    3    3    0  502 -0.85210799136E+03 -0.13897530986E+04 -0.35121672740E+03  0.16675900295E+04  0.12699999809E+01 0.  1.
</event>
<event>
 5   0  0.1268230E-06  0.3356533E+04  0.7818609E-02  0.8148658E-01
       -2   -1    0    0    0  501  0.00000000000E+00  0.00000000000E+00  0.98178921705E+03  0.98178921706E+03  0.25500000920E-02 0. -1.
        2   -1    0    0  501    0  0.00000000000E+00  0.00000000000E+00 -0.28688227195E+04  0.28688227195E+04  0.25500000920E-02 0.  1.
    10030    2    1    2    0    0  0.00000000000E+00  0.00000000000E+00 -0.18870335024E+04  0.38506119365E+04  0.33565334568E+04 0.  0.
        2    1    3    3  502    0 -0.74805104966E+01 -0.10335654474E+04 -0.24603662531E+04  0.26686542660E+04  0.25500000920E-02 0. -1.
       -2    1    3    3    0  502  0.74805104966E+01  0.10335654474E+04  0.57333275064E+03  0.11819576706E+04  0.25500000920E-02 0.  1.
</event>
<event>
 5   0  0.4464951E-07  0.3495577E+04  0.7818609E-02  0.8114839E-01
       -1   -1    0    0    0  501  0.00000000000E+00  0.00000000000E+00  0.17157365476E+04  0.17157365476E+04  0.50400001928E-02 0.  1.
        1   -1    0    0  501    0  0.00000000000E+00  0.00000000000E+00 -0.17804388733E+04  0.17804388733E+04  0.50400001928E-02 0. -1.
    10030    2    1    2    0    0  0.00000000000E+00  0.00000000000E+00 -0.64702325632E+02  0.34961754209E+04  0.34955766595E+04 0.  0.
        3    1    3    3  502    0  0.47352085324E+03  0.60988409502E+03  0.15359044818E+04  0.17190646280E+04  0.10100000352E+00 0.  1.
       -3    1    3    3    0  502 -0.47352085324E+03 -0.60988409502E+03 -0.16006068075E+04  0.17771107929E+04  0.10100000352E+00 0. -1.
</event>
<event>
 5   0  0.4289684E-07  0.3405127E+04  0.7818609E-02  0.8136649E-01
       -1   -1    0    0    0  501  0.00000000000E+00  0.00000000000E+00  0.17383629902E+04  0.17383629902E+04  0.50400001928E-02 0. -1.
        1   -1    0    0  501    0  0.00000000000E+00  0.00000000000E+00 -0.16675008687E+04  0.16675008688E+04  0.50400001928E-02 0.  1.
    10030    2    1    2    0    0  0.00000000000E+00  0.00000000000E+00  0.70862121474E+02  0.34058638590E+04  0.34051266035E+04 0.  0.
        4    1    3    3  502    0  0.11859363027E+04  0.12031614801E+04  0.24684787871E+03  0.17073306503E+04  0.12699999809E+01 0.  1.
       -4    1    3    3    0  502 -0.11859363027E+04 -0.12031614801E+04 -0.17598575724E+03  0.16985332087E+04  0.12699999809E+01 0. -1.
</event>
<event>
 5   0  0.4109937E-07  0.3398139E+04  0.7818609E-02  0.8138363E-01
       -1   -1    0    0    0  501  0.00000000000E+00  0.00000000000E+00  0.11330151117E+04  0.11330151117E+04  0.50400001928E-02 0. -1.
        1   -1    0    0  501    0  0.00000000000E+00  0.00000000000E+00 -0.25479249171E+04  0.25479249171E+04  0.50400001928E-02 0.  1.
    10030    2    1    2    0    0  0.00000000000E+00  0.00000000000E+00 -0.14149098054E+04  0.36809400288E+04  0.33981391581E+04 0.  0.
        5    1    3    3  502    0  0.31086700443E+03  0.32799543665E+03  0.10667150586E+04  0.11585000678E+04  0.46999998093E+01 0. -1.
       -5    1    3    3    0  502 -0.31086700443E+03 -0.32799543665E+03 -0.24816248640E+04  0.25224399609E+04  0.46999998093E+01 0.  1.
</event>
<event>
 5   0  0.4289684E-07  0.3382512E+04  0.7818609E-02  0.8142212E-01
       -1   -1    0    0    0  501  0.00000000000E+00  0.00000000000E+00  0.11662003810E+04  0.11662003810E+04  0.50400001928E-02 0.  1.
        1   -1    0    0  501    0  0.00000000000E+00  0.00000000000E+00 -0.24527055395E+04  0.24527055395E+04  0.50400001928E-02 0. -1.
    10030    2    1    2    0    0  0.00000000000E+00  0.00000000000E+00 -0.12865051585E+04  0.36189059204E+04  0.33825115725E+04 0.  0.
        4    1    3    3  502    0  0.33312451424E+03  0.23007328437E+03  0.11135917894E+04  0.11849025042E+04  0.12699999809E+01 0.  1.
       -4    1    3    3    0  502 -0.33312451424E+03 -0.23007328437E+03 -0.24000969479E+04  0.24340034162E+04  0.12699999809E+01 0. -1.
</event>
<event>
 5   0  0.4272633E-07  0.3414418E+04  0.7818609E-02  0.8134377E-01
       -1   -1    0    0    0  501  0.00000000000E+00  0.00000000000E+00  0.10664169912E+04  0.10664169912E+04  0.50400001928E-02 0. -1.
        1   -1    0    0  501    0  0.00000000000E+00  0.00000000000E+00 -0.27330428660E+04  0.27330428660E+04  0.50400001928E-02 0.  1.
    10030    2    1    2    0    0  0.00000000000E+00  0.00000000000E+00 -0.16666258749E+04  0.37994598572E+04  0.34144184571E+04 0.  0.
        1    1    3    3  502    0  0.89896881568E+03  0.88724287659E+03 -0.21114089528E+04  0.24603643266E+04  0.50400001928E-02 0.  1.
       -1    1    3    3    0  502 -0.89896881568E+03 -0.88724287659E+03  0.44478307795E+03  0.13390955306E+04  0.50400001928E-02 0. -1.
</event>
<event>
 5   0  0.1269497E-06  0.3409809E+04  0.7818609E-02  0.8135503E-01
        2   -1    0    0  501    0  0.00000000000E+00  0.00000000000E+00  0.13404259909E+04  0.13404259909E+04  0.25500000920E-02 0.  1.
       -2   -1    0    0    0  501  0.00000000000E+00  0.00000000000E+00 -0.21684888574E+04  0.21684888574E+04  0.25500000920E-02 0. -1.
    10030    2    1    2    0    0  0.00000000000E+00  0.00000000000E+00 -0.82806286649E+03  0.35089148483E+04  0.34098086899E+04 0.  0.
        5    1    3    3  502    0 -0.73036688003E+03 -0.11825124839E+04  0.60203944758E+03  0.15146765795E+04  0.46999998093E+01 0.  1.
       -5    1    3    3    0  502  0.73036688003E+03  0.11825124839E+04 -0.14301023141E+04  0.19942382688E+04  0.46999998093E+01 0. -1.
</event>
<event>
 5   0  0.4289684E-07  0.3416012E+04  0.7818609E-02  0.8133988E-01
       -1   -1    0    0    0  501  0.00000000000E+00  0.00000000000E+00  0.17618493818E+04  0.17618493818E+04  0.50400001928E-02 0. -1.
        1   -1    0    0  501    0  0.00000000000E+00  0.00000000000E+00 -0.16558082761E+04  0.16558082761E+04  0.50400001928E-02 0.  1.
    10030    2    1    2    0    0  0.00000000000E+00  0.00000000000E+00  0.10604110572E+03  0.34176576580E+04  0.34160121708E+04 0.  0.
        4    1    3    3  502    0 -0.16978891598E+04 -0.18376612734E+03  0.79216868658E+02  0.17096416331E+04  0.12699999809E+01 0.  1.
       -4    1    3    3    0  502  0.16978891598E+04  0.18376612734E+03  0.26824237062E+02  0.17080160248E+04  0.12699999809E+01 0. -1.
</event>
<event>
 5   0  0.4125758E-07  0.3216826E+04  0.7818609E-02  0.8184388E-01
       -1   -1    0    0    0  501  0.00000000000E+00  0.00000000000E+00  0.13041585734E+04  0.13041585734E+04  0.50400001928E-02 0. -1.
        1   -1    0    0  501    0  0.00000000000E+00  0.00000000000E+00 -0.19836481027E+04  0.19836481027E+04  0.50400001928E-02 0.  1.
    10030    2    1    2    0    0  0.00000000000E+00  0.00000000000E+00 -0.67948952932E+03  0.32878066761E+04  0.32168255655E+04 0.  0.
        2    1    3    3  502    0 -0.13642974223E+04 -0.13465996468E+03 -0.11994659138E+04  0.18215815219E+04  0.25500000920E-02 0. -1.
       -2    1    3    3    0  502  0.13642974223E+04  0.13465996468E+03  0.51997638448E+03  0.14662251542E+04  0.25500000920E-02 0.  1.
</event>
<event>
 5   0  0.1256208E-06  0.3314689E+04  0.7818609E-02  0.8159168E-01
        2   -1    0    0  501    0  0.00000000000E+00  0.00000000000E+00  0.23673129603E+04  0.23673129603E+04  0.25500000920E-02 0. -1.
       -2   -1    0    0    0  501  0.00000000000E+00  0.00000000000E+00 -0.11602987152E+04  0.11602987152E+04  0.25500000920E-02 0.  1.
    10030    2    1    2    0    0  0.00000000000E+00  0.00000000000E+00  0.12070142451E+04  0.35276116755E+04  0.33146886348E+04 0.  0.
        3    1    3    3  502    0 -0.63339813209E+02 -0.30215214157E+03  0.23364426306E+04  0.23567503103E+04  0.10100000352E+00 0. -1.
       -3    1    3    3    0  502  0.63339813209E+02  0.30215214157E+03 -0.11294283855E+04  0.11708613653E+04  0.10100000352E+00 0.  1.
</event>
<event>
 5   0  0.1256208E-06  0.3428990E+04  0.7818609E-02  0.8130828E-01
        2   -1    0    0  501    0  0.00000000000E+00  0.00000000000E+00  0.20100856154E+04  0.20100856154E+04  0.25500000920E-02 0. -1.
       -2   -1    0    0    0  501  0.00000000000E+00  0.00000000000E+00 -0.14623722846E+04  0.14623722846E+04  0.25500000920E-02 0.  1.
    10030    2    1    2    0    0  0.00000000000E+00  0.00000000000E+00  0.54771333079E+03  0.34724579000E+04  0.34289902267E+04 0.  0.
        3    1    3    3  502    0  0.16267819133E+03  0.13687649029E+04  0.13063457778E+04  0.18990842148E+04  0.10100000352E+00 0. -1.
       -3    1    3    3    0  502 -0.16267819133E+03 -0.13687649029E+04 -0.75863244705E+03  0.15733736852E+04  0.10100000352E+00 0.  1.
</event>
<event>
 5   0  0.4109937E-07  0.3172967E+04  0.7818609E-02  0.8195993E-01
       -1   -1    0    0    0  501  0.00000000000E+00  0.00000000000E+00  0.17161107074E+04  0.17161107074E+04  0.50400001928E-02 0.  1.
        1   -1    0    0  501    0  0.00000000000E+00  0.00000000000E+00 -0.14666478165E+04  0.14666478165E+04  0.50400001928E-02 0. -1.
    10030    2    1    2    0    0  0.00000000000E+00  0.00000000000E+00  0.24946289094E+03  0.31827585239E+04  0.31729670795E+04 0.  0.
        5    1    3    3  502    0  0.18667857364E+03  0.10553280223E+03  0.17014988387E+04  0.17149654371E+04  0.46999998093E+01 0.  1.
       -5    1    3    3    0  502 -0.18667857364E+03 -0.10553280223E+03 -0.14520359478E+04  0.14677930869E+04  0.46999998093E+01 0. -1.
</event>
<event>
 5   0  0.1269497E-06  0.3397829E+04  0.7818609E-02  0.8138439E-01
       -2   -1    0    0    0  501  0.00000000000E+00  0.00000000000E+00  0.10529392856E+04  0.10529392856E+04  0.25500000920E-02 0.  1.
        2   -1    0    0  501    0  0.00000000000E+00  0.00000000000E+00 -0.27411942565E+04  0.27411942565E+04  0.25500000920E-02 0. -1.
    10030    2    1    2    0    0  0.00000000000E+00  0.00000000000E+00 -0.16882549710E+04  0.37941335421E+04  0.33978293790E+04 0.  0.
        5    1    3    3  502    0 -0.37940687740E+03 -0.14447873714E+04  0.59538893677E+02  0.14949672562E+04  0.46999998093E+01 0.  1.
       -5    1    3    3    0  502  0.37940687740E+03  0.14447873714E+04 -0.17477938646E+04  0.22991662859E+04  0.46999998093E+01 0. -1.
</event>
<event>
 5   0  0.1256208E-06  0.3408905E+04  0.7818609E-02  0.8135724E-01
       -2   -1    0    0    0  501  0.00000000000E+00  0.00000000000E+00  0.13043426365E+04  0.13043426365E+04  0.25500000920E-02 0. -1.
        2   -1    0    0  501    0  0.00000000000E+00  0.00000000000E+00 -0.22272971011E+04  0.22272971011E+04  0.25500000920E-02 0.  1.
    10030    2    1    2    0    0  0.00000000000E+00  0.00000000000E+00 -0.92295446463E+03  0.35316397376E+04  0.34089051457E+04 0.  0.
        3    1    3    3  502    0  0.93371918012E+03 -0.33540839799E+03  0.97436177099E+03  0.13905794374E+04  0.10100000352E+00 0. -1.
       -3    1    3    3    0  502 -0.93371918012E+03  0.33540839799E+03 -0.18973162356E+04  0.21410603002E+04  0.10100000352E+00 0.  1.
</event>
<event>
 5   0  0.4464951E-07  0.3416946E+04  0.7818609E-02  0.8133760E-01
       -1   -1    0    0    0  501  0.00000000000E+00  0.00000000000E+00  0.15456758173E+04  0.15456758173E+04  0.50400001928E-02 0. -1.
        1   -1    0    0  501    0  0.00000000000E+00  0.00000000000E+00 -0.18884166973E+04  0.18884166973E+04  0.50400001928E-02 0.  1.
    10030    2    1    2    0    0  0.00000000000E+00  0.00000000000E+00 -0.34274087998E+03  0.34340925146E+04  0.34169460177E+04 0.  0.
        3    1    3    3  502    0 -0.22828269033E+03 -0.14584261998E+04 -0.10357794971E+04  0.18033189246E+04  0.10100000352E+00 0.  1.
       -3    1    3    3    0  502  0.22828269033E+03  0.14584261998E+04  0.69303861708E+03  0.16307735900E+04  0.10100000352E+00 0. -1.
</event>
<event>
 5   0  0.4464951E-07  0.3408674E+04  0.7818609E-02  0.8135781E-01
       -1   -1    0    0    0  501  0.00000000000E+00  0.00000000000E+00  0.95928347175E+03  0.95928347176E+03  0.50400001928E-02 0.  1.
        1   -1    0    0  501    0  0.00000000000E+00  0.00000000000E+00 -0.30280559290E+04  0.30280559290E+04  0.50400001928E-02 0. -1.
    10030    2    1    2    0    0  0.00000000000E+00  0.00000000000E+00 -0.20687724572E+04  0.39873394007E+04  0.34086736448E+04 0.  0.
        3    1    3    3  502    0  0.66522617843E+03 -0.13970264074E+04 -0.18702186132E+04  0.24273290512E+04  0.10100000352E+00 0.  1.
       -3    1    3    3    0  502 -0.66522617843E+03  0.13970264074E+04 -0.19855384399E+03  0.15600103495E+04  0.10100000352E+00 0. -1.
</event>
<event>
 5   0  0.4289684E-07  0.3363000E+04  0.7818609E-02  0.8147047E-01
       -1   -1    0    0    0  501  0.00000000000E+00  0.00000000000E+00  0.14470874591E+04  0.14470874591E+04  0.50400001928E-02 0.  1.
        1   -1    0    0  501    0  0.00000000000E+00  0.00000000000E+00 -0.19538848625E+04  0.19538848625E+04  0.50400001928E-02 0. -1.
    10030    2    1    2    0    0  0.00000000000E+00  0.00000000000E+00 -0.50679740339E+03  0.34009723216E+04  0.33630000185E+04 0.  0.
        4    1    3    3  502    0  0.13791866595E+04 -0.54574490502E+03  0.54766096183E+03  0.15811158987E+04  0.12699999809E+01 0.  1.
       -4    1    3    3    0  502 -0.13791866595E+04  0.54574490502E+03 -0.10544583652E+04  0.18198564229E+04  0.12699999809E+01 0. -1.
</event>
<event>
 5   0  0.1300176E-06  0.3429457E+04  0.7818609E-02  0.8130714E-01
        2   -1    0    0  501    0  0.00000000000E+00  0.00000000000E+00  0.18234400413E+04  0.18234400413E+04  0.25500000920E-02 0.  1.
       -2   -1    0    0    0  501  0.00000000000E+00  0.00000000000E+00 -0.16124977670E+04  0.16124977671E+04  0.25500000920E-02 0. -1.
    10030    2    1    2    0    0  0.00000000000E+00  0.00000000000E+00  0.21094227424E+03  0.34359378083E+04  0.34294565137E+04 0.  0.
        1    1    3    3  502    0  0.14702022579E+04  0.47379636606E+03 -0.64045948209E+03  0.16721740412E+04  0.50400001928E-02 0. -1.
       -1    1    3    3    0  502 -0.14702022579E+04 -0.47379636606E+03  0.85140175632E+03  0.17637637672E+04  0.50400001928E-02 0.  1.
</event>
<event>
 5   0  0.4060750E-07  0.3412653E+04  0.7818609E-02  0.8134808E-01
       -4   -1    0    0    0  501  0.00000000000E+00  0.00000000000E+00  0.16379239046E+04  0.16379243970E+04  0.12699999809E+01 0.  1.
        4   -1    0    0  501    0  0.00000000000E+00  0.00000000000E+00 -0.17775843288E+04  0.17775847824E+04  0.12699999809E+01 0. -1.
    10030    2    1    2    0    0  0.00000000000E+00  0.00000000000E+00 -0.13966042416E+03  0.34155091794E+04  0.34126526223E+04 0.  0.
        1    1    3    3  502    0 -0.28782911962E+03  0.11737522458E+04 -0.12754170783E+04  0.17570511262E+04  0.50400001928E-02 0. -1.
       -1    1    3    3    0  502  0.28782911962E+03 -0.11737522458E+04  0.11357566541E+04  0.16584580531E+04  0.50400001928E-02 0.  1.
</event>
<event>
 5   0  0.1268230E-06  0.3061527E+04  0.7818609E-02  0.8226376E-01
        2   -1    0    0  501    0  0.00000000000E+00  0.00000000000E+00  0.21853266551E+04  0.21853266551E+04  0.25500000920E-02 0. -1.
       -2   -1    0    0    0  501  0.00000000000E+00  0.00000000000E+00 -0.10722594055E+04  0.10722594055E+04  0.25500000920E-02 0.  1.
    10030    2    1    2    0    0  0.00000000000E+00  0.00000000000E+00  0.11130672496E+04  0.32575860605E+04  0.30615271091E+04 0.  0.
        2    1    3    3  502    0  0.14247256413E+03 -0.24640347787E+03 -0.10438554832E+04  0.10819645905E+04  0.25500000920E-02 0.  1.
       -2    1    3    3    0  502 -0.14247256413E+03  0.24640347787E+03  0.21569227328E+04  0.21756214700E+04  0.25500000920E-02 0. -1.
</event>
<event>
 5   0  0.1256208E-06  0.3332326E+04  0.7818609E-02  0.8154718E-01
        2   -1    0    0  501    0  0.00000000000E+00  0.00000000000E+00  0.15547157886E+04  0.15547157886E+04  0.25500000920E-02 0.  1.
       -2   -1    0    0    0  501  0.00000000000E+00  0.00000000000E+00 -0.17855988915E+04  0.17855988915E+04  0.25500000920E-02 0. -1.
    10030    2    1    2    0    0  0.00000000000E+00  0.00000000000E+00 -0.23088310288E+03  0.33403146802E+04  0.33323257877E+04 0.  0.
        3    1    3    3  502    0  0.93111710631E+03  0.37884359943E+02 -0.14999423240E+04  0.17658542624E+04  0.10100000352E+00 0.  1.
       -3    1    3    3    0  502 -0.93111710631E+03 -0.37884359943E+02  0.12690592211E+04  0.15744604178E+04  0.10100000352E+00 0. -1.
</event>
<event>
 5   0  0.4289684E-07  0.3358840E+04  0.7818609E-02  0.8148083E-01
       -1   -1    0    0    0  501  0.00000000000E+00  0.00000000000E+00  0.98202052231E+03  0.98202052232E+03  0.50400001928E-02 0. -1.
        1   -1    0    0  501    0  0.00000000000E+00  0.00000000000E+00 -0.28720908649E+04  0.28720908649E+04  0.50400001928E-02 0.  1.
    10030    2    1    2    0    0  0.00000000000E+00  0.00000000000E+00 -0.18900703426E+04  0.38541113872E+04  0.33588403780E+04 0.  0.
        4    1    3    3  502    0 -0.12179084512E+04 -0.10472117073E+04 -0.15077520104E+04  0.22030140928E+04  0.12699999809E+01 0.  1.
       -4    1    3    3    0  502  0.12179084512E+04  0.10472117073E+04 -0.38231833216E+03  0.16510972944E+04  0.12699999809E+01 0. -1.
</event>
<event>
 5   0  0.4272633E-07  0.3319425E+04  0.7818609E-02  0.8157970E-01
       -1   -1    0    0    0  501  0.00000000000E+00  0.00000000000E+00  0.18260736007E+04  0.18260736007E+04  0.50400001928E-02 0. -1.
        1   -1    0    0  501    0  0.00000000000E+00  0.00000000000E+00 -0.15085070215E+04  0.15085070215E+04  0.50400001928E-02 0.  1.
    10030    2    1    2    0    0  0.00000000000E+00  0.00000000000E+00  0.31756657922E+03  0.33345806223E+04  0.33194245577E+04 0.  0.
        1    1    3    3  502    0 -0.49215672671E+03  0.55494289603E+03  0.16503065210E+04  0.18093345392E+04  0.50400001928E-02 0. -1.
       -1    1    3    3    0  502  0.49215672671E+03 -0.55494289603E+03 -0.13327399418E+04  0.15252460831E+04  0.50400001928E-02 0.  1.
</event>
<event>
 5   0  0.1256208E-06  0.3357070E+04  0.7818609E-02  0.8148524E-01
       -2   -1    0    0    0  501  0.00000000000E+00  0.00000000000E+00  0.14475546254E+04  0.14475546255E+04  0.25500000920E-02 0.  1.
        2   -1    0    0  501    0  0.00000000000E+00  0.00000000000E+00 -0.19463717215E+04  0.19463717215E+04  0.25500000920E-02 0. -1.
    10030    2    1    2    0    0  0.00000000000E+00  0.00000000000E+00 -0.49881709606E+03  0.33939263470E+04  0.33570697868E+04 0.  0.
        3    1    3    3  502    0  0.14916407007E+04 -0.27916731208E+03 -0.97460739579E+03  0.18035481569E+04  0.10100000352E+00 0. -1.
       -3    1    3    3    0  502 -0.14916407007E+04  0.27916731208E+03  0.47579029973E+03  0.15903781901E+04  0.10100000352E+00 0.  1.
</event>
<event>
 5   0  0.1269497E-06  0.3414767E+04  0.7818609E-02  0.8134292E-01
       -2   -1    0    0    0  501  0.00000000000E+00  0.00000000000E+00  0.18661015302E+04  0.18661015302E+04  0.25500000920E-02 0. -1.
        2   -1    0    0  501    0  0.00000000000E+00  0.00000000000E+00 -0.15621647757E+04  0.15621647757E+04  0.25500000920E-02 0.  1.
    10030    2    1    2    0    0  0.00000000000E+00  0.00000000000E+00  0.30393675455E+03  0.34282663059E+04  0.34147668022E+04 0.  0.
        5    1    3    3  502    0  0.59998610422E+03 -0.27596428465E+03 -0.14287388745E+04  0.15739937970E+04  0.46999998093E+01 0.  1.
       -5    1    3    3    0  502 -0.59998610422E+03  0.27596428465E+03  0.17326756290E+04  0.18542725089E+04  0.46999998093E+01 0. -1.
</event>
<event>
 5   0  0.4464951E-07  0.3290251E+04  0.7818609E-02  0.8165381E-01
       -1   -1    0    0    0  501  0.00000000000E+00  0.00000000000E+00  0.12591757420E+04  0.12591757421E+04  0.50400001928E-02 0. -1.
        1   -1    0    0  501    0  0.00000000000E+00  0.00000000000E+00 -0.21493722352E+04  0.21493722352E+04  0.50400001928E-02 0.  1.
    10030    2    1    2    0    0  0.00000000000E+00  0.00000000000E+00 -0.89019649315E+03  0.34085479773E+04  0.32902506769E+04 0.  0.
        3    1    3    3  502    0 -0.41058939765E+02  0.37849204300E+03 -0.21031084785E+04  0.21372897196E+04  0.10100000352E+00 0.  1.
       -3    1    3    3    0  502  0.41058939765E+02 -0.37849204300E+03  0.12129119854E+04  0.12712582576E+04  0.10100000352E+00 0. -1.
</event>
<event>
 5   0  0.4289684E-07  0.3393248E+04  0.7818609E-02  0.8139565E-01
       -1   -1    0    0    0  501  0.00000000000E+00  0.00000000000E+00  0.20950549297E+04  0.20950549297E+04  0.50400001928E-02 0.  1.
        1   -1    0    0  501    0  0.00000000000E+00  0.00000000000E+00 -0.13739653553E+04  0.13739653553E+04  0.50400001928E-02 0. -1.
    10030    2    1    2    0    0  0.00000000000E+00  0.00000000000E+00  0.72108957435E+03  0.34690202850E+04  0.33932479372E+04 0.  0.
        4    1    3    3  502    0  0.51127483192E+02 -0.14649705276E+03  0.20877856835E+04  0.20935439043E+04  0.12699999809E+01 0.  1.
       -4    1    3    3    0  502 -0.51127483192E+02  0.14649705276E+03 -0.13666961092E+04  0.13754763807E+04  0.12699999809E+01 0. -1.
</event>
<event>
 5   0  0.4125758E-07  0.3354672E+04  0.7818609E-02  0.8149122E-01
       -1   -1    0    0    0  501  0.00000000000E+00  0.00000000000E+00  0.12676332618E+04  0.12676332618E+04  0.50400001928E-02 0. -1.
        1   -1    0    0  501    0  0.00000000000E+00  0.00000000000E+00 -0.22194553988E+04  0.22194553988E+04  0.50400001928E-02 0.  1.
    10030    2    1    2    0    0  0.00000000000E+00  0.00000000000E+00 -0.95182213699E+03  0.34870886605E+04  0.33546716599E+04 0.  0.
        2    1    3    3  502    0  0.15294375779E+04 -0.67834407572E+03 -0.59945312716E+03  0.17772658894E+04  0.25500000920E-02 0. -1.
       -2    1    3    3    0  502 -0.15294375779E+04  0.67834407572E+03 -0.35236900983E+03  0.17098227712E+04  0.25500000920E-02 0.  1.
</event>
<event>
 5   0  0.1277635E-06  0.3384447E+04  0.7818609E-02  0.8141734E-01
       -2   -1    0    0    0  501  0.00000000000E+00  0.00000000000E+00  0.21337305497E+04  0.21337305497E+04  0.25500000920E-02 0.  1.
        2   -1    0    0  501    0  0.00000000000E+00  0.00000000000E+00 -0.13420718361E+04  0.13420718361E+04  0.25500000920E-02 0. -1.
    10030    2    1    2    0    0  0.00000000000E+00  0.00000000000E+00  0.79165871358E+03  0.34758023858E+04  0.33844465879E+04 0.  0.
        4    1    3    3  502    0  0.13228154589E+04 -0.10256141320E+04  0.14033100662E+03  0.16797081564E+04  0.12699999809E+01 0.  1.
       -4    1    3    3    0  502 -0.13228154589E+04  0.10256141320E+04  0.65132770696E+03  0.17960942294E+04  0.12699999809E+01 0. -1.
</event>
<event>
 5   0  0.4109937E-07  0.3025043E+04  0.7818609E-02  0.8236616E-01
        1   -1    0    0  501    0  0.00000000000E+00  0.00000000000E+00  0.18617038789E+04  0.18617038789E+04  0.50400001928E-02 0. -1.
       -1   -1    0    0    0  501  0.00000000000E+00  0.00000000000E+00 -0.12288322970E+04  0.12288322971E+04  0.50400001928E-02 0.  1.
    10030    2    1    2    0    0  0.00000000000E+00  0.00000000000E+00  0.63287158187E+03  0.30905361760E+04  0.30250433742E+04 0.  0.
        5    1    3    3  502    0 -0.85300954959E+03  0.88546511888E+03  0.12164313371E+04  0.17295667250E+04  0.46999998093E+01 0. -1.
       -5    1    3    3    0  502  0.85300954959E+03 -0.88546511888E+03 -0.58355975524E+03  0.13609694509E+04  0.46999998093E+01 0.  1.
</event>
<event>
 5   0  0.1269497E-06  0.3334506E+04  0.7818609E-02  0.8154170E-01
       -2   -1    0    0    0  501  0.00000000000E+00  0.00000000000E+00  0.88926341041E+03  0.88926341041E+03  0.25500000920E-02 0. -1.
        2   -1    0    0  501    0  0.00000000000E+00  0.00000000000E+00 -0.31258819860E+04  0.31258819860E+04  0.25500000920E-02 0.  1.
    10030    2    1    2    0    0  0.00000000000E+00  0.00000000000E+00 -0.22366185756E+04  0.40151453964E+04  0.33345059456E+04 0.  0.
        5    1    3    3  502    0 -0.10598516097E+03 -0.34518121325E+03  0.84160735596E+03  0.91580999991E+03  0.46999998093E+01 0. -1.
       -5    1    3    3    0  502  0.10598516097E+03  0.34518121325E+03 -0.30782259315E+04  0.30993353965E+04  0.46999998093E+01 0.  1.
</event>
<event>
 5   0  0.4125758E-07  0.3400390E+04  0.7818609E-02  0.8137811E-01
        1   -1    0    0  501    0  0.00000000000E+00  0.00000000000E+00  0.19640181552E+04  0.19640181552E+04  0.50400001928E-02 0.  1.
       -1   -1    0    0    0  501  0.00000000000E+00  0.00000000000E+00 -0.14718108177E+04  0.14718108177E+04  0.50400001928E-02 0. -1.
    10030    2    1    2    0    0  0.00000000000E+00  0.00000000000E+00  0.49220733758E+03  0.34358289729E+04  0.34003900758E+04 0.  0.
        2    1    3    3  502    0  0.34362362290E+03 -0.15041505034E+04  0.96777224712E+03  0.18212987272E+04  0.25500000920E-02 0.  1.
       -2    1    3    3    0  502 -0.34362362290E+03  0.15041505034E+04 -0.47556490954E+03  0.16145302457E+04  0.25500000920E-02 0. -1.
</event>
<event>
 5   0  0.1300176E-06  0.3421516E+04  0.7818609E-02  0.8132646E-01
        2   -1    0    0  501    0  0.00000000000E+00  0.00000000000E+00  0.21954087245E+04  0.21954087245E+04  0.25500000920E-02 0. -1.
       -2   -1    0    0    0  501  0.00000000000E+00  0.00000000000E+00 -0.13330968634E+04  0.13330968634E+04  0.25500000920E-02 0.  1.
    10030    2    1    2    0    0  0.00000000000E+00  0.00000000000E+00  0.86231186110E+03  0.35285055880E+04  0.34215157370E+04 0.  0.
        1    1    3    3  502    0 -0.16458012374E+04  0.46450241631E+03  0.48027162659E+03  0.17762559058E+04  0.50400001928E-02 0.  1.
       -1    1    3    3    0  502  0.16458012374E+04 -0.46450241631E+03  0.38204023451E+03  0.17522496821E+04  0.50400001928E-02 0. -1.
</event>
<event>
 5   0  0.4109937E-07  0.3373846E+04  0.7818609E-02  0.8144355E-01
        1   -1    0    0  501    0  0.00000000000E+00  0.00000000000E+00  0.16766282351E+04  0.16766282351E+04  0.50400001928E-02 0.  1.
       -1   -1    0    0    0  501  0.00000000000E+00  0.00000000000E+00 -0.16972812525E+04  0.16972812525E+04  0.50400001928E-02 0. -1.
    10030    2    1    2    0    0  0.00000000000E+00  0.00000000000E+00 -0.20653017378E+02  0.33739094875E+04  0.33738462744E+04 0.  0.
        5    1    3    3  502    0 -0.85900310186E+03  0.12644541026E+04  0.70309913297E+03  0.16825875868E+04  0.46999998093E+01 0.  1.
       -5    1    3    3    0  502  0.85900310186E+03 -0.12644541026E+04 -0.72375215035E+03  0.16913219007E+04  0.46999998093E+01 0. -1.
</event>
<event>
 5   0  0.4125758E-07  0.3433944E+04  0.7818609E-02  0.8129625E-01
        1   -1    0    0  501    0  0.00000000000E+00  0.00000000000E+00  0.19000753080E+04  0.19000753080E+04  0.50400001928E-02 0. -1.
       -1   -1    0    0    0  501  0.00000000000E+00  0.00000000000E+00 -0.15515139206E+04  0.15515139206E+04  0.50400001928E-02 0.  1.
    10030    2    1    2    0    0  0.00000000000E+00  0.00000000000E+00  0.34856138744E+03  0.34515892286E+04  0.34339442573E+04 0.  0.
        2    1    3    3  502    0 -0.10421633457E+04  0.12418116458E+04  0.74268862402E+03  0.17831957254E+04  0.25500000920E-02 0. -1.
       -2    1    3    3    0  502  0.10421633457E+04 -0.12418116458E+04 -0.39412723658E+03  0.16683935032E+04  0.25500000920E-02 0.  1.
</event>
<event>
 5   0  0.1268230E-06  0.3382540E+04  0.7818609E-02  0.8142205E-01
        2   -1    0    0  501    0  0.00000000000E+00  0.00000000000E+00  0.10578835765E+04  0.10578835765E+04  0.25500000920E-02 0. -1.
       -2   -1    0    0    0  501  0.00000000000E+00  0.00000000000E+00 -0.27038834565E+04  0.27038834565E+04  0.25500000920E-02 0.  1.
    10030    2    1    2    0    0  0.00000000000E+00  0.00000000000E+00 -0.16459998800E+04  0.37617670330E+04  0.33825398158E+04 0.  0.
        2    1    3    3  502    0  0.87891999595E+03 -0.63584949474E+03  0.62000232779E+03  0.12494830234E+04  0.25500000920E-02 0. -1.
       -2    1    3    3    0  502 -0.87891999595E+03  0.63584949474E+03 -0.22660022078E+04  0.25122840096E+04  0.25500000920E-02 0.  1.
</event>
<event>
 5   0  0.1268230E-06  0.3414330E+04  0.7818609E-02  0.8134398E-01
       -2   -1    0    0    0  501  0.00000000000E+00  0.00000000000E+00  0.11400513957E+04  0.11400513957E+04  0.25500000920E-02 0. -1.
        2   -1    0    0  501    0  0.00000000000E+00  0.00000000000E+00 -0.25563869867E+04  0.25563869867E+04  0.25500000920E-02 0.  1.
    10030    2    1    2    0    0  0.00000000000E+00  0.00000000000E+00 -0.14163355910E+04  0.36964383825E+04  0.34143301260E+04 0.  0.
        2    1    3    3  502    0 -0.10550094410E+04 -0.97307914208E+03  0.29259254199E+03  0.14647656239E+04  0.25500000920E-02 0. -1.
       -2    1    3    3    0  502  0.10550094410E+04  0.97307914208E+03 -0.17089281330E+04  0.22316727585E+04  0.25500000920E-02 0.  1.
</event>
<event>
 5   0  0.1277635E-06  0.3448418E+04  0.7818609E-02  0.8126124E-01
       -2   -1    0    0    0  501  0.00000000000E+00  0.00000000000E+00  0.10979421319E+04  0.10979421319E+04  0.25500000920E-02 0.  1.
        2   -1    0    0  501    0  0.00000000000E+00  0.00000000000E+00 -0.27076986623E+04  0.27076986623E+04  0.25500000920E-02 0. -1.
    10030    2    1    2    0    0  0.00000000000E+00  0.00000000000E+00 -0.16097565304E+04  0.38056407943E+04  0.34484178645E+04 0.  0.
        4    1    3    3  502    0  0.11846434736E+03  0.13432693774E+04 -0.19906543735E+04  0.24043944913E+04  0.12699999809E+01 0. -1.
       -4    1    3    3    0  502 -0.11846434736E+03 -0.13432693774E+04  0.38089784309E+03  0.14012463030E+04  0.12699999809E+01 0.  1.
</event>
<event>
 5   0  0.1268230E-06  0.3367018E+04  0.7818609E-02  0.8146049E-01
       -2   -1    0    0    0  501  0.00000000000E+00  0.00000000000E+00  0.94373782538E+03  0.94373782538E+03  0.25500000920E-02 0.  1.
        2   -1    0    0  501    0  0.00000000000E+00  0.00000000000E+00 -0.30031672448E+04  0.30031672448E+04  0.25500000920E-02 0. -1.
    10030    2    1    2    0    0  0.00000000000E+00  0.00000000000E+00 -0.20594294195E+04  0.39469050702E+04  0.33670179833E+04 0.  0.
        2    1    3    3  502    0 -0.50591566859E+03 -0.11165779139E+04 -0.23823563336E+04  0.26792384369E+04  0.25500000920E-02 0. -1.
       -2    1    3    3    0  502  0.50591566859E+03  0.11165779139E+04  0.32292691413E+03  0.12676666333E+04  0.25500000920E-02 0.  1.
</event>
<event>
 5   0  0.1268230E-06  0.3371722E+04  0.7818609E-02  0.8144882E-01
       -2   -1    0    0    0  501  0.00000000000E+00  0.00000000000E+00  0.29825341959E+04  0.29825341959E+04  0.25500000920E-02 0.  1.
        2   -1    0    0  501    0  0.00000000000E+00  0.00000000000E+00 -0.95292340794E+03  0.95292340794E+03  0.25500000920E-02 0. -1.
    10030    2    1    2    0    0  0.00000000000E+00  0.00000000000E+00  0.20296107880E+04  0.39354576039E+04  0.33717216079E+04 0.  0.
        2    1    3    3  502    0  0.13310915778E+04  0.73156127533E+03  0.16096396971E+03  0.15273821027E+04  0.25500000920E-02 0. -1.
       -2    1    3    3    0  502 -0.13310915778E+04 -0.73156127533E+03  0.18686468183E+04  0.24080755012E+04  0.25500000920E-02 0.  1.
</event>
<event>
 5   0  0.1256208E-06  0.3404371E+04  0.7818609E-02  0.8136834E-01
       -2   -1    0    0    0  501  0.00000000000E+00  0.00000000000E+00  0.14284949009E+04  0.14284949009E+04  0.25500000920E-02 0.  1.
        2   -1    0    0  501    0  0.00000000000E+00  0.00000000000E+00 -0.20283130444E+04  0.20283130444E+04  0.25500000920E-02 0. -1.
    10030    2    1    2    0    0  0.00000000000E+00  0.00000000000E+00 -0.59981814353E+03  0.34568079453E+04  0.34043706269E+04 0.  0.
        3    1    3    3  502    0  0.83559440619E+03  0.39889973573E+03 -0.17502286171E+04  0.19800604114E+04  0.10100000352E+00 0. -1.
       -3    1    3    3    0  502 -0.83559440619E+03 -0.39889973573E+03  0.11504104735E+04  0.14767475338E+04  0.10100000352E+00 0.  1.
</event>
<event>
 5   0  0.4289684E-07  0.3410138E+04  0.7818609E-02  0.8135423E-01
        1   -1    0    0  501    0  0.00000000000E+00  0.00000000000E+00  0.19370866632E+04  0.19370866632E+04  0.50400001928E-02 0. -1.
       -1   -1    0    0    0  501  0.00000000000E+00  0.00000000000E+00 -0.15008417535E+04  0.15008417535E+04  0.50400001928E-02 0.  1.
    10030    2    1    2    0    0  0.00000000000E+00  0.00000000000E+00  0.43624490969E+03  0.34379284168E+04  0.34101381464E+04 0.  0.
        4    1    3    3  502    0  0.53502413069E+03  0.15297213446E+04  0.75249933435E+03  0.17867722501E+04  0.12699999809E+01 0. -1.
       -4    1    3    3    0  502 -0.53502413069E+03 -0.15297213446E+04 -0.31625442466E+03  0.16511561667E+04  0.12699999809E+01 0.  1.
</event>
<event>
 5   0  0.4272633E-07  0.3020037E+04  0.7818609E-02  0.8238032E-01
        1   -1    0    0  501    0  0.00000000000E+00  0.00000000000E+00  0.18724022500E+04  0.18724022500E+04  0.50400001928E-02 0.  1.
       -1   -1    0    0    0  501  0.00000000000E+00  0.00000000000E+00 -0.12177705138E+04  0.12177705138E+04  0.50400001928E-02 0. -1.
    10030    2    1    2    0    0  0.00000000000E+00  0.00000000000E+00  0.65463173617E+03  0.30901727639E+04  0.30200372515E+04 0.  0.
        1    1    3    3  502    0 -0.13365435413E+04 -0.58020000632E+03  0.73297660536E+03  0.16310228046E+04  0.50400001928E-02 0.  1.
       -1    1    3    3    0  502  0.13365435413E+04  0.58020000632E+03 -0.78344869190E+02  0.14591499593E+04  0.50400001928E-02 0. -1.
</event>
<event>
 5   0  0.4464951E-07  0.3326101E+04  0.7818609E-02  0.8156285E-01
        1   -1    0    0  501    0  0.00000000000E+00  0.00000000000E+00  0.22849642531E+04  0.22849642532E+04  0.50400001928E-02 0.  1.
       -1   -1    0    0    0  501  0.00000000000E+00  0.00000000000E+00 -0.12104073495E+04  0.12104073495E+04  0.50400001928E-02 0. -1.
    10030    2    1    2    0    0  0.00000000000E+00  0.00000000000E+00  0.10745569037E+04  0.34953716026E+04  0.33261013366E+04 0.  0.
        3    1    3    3  502    0 -0.44804229514E+03  0.12697233321E+04 -0.48851130573E+03  0.14323346481E+04  0.10100000352E+00 0. -1.
       -3    1    3    3    0  502  0.44804229514E+03 -0.12697233321E+04  0.15630682094E+04  0.20630369545E+04  0.10100000352E+00 0.  1.
</event>
<event>
 5   0  0.4125758E-07  0.3405089E+04  0.7818609E-02  0.8136658E-01
       -1   -1    0    0    0  501  0.00000000000E+00  0.00000000000E+00  0.12327076274E+04  0.12327076274E+04  0.50400001928E-02 0.  1.
        1   -1    0    0  501    0  0.00000000000E+00  0.00000000000E+00 -0.23514560214E+04  0.23514560214E+04  0.50400001928E-02 0. -1.
    10030    2    1    2    0    0  0.00000000000E+00  0.00000000000E+00 -0.11187483940E+04  0.35841636488E+04  0.34050889992E+04 0.  0.
        2    1    3    3  502    0  0.55322990699E+03  0.86825070895E+03 -0.19866863127E+04  0.22375980713E+04  0.25500000920E-02 0. -1.
       -2    1    3    3    0  502 -0.55322990699E+03 -0.86825070895E+03  0.86793791876E+03  0.13465655775E+04  0.25500000920E-02 0.  1.
</event>
<event>
 5   0  0.4464951E-07  0.3383879E+04  0.7818609E-02  0.8141874E-01
        1   -1    0    0  501    0  0.00000000000E+00  0.00000000000E+00  0.24318738731E+04  0.24318738731E+04  0.50400001928E-02 0.  1.
       -1   -1    0    0    0  501  0.00000000000E+00  0.00000000000E+00 -0.11771412419E+04  0.11771412419E+04  0.50400001928E-02 0. -1.
    10030    2    1    2    0    0  0.00000000000E+00  0.00000000000E+00  0.12547326312E+04  0.36090151150E+04  0.33838788579E+04 0.  0.
        3    1    3    3  502    0 -0.57702007174E+03  0.80125939977E+03  0.20927091948E+04  0.23139577726E+04  0.10100000352E+00 0.  1.
       -3    1    3    3    0  502  0.57702007174E+03 -0.80125939977E+03 -0.83797656363E+03  0.12950573425E+04  0.10100000352E+00 0. -1.
</event>
<event>
 5   0  0.1277635E-06  0.3345824E+04  0.7818609E-02  0.8151332E-01
       -2   -1    0    0    0  501  0.00000000000E+00  0.00000000000E+00  0.10989840540E+04  0.10989840540E+04  0.25500000920E-02 0. -1.
        2   -1    0    0  501    0  0.00000000000E+00  0.00000000000E+00 -0.25465657019E+04  0.25465657019E+04  0.25500000920E-02 0.  1.
    10030    2    1    2    0    0  0.00000000000E+00  0.00000000000E+00 -0.14475816480E+04  0.36455497559E+04  0.33458243223E+04 0.  0.
        4    1    3    3  502    0  0.33336312949E+03 -0.50697840167E+03 -0.24224471150E+04  0.24972804636E+04  0.12699999809E+01 0.  1.
       -4    1    3    3    0  502 -0.33336312949E+03  0.50697840167E+03  0.97486546709E+03  0.11482692923E+04  0.12699999809E+01 0. -1.
</event>
<event>
 5   0  0.1277635E-06  0.3393216E+04  0.7818609E-02  0.8139573E-01
       -2   -1    0    0    0  501  0.00000000000E+00  0.00000000000E+00  0.99680897686E+03  0.99680897686E+03  0.25500000920E-02 0.  1.
        2   -1    0    0  501    0  0.00000000000E+00  0.00000000000E+00 -0.28876934308E+04  0.28876934308E+04  0.25500000920E-02 0. -1.
    10030    2    1    2    0    0  0.00000000000E+00  0.00000000000E+00 -0.18908844540E+04  0.38845024077E+04  0.33932160169E+04 0.  0.
        4    1    3    3  502    0 -0.76739077182E+03  0.99081569335E+03  0.36375970736E+03  0.13049624793E+04  0.12699999809E+01 0.  1.
       -4    1    3    3    0  502  0.76739077182E+03 -0.99081569335E+03 -0.22546441613E+04  0.25795399284E+04  0.12699999809E+01 0. -1.
</event>
<event>
 5   0  0.1268230E-06  0.3330513E+04  0.7818609E-02  0.8155175E-01
       -2   -1    0    0    0  501  0.00000000000E+00  0.00000000000E+00  0.19376641670E+04  0.19376641670E+04  0.25500000920E-02 0.  1.
        2   -1    0    0  501    0  0.00000000000E+00  0.00000000000E+00 -0.14311452652E+04  0.14311452652E+04  0.25500000920E-02 0. -1.
    10030    2    1    2    0    0  0.00000000000E+00  0.00000000000E+00  0.50651890176E+03  0.33688094322E+04  0.33305128123E+04 0.  0.
        2    1    3    3  502    0  0.11893050170E+04 -0.13070389080E+02  0.14321921820E+04  0.18616636927E+04  0.25500000920E-02 0.  1.
       -2    1    3    3    0  502 -0.11893050170E+04  0.13070389080E+02 -0.92567328021E+03  0.15071457395E+04  0.25500000920E-02 0. -1.
</event>
<event>
 5   0  0.4289684E-07  0.3440226E+04  0.7818609E-02  0.8128103E-01
       -1   -1    0    0    0  501  0.00000000000E+00  0.00000000000E+00  0.17393690222E+04  0.17393690222E+04  0.50400001928E-02 0.  1.
        1   -1    0    0  501    0  0.00000000000E+00  0.00000000000E+00 -0.17010704957E+04  0.17010704957E+04  0.50400001928E-02 0. -1.
    10030    2    1    2    0    0  0.00000000000E+00  0.00000000000E+00  0.38298526463E+02  0.34404395179E+04  0.34402263442E+04 0.  0.
        4    1    3    3  502    0 -0.16983424596E+04  0.12139137744E+03  0.26346899704E+03  0.17229394945E+04  0.12699999809E+01 0.  1.
       -4    1    3    3    0  502  0.16983424596E+04 -0.12139137744E+03 -0.22517047058E+03  0.17175000234E+04  0.12699999809E+01 0. -1.
</event>
<event>
 5   0  0.4464951E-07  0.3271664E+04  0.7818609E-02  0.8170143E-01
        1   -1    0    0  501    0  0.00000000000E+00  0.00000000000E+00  0.21598134749E+04  0.21598134749E+04  0.50400001928E-02 0. -1.
       -1   -1    0    0    0  501  0.00000000000E+00  0.00000000000E+00 -0.12389712978E+04  0.12389712978E+04  0.50400001928E-02 0.  1.
    10030    2    1    2    0    0  0.00000000000E+00  0.00000000000E+00  0.92084217709E+03  0.33987847727E+04  0.32716643495E+04 0.  0.
        3    1    3    3  502    0  0.55672511814E+03  0.99292199231E+03  0.16808479738E+04  0.20300460244E+04  0.10100000352E+00 0. -1.
       -3    1    3    3    0  502 -0.55672511814E+03 -0.99292199231E+03 -0.76000579666E+03  0.13687387483E+04  0.10100000352E+00 0.  1.
</event>
<event>
 5   0  0.4289684E-07  0.3408544E+04  0.7818609E-02  0.8135813E-01
        1   -1    0    0  501    0  0.00000000000E+00  0.00000000000E+00  0.15835841124E+04  0.15835841124E+04  0.50400001928E-02 0. -1.
       -1   -1    0    0    0  501  0.00000000000E+00  0.00000000000E+00 -0.18341574746E+04  0.18341574746E+04  0.50400001928E-02 0.  1.
    10030    2    1    2    0    0  0.00000000000E+00  0.00000000000E+00 -0.25057336219E+03  0.34177415871E+04  0.34085437574E+04 0.  0.
        4    1    3    3  502    0  0.24400475446E+03  0.13891462310E+04  0.83399523334E+03  0.16385405803E+04  0.12699999809E+01 0.  1.
       -4    1    3    3    0  502 -0.24400475446E+03 -0.13891462310E+04 -0.10845685955E+04  0.17792010068E+04  0.12699999809E+01 0. -1.
</event>
<event>
 5   0  0.4289684E-07  0.3372300E+04  0.7818609E-02  0.8144738E-01
       -1   -1    0    0    0  501  0.00000000000E+00  0.00000000000E+00  0.20011629874E+04  0.20011629875E+04  0.50400001928E-02 0. -1.
        1   -1    0    0  501    0  0.00000000000E+00  0.00000000000E+00 -0.14207249928E+04  0.14207249928E+04  0.50400001928E-02 0.  1.
    10030    2    1    2    0    0  0.00000000000E+00  0.00000000000E+00  0.58043799462E+03  0.34218879803E+04  0.33723002660E+04 0.  0.
        4    1    3    3  502    0 -0.13325105599E+04 -0.46058644917E+03 -0.64824621939E+03  0.15517567603E+04  0.12699999809E+01 0.  1.
       -4    1    3    3    0  502  0.13325105599E+04  0.46058644917E+03  0.12286842140E+04  0.18701312200E+04  0.12699999809E+01 0. -1.
</event>
<event>
 5   0  0.1300176E-06  0.3386119E+04  0.7818609E-02  0.8141322E-01
        2   -1    0    0  501    0  0.00000000000E+00  0.00000000000E+00  0.27285763854E+04  0.27285763854E+04  0.25500000920E-02 0. -1.
       -2   -1    0    0    0  501  0.00000000000E+00  0.00000000000E+00 -0.10505298595E+04  0.10505298595E+04  0.25500000920E-02 0.  1.
    10030    2    1    2    0    0  0.00000000000E+00  0.00000000000E+00  0.16780465259E+04  0.37791062448E+04  0.33861192930E+04 0.  0.
        1    1    3    3  502    0 -0.16192861889E+04 -0.35350912221E+03  0.12246605495E+04  0.20607886652E+04  0.50400001928E-02 0.  1.
       -1    1    3    3    0  502  0.16192861889E+04  0.35350912221E+03  0.45338597638E+03  0.17183175797E+04  0.50400001928E-02 0. -1.
</event>
<event>
 5   0  0.1268230E-06  0.3413754E+04  0.7818609E-02  0.8134539E-01
        2   -1    0    0  501    0  0.00000000000E+00  0.00000000000E+00  0.22803829014E+04  0.22803829014E+04  0.25500000920E-02 0. -1.
       -2   -1    0    0    0  501  0.00000000000E+00  0.00000000000E+00 -0.12776050953E+04  0.12776050953E+04  0.25500000920E-02 0.  1.
    10030    2    1    2    0    0  0.00000000000E+00  0.00000000000E+00  0.10027778061E+04  0.35579879967E+04  0.34137538365E+04 0.  0.
        2    1    3    3  502    0  0.11230736817E+04  0.12803450504E+04  0.38323758563E+03  0.17456944147E+04  0.25500000920E-02 0. -1.
       -2    1    3    3    0  502 -0.11230736817E+04 -0.12803450504E+04  0.61954022047E+03  0.18122935820E+04  0.25500000920E-02 0.  1.
</event>
<event>
 5   0  0.1256208E-06  0.3410567E+04  0.7818609E-02  0.8135318E-01
       -2   -1    0    0    0  501  0.00000000000E+00  0.00000000000E+00  0.19190482225E+04  0.19190482225E+04  0.25500000920E-02 0.  1.
        2   -1    0    0  501    0  0.00000000000E+00  0.00000000000E+00 -0.15153302900E+04  0.15153302900E+04  0.25500000920E-02 0. -1.
    10030    2    1    2    0    0  0.00000000000E+00  0.00000000000E+00  0.40371793250E+03  0.34343785125E+04  0.34105670493E+04 0.  0.
        3    1    3    3  502    0 -0.64588170822E+03  0.10073868542E+04  0.14252486361E+04  0.18610011122E+04  0.10100000352E+00 0.  1.
       -3    1    3    3    0  502  0.64588170822E+03 -0.10073868542E+04 -0.10215307036E+04  0.15733774002E+04  0.10100000352E+00 0. -1.
</event>
<event>
 5   0  0.1269497E-06  0.3429511E+04  0.7818609E-02  0.8130701E-01
        2   -1    0    0  501    0  0.00000000000E+00  0.00000000000E+00  0.21251332156E+04  0.21251332156E+04  0.25500000920E-02 0.  1.
       -2   -1    0    0    0  501  0.00000000000E+00  0.00000000000E+00 -0.13836243776E+04  0.13836243776E+04  0.25500000920E-02 0. -1.
    10030    2    1    2    0    0  0.00000000000E+00  0.00000000000E+00  0.74150883804E+03  0.35087575932E+04  0.34295108239E+04 0.  0.
        5    1    3    3  502    0  0.15695583801E+04 -0.31694074400E+02 -0.33500129600E+03  0.16052308186E+04  0.46999998093E+01 0. -1.
       -5    1    3    3    0  502 -0.15695583801E+04  0.31694074400E+02  0.10765101340E+04  0.19035267746E+04  0.46999998093E+01 0.  1.
</event>
<event>
 5   0  0.4109937E-07  0.2951400E+04  0.7818609E-02  0.8257747E-01
        1   -1    0    0  501    0  0.00000000000E+00  0.00000000000E+00  0.15905543227E+04  0.15905543227E+04  0.50400001928E-02 0.  1.
       -1   -1    0    0    0  501  0.00000000000E+00  0.00000000000E+00 -0.13691395754E+04  0.13691395755E+04  0.50400001928E-02 0. -1.
    10030    2    1    2    0    0  0.00000000000E+00  0.00000000000E+00  0.22141474728E+03  0.29596938982E+04  0.29514002576E+04 0.  0.
        5    1    3    3  502    0 -0.17375321538E+03  0.12592136063E+04  0.86238673382E+03  0.15360800939E+04  0.46999998093E+01 0.  1.
       -5    1    3    3    0  502  0.17375321538E+03 -0.12592136063E+04 -0.64097198655E+03  0.14236138043E+04  0.46999998093E+01 0. -1.
</event>
<event>
 5   0  0.4125758E-07  0.3430280E+04  0.7818609E-02  0.8130514E-01
       -1   -1    0    0    0  501  0.00000000000E+00  0.00000000000E+00  0.12937092492E+04  0.12937092492E+04  0.50400001928E-02 0. -1.
        1   -1    0    0  501    0  0.00000000000E+00  0.00000000000E+00 -0.22738532353E+04  0.22738532354E+04  0.50400001928E-02 0.  1.
    10030    2    1    2    0    0  0.00000000000E+00  0.00000000000E+00 -0.98014398612E+03  0.35675624846E+04  0.34302798498E+04 0.  0.
        2    1    3    3  502    0  0.35908715716E+03 -0.55152982295E+03  0.11571634852E+04  0.13312235212E+04  0.25500000920E-02 0. -1.
       -2    1    3    3    0  502 -0.35908715716E+03  0.55152982295E+03 -0.21373074713E+04  0.22363389633E+04  0.25500000920E-02 0.  1.
</event>
<event>
 5   0  0.4109937E-07  0.3426642E+04  0.7818609E-02  0.8131398E-01
        1   -1    0    0  501    0  0.00000000000E+00  0.00000000000E+00  0.17114541463E+04  0.17114541463E+04  0.50400001928E-02 0. -1.
       -1   -1    0    0    0  501  0.00000000000E+00  0.00000000000E+00 -0.17151903686E+04  0.17151903686E+04  0.50400001928E-02 0.  1.
    10030    2    1    2    0    0  0.00000000000E+00  0.00000000000E+00 -0.37362222968E+01  0.34266445149E+04  0.34266424780E+04 0.  0.
        5    1    3    3  502    0  0.12414533089E+04  0.95804358330E+03 -0.69208135263E+03  0.17140748275E+04  0.46999998093E+01 0.  1.
       -5    1    3    3    0  502 -0.12414533089E+04 -0.95804358330E+03  0.68834513034E+03  0.17125696874E+04  0.46999998093E+01 0. -1.
</event>
<event>
 5   0  0.1268230E-06  0.3408336E+04  0.7818609E-02  0.8135863E-01
        2   -1    0    0  501    0  0.00000000000E+00  0.00000000000E+00  0.17707096538E+04  0.17707096538E+04  0.25500000920E-02 0.  1.
       -2   -1    0    0    0  501  0.00000000000E+00  0.00000000000E+00 -0.16401267124E+04  0.16401267124E+04  0.25500000920E-02 0. -1.
    10030    2    1    2    0    0  0.00000000000E+00  0.00000000000E+00  0.13058294146E+03  0.34108363662E+04  0.34083357834E+04 0.  0.
        2    1    3    3  502    0  0.52868560460E+03 -0.47464938544E+03 -0.14848406814E+04  0.16460717958E+04  0.25500000920E-02 0. -1.
       -2    1    3    3    0  502 -0.52868560460E+03  0.47464938544E+03  0.16154236229E+04  0.17647645704E+04  0.25500000920E-02 0.  1.
</event>
<event>
 5   0  0.1300176E-06  0.3526237E+04  0.7818609E-02  0.8107600E-01
        2   -1    0    0  501    0  0.00000000000E+00  0.00000000000E+00  0.28680249992E+04  0.28680249992E+04  0.25500000920E-02 0.  1.
       -2   -1    0    0    0  501  0.00000000000E+00  0.00000000000E+00 -0.10838771351E+04  0.10838771351E+04  0.25500000920E-02 0. -1.
    10030    2    1    2    0    0  0.00000000000E+00  0.00000000000E+00  0.17841478641E+04  0.39519021342E+04  0.35262369287E+04 0.  0.
        1    1    3    3  502    0 -0.11146992372E+04 -0.99293718541E+03  0.19434611548E+04  0.24506162294E+04  0.50400001928E-02 0.  1.
       -1    1    3    3    0  502  0.11146992372E+04  0.99293718541E+03 -0.15931329069E+03  0.15012859049E+04  0.50400001928E-02 0. -1.
</event>
<event>
 5   0  0.1300176E-06  0.3391818E+04  0.7818609E-02  0.8139917E-01
        2   -1    0    0  501    0  0.00000000000E+00  0.00000000000E+00  0.10844129631E+04  0.10844129631E+04  0.25500000920E-02 0. -1.
       -2   -1    0    0    0  501  0.00000000000E+00  0.00000000000E+00 -0.26522257899E+04  0.26522257899E+04  0.25500000920E-02 0.  1.
    10030    2    1    2    0    0  0.00000000000E+00  0.00000000000E+00 -0.15678128268E+04  0.37366387530E+04  0.33918184076E+04 0.  0.
        1    1    3    3  502    0 -0.17405282031E+03  0.11462678813E+04  0.57961324087E+03  0.12962160117E+04  0.50400001928E-02 0. -1.
       -1    1    3    3    0  502  0.17405282031E+03 -0.11462678813E+04 -0.21474260677E+04  0.24404227413E+04  0.50400001928E-02 0.  1.
</event>
<event>
 5   0  0.1256208E-06  0.3520359E+04  0.7818609E-02  0.8108982E-01
        2   -1    0    0  501    0  0.00000000000E+00  0.00000000000E+00  0.17671014377E+04  0.17671014377E+04  0.25500000920E-02 0.  1.
       -2   -1    0    0    0  501  0.00000000000E+00  0.00000000000E+00 -0.17532843907E+04  0.17532843907E+04  0.25500000920E-02 0. -1.
    10030    2    1    2    0    0  0.00000000000E+00  0.00000000000E+00  0.13817047027E+02  0.35203858283E+04  0.35203587132E+04 0.  0.
        3    1    3    3  502    0  0.20848394136E+02 -0.16047111426E+04  0.72989324153E+03  0.17630305332E+04  0.10100000352E+00 0.  1.
       -3    1    3    3    0  502 -0.20848394136E+02  0.16047111426E+04 -0.71607619450E+03  0.17573552951E+04  0.10100000352E+00 0. -1.
</event>
<event>
 5   0  0.4289684E-07  0.3370306E+04  0.7818609E-02  0.8145233E-01
        1   -1    0    0  501    0  0.00000000000E+00  0.00000000000E+00  0.18151768272E+04  0.18151768272E+04  0.50400001928E-02 0. -1.
       -1   -1    0    0    0  501  0.00000000000E+00  0.00000000000E+00 -0.15644431839E+04  0.15644431839E+04  0.50400001928E-02 0.  1.
    10030    2    1    2    0    0  0.00000000000E+00  0.00000000000E+00  0.25073364327E+03  0.33796200112E+04  0.33703062264E+04 0.  0.
        4    1    3    3  502    0  0.55252180643E+03 -0.65031544093E+02  0.17204322663E+04  0.18081477385E+04  0.12699999809E+01 0. -1.
       -4    1    3    3    0  502 -0.55252180643E+03  0.65031544093E+02 -0.14696986230E+04  0.15714722727E+04  0.12699999809E+01 0.  1.
</event>
<event>
 5   0  0.1256208E-06  0.3175834E+04  0.7818609E-02  0.8195229E-01
        2   -1    0    0  501    0  0.00000000000E+00  0.00000000000E+00  0.14517225449E+04  0.14517225449E+04  0.25500000920E-02 0. -1.
       -2   -1    0    0    0  501  0.00000000000E+00  0.00000000000E+00 -0.17368884016E+04  0.17368884016E+04  0.25500000920E-02 0.  1.
    10030    2    1    2    0    0  0.00000000000E+00  0.00000000000E+00 -0.28516585675E+03  0.31886109465E+04  0.31758337807E+04 0.  0.
        3    1    3    3  502    0 -0.62329845247E+03  0.14583510607E+04 -0.63581780166E+02  0.15872401930E+04  0.10100000352E+00 0. -1.
       -3    1    3    3    0  502  0.62329845247E+03 -0.14583510607E+04 -0.22158407659E+03  0.16013707536E+04  0.10100000352E+00 0.  1.
</event>
<event>
 5   0  0.4125758E-07  0.3377005E+04  0.7818609E-02  0.8143573E-01
       -1   -1    0    0    0  501  0.00000000000E+00  0.00000000000E+00  0.20742433985E+04  0.20742433985E+04  0.50400001928E-02 0. -1.
        1   -1    0    0  501    0  0.00000000000E+00  0.00000000000E+00 -0.13744970685E+04  0.13744970685E+04  0.50400001928E-02 0.  1.
    10030    2    1    2    0    0  0.00000000000E+00  0.00000000000E+00  0.69974632996E+03  0.34487404670E+04  0.33770054608E+04 0.  0.
        2    1    3    3  502    0 -0.75986481098E+03  0.10195405886E+04 -0.78466391205E+03  0.14941736839E+04  0.25500000920E-02 0.  1.
       -2    1    3    3    0  502  0.75986481098E+03 -0.10195405886E+04  0.14844102420E+04  0.19545667831E+04  0.25500000920E-02 0. -1.
</event>
<event>
 5   0  0.1269497E-06  0.3395481E+04  0.7818609E-02  0.8139016E-01
       -2   -1    0    0    0  501  0.00000000000E+00  0.00000000000E+00  0.97991605694E+03  0.97991605694E+03  0.25500000920E-02 0.  1.
        2   -1    0    0  501    0  0.00000000000E+00  0.00000000000E+00 -0.29413977471E+04  0.29413977472E+04  0.25500000920E-02 0. -1.
    10030    2    1    2    0    0  0.00000000000E+00  0.00000000000E+00 -0.19614816902E+04  0.39213138041E+04  0.33954810453E+04 0.  0.
        5    1    3    3  502    0 -0.65836969300E+03 -0.32982916615E+03 -0.27473645344E+04  0.28443403289E+04  0.46999998093E+01 0. -1.
       -5    1    3    3    0  502  0.65836969300E+03  0.32982916615E+03  0.78588284421E+03  0.10769734752E+04  0.46999998093E+01 0.  1.
</event>
<event>
 5   0  0.1256208E-06  0.3275402E+04  0.7818609E-02  0.8169183E-01
        2   -1    0    0  501    0  0.00000000000E+00  0.00000000000E+00  0.30264811250E+04  0.30264811250E+04  0.25500000920E-02 0.  1.
       -2   -1    0    0    0  501  0.00000000000E+00  0.00000000000E+00 -0.88619873860E+03  0.88619873860E+03  0.25500000920E-02 0. -1.
    10030    2    1    2    0    0  0.00000000000E+00  0.00000000000E+00  0.21402823864E+04  0.39126798636E+04  0.32754015054E+04 0.  0.
        3    1    3    3  502    0  0.71982164409E+02 -0.47190799026E+03 -0.80124505601E+03  0.93266941263E+03  0.10100000352E+00 0. -1.
       -3    1    3    3    0  502 -0.71982164409E+02  0.47190799026E+03  0.29415274424E+04  0.29800104510E+04  0.10100000352E+00 0.  1.
</event>
<event>
 5   0  0.4125758E-07  0.3479010E+04  0.7818609E-02  0.8118782E-01
        1   -1    0    0  501    0  0.00000000000E+00  0.00000000000E+00  0.14231784302E+04  0.14231784302E+04  0.50400001928E-02 0. -1.
       -1   -1    0    0    0  501  0.00000000000E+00  0.00000000000E+00 -0.21261410223E+04  0.21261410223E+04  0.50400001928E-02 0.  1.
    10030    2    1    2    0    0  0.00000000000E+00  0.00000000000E+00 -0.70296259211E+03  0.35493194526E+04  0.34790102285E+04 0.  0.
        2    1    3    3  502    0  0.11962558811E+04 -0.11602493602E+04  0.15726615193E+03  0.16738994455E+04  0.25500000920E-02 0. -1.
       -2    1    3    3    0  502 -0.11962558811E+04  0.11602493602E+04 -0.86022874404E+03  0.18754200071E+04  0.25500000920E-02 0.  1.
</event>
<event>
 5   0  0.4125758E-07  0.3340783E+04  0.7818609E-02  0.8152595E-01
       -1   -1    0    0    0  501  0.00000000000E+00  0.00000000000E+00  0.20727447522E+04  0.20727447522E+04  0.50400001928E-02 0. -1.
        1   -1    0    0  501    0  0.00000000000E+00  0.00000000000E+00 -0.13461411823E+04  0.13461411823E+04  0.50400001928E-02 0.  1.
    10030    2    1    2    0    0  0.00000000000E+00  0.00000000000E+00  0.72660356993E+03  0.34188859346E+04  0.33407825858E+04 0.  0.
        2    1    3    3  502    0 -0.70071318306E+03 -0.12718020499E+04  0.12082728815E+04  0.18890216449E+04  0.25500000920E-02 0.  1.
       -2    1    3    3    0  502  0.70071318306E+03  0.12718020499E+04 -0.48166931153E+03  0.15298642896E+04  0.25500000920E-02 0. -1.
</event>
<event>
 5   0  0.4060750E-07  0.3437361E+04  0.7818609E-02  0.8128797E-01
        3   -1    0    0  501    0  0.00000000000E+00  0.00000000000E+00  0.19296249316E+04  0.19296249343E+04  0.10100000352E+00 0.  1.
       -3   -1    0    0    0  501  0.00000000000E+00  0.00000000000E+00 -0.15307964268E+04  0.15307964301E+04  0.10100000352E+00 0. -1.
    10030    2    1    2    0    0  0.00000000000E+00  0.00000000000E+00  0.39882850482E+03  0.34604213644E+04  0.34373611744E+04 0.  0.
        4    1    3    3  502    0  0.23640753242E+03  0.16790643206E+04  0.48185988725E+03  0.17627637613E+04  0.12699999809E+01 0.  1.
       -4    1    3    3    0  502 -0.23640753242E+03 -0.16790643206E+04 -0.83031382426E+02  0.16976576032E+04  0.12699999809E+01 0. -1.
</event>
<event>
 5   0  0.1268230E-06  0.3379836E+04  0.7818609E-02  0.8142873E-01
       -2   -1    0    0    0  501  0.00000000000E+00  0.00000000000E+00  0.23434149645E+04  0.23434149645E+04  0.25500000920E-02 0. -1.
        2   -1    0    0  501    0  0.00000000000E+00  0.00000000000E+00 -0.12186584172E+04  0.12186584172E+04  0.25500000920E-02 0.  1.
    10030    2    1    2    0    0  0.00000000000E+00  0.00000000000E+00  0.11247565474E+04  0.35620733817E+04  0.33798357188E+04 0.  0.
        2    1    3    3  502    0 -0.14285779026E+04 -0.72658787253E+03 -0.22879412464E+01  0.16027382803E+04  0.25500000920E-02 0.  1.
       -2    1    3    3    0  502  0.14285779026E+04  0.72658787253E+03  0.11270444886E+04  0.19593351014E+04  0.25500000920E-02 0. -1.
</event>
<event>
 5   0  0.1268230E-06  0.3364650E+04  0.7818609E-02  0.8146637E-01
       -2   -1    0    0    0  501  0.00000000000E+00  0.00000000000E+00  0.14385361086E+04  0.14385361086E+04  0.25500000920E-02 0.  1.
        2   -1    0    0  501    0  0.00000000000E+00  0.00000000000E+00 -0.19674290081E+04  0.19674290081E+04  0.25500000920E-02 0. -1.
    10030    2    1    2    0    0  0.00000000000E+00  0.00000000000E+00 -0.52889289943E+03  0.34059651167E+04  0.33646501567E+04 0.  0.
        2    1    3    3  502    0 -0.64478585918E+03  0.34914874198E+03  0.12682671724E+04  0.14649762007E+04  0.25500000920E-02 0.  1.
       -2    1    3    3    0  502  0.64478585918E+03 -0.34914874198E+03 -0.17971600718E+04  0.19409889160E+04  0.25500000920E-02 0. -1.
</event>
<event>
 5   0  0.4464951E-07  0.3400280E+04  0.7818609E-02  0.8137838E-01
        1   -1    0    0  501    0  0.00000000000E+00  0.00000000000E+00  0.11043238357E+04  0.11043238357E+04  0.50400001928E-02 0.  1.
       -1   -1    0    0    0  501  0.00000000000E+00  0.00000000000E+00 -0.26174173337E+04  0.26174173337E+04  0.50400001928E-02 0. -1.
    10030    2    1    2    0    0  0.00000000000E+00  0.00000000000E+00 -0.15130934979E+04  0.37217411694E+04  0.34002801941E+04 0.  0.
        3    1    3    3  502    0  0.35079383758E+01  0.11064700732E+04 -0.21693883149E+04  0.24352687735E+04  0.10100000352E+00 0. -1.
       -3    1    3    3    0  502 -0.35079383758E+01 -0.11064700732E+04  0.65629481694E+03  0.12864723959E+04  0.10100000352E+00 0.  1.
</event>
<event>
 5   0  0.1277635E-06  0.3133576E+04  0.7818609E-02  0.8206583E-01
        2   -1    0    0  501    0  0.00000000000E+00  0.00000000000E+00  0.16029133809E+04  0.16029133809E+04  0.25500000920E-02 0. -1.
       -2   -1    0    0    0  501  0.00000000000E+00  0.00000000000E+00 -0.15314768145E+04  0.15314768145E+04  0.25500000920E-02 0.  1.
    10030    2    1    2    0    0  0.00000000000E+00  0.00000000000E+00  0.71436566480E+02  0.31343901954E+04  0.31335760265E+04 0.  0.
        4    1    3    3  502    0  0.67188864953E+03 -0.12471438392E+04 -0.63379929932E+03  0.15519359773E+04  0.12699999809E+01 0. -1.
       -4    1    3    3    0  502 -0.67188864953E+03  0.12471438392E+04  0.70523586580E+03  0.15824542181E+04  0.12699999809E+01 0.  1.
</event>
<event>
 5   0  0.4272633E-07  0.3004001E+04  0.7818609E-02  0.8242589E-01
       -1   -1    0    0    0  501  0.00000000000E+00  0.00000000000E+00  0.10883134887E+04  0.10883134887E+04  0.50400001928E-02 0. -1.
        1   -1    0    0  501    0  0.00000000000E+00  0.00000000000E+00 -0.20729377100E+04  0.20729377100E+04  0.50400001928E-02 0.  1.
    10030    2    1    2    0    0  0.00000000000E+00  0.00000000000E+00 -0.98462422133E+03  0.31612511987E+04  0.30040013789E+04 0.  0.
        1    1    3    3  502    0 -0.11578100005E+04 -0.51463632123E+03 -0.13411532749E+04  0.18450112865E+04  0.50400001928E-02 0.  1.
       -1    1    3    3    0  502  0.11578100005E+04  0.51463632123E+03  0.35652905357E+03  0.13162399122E+04  0.50400001928E-02 0. -1.
</event>
<event>
 5   0  0.1268230E-06  0.3385247E+04  0.7818609E-02  0.8141537E-01
       -2   -1    0    0    0  501  0.00000000000E+00  0.00000000000E+00  0.10739320671E+04  0.10739320671E+04  0.25500000920E-02 0.  1.
        2   -1    0    0  501    0  0.00000000000E+00  0.00000000000E+00 -0.26677429101E+04  0.26677429101E+04  0.25500000920E-02 0. -1.
    10030    2    1    2    0    0  0.00000000000E+00  0.00000000000E+00 -0.15938108429E+04  0.37416749772E+04  0.33852472039E+04 0.  0.
        2    1    3    3  502    0  0.47430797064E+02 -0.16247651721E+04 -0.13186942393E+04  0.20930996254E+04  0.25500000920E-02 0. -1.
       -2    1    3    3    0  502 -0.47430797064E+02  0.16247651721E+04 -0.27511660367E+03  0.16485753518E+04  0.25500000920E-02 0.  1.
</event>
<event>
 5   0  0.4109937E-07  0.3403542E+04  0.7818609E-02  0.8137037E-01
       -1   -1    0    0    0  501  0.00000000000E+00  0.00000000000E+00  0.31321151814E+04  0.31321151814E+04  0.50400001928E-02 0. -1.
        1   -1    0    0  501    0  0.00000000000E+00  0.00000000000E+00 -0.92462281013E+03  0.92462281014E+03  0.50400001928E-02 0.  1.
    10030    2    1    2    0    0  0.00000000000E+00  0.00000000000E+00  0.22074923713E+04  0.40567379916E+04  0.34035423551E+04 0.  0.
        5    1    3    3  502    0  0.47674317441E+03 -0.12538680786E+04 -0.14437518337E+03  0.13491980939E+04  0.46999998093E+01 0.  1.
       -5    1    3    3    0  502 -0.47674317441E+03  0.12538680786E+04  0.23518675547E+04  0.27075398977E+04  0.46999998093E+01 0. -1.
</event>
<event>
 5   0  0.1300176E-06  0.3394561E+04  0.7818609E-02  0.8139243E-01
       -2   -1    0    0    0  501  0.00000000000E+00  0.00000000000E+00  0.97406441021E+03  0.97406441021E+03  0.25500000920E-02 0.  1.
        2   -1    0    0  501    0  0.00000000000E+00  0.00000000000E+00 -0.29574646043E+04  0.29574646043E+04  0.25500000920E-02 0. -1.
    10030    2    1    2    0    0  0.00000000000E+00  0.00000000000E+00 -0.19834001940E+04  0.39315290145E+04  0.33945609527E+04 0.  0.
        1    1    3    3  502    0 -0.25204649660E+03 -0.16664267908E+04 -0.75932500855E+03  0.18485345965E+04  0.50400001928E-02 0.  1.
       -1    1    3    3    0  502  0.25204649660E+03  0.16664267908E+04 -0.12240751855E+04  0.20829944180E+04  0.50400001928E-02 0. -1.
</event>
<event>
 5   0  0.4060750E-07  0.3442289E+04  0.7818609E-02  0.8127605E-01
       -4   -1    0    0    0  501  0.00000000000E+00  0.00000000000E+00  0.16710702872E+04  0.16710707698E+04  0.12699999809E+01 0. -1.
        4   -1    0    0  501    0  0.00000000000E+00  0.00000000000E+00 -0.17727182046E+04  0.17727186595E+04  0.12699999809E+01 0.  1.
    10030    2    1    2    0    0  0.00000000000E+00  0.00000000000E+00 -0.10164791738E+03  0.34437894293E+04  0.34422889673E+04 0.  0.
        2    1    3    3  502    0 -0.30966912272E+03 -0.74615423031E+03 -0.15712552208E+04  0.17667722179E+04  0.25500000920E-02 0.  1.
       -2    1    3    3    0  502  0.30966912272E+03  0.74615423031E+03  0.14696073035E+04  0.16770172114E+04  0.25500000920E-02 0. -1.
</event>
<event>
 5   0  0.4272633E-07  0.3239903E+04  0.7818609E-02  0.8178358E-01
       -1   -1    0    0    0  501  0.00000000000E+00  0.00000000000E+00  0.13156274355E+04  0.13156274355E+04  0.50400001928E-02 0. -1.
        1   -1    0    0  501    0  0.00000000000E+00  0.00000000000E+00 -0.19946696029E+04  0.19946696029E+04  0.50400001928E-02 0.  1.
    10030    2    1    2    0    0  0.00000000000E+00  0.00000000000E+00 -0.67904216732E+03  0.33102970384E+04  0.32399025012E+04 0.  0.
        1    1    3    3  502    0 -0.57654545266E+03 -0.10155090552E+03  0.12037692007E+04  0.13385729469E+04  0.50400001928E-02 0. -1.
       -1    1    3    3    0  502  0.57654545266E+03  0.10155090552E+03 -0.18828113681E+04  0.19717240915E+04  0.50400001928E-02 0.  1.
</event>
<event>
 5   0  0.4289684E-07  0.3136661E+04  0.7818609E-02  0.8205748E-01
        1   -1    0    0  501    0  0.00000000000E+00  0.00000000000E+00  0.17889676878E+04  0.17889676878E+04  0.50400001928E-02 0.  1.
       -1   -1    0    0    0  501  0.00000000000E+00  0.00000000000E+00 -0.13749050992E+04  0.13749050992E+04  0.50400001928E-02 0. -1.
    10030    2    1    2    0    0  0.00000000000E+00  0.00000000000E+00  0.41406258866E+03  0.31638727870E+04  0.31366611524E+04 0.  0.
        4    1    3    3  502    0  0.82374752846E+03  0.11126836075E+04  0.95033290144E+03  0.16792138153E+04  0.12699999809E+01 0.  1.
       -4    1    3    3    0  502 -0.82374752846E+03 -0.11126836075E+04 -0.53627031278E+03  0.14846589717E+04  0.12699999809E+01 0. -1.
</event>
<event>
 5   0  0.4289684E-07  0.2988614E+04  0.7818609E-02  0.8246990E-01
        1   -1    0    0  501    0  0.00000000000E+00  0.00000000000E+00  0.30157171355E+04  0.30157171356E+04  0.50400001928E-02 0. -1.
       -1   -1    0    0    0  501  0.00000000000E+00  0.00000000000E+00 -0.74043856478E+03  0.74043856480E+03  0.50400001928E-02 0.  1.
    10030    2    1    2    0    0  0.00000000000E+00  0.00000000000E+00  0.22752785708E+04  0.37561557003E+04  0.29886139046E+04 0.  0.
        4    1    3    3  502    0 -0.67026850285E+03  0.22928586158E+03  0.27912654425E+04  0.28797562840E+04  0.12699999809E+01 0. -1.
       -4    1    3    3    0  502  0.67026850285E+03 -0.22928586158E+03 -0.51598687170E+03  0.87639941631E+03  0.12699999809E+01 0.  1.
</event>
<event>
 5   0  0.1268230E-06  0.3324038E+04  0.7818609E-02  0.8156806E-01
        2   -1    0    0  501    0  0.00000000000E+00  0.00000000000E+00  0.26865166316E+04  0.26865166316E+04  0.25500000920E-02 0.  1.
       -2   -1    0    0    0  501  0.00000000000E+00  0.00000000000E+00 -0.10282111647E+04  0.10282111647E+04  0.25500000920E-02 0. -1.
    10030    2    1    2    0    0  0.00000000000E+00  0.00000000000E+00  0.16583054669E+04  0.37147277963E+04  0.33240375418E+04 0.  0.
        2    1    3    3  502    0 -0.26931098117E+03  0.16270020113E+04  0.59838125819E+03  0.17543443446E+04  0.25500000920E-02 0.  1.
       -2    1    3    3    0  502  0.26931098117E+03 -0.16270020113E+04  0.10599242087E+04  0.19603834517E+04  0.25500000920E-02 0. -1.
</event>
<event>
 5   0  0.1268230E-06  0.3416525E+04  0.7818609E-02  0.8133862E-01
        2   -1    0    0  501    0  0.00000000000E+00  0.00000000000E+00  0.13551914558E+04  0.13551914558E+04  0.25500000920E-02 0. -1.
       -2   -1    0    0    0  501  0.00000000000E+00  0.00000000000E+00 -0.21533204228E+04  0.21533204228E+04  0.25500000920E-02 0.  1.
    10030    2    1    2    0    0  0.00000000000E+00  0.00000000000E+00 -0.79812896698E+03  0.35085118785E+04  0.34165253920E+04 0.  0.
        2    1    3    3  502    0  0.15384175953E+04  0.59997573391E+03  0.50280021171E+02  0.16520374268E+04  0.25500000920E-02 0. -1.
       -2    1    3    3    0  502 -0.15384175953E+04 -0.59997573391E+03 -0.84840898815E+03  0.18564744518E+04  0.25500000920E-02 0.  1.
</event>
<event>
 5   0  0.1277635E-06  0.3313817E+04  0.7818609E-02  0.8159389E-01
        2   -1    0    0  501    0  0.00000000000E+00  0.00000000000E+00  0.14127608034E+04  0.14127608035E+04  0.25500000920E-02 0. -1.
       -2   -1    0    0    0  501  0.00000000000E+00  0.00000000000E+00 -0.19432487915E+04  0.19432487915E+04  0.25500000920E-02 0.  1.
    10030    2    1    2    0    0  0.00000000000E+00  0.00000000000E+00 -0.53048798806E+03  0.33560095950E+04  0.33138169678E+04 0.  0.
        4    1    3    3  502    0 -0.11761509451E+04 -0.68737357583E+02 -0.14451046515E+04  0.18645066202E+04  0.12699999809E+01 0.  1.
       -4    1    3    3    0  502  0.11761509451E+04  0.68737357583E+02  0.91461666342E+03  0.14915029748E+04  0.12699999809E+01 0. -1.
</event>
<event>
 5   0  0.1269497E-06  0.3390267E+04  0.7818609E-02  0.8140299E-01
        2   -1    0    0  501    0  0.00000000000E+00  0.00000000000E+00  0.23676747781E+04  0.23676747781E+04  0.25500000920E-02 0.  1.
       -2   -1    0    0    0  501  0.00000000000E+00  0.00000000000E+00 -0.12136288139E+04  0.12136288139E+04  0.25500000920E-02 0. -1.
    10030    2    1    2    0    0  0.00000000000E+00  0.00000000000E+00  0.11540459642E+04  0.35813035920E+04  0.33902674423E+04 0.  0.
        5    1    3    3  502    0  0.15812742383E+04 -0.35798916962E+03  0.10997519269E+04  0.19590969483E+04  0.46999998093E+01 0.  1.
       -5    1    3    3    0  502 -0.15812742383E+04  0.35798916962E+03  0.54294037242E+02  0.16222066436E+04  0.46999998093E+01 0. -1.
</event>
<event>
 5   0  0.1268230E-06  0.3410833E+04  0.7818609E-02  0.8135253E-01
        2   -1    0    0  501    0  0.00000000000E+00  0.00000000000E+00  0.16733037607E+04  0.16733037607E+04  0.25500000920E-02 0. -1.
       -2   -1    0    0    0  501  0.00000000000E+00  0.00000000000E+00 -0.17381451605E+04  0.17381451605E+04  0.25500000920E-02 0.  1.
    10030    2    1    2    0    0  0.00000000000E+00  0.00000000000E+00 -0.64841399880E+02  0.34114489212E+04  0.34108326454E+04 0.  0.
        2    1    3    3  502    0 -0.10222606452E+04 -0.30382442662E+03 -0.13634950032E+04  0.17310241861E+04  0.25500000920E-02 0.  1.
       -2    1    3    3    0  502  0.10222606452E+04  0.30382442662E+03  0.12986536033E+04  0.16804247351E+04  0.25500000920E-02 0. -1.
</event>
<event>
 5   0  0.1300176E-06  0.3368009E+04  0.7818609E-02  0.8145803E-01
        2   -1    0    0  501    0  0.00000000000E+00  0.00000000000E+00  0.20397137360E+04  0.20397137360E+04  0.25500000920E-02 0.  1.
       -2   -1    0    0    0  501  0.00000000000E+00  0.00000000000E+00 -0.13903276803E+04  0.13903276803E+04  0.25500000920E-02 0. -1.
    10030    2    1    2    0    0  0.00000000000E+00  0.00000000000E+00  0.64938605569E+03  0.34300414162E+04  0.33680085908E+04 0.  0.
        1    1    3    3  502    0  0.87676658471E+03  0.11178004162E+04  0.12456005406E+04  0.18893697683E+04  0.50400001928E-02 0.  1.
       -1    1    3    3    0  502 -0.87676658471E+03 -0.11178004162E+04 -0.59621448493E+03  0.15406716479E+04  0.50400001928E-02 0. -1.
</event>
<event>
 5   0  0.1277635E-06  0.3398637E+04  0.7818609E-02  0.8138241E-01
       -2   -1    0    0    0  501  0.00000000000E+00  0.00000000000E+00  0.26847063973E+04  0.26847063973E+04  0.25500000920E-02 0.  1.
        2   -1    0    0  501    0  0.00000000000E+00  0.00000000000E+00 -0.10756051740E+04  0.10756051740E+04  0.25500000920E-02 0. -1.
    10030    2    1    2    0    0  0.00000000000E+00  0.00000000000E+00  0.16091012232E+04  0.37603115713E+04  0.33986374279E+04 0.  0.
        4    1    3    3  502    0  0.46556489412E+03 -0.66186998860E+03 -0.84874203827E+03  0.11726837651E+04  0.12699999809E+01 0. -1.
       -4    1    3    3    0  502 -0.46556489412E+03  0.66186998860E+03  0.24578432615E+04  0.25876278062E+04  0.12699999809E+01 0.  1.
</event>
<event>
 5   0  0.1277635E-06  0.3147329E+04  0.7818609E-02  0.8202868E-01
        2   -1    0    0  501    0  0.00000000000E+00  0.00000000000E+00  0.14176044960E+04  0.14176044960E+04  0.25500000920E-02 0. -1.
       -2   -1    0    0    0  501  0.00000000000E+00  0.00000000000E+00 -0.17469047510E+04  0.17469047510E+04  0.25500000920E-02 0.  1.
    10030    2    1    2    0    0  0.00000000000E+00  0.00000000000E+00 -0.32930025502E+03  0.31645092470E+04  0.31473290449E+04 0.  0.
        4    1    3    3  502    0 -0.83994275393E+03 -0.68866377378E+03  0.98027408359E+03  0.14631132954E+04  0.12699999809E+01 0. -1.
       -4    1    3    3    0  502  0.83994275393E+03  0.68866377378E+03 -0.13095743386E+04  0.17013959517E+04  0.12699999809E+01 0.  1.
</event>
<event>
 5   0  0.1269497E-06  0.3447043E+04  0.7818609E-02  0.8126456E-01
       -2   -1    0    0    0  501  0.00000000000E+00  0.00000000000E+00  0.18919002545E+04  0.18919002545E+04  0.25500000920E-02 0.  1.
        2   -1    0    0  501    0  0.00000000000E+00  0.00000000000E+00 -0.15701279738E+04  0.15701279738E+04  0.25500000920E-02 0. -1.
    10030    2    1    2    0    0  0.00000000000E+00  0.00000000000E+00  0.32177228071E+03  0.34620282283E+04  0.34470425081E+04 0.  0.
        5    1    3    3  502    0 -0.61838948182E+03  0.68514679731E+03  0.16227798665E+04  0.18668873212E+04  0.46999998093E+01 0.  1.
       -5    1    3    3    0  502  0.61838948182E+03 -0.68514679731E+03 -0.13010075858E+04  0.15951409071E+04  0.46999998093E+01 0. -1.
</event>
<event>
 5   0  0.4289684E-07  0.3416131E+04  0.7818609E-02  0.8133959E-01
       -1   -1    0    0    0  501  0.00000000000E+00  0.00000000000E+00  0.10368754806E+04  0.10368754806E+04  0.50400001928E-02 0.  1.
        1   -1    0    0  501    0  0.00000000000E+00  0.00000000000E+00 -0.28137304103E+04  0.28137304103E+04  0.50400001928E-02 0. -1.
    10030    2    1    2    0    0  0.00000000000E+00  0.00000000000E+00 -0.17768549297E+04  0.38506058909E+04  0.34161311869E+04 0.  0.
        4    1    3    3  502    0  0.23577410462E+03 -0.52781027638E+03  0.92325914395E+03  0.10893035280E+04  0.12699999809E+01 0.  1.
       -4    1    3    3    0  502 -0.23577410462E+03  0.52781027638E+03 -0.27001140736E+04  0.27613023630E+04  0.12699999809E+01 0. -1.
</event>
<event>
 5   0  0.1269497E-06  0.3345492E+04  0.7818609E-02  0.8151415E-01
       -2   -1    0    0    0  501  0.00000000000E+00  0.00000000000E+00  0.14995595281E+04  0.14995595281E+04  0.25500000920E-02 0.  1.
        2   -1    0    0  501    0  0.00000000000E+00  0.00000000000E+00 -0.18659345143E+04  0.18659345143E+04  0.25500000920E-02 0. -1.
    10030    2    1    2    0    0  0.00000000000E+00  0.00000000000E+00 -0.36637498618E+03  0.33654940423E+04  0.33454924179E+04 0.  0.
        5    1    3    3  502    0 -0.12298236372E+03 -0.38158505061E+03  0.14505063879E+04  0.15048995594E+04  0.46999998093E+01 0. -1.
       -5    1    3    3    0  502  0.12298236372E+03  0.38158505061E+03 -0.18168813740E+04  0.18605944829E+04  0.46999998093E+01 0.  1.
</event>
<event>
 5   0  0.1256208E-06  0.3395066E+04  0.7818609E-02  0.8139118E-01
       -2   -1    0    0    0  501  0.00000000000E+00  0.00000000000E+00  0.18385468038E+04  0.18385468038E+04  0.25500000920E-02 0.  1.
        2   -1    0    0  501    0  0.00000000000E+00  0.00000000000E+00 -0.15673344321E+04  0.15673344321E+04  0.25500000920E-02 0. -1.
    10030    2    1    2    0    0  0.00000000000E+00  0.00000000000E+00  0.27121237174E+03  0.34058812358E+04  0.33950656609E+04 0.  0.
        3    1    3    3  502    0 -0.19650474826E+03  0.11197496090E+04  0.14002427530E+04  0.18036443885E+04  0.10100000352E+00 0.  1.
       -3    1    3    3    0  502  0.19650474826E+03 -0.11197496090E+04 -0.11290303812E+04  0.16022368473E+04  0.10100000352E+00 0. -1.
</event>
<event>
 5   0  0.4125758E-07  0.2790263E+04  0.7818609E-02  0.8306298E-01
       -1   -1    0    0    0  501  0.00000000000E+00  0.00000000000E+00  0.12711309219E+04  0.12711309219E+04  0.50400001928E-02 0.  1.
        1   -1    0    0  501    0  0.00000000000E+00  0.00000000000E+00 -0.15312288047E+04  0.15312288047E+04  0.50400001928E-02 0. -1.
    10030    2    1    2    0    0  0.00000000000E+00  0.00000000000E+00 -0.26009788277E+03  0.28023597266E+04  0.27902632723E+04 0.  0.
        2    1    3    3  502    0 -0.13765005284E+04  0.17697856608E+03 -0.27320517075E+03  0.14144667486E+04  0.25500000920E-02 0.  1.
       -2    1    3    3    0  502  0.13765005284E+04 -0.17697856608E+03  0.13107287981E+02  0.13878929781E+04  0.25500000920E-02 0. -1.
</event>
<event>
 5   0  0.4272633E-07  0.3374462E+04  0.7818609E-02  0.8144203E-01
       -1   -1    0    0    0  501  0.00000000000E+00  0.00000000000E+00  0.18212846276E+04  0.18212846276E+04  0.50400001928E-02 0. -1.
        1   -1    0    0  501    0  0.00000000000E+00  0.00000000000E+00 -0.15630445014E+04  0.15630445014E+04  0.50400001928E-02 0.  1.
    10030    2    1    2    0    0  0.00000000000E+00  0.00000000000E+00  0.25824012617E+03  0.33843291290E+04  0.33744622817E+04 0.  0.
        1    1    3    3  502    0  0.30214074418E+03 -0.19789406534E+03 -0.15238184826E+04  0.15660376299E+04  0.50400001928E-02 0.  1.
       -1    1    3    3    0  502 -0.30214074418E+03  0.19789406534E+03  0.17820586088E+04  0.18182914991E+04  0.50400001928E-02 0. -1.
</event>
<event>
 5   0  0.4109937E-07  0.3330829E+04  0.7818609E-02  0.8155095E-01
       -1   -1    0    0    0  501  0.00000000000E+00  0.00000000000E+00  0.17713823492E+04  0.17713823492E+04  0.50400001928E-02 0.  1.
        1   -1    0    0  501    0  0.00000000000E+00  0.00000000000E+00 -0.15657861571E+04  0.15657861571E+04  0.50400001928E-02 0. -1.
    10030    2    1    2    0    0  0.00000000000E+00  0.00000000000E+00  0.20559619207E+03  0.33371685063E+04  0.33308293029E+04 0.  0.
        5    1    3    3  502    0  0.10222702437E+04 -0.12025434609E+04  0.63525722992E+03  0.17013879818E+04  0.46999998093E+01 0.  1.
       -5    1    3    3    0  502 -0.10222702437E+04  0.12025434609E+04 -0.42966103785E+03  0.16357805244E+04  0.46999998093E+01 0. -1.
</event>
<event>
 5   0  0.4109937E-07  0.3356994E+04  0.7818609E-02  0.8148543E-01
       -1   -1    0    0    0  501  0.00000000000E+00  0.00000000000E+00  0.18515427587E+04  0.18515427587E+04  0.50400001928E-02 0.  1.
        1   -1    0    0  501    0  0.00000000000E+00  0.00000000000E+00 -0.15216245522E+04  0.15216245522E+04  0.50400001928E-02 0. -1.
    10030    2    1    2    0    0  0.00000000000E+00  0.00000000000E+00  0.32991820656E+03  0.33731673109E+04  0.33569944421E+04 0.  0.
        5    1    3    3  502    0 -0.10140515758E+04  0.36117677231E+03 -0.11291046673E+04  0.15600156086E+04  0.46999998093E+01 0. -1.
       -5    1    3    3    0  502  0.10140515758E+04 -0.36117677231E+03  0.14590228739E+04  0.18131517023E+04  0.46999998093E+01 0.  1.
</event>
<event>
 5   0  0.1300176E-06  0.3396744E+04  0.7818609E-02  0.8138706E-01
        2   -1    0    0  501    0  0.00000000000E+00  0.00000000000E+00  0.26271865880E+04  0.26271865880E+04  0.25500000920E-02 0.  1.
       -2   -1    0    0    0  501  0.00000000000E+00  0.00000000000E+00 -0.10979301553E+04  0.10979301553E+04  0.25500000920E-02 0. -1.
    10030    2    1    2    0    0  0.00000000000E+00  0.00000000000E+00  0.15292564327E+04  0.37251167432E+04  0.33967439577E+04 0.  0.
        1    1    3    3  502    0 -0.13083823022E+04  0.96591782123E+03  0.22781175688E+03  0.16421813793E+04  0.50400001928E-02 0. -1.
       -1    1    3    3    0  502  0.13083823022E+04 -0.96591782123E+03  0.13014446758E+04  0.20829353639E+04  0.50400001928E-02 0.  1.
</event>
<event>
 5   0  0.1300176E-06  0.3365935E+04  0.7818609E-02  0.8146318E-01
        2   -1    0    0  501    0  0.00000000000E+00  0.00000000000E+00  0.16015913597E+04  0.16015913597E+04  0.25500000920E-02 0.  1.
       -2   -1    0    0    0  501  0.00000000000E+00  0.00000000000E+00 -0.17684783056E+04  0.17684783056E+04  0.25500000920E-02 0. -1.
    10030    2    1    2    0    0  0.00000000000E+00  0.00000000000E+00 -0.16688694592E+03  0.33700696653E+04  0.33659349810E+04 0.  0.
        1    1    3    3  502    0  0.10782592363E+04 -0.12619731839E+04  0.19467513286E+03  0.16712623088E+04  0.50400001928E-02 0. -1.
       -1    1    3    3    0  502 -0.10782592363E+04  0.12619731839E+04 -0.36156207877E+03  0.16988073565E+04  0.50400001928E-02 0.  1.
</event>
<event>
 5   0  0.4289684E-07  0.3375223E+04  0.7818609E-02  0.8144014E-01
       -1   -1    0    0    0  501  0.00000000000E+00  0.00000000000E+00  0.11252123631E+04  0.11252123632E+04  0.50400001928E-02 0.  1.
        1   -1    0    0  501    0  0.00000000000E+00  0.00000000000E+00 -0.25311068202E+04  0.25311068202E+04  0.50400001928E-02 0. -1.
    10030    2    1    2    0    0  0.00000000000E+00  0.00000000000E+00 -0.14058944571E+04  0.36563191834E+04  0.33752230661E+04 0.  0.
        4    1    3    3  502    0  0.62470774353E+03  0.15246108169E+04 -0.30738873332E+03  0.16760630520E+04  0.12699999809E+01 0.  1.
       -4    1    3    3    0  502 -0.62470774353E+03 -0.15246108169E+04 -0.10985057237E+04  0.19802561314E+04  0.12699999809E+01 0. -1.
</event>
<event>
 5   0  0.1268230E-06  0.3380980E+04  0.7818609E-02  0.8142590E-01
       -2   -1    0    0    0  501  0.00000000000E+00  0.00000000000E+00  0.11642195601E+04  0.11642195601E+04  0.25500000920E-02 0. -1.
        2   -1    0    0  501    0  0.00000000000E+00  0.00000000000E+00 -0.24546545752E+04  0.24546545752E+04  0.25500000920E-02 0.  1.
    10030    2    1    2    0    0  0.00000000000E+00  0.00000000000E+00 -0.12904350151E+04  0.36188741354E+04  0.33809802542E+04 0.  0.
        2    1    3    3  502    0  0.15848702227E+04 -0.57538508383E+03 -0.77576334102E+03  0.18559877098E+04  0.25500000920E-02 0. -1.
       -2    1    3    3    0  502 -0.15848702227E+04  0.57538508383E+03 -0.51467167410E+03  0.17628864256E+04  0.25500000920E-02 0.  1.
</event>
<event>
 5   0  0.1269497E-06  0.3396949E+04  0.7818609E-02  0.8138656E-01
       -2   -1    0    0    0  501  0.00000000000E+00  0.00000000000E+00  0.13460049771E+04  0.13460049771E+04  0.25500000920E-02 0. -1.
        2   -1    0    0  501    0  0.00000000000E+00  0.00000000000E+00 -0.21432428423E+04  0.21432428423E+04  0.25500000920E-02 0.  1.
    10030    2    1    2    0    0  0.00000000000E+00  0.00000000000E+00 -0.79723786520E+03  0.34892478194E+04  0.33969489444E+04 0.  0.
        5    1    3    3  502    0 -0.10483207282E+04 -0.13235416394E+04 -0.20906585898E+03  0.17013140344E+04  0.46999998093E+01 0.  1.
       -5    1    3    3    0  502  0.10483207282E+04  0.13235416394E+04 -0.58817200623E+03  0.17879337849E+04  0.46999998093E+01 0. -1.
</event>
<event>
 5   0  0.1269497E-06  0.3254016E+04  0.7818609E-02  0.8174696E-01
       -2   -1    0    0    0  501  0.00000000000E+00  0.00000000000E+00  0.83984873032E+03  0.83984873033E+03  0.25500000920E-02 0.  1.
        2   -1    0    0  501    0  0.00000000000E+00  0.00000000000E+00 -0.31519420718E+04  0.31519420718E+04  0.25500000920E-02 0. -1.
    10030    2    1    2    0    0  0.00000000000E+00  0.00000000000E+00 -0.23120933415E+04  0.39917908021E+04  0.32540157019E+04 0.  0.
        5    1    3    3  502    0 -0.54565485488E+03  0.13457354022E+04 -0.20561583667E+04  0.25172509435E+04  0.46999998093E+01 0.  1.
       -5    1    3    3    0  502  0.54565485488E+03 -0.13457354022E+04 -0.25593497474E+03  0.14745398586E+04  0.46999998093E+01 0. -1.
</event>
<event>
 5   0  0.4272633E-07  0.3396104E+04  0.7818609E-02  0.8138863E-01
       -1   -1    0    0    0  501  0.00000000000E+00  0.00000000000E+00  0.10141744732E+04  0.10141744732E+04  0.50400001928E-02 0. -1.
        1   -1    0    0  501    0  0.00000000000E+00  0.00000000000E+00 -0.28430814584E+04  0.28430814584E+04  0.50400001928E-02 0.  1.
    10030    2    1    2    0    0  0.00000000000E+00  0.00000000000E+00 -0.18289069853E+04  0.38572559316E+04  0.33961040268E+04 0.  0.
        1    1    3    3  502    0  0.89187132743E+03 -0.14215677306E+04 -0.12086454380E+04  0.20681182442E+04  0.50400001928E-02 0. -1.
       -1    1    3    3    0  502 -0.89187132743E+03  0.14215677306E+04 -0.62026154724E+03  0.17891376874E+04  0.50400001928E-02 0.  1.
</event>
<event>
 5   0  0.4289684E-07  0.3455052E+04  0.7818609E-02  0.8124525E-01
       -1   -1    0    0    0  501  0.00000000000E+00  0.00000000000E+00  0.13568476354E+04  0.13568476354E+04  0.50400001928E-02 0. -1.
        1   -1    0    0  501    0  0.00000000000E+00  0.00000000000E+00 -0.21994707769E+04  0.21994707769E+04  0.50400001928E-02 0.  1.
    10030    2    1    2    0    0  0.00000000000E+00  0.00000000000E+00 -0.84262314143E+03  0.35563184123E+04  0.34550523717E+04 0.  0.
        4    1    3    3  502    0  0.45980616886E+03  0.14503331315E+04 -0.12634963988E+04  0.19777038878E+04  0.12699999809E+01 0. -1.
       -4    1    3    3    0  502 -0.45980616886E+03 -0.14503331315E+04  0.42087325732E+03  0.15786145245E+04  0.12699999809E+01 0.  1.
</event>
<event>
 5   0  0.1256208E-06  0.3388545E+04  0.7818609E-02  0.8140724E-01
        2   -1    0    0  501    0  0.00000000000E+00  0.00000000000E+00  0.25042357596E+04  0.25042357596E+04  0.25500000920E-02 0.  1.
       -2   -1    0    0    0  501  0.00000000000E+00  0.00000000000E+00 -0.11462812382E+04  0.11462812382E+04  0.25500000920E-02 0. -1.
    10030    2    1    2    0    0  0.00000000000E+00  0.00000000000E+00  0.13579545215E+04  0.36505169978E+04  0.33885445060E+04 0.  0.
        3    1    3    3  502    0 -0.13830199016E+04 -0.97503136821E+03  0.58802105494E+03  0.17914237322E+04  0.10100000352E+00 0.  1.
       -3    1    3    3    0  502  0.13830199016E+04  0.97503136821E+03  0.76993346653E+03  0.18590932656E+04  0.10100000352E+00 0. -1.
</event>
<event>
 5   0  0.1300176E-06  0.3433825E+04  0.7818609E-02  0.8129654E-01
        2   -1    0    0  501    0  0.00000000000E+00  0.00000000000E+00  0.16233350050E+04  0.16233350050E+04  0.25500000920E-02 0.  1.
       -2   -1    0    0    0  501  0.00000000000E+00  0.00000000000E+00 -0.18158841397E+04  0.18158841397E+04  0.25500000920E-02 0. -1.
    10030    2    1    2    0    0  0.00000000000E+00  0.00000000000E+00 -0.19254913465E+03  0.34392191447E+04  0.34338248581E+04 0.  0.
        1    1    3    3  502    0 -0.11280007036E+04  0.87258613439E+03 -0.10538078759E+04  0.17732183138E+04  0.50400001928E-02 0. -1.
       -1    1    3    3    0  502  0.11280007036E+04 -0.87258613439E+03  0.86125874121E+03  0.16660008309E+04  0.50400001928E-02 0.  1.
</event>
<event>
 5   0  0.1269497E-06  0.3331522E+04  0.7818609E-02  0.8154921E-01
       -2   -1    0    0    0  501  0.00000000000E+00  0.00000000000E+00  0.13357247312E+04  0.13357247312E+04  0.25500000920E-02 0.  1.
        2   -1    0    0  501    0  0.00000000000E+00  0.00000000000E+00 -0.20773439924E+04  0.20773439924E+04  0.25500000920E-02 0. -1.
    10030    2    1    2    0    0  0.00000000000E+00  0.00000000000E+00 -0.74161926113E+03  0.34130687236E+04  0.33315220221E+04 0.  0.
        5    1    3    3  502    0  0.57284721321E+03  0.55264915981E+03  0.11282785237E+04  0.13808003261E+04  0.46999998093E+01 0.  1.
       -5    1    3    3    0  502 -0.57284721321E+03 -0.55264915981E+03 -0.18698977849E+04  0.20322683975E+04  0.46999998093E+01 0. -1.
</event>
<event>
 5   0  0.4125758E-07  0.3367085E+04  0.7818609E-02  0.8146032E-01
        1   -1    0    0  501    0  0.00000000000E+00  0.00000000000E+00  0.17671012365E+04  0.17671012365E+04  0.50400001928E-02 0.  1.
       -1   -1    0    0    0  501  0.00000000000E+00  0.00000000000E+00 -0.16039352621E+04  0.16039352621E+04  0.50400001928E-02 0. -1.
    10030    2    1    2    0    0  0.00000000000E+00  0.00000000000E+00  0.16316597440E+03  0.33710364987E+04  0.33670853776E+04 0.  0.
        2    1    3    3  502    0  0.48931640506E+03  0.86917195156E+03 -0.12762627537E+04  0.16197953705E+04  0.25500000920E-02 0. -1.
       -2    1    3    3    0  502 -0.48931640506E+03 -0.86917195156E+03  0.14394287281E+04  0.17512411282E+04  0.25500000920E-02 0.  1.
</event>
<event>
 5   0  0.1256208E-06  0.3329783E+04  0.7818609E-02  0.8155358E-01
       -2   -1    0    0    0  501  0.00000000000E+00  0.00000000000E+00  0.16949942774E+04  0.16949942774E+04  0.25500000920E-02 0.  1.
        2   -1    0    0  501    0  0.00000000000E+00  0.00000000000E+00 -0.16353232541E+04  0.16353232541E+04  0.25500000920E-02 0. -1.
    10030    2    1    2    0    0  0.00000000000E+00  0.00000000000E+00  0.59671023362E+02  0.33303175315E+04  0.33297829102E+04 0.  0.
        3    1    3    3  502    0  0.10256892591E+04 -0.68447350168E+03  0.11486397691E+04  0.16852049608E+04  0.10100000352E+00 0.  1.
       -3    1    3    3    0  502 -0.10256892591E+04  0.68447350168E+03 -0.10889687457E+04  0.16451125706E+04  0.10100000352E+00 0. -1.
</event>
<event>
 5   0  0.1277635E-06  0.3320996E+04  0.7818609E-02  0.8157573E-01
       -2   -1    0    0    0  501  0.00000000000E+00  0.00000000000E+00  0.35462903813E+04  0.35462903813E+04  0.25500000920E-02 0.  1.
        2   -1    0    0  501    0  0.00000000000E+00  0.00000000000E+00 -0.77750383676E+03  0.77750383676E+03  0.25500000920E-02 0. -1.
    10030    2    1    2    0    0  0.00000000000E+00  0.00000000000E+00  0.27687865445E+04  0.43237942181E+04  0.33209964636E+04 0.  0.
        4    1    3    3  502    0 -0.16153703094E+04  0.37719717936E+03  0.14814202173E+04  0.22240293212E+04  0.12699999809E+01 0. -1.
       -4    1    3    3    0  502  0.16153703094E+04 -0.37719717936E+03  0.12873663272E+04  0.20997648968E+04  0.12699999809E+01 0.  1.
</event>
<event>
 5   0  0.4060750E-07  0.3412071E+04  0.7818609E-02  0.8134950E-01
        3   -1    0    0  501    0  0.00000000000E+00  0.00000000000E+00  0.25139257309E+04  0.25139257330E+04  0.10100000352E+00 0. -1.
       -3   -1    0    0    0  501  0.00000000000E+00  0.00000000000E+00 -0.11577739876E+04  0.11577739920E+04  0.10100000352E+00 0.  1.
    10030    2    1    2    0    0  0.00000000000E+00  0.00000000000E+00  0.13561517433E+04  0.36716997249E+04  0.34120714118E+04 0.  0.
        5    1    3    3  502    0  0.11817519535E+04  0.11487608706E+04  0.11524679539E+04  0.20110677990E+04  0.46999998093E+01 0.  1.
       -5    1    3    3    0  502 -0.11817519535E+04 -0.11487608706E+04  0.20368378945E+03  0.16606319259E+04  0.46999998093E+01 0. -1.
</event>
<event>
 5   0  0.1256208E-06  0.3385535E+04  0.7818609E-02  0.8141466E-01
        2   -1    0    0  501    0  0.00000000000E+00  0.00000000000E+00  0.16090740700E+04  0.16090740700E+04  0.25500000920E-02 0.  1.
       -2   -1    0    0    0  501  0.00000000000E+00  0.00000000000E+00 -0.17808142298E+04  0.17808142298E+04  0.25500000920E-02 0. -1.
    10030    2    1    2    0    0  0.00000000000E+00  0.00000000000E+00 -0.17174015981E+03  0.33898882997E+04  0.33855351131E+04 0.  0.
        3    1    3    3  502    0  0.39282102676E+03  0.14849849003E+04  0.62636267323E+03  0.16588606698E+04  0.10100000352E+00 0. -1.
       -3    1    3    3    0  502 -0.39282102676E+03 -0.14849849003E+04 -0.79810283304E+03  0.17310276299E+04  0.10100000352E+00 0.  1.
</event>
<event>
 5   0  0.1277635E-06  0.3398921E+04  0.7818609E-02  0.8138171E-01
       -2   -1    0    0    0  501  0.00000000000E+00  0.00000000000E+00  0.16534665562E+04  0.16534665562E+04  0.25500000920E-02 0.  1.
        2   -1    0    0  501    0  0.00000000000E+00  0.00000000000E+00 -0.17467337171E+04  0.17467337171E+04  0.25500000920E-02 0. -1.
    10030    2    1    2    0    0  0.00000000000E+00  0.00000000000E+00 -0.93267160905E+02  0.34002002733E+04  0.33989208780E+04 0.  0.
        4    1    3    3  502    0  0.48344281931E+03 -0.50172001495E+03 -0.15972893797E+04  0.17426344735E+04  0.12699999809E+01 0. -1.
       -4    1    3    3    0  502 -0.48344281931E+03  0.50172001495E+03  0.15040222188E+04  0.16575657998E+04  0.12699999809E+01 0.  1.
</event>
<event>
 5   0  0.1300176E-06  0.3371431E+04  0.7818609E-02  0.8144954E-01
       -2   -1    0    0    0  501  0.00000000000E+00  0.00000000000E+00  0.11751262545E+04  0.11751262545E+04  0.25500000920E-02 0.  1.
        2   -1    0    0  501    0  0.00000000000E+00  0.00000000000E+00 -0.24181546360E+04  0.24181546360E+04  0.25500000920E-02 0. -1.
    10030    2    1    2    0    0  0.00000000000E+00  0.00000000000E+00 -0.12430283815E+04  0.35932808905E+04  0.33714311502E+04 0.  0.
        1    1    3    3  502    0  0.76185570651E+02  0.14199954571E+03  0.11668981733E+04  0.11779726054E+04  0.50400001928E-02 0.  1.
       -1    1    3    3    0  502 -0.76185570651E+02 -0.14199954571E+03 -0.24099265548E+04  0.24153082851E+04  0.50400001928E-02 0. -1.
</event>
<event>
 5   0  0.4289684E-07  0.3435528E+04  0.7818609E-02  0.8129241E-01
       -1   -1    0    0    0  501  0.00000000000E+00  0.00000000000E+00  0.16425670335E+04  0.16425670335E+04  0.50400001928E-02 0. -1.
        1   -1    0    0  501    0  0.00000000000E+00  0.00000000000E+00 -0.17964038966E+04  0.17964038966E+04  0.50400001928E-02 0.  1.
    10030    2    1    2    0    0  0.00000000000E+00  0.00000000000E+00 -0.15383686312E+03  0.34389709301E+04  0.34355283840E+04 0.  0.
        4    1    3    3  502    0 -0.11800326878E+04 -0.56389954609E+03 -0.11917005542E+04  0.17693534599E+04  0.12699999809E+01 0.  1.
       -4    1    3    3    0  502  0.11800326878E+04  0.56389954609E+03  0.10378636911E+04  0.16696174701E+04  0.12699999809E+01 0. -1.
</event>
<event>
 5   0  0.1256208E-06  0.3451665E+04  0.7818609E-02  0.8125341E-01
        2   -1    0    0  501    0  0.00000000000E+00  0.00000000000E+00  0.23914042423E+04  0.23914042423E+04  0.25500000920E-02 0. -1.
       -2   -1    0    0    0  501  0.00000000000E+00  0.00000000000E+00 -0.12455014095E+04  0.12455014095E+04  0.25500000920E-02 0.  1.
    10030    2    1    2    0    0  0.00000000000E+00  0.00000000000E+00  0.11459028328E+04  0.36369056518E+04  0.34516647313E+04 0.  0.
        3    1    3    3  502    0  0.12496824223E+04  0.55570031097E+03 -0.53614940556E+03  0.14690014253E+04  0.10100000352E+00 0.  1.
       -3    1    3    3    0  502 -0.12496824223E+04 -0.55570031097E+03  0.16820522384E+04  0.21679042265E+04  0.10100000352E+00 0. -1.
</event>
<event>
 5   0  0.1269497E-06  0.3428005E+04  0.7818609E-02  0.8131067E-01
        2   -1    0    0  501    0  0.00000000000E+00  0.00000000000E+00  0.23136097387E+04  0.23136097387E+04  0.25500000920E-02 0. -1.
       -2   -1    0    0    0  501  0.00000000000E+00  0.00000000000E+00 -0.12697926324E+04  0.12697926324E+04  0.25500000920E-02 0.  1.
    10030    2    1    2    0    0  0.00000000000E+00  0.00000000000E+00  0.10438171063E+04  0.35834023711E+04  0.34280050178E+04 0.  0.
        5    1    3    3  502    0  0.75044026056E+03  0.59802515565E+03 -0.96267883783E+03  0.13592524807E+04  0.46999998093E+01 0.  1.
       -5    1    3    3    0  502 -0.75044026056E+03 -0.59802515565E+03  0.20064959441E+04  0.22241498904E+04  0.46999998093E+01 0. -1.
</event>
<event>
 5   0  0.4464951E-07  0.3355374E+04  0.7818609E-02  0.8148947E-01
        1   -1    0    0  501    0  0.00000000000E+00  0.00000000000E+00  0.18865178440E+04  0.18865178440E+04  0.50400001928E-02 0. -1.
       -1   -1    0    0    0  501  0.00000000000E+00  0.00000000000E+00 -0.14919733734E+04  0.14919733734E+04  0.50400001928E-02 0.  1.
    10030    2    1    2    0    0  0.00000000000E+00  0.00000000000E+00  0.39454447058E+03  0.33784912174E+04  0.33553744302E+04 0.  0.
        3    1    3    3  502    0  0.32740199550E+03 -0.16261921641E+04 -0.55337373597E+02  0.16597455396E+04  0.10100000352E+00 0.  1.
       -3    1    3    3    0  502 -0.32740199550E+03  0.16261921641E+04  0.44988184417E+03  0.17187456778E+04  0.10100000352E+00 0. -1.
</event>
<event>
 5   0  0.4289684E-07  0.2982669E+04  0.7818609E-02  0.8248697E-01
       -1   -1    0    0    0  501  0.00000000000E+00  0.00000000000E+00  0.17408399902E+04  0.17408399902E+04  0.50400001928E-02 0.  1.
        1   -1    0    0  501    0  0.00000000000E+00  0.00000000000E+00 -0.12775895626E+04  0.12775895626E+04  0.50400001928E-02 0. -1.
    10030    2    1    2    0    0  0.00000000000E+00  0.00000000000E+00  0.46325042764E+03  0.30184295528E+04  0.29826692754E+04 0.  0.
        4    1    3    3  502    0  0.10828840867E+04  0.66182734901E+03  0.10242293362E+04  0.16308588937E+04  0.12699999809E+01 0.  1.
       -4    1    3    3    0  502 -0.10828840867E+04 -0.66182734901E+03 -0.56097890858E+03  0.13875706591E+04  0.12699999809E+01 0. -1.
</event>
<event>
 5   0  0.1277635E-06  0.3382802E+04  0.7818609E-02  0.8142140E-01
        2   -1    0    0  501    0  0.00000000000E+00  0.00000000000E+00  0.11901989716E+04  0.11901989716E+04  0.25500000920E-02 0. -1.
       -2   -1    0    0    0  501  0.00000000000E+00  0.00000000000E+00 -0.24036636636E+04  0.24036636636E+04  0.25500000920E-02 0.  1.
    10030    2    1    2    0    0  0.00000000000E+00  0.00000000000E+00 -0.12134646919E+04  0.35938626352E+04  0.33828024007E+04 0.  0.
        4    1    3    3  502    0 -0.80961245051E+03  0.38380718893E+03 -0.21308323032E+04  0.23115423845E+04  0.12699999809E+01 0.  1.
       -4    1    3    3    0  502  0.80961245051E+03 -0.38380718893E+03  0.91736761125E+03  0.12823202507E+04  0.12699999809E+01 0. -1.
</event>
<event>
 5   0  0.4464951E-07  0.3338976E+04  0.7818609E-02  0.8153048E-01
        1   -1    0    0  501    0  0.00000000000E+00  0.00000000000E+00  0.15407554172E+04  0.15407554172E+04  0.50400001928E-02 0. -1.
       -1   -1    0    0    0  501  0.00000000000E+00  0.00000000000E+00 -0.18089759032E+04  0.18089759032E+04  0.50400001928E-02 0.  1.
    10030    2    1    2    0    0  0.00000000000E+00  0.00000000000E+00 -0.26822048602E+03  0.33497313204E+04  0.33389755449E+04 0.  0.
        3    1    3    3  502    0 -0.15784845300E+04  0.47267298819E+03  0.13537420276E+03  0.16532874373E+04  0.10100000352E+00 0.  1.
       -3    1    3    3    0  502  0.15784845300E+04 -0.47267298819E+03 -0.40359468879E+03  0.16964438831E+04  0.10100000352E+00 0. -1.
</event>
<event>
 5   0  0.1269497E-06  0.3360232E+04  0.7818609E-02  0.8147736E-01
       -2   -1    0    0    0  501  0.00000000000E+00  0.00000000000E+00  0.12033725333E+04  0.12033725333E+04  0.25500000920E-02 0. -1.
        2   -1    0    0  501    0  0.00000000000E+00  0.00000000000E+00 -0.23457316073E+04  0.23457316073E+04  0.25500000920E-02 0.  1.
    10030    2    1    2    0    0  0.00000000000E+00  0.00000000000E+00 -0.11423590741E+04  0.35491041406E+04  0.33602315317E+04 0.  0.
        5    1    3    3  502    0  0.15451124994E+04  0.11418982783E+03 -0.12575970120E+04  0.19954909890E+04  0.46999998093E+01 0.  1.
       -5    1    3    3    0  502 -0.15451124994E+04 -0.11418982783E+03  0.11523793793E+03  0.15536131516E+04  0.46999998093E+01 0. -1.
</event>
<event>
 5   0  0.1268230E-06  0.3038192E+04  0.7818609E-02  0.8232908E-01
       -2   -1    0    0    0  501  0.00000000000E+00  0.00000000000E+00  0.82577746924E+03  0.82577746924E+03  0.25500000920E-02 0.  1.
        2   -1    0    0  501    0  0.00000000000E+00  0.00000000000E+00 -0.27945207510E+04  0.27945207510E+04  0.25500000920E-02 0. -1.
    10030    2    1    2    0    0  0.00000000000E+00  0.00000000000E+00 -0.19687432818E+04  0.36202982203E+04  0.30381917474E+04 0.  0.
        2    1    3    3  502    0  0.93702240925E+02 -0.64752787685E+03  0.64928037484E+03  0.92175781332E+03  0.25500000920E-02 0.  1.
       -2    1    3    3    0  502 -0.93702240925E+02  0.64752787685E+03 -0.26180236566E+04  0.26985404070E+04  0.25500000920E-02 0. -1.
</event>
<event>
 5   0  0.1269497E-06  0.3394972E+04  0.7818609E-02  0.8139141E-01
        2   -1    0    0  501    0  0.00000000000E+00  0.00000000000E+00  0.10307513318E+04  0.10307513318E+04  0.25500000920E-02 0. -1.
       -2   -1    0    0    0  501  0.00000000000E+00  0.00000000000E+00 -0.27954942692E+04  0.27954942692E+04  0.25500000920E-02 0.  1.
    10030    2    1    2    0    0  0.00000000000E+00  0.00000000000E+00 -0.17647429375E+04  0.38262456010E+04  0.33949724246E+04 0.  0.
        5    1    3    3  502    0 -0.85201327599E+03 -0.11288797382E+03 -0.25321440075E+04  0.26740317279E+04  0.46999998093E+01 0.  1.
       -5    1    3    3    0  502  0.85201327599E+03  0.11288797382E+03  0.76740107003E+03  0.11522138731E+04  0.46999998093E+01 0. -1.
</event>
<event>
 5   0  0.4109937E-07  0.3441189E+04  0.7818609E-02  0.8127871E-01
        1   -1    0    0  501    0  0.00000000000E+00  0.00000000000E+00  0.24187915284E+04  0.24187915285E+04  0.50400001928E-02 0. -1.
       -1   -1    0    0    0  501  0.00000000000E+00  0.00000000000E+00 -0.12239356811E+04  0.12239356811E+04  0.50400001928E-02 0.  1.
    10030    2    1    2    0    0  0.00000000000E+00  0.00000000000E+00  0.11948558474E+04  0.36427272095E+04  0.34411888973E+04 0.  0.
        5    1    3    3  502    0 -0.14378413134E+04  0.75882607081E+03  0.11936353799E+04  0.20169264137E+04  0.46999998093E+01 0. -1.
       -5    1    3    3    0  502  0.14378413134E+04 -0.75882607081E+03  0.12204674918E+01  0.16258007958E+04  0.46999998093E+01 0.  1.
</event>
<event>
 5   0  0.4289684E-07  0.3396791E+04  0.7818609E-02  0.8138694E-01
       -1   -1    0    0    0  501  0.00000000000E+00  0.00000000000E+00  0.14651682663E+04  0.14651682664E+04  0.50400001928E-02 0. -1.
        1   -1    0    0  501    0  0.00000000000E+00  0.00000000000E+00 -0.19687482403E+04  0.19687482403E+04  0.50400001928E-02 0.  1.
    10030    2    1    2    0    0  0.00000000000E+00  0.00000000000E+00 -0.50357997391E+03  0.34339165066E+04  0.33967911011E+04 0.  0.
        4    1    3    3  502    0 -0.97979904028E+03 -0.29832997610E+03  0.11178382108E+04  0.15161038264E+04  0.12699999809E+01 0. -1.
       -4    1    3    3    0  502  0.97979904028E+03  0.29832997610E+03 -0.16214181847E+04  0.19178126802E+04  0.12699999809E+01 0.  1.
</event>
<event>
 5   0  0.1256208E-06  0.3366614E+04  0.7818609E-02  0.8146149E-01
        2   -1    0    0  501    0  0.00000000000E+00  0.00000000000E+00  0.22806337513E+04  0.22806337513E+04  0.25500000920E-02 0. -1.
       -2   -1    0    0    0  501  0.00000000000E+00  0.00000000000E+00 -0.12424274236E+04  0.12424274236E+04  0.25500000920E-02 0.  1.
    10030    2    1    2    0    0  0.00000000000E+00  0.00000000000E+00  0.10382063277E+04  0.35230611750E+04  0.33666136790E+04 0.  0.
        3    1    3    3  502    0 -0.14616034943E+03 -0.16161373824E+04  0.98740185398E+03  0.18995329210E+04  0.10100000352E+00 0. -1.
       -3    1    3    3    0  502  0.14616034943E+03  0.16161373824E+04  0.50804473712E+02  0.16235282539E+04  0.10100000352E+00 0.  1.
</event>
<event>
 5   0  0.4125758E-07  0.3408590E+04  0.7818609E-02  0.8135801E-01
        1   -1    0    0  501    0  0.00000000000E+00  0.00000000000E+00  0.28415051450E+04  0.28415051450E+04  0.50400001928E-02 0.  1.
       -1   -1    0    0    0  501  0.00000000000E+00  0.00000000000E+00 -0.10222124698E+04  0.10222124699E+04  0.50400001928E-02 0. -1.
    10030    2    1    2    0    0  0.00000000000E+00  0.00000000000E+00  0.18192926752E+04  0.38637176149E+04  0.34085903200E+04 0.  0.
        2    1    3    3  502    0 -0.91097229913E+03  0.12953360905E+03 -0.71646529219E+03  0.11661783743E+04  0.25500000920E-02 0. -1.
       -2    1    3    3    0  502  0.91097229913E+03 -0.12953360905E+03  0.25357579674E+04  0.26975392406E+04  0.25500000920E-02 0.  1.
</event>
<event>
 5   0  0.1277635E-06  0.3478027E+04  0.7818609E-02  0.8119017E-01
       -2   -1    0    0    0  501  0.00000000000E+00  0.00000000000E+00  0.10952844267E+04  0.10952844267E+04  0.25500000920E-02 0.  1.
        2   -1    0    0  501    0  0.00000000000E+00  0.00000000000E+00 -0.27610799314E+04  0.27610799314E+04  0.25500000920E-02 0. -1.
    10030    2    1    2    0    0  0.00000000000E+00  0.00000000000E+00 -0.16657955047E+04  0.38563643581E+04  0.34780269405E+04 0.  0.
        4    1    3    3  502    0 -0.31285171160E+03 -0.22135303392E+03  0.10478785928E+04  0.11157618551E+04  0.12699999809E+01 0.  1.
       -4    1    3    3    0  502  0.31285171160E+03  0.22135303392E+03 -0.27136740976E+04  0.27406025031E+04  0.12699999809E+01 0. -1.
</event>
<event>
 5   0  0.4289684E-07  0.3409236E+04  0.7818609E-02  0.8135643E-01
        1   -1    0    0  501    0  0.00000000000E+00  0.00000000000E+00  0.15224337609E+04  0.15224337609E+04  0.50400001928E-02 0. -1.
       -1   -1    0    0    0  501  0.00000000000E+00  0.00000000000E+00 -0.19086033161E+04  0.19086033161E+04  0.50400001928E-02 0.  1.
    10030    2    1    2    0    0  0.00000000000E+00  0.00000000000E+00 -0.38616955520E+03  0.34310370771E+04  0.34092357647E+04 0.  0.
        4    1    3    3  502    0 -0.15597310500E+04  0.58457706605E+03  0.17148750266E+03  0.16744852556E+04  0.12699999809E+01 0.  1.
       -4    1    3    3    0  502  0.15597310500E+04 -0.58457706605E+03 -0.55765705786E+03  0.17565518215E+04  0.12699999809E+01 0. -1.
</event>
<event>
 5   0  0.4272633E-07  0.3319598E+04  0.7818609E-02  0.8157927E-01
        1   -1    0    0  501    0  0.00000000000E+00  0.00000000000E+00  0.30752646720E+04  0.30752646720E+04  0.50400001928E-02 0.  1.
       -1   -1    0    0    0  501  0.00000000000E+00  0.00000000000E+00 -0.89583587036E+03  0.89583587038E+03  0.50400001928E-02 0. -1.
    10030    2    1    2    0    0  0.00000000000E+00  0.00000000000E+00  0.21794288017E+04  0.39711005424E+04  0.33195978094E+04 0.  0.
        1    1    3    3  502    0 -0.74141010279E+03  0.48746026215E+02 -0.68578111800E+03  0.10111186169E+04  0.50400001928E-02 0. -1.
       -1    1    3    3    0  502  0.74141010279E+03 -0.48746026215E+02  0.28652099197E+04  0.29599819255E+04  0.50400001928E-02 0.  1.
</event>
<event>
 5   0  0.4109937E-07  0.3409390E+04  0.7818609E-02  0.8135606E-01
       -1   -1    0    0    0  501  0.00000000000E+00  0.00000000000E+00  0.16898206901E+04  0.16898206901E+04  0.50400001928E-02 0. -1.
        1   -1    0    0  501    0  0.00000000000E+00  0.00000000000E+00 -0.17196998003E+04  0.17196998003E+04  0.50400001928E-02 0.  1.
    10030    2    1    2    0    0  0.00000000000E+00  0.00000000000E+00 -0.29879110181E+02  0.34095204905E+04  0.34093895661E+04 0.  0.
        5    1    3    3  502    0 -0.16373765513E+04  0.30108360575E+03 -0.38143542216E+03  0.17079720078E+04  0.46999998093E+01 0. -1.
       -5    1    3    3    0  502  0.16373765513E+04 -0.30108360575E+03  0.35155631198E+03  0.17015484826E+04  0.46999998093E+01 0.  1.
</event>
<event>
 5   0  0.4464951E-07  0.3457276E+04  0.7818609E-02  0.8123990E-01
        1   -1    0    0  501    0  0.00000000000E+00  0.00000000000E+00  0.22323020456E+04  0.22323020456E+04  0.50400001928E-02 0. -1.
       -1   -1    0    0    0  501  0.00000000000E+00  0.00000000000E+00 -0.13386134014E+04  0.13386134014E+04  0.50400001928E-02 0.  1.
    10030    2    1    2    0    0  0.00000000000E+00  0.00000000000E+00  0.89368864421E+03  0.35709154470E+04  0.34572760573E+04 0.  0.
        3    1    3    3  502    0 -0.16481149678E+03 -0.57221019905E+03 -0.12293354174E+04  0.13659622689E+04  0.10100000352E+00 0.  1.
       -3    1    3    3    0  502  0.16481149678E+03  0.57221019905E+03  0.21230240616E+04  0.22049531781E+04  0.10100000352E+00 0. -1.
</event>
<event>
 5   0  0.1268230E-06  0.3419046E+04  0.7818609E-02  0.8133248E-01
       -2   -1    0    0    0  501  0.00000000000E+00  0.00000000000E+00  0.20015722443E+04  0.20015722443E+04  0.25500000920E-02 0. -1.
        2   -1    0    0  501    0  0.00000000000E+00  0.00000000000E+00 -0.14600866237E+04  0.14600866237E+04  0.25500000920E-02 0.  1.
    10030    2    1    2    0    0  0.00000000000E+00  0.00000000000E+00  0.54148562058E+03  0.34616588680E+04  0.34190459840E+04 0.  0.
        2    1    3    3  502    0 -0.55433815058E+03 -0.25882602148E+03  0.18869423841E+04  0.19836414130E+04  0.25500000920E-02 0. -1.
       -2    1    3    3    0  502  0.55433815058E+03  0.25882602148E+03 -0.13454567635E+04  0.14780174549E+04  0.25500000920E-02 0.  1.
</event>
<event>
 5   0  0.4289684E-07  0.3402802E+04  0.7818609E-02  0.8137219E-01
        1   -1    0    0  501    0  0.00000000000E+00  0.00000000000E+00  0.18649764567E+04  0.18649764567E+04  0.50400001928E-02 0.  1.
       -1   -1    0    0    0  501  0.00000000000E+00  0.00000000000E+00 -0.15521724542E+04  0.15521724542E+04  0.50400001928E-02 0. -1.
    10030    2    1    2    0    0  0.00000000000E+00  0.00000000000E+00  0.31280400251E+03  0.34171489109E+04  0.34028018360E+04 0.  0.
        4    1    3    3  502    0  0.91889229082E+03 -0.11336272757E+04 -0.72209475064E+03  0.16281573278E+04  0.12699999809E+01 0. -1.
       -4    1    3    3    0  502 -0.91889229082E+03  0.11336272757E+04  0.10348987531E+04  0.17889915831E+04  0.12699999809E+01 0.  1.
</event>
<event>
 5   0  0.1269497E-06  0.3392780E+04  0.7818609E-02  0.8139681E-01
        2   -1    0    0  501    0  0.00000000000E+00  0.00000000000E+00  0.13104402899E+04  0.13104402899E+04  0.25500000920E-02 0.  1.
       -2   -1    0    0    0  501  0.00000000000E+00  0.00000000000E+00 -0.21960090039E+04  0.21960090039E+04  0.25500000920E-02 0. -1.
    10030    2    1    2    0    0  0.00000000000E+00  0.00000000000E+00 -0.88556871394E+03  0.35064492938E+04  0.33927797899E+04 0.  0.
        5    1    3    3  502    0 -0.16236610184E+04  0.24644723413E+03 -0.88212083925E+03  0.18641809480E+04  0.46999998093E+01 0.  1.
       -5    1    3    3    0  502  0.16236610184E+04 -0.24644723413E+03 -0.34478746825E+01  0.16422683458E+04  0.46999998093E+01 0. -1.
</event>
<event>
 5   0  0.1277635E-06  0.3425013E+04  0.7818609E-02  0.8131795E-01
        2   -1    0    0  501    0  0.00000000000E+00  0.00000000000E+00  0.21157647323E+04  0.21157647323E+04  0.25500000920E-02 0.  1.
       -2   -1    0    0    0  501  0.00000000000E+00  0.00000000000E+00 -0.13861077593E+04  0.13861077593E+04  0.25500000920E-02 0. -1.
    10030    2    1    2    0    0  0.00000000000E+00  0.00000000000E+00  0.72965697293E+03  0.35018724916E+04  0.34250126495E+04 0.  0.
        4    1    3    3  502    0  0.14503756653E+04  0.90332931034E+03  0.48177571396E+03  0.17753035979E+04  0.12699999809E+01 0. -1.
       -4    1    3    3    0  502 -0.14503756653E+04 -0.90332931034E+03  0.24788125896E+03  0.17265688937E+04  0.12699999809E+01 0.  1.
</event>
<event>
 5   0  0.4272633E-07  0.3405566E+04  0.7818609E-02  0.8136542E-01
        1   -1    0    0  501    0  0.00000000000E+00  0.00000000000E+00  0.14368129747E+04  0.14368129747E+04  0.50400001928E-02 0. -1.
       -1   -1    0    0    0  501  0.00000000000E+00  0.00000000000E+00 -0.20179864664E+04  0.20179864664E+04  0.50400001928E-02 0.  1.
    10030    2    1    2    0    0  0.00000000000E+00  0.00000000000E+00 -0.58117349170E+03  0.34547994411E+04  0.34055655258E+04 0.  0.
        1    1    3    3  502    0  0.36062136292E+03  0.16252122442E+04  0.72507391262E+02  0.16663192755E+04  0.50400001928E-02 0.  1.
       -1    1    3    3    0  502 -0.36062136292E+03 -0.16252122442E+04 -0.65368088297E+03  0.17884801656E+04  0.50400001928E-02 0. -1.
</event>
<event>
 5   0  0.1269497E-06  0.3394561E+04  0.7818609E-02  0.8139243E-01
        2   -1    0    0  501    0  0.00000000000E+00  0.00000000000E+00  0.18485554397E+04  0.18485554397E+04  0.25500000920E-02 0. -1.
       -2   -1    0    0    0  501  0.00000000000E+00  0.00000000000E+00 -0.15583849611E+04  0.15583849611E+04  0.25500000920E-02 0.  1.
    10030    2    1    2    0    0  0.00000000000E+00  0.00000000000E+00  0.29017047863E+03  0.34069404008E+04  0.33945609418E+04 0.  0.
        5    1    3    3  502    0  0.10660446898E+04  0.90464728745E+03  0.11108318269E+04  0.17857232241E+04  0.46999998093E+01 0. -1.
       -5    1    3    3    0  502 -0.10660446898E+04 -0.90464728745E+03 -0.82066134828E+03  0.16212171767E+04  0.46999998093E+01 0.  1.
</event>
<event>
 5   0  0.1300176E-06  0.3287890E+04  0.7818609E-02  0.8165984E-01
        2   -1    0    0  501    0  0.00000000000E+00  0.00000000000E+00  0.15938694769E+04  0.15938694769E+04  0.25500000920E-02 0. -1.
       -2   -1    0    0    0  501  0.00000000000E+00  0.00000000000E+00 -0.16955942113E+04  0.16955942113E+04  0.25500000920E-02 0.  1.
    10030    2    1    2    0    0  0.00000000000E+00  0.00000000000E+00 -0.10172473447E+03  0.32894636882E+04  0.32878904231E+04 0.  0.
        1    1    3    3  502    0  0.62299547926E+03 -0.83225223529E+03 -0.13249664213E+04  0.16841327644E+04  0.50400001928E-02 0.  1.
       -1    1    3    3    0  502 -0.62299547926E+03  0.83225223529E+03  0.12232416869E+04  0.16053309238E+04  0.50400001928E-02 0. -1.
</event>
<event>
 5   0  0.1256208E-06  0.3336075E+04  0.7818609E-02  0.8153776E-01
        2   -1    0    0  501    0  0.00000000000E+00  0.00000000000E+00  0.26133660331E+04  0.26133660331E+04  0.25500000920E-02 0.  1.
       -2   -1    0    0    0  501  0.00000000000E+00  0.00000000000E+00 -0.10646608174E+04  0.10646608174E+04  0.25500000920E-02 0. -1.
    10030    2    1    2    0    0  0.00000000000E+00  0.00000000000E+00  0.15487052157E+04  0.36780268506E+04  0.33360745897E+04 0.  0.
        3    1    3    3  502    0  0.11352828497E+04  0.12218165667E+04  0.74634092604E+03  0.18272185582E+04  0.10100000352E+00 0.  1.
       -3    1    3    3    0  502 -0.11352828497E+04 -0.12218165667E+04  0.80236428968E+03  0.18508082923E+04  0.10100000352E+00 0. -1.
</event>
<event>
 5   0  0.4272633E-07  0.3357533E+04  0.7818609E-02  0.8148409E-01
       -1   -1    0    0    0  501  0.00000000000E+00  0.00000000000E+00  0.13181287858E+04  0.13181287858E+04  0.50400001928E-02 0. -1.
        1   -1    0    0  501    0  0.00000000000E+00  0.00000000000E+00 -0.21380734288E+04  0.21380734288E+04  0.50400001928E-02 0.  1.
    10030    2    1    2    0    0  0.00000000000E+00  0.00000000000E+00 -0.81994464300E+03  0.34562022145E+04  0.33575325062E+04 0.  0.
        1    1    3    3  502    0 -0.48870329431E+03 -0.15644248074E+04 -0.35976899664E+02  0.16393749496E+04  0.50400001928E-02 0.  1.
       -1    1    3    3    0  502  0.48870329431E+03  0.15644248074E+04 -0.78396774334E+03  0.18168272649E+04  0.50400001928E-02 0. -1.
</event>
<event>
 5   0  0.4125758E-07  0.3384846E+04  0.7818609E-02  0.8141636E-01
        1   -1    0    0  501    0  0.00000000000E+00  0.00000000000E+00  0.19183470419E+04  0.19183470419E+04  0.50400001928E-02 0. -1.
       -1   -1    0    0    0  501  0.00000000000E+00  0.00000000000E+00 -0.14931060210E+04  0.14931060211E+04  0.50400001928E-02 0.  1.
    10030    2    1    2    0    0  0.00000000000E+00  0.00000000000E+00  0.42524102089E+03  0.34114530630E+04  0.33848459456E+04 0.  0.
        2    1    3    3  502    0  0.20148276714E+03 -0.62712842037E+03  0.17838523776E+04  0.19015821481E+04  0.25500000920E-02 0. -1.
       -2    1    3    3    0  502 -0.20148276714E+03  0.62712842037E+03 -0.13586113567E+04  0.15098709149E+04  0.25500000920E-02 0.  1.
</event>
<event>
 5   0  0.1300176E-06  0.3349745E+04  0.7818609E-02  0.8150352E-01
       -2   -1    0    0    0  501  0.00000000000E+00  0.00000000000E+00  0.24596697209E+04  0.24596697209E+04  0.25500000920E-02 0.  1.
        2   -1    0    0  501    0  0.00000000000E+00  0.00000000000E+00 -0.11404772932E+04  0.11404772932E+04  0.25500000920E-02 0. -1.
    10030    2    1    2    0    0  0.00000000000E+00  0.00000000000E+00  0.13191924277E+04  0.36001470141E+04  0.33497447457E+04 0.  0.
        1    1    3    3  502    0 -0.92781550058E+03 -0.64028848774E+02 -0.83745982567E+03  0.12515111890E+04  0.50400001928E-02 0. -1.
       -1    1    3    3    0  502  0.92781550058E+03  0.64028848774E+02  0.21566522534E+04  0.23486358251E+04  0.50400001928E-02 0.  1.
</event>
<event>
 5   0  0.1256208E-06  0.3434194E+04  0.7818609E-02  0.8129565E-01
        2   -1    0    0  501    0  0.00000000000E+00  0.00000000000E+00  0.18938496356E+04  0.18938496356E+04  0.25500000920E-02 0.  1.
       -2   -1    0    0    0  501  0.00000000000E+00  0.00000000000E+00 -0.15568406627E+04  0.15568406627E+04  0.25500000920E-02 0. -1.
    10030    2    1    2    0    0  0.00000000000E+00  0.00000000000E+00  0.33700897289E+03  0.34506902983E+04  0.34341940084E+04 0.  0.
        3    1    3    3  502    0 -0.42989819352E+03  0.10752299682E+04 -0.11054541274E+04  0.16009249761E+04  0.10100000352E+00 0. -1.
       -3    1    3    3    0  502  0.42989819352E+03 -0.10752299682E+04  0.14424631002E+04  0.18497653222E+04  0.10100000352E+00 0.  1.
</event>
<event>
 5   0  0.4109937E-07  0.3449478E+04  0.7818609E-02  0.8125868E-01
       -1   -1    0    0    0  501  0.00000000000E+00  0.00000000000E+00  0.13617082064E+04  0.13617082064E+04  0.50400001928E-02 0. -1.
        1   -1    0    0  501    0  0.00000000000E+00  0.00000000000E+00 -0.21845535607E+04  0.21845535607E+04  0.50400001928E-02 0.  1.
    10030    2    1    2    0    0  0.00000000000E+00  0.00000000000E+00 -0.82284535424E+03  0.35462617671E+04  0.34494779379E+04 0.  0.
        5    1    3    3  502    0 -0.85938092326E+03 -0.14940578049E+04 -0.47610151123E+03  0.17881384272E+04  0.46999998093E+01 0. -1.
       -5    1    3    3    0  502  0.85938092326E+03  0.14940578049E+04 -0.34674384301E+03  0.17581233399E+04  0.46999998093E+01 0.  1.
</event>
<event>
 5   0  0.1256208E-06  0.3442372E+04  0.7818609E-02  0.8127585E-01
        2   -1    0    0  501    0  0.00000000000E+00  0.00000000000E+00  0.15322943523E+04  0.15322943523E+04  0.25500000920E-02 0.  1.
       -2   -1    0    0    0  501  0.00000000000E+00  0.00000000000E+00 -0.19333627189E+04  0.19333627189E+04  0.25500000920E-02 0. -1.
    10030    2    1    2    0    0  0.00000000000E+00  0.00000000000E+00 -0.40106836655E+03  0.34656570712E+04  0.34423717261E+04 0.  0.
        3    1    3    3  502    0  0.86981540237E+03 -0.78966292724E+03 -0.14669518331E+04  0.18793866190E+04  0.10100000352E+00 0. -1.
       -3    1    3    3    0  502 -0.86981540237E+03  0.78966292724E+03  0.10658834666E+04  0.15862704521E+04  0.10100000352E+00 0.  1.
</event>
<event>
 5   0  0.4289684E-07  0.3476715E+04  0.7818609E-02  0.8119331E-01
        1   -1    0    0  501    0  0.00000000000E+00  0.00000000000E+00  0.19448516667E+04  0.19448516667E+04  0.50400001928E-02 0.  1.
       -1   -1    0    0    0  501  0.00000000000E+00  0.00000000000E+00 -0.15537873606E+04  0.15537873606E+04  0.50400001928E-02 0. -1.
    10030    2    1    2    0    0  0.00000000000E+00  0.00000000000E+00  0.39106430609E+03  0.34986390274E+04  0.34767145054E+04 0.  0.
        4    1    3    3  502    0  0.28398865346E+03  0.90779039136E+03  0.16597512349E+04  0.19129842458E+04  0.12699999809E+01 0.  1.
       -4    1    3    3    0  502 -0.28398865346E+03 -0.90779039136E+03 -0.12686869288E+04  0.15856547815E+04  0.12699999809E+01 0. -1.
</event>
<event>
 5   0  0.4289684E-07  0.3327862E+04  0.7818609E-02  0.8155842E-01
       -1   -1    0    0    0  501  0.00000000000E+00  0.00000000000E+00  0.20752704752E+04  0.20752704752E+04  0.50400001928E-02 0. -1.
        1   -1    0    0  501    0  0.00000000000E+00  0.00000000000E+00 -0.13341234162E+04  0.13341234162E+04  0.50400001928E-02 0.  1.
    10030    2    1    2    0    0  0.00000000000E+00  0.00000000000E+00  0.74114705897E+03  0.34093938915E+04  0.33278623385E+04 0.  0.
        4    1    3    3  502    0  0.38673837875E+03 -0.78428375507E+03  0.18208821878E+04  0.20199705782E+04  0.12699999809E+01 0. -1.
       -4    1    3    3    0  502 -0.38673837875E+03  0.78428375507E+03 -0.10797351288E+04  0.13894233133E+04  0.12699999809E+01 0.  1.
</event>
<event>
 5   0  0.1256208E-06  0.3394287E+04  0.7818609E-02  0.8139310E-01
       -2   -1    0    0    0  501  0.00000000000E+00  0.00000000000E+00  0.15218552066E+04  0.15218552066E+04  0.25500000920E-02 0.  1.
        2   -1    0    0  501    0  0.00000000000E+00  0.00000000000E+00 -0.18926219406E+04  0.18926219406E+04  0.25500000920E-02 0. -1.
    10030    2    1    2    0    0  0.00000000000E+00  0.00000000000E+00 -0.37076673400E+03  0.34144771471E+04  0.33942872915E+04 0.  0.
        3    1    3    3  502    0 -0.13895564567E+04 -0.84735002273E+03  0.29854707328E+03  0.16546901742E+04  0.10100000352E+00 0.  1.
       -3    1    3    3    0  502  0.13895564567E+04  0.84735002273E+03 -0.66931380729E+03  0.17597869730E+04  0.10100000352E+00 0. -1.
</event>
<event>
 5   0  0.4109937E-07  0.3249862E+04  0.7818609E-02  0.8175771E-01
       -1   -1    0    0    0  501  0.00000000000E+00  0.00000000000E+00  0.12003090660E+04  0.12003090660E+04  0.50400001928E-02 0.  1.
        1   -1    0    0  501    0  0.00000000000E+00  0.00000000000E+00 -0.21997680210E+04  0.21997680210E+04  0.50400001928E-02 0. -1.
    10030    2    1    2    0    0  0.00000000000E+00  0.00000000000E+00 -0.99945895501E+03  0.34000770870E+04  0.32498624578E+04 0.  0.
        5    1    3    3  502    0  0.17621183505E+02  0.11750464904E+04 -0.16738004714E+04  0.20451588860E+04  0.46999998093E+01 0. -1.
       -5    1    3    3    0  502 -0.17621183505E+02 -0.11750464904E+04  0.67434151640E+03  0.13549182010E+04  0.46999998093E+01 0.  1.
</event>
<event>
 5   0  0.4272633E-07  0.3322536E+04  0.7818609E-02  0.8157185E-01
        1   -1    0    0  501    0  0.00000000000E+00  0.00000000000E+00  0.23119924195E+04  0.23119924195E+04  0.50400001928E-02 0.  1.
       -1   -1    0    0    0  501  0.00000000000E+00  0.00000000000E+00 -0.11936940450E+04  0.11936940450E+04  0.50400001928E-02 0. -1.
    10030    2    1    2    0    0  0.00000000000E+00  0.00000000000E+00  0.11182983745E+04  0.35056864645E+04  0.33225361296E+04 0.  0.
        1    1    3    3  502    0 -0.10046558007E+04 -0.31467295319E+03 -0.79678087302E+03  0.13203075797E+04  0.50400001928E-02 0. -1.
       -1    1    3    3    0  502  0.10046558007E+04  0.31467295319E+03  0.19150792475E+04  0.21853788847E+04  0.50400001928E-02 0.  1.
</event>
<event>
 5   0  0.4289684E-07  0.3355927E+04  0.7818609E-02  0.8148809E-01
       -1   -1    0    0    0  501  0.00000000000E+00  0.00000000000E+00  0.13775190968E+04  0.13775190968E+04  0.50400001928E-02 0. -1.
        1   -1    0    0  501    0  0.00000000000E+00  0.00000000000E+00 -0.20439367295E+04  0.20439367295E+04  0.50400001928E-02 0.  1.
    10030    2    1    2    0    0  0.00000000000E+00  0.00000000000E+00 -0.66641763276E+03  0.34214558263E+04  0.33559272206E+04 0.  0.
        4    1    3    3  502    0  0.15425250274E+04 -0.44889984322E+03 -0.82709086834E+03  0.18069243058E+04  0.12699999809E+01 0.  1.
       -4    1    3    3    0  502 -0.15425250274E+04  0.44889984322E+03  0.16067323558E+03  0.16145315206E+04  0.12699999809E+01 0. -1.
</event>
<event>
 5   0  0.1268230E-06  0.3361254E+04  0.7818609E-02  0.8147482E-01
       -2   -1    0    0    0  501  0.00000000000E+00  0.00000000000E+00  0.92690148739E+03  0.92690148740E+03  0.25500000920E-02 0.  1.
        2   -1    0    0  501    0  0.00000000000E+00  0.00000000000E+00 -0.30472572036E+04  0.30472572036E+04  0.25500000920E-02 0. -1.
    10030    2    1    2    0    0  0.00000000000E+00  0.00000000000E+00 -0.21203557162E+04  0.39741586910E+04  0.33612540722E+04 0.  0.
        2    1    3    3  502    0  0.71081175935E+03 -0.13966158096E+04 -0.17781227767E+04  0.23701286222E+04  0.25500000920E-02 0.  1.
       -2    1    3    3    0  502 -0.71081175935E+03  0.13966158096E+04 -0.34223293957E+03  0.16040300688E+04  0.25500000920E-02 0. -1.
</event>
<event>
 5   0  0.1268230E-06  0.3428417E+04  0.7818609E-02  0.8130967E-01
        2   -1    0    0  501    0  0.00000000000E+00  0.00000000000E+00  0.11301327054E+04  0.11301327054E+04  0.25500000920E-02 0.  1.
       -2   -1    0    0    0  501  0.00000000000E+00  0.00000000000E+00 -0.26001459936E+04  0.26001459936E+04  0.25500000920E-02 0. -1.
    10030    2    1    2    0    0  0.00000000000E+00  0.00000000000E+00 -0.14700132883E+04  0.37302786990E+04  0.34284165594E+04 0.  0.
        2    1    3    3  502    0  0.16508513904E+03 -0.16533507994E+04 -0.11936518049E+04  0.20458803974E+04  0.25500000920E-02 0. -1.
       -2    1    3    3    0  502 -0.16508513904E+03  0.16533507994E+04 -0.27636148334E+03  0.16843983016E+04  0.25500000920E-02 0.  1.
</event>
<event>
 5   0  0.1268230E-06  0.3412659E+04  0.7818609E-02  0.8134806E-01
       -2   -1    0    0    0  501  0.00000000000E+00  0.00000000000E+00  0.11648702256E+04  0.11648702256E+04  0.25500000920E-02 0. -1.
        2   -1    0    0  501    0  0.00000000000E+00  0.00000000000E+00 -0.24994712828E+04  0.24994712828E+04  0.25500000920E-02 0.  1.
    10030    2    1    2    0    0  0.00000000000E+00  0.00000000000E+00 -0.13346010572E+04  0.36643415084E+04  0.34126585982E+04 0.  0.
        2    1    3    3  502    0  0.13240242014E+04  0.78812224157E+03  0.11982686909E+03  0.15454886710E+04  0.25500000920E-02 0. -1.
       -2    1    3    3    0  502 -0.13240242014E+04 -0.78812224157E+03 -0.14544279263E+04  0.21188528374E+04  0.25500000920E-02 0.  1.
</event>
<event>
 5   0  0.4125758E-07  0.3348050E+04  0.7818609E-02  0.8150776E-01
       -1   -1    0    0    0  501  0.00000000000E+00  0.00000000000E+00  0.99205093885E+03  0.99205093886E+03  0.50400001928E-02 0. -1.
        1   -1    0    0  501    0  0.00000000000E+00  0.00000000000E+00 -0.28248141406E+04  0.28248141406E+04  0.50400001928E-02 0.  1.
    10030    2    1    2    0    0  0.00000000000E+00  0.00000000000E+00 -0.18327632018E+04  0.38168650795E+04  0.33480498923E+04 0.  0.
        2    1    3    3  502    0 -0.69090585991E+03  0.12937048653E+04  0.36813444093E+01  0.14666413120E+04  0.25500000920E-02 0. -1.
       -2    1    3    3    0  502  0.69090585991E+03 -0.12937048653E+04 -0.18364445462E+04  0.23502237674E+04  0.25500000920E-02 0.  1.
</event>
<event>
 5   0  0.4289684E-07  0.3307135E+04  0.7818609E-02  0.8161082E-01
        1   -1    0    0  501    0  0.00000000000E+00  0.00000000000E+00  0.20918809300E+04  0.20918809300E+04  0.50400001928E-02 0.  1.
       -1   -1    0    0    0  501  0.00000000000E+00  0.00000000000E+00 -0.13070943319E+04  0.13070943319E+04  0.50400001928E-02 0. -1.
    10030    2    1    2    0    0  0.00000000000E+00  0.00000000000E+00  0.78478659804E+03  0.33989752619E+04  0.33071351388E+04 0.  0.
        4    1    3    3  502    0  0.11826272058E+04 -0.74864053283E+03  0.12973065763E+04  0.19084223120E+04  0.12699999809E+01 0.  1.
       -4    1    3    3    0  502 -0.11826272058E+04  0.74864053283E+03 -0.51251997828E+03  0.14905529498E+04  0.12699999809E+01 0. -1.
</event>
<event>
 5   0  0.4464951E-07  0.3370685E+04  0.7818609E-02  0.8145139E-01
       -1   -1    0    0    0  501  0.00000000000E+00  0.00000000000E+00  0.30289333746E+04  0.30289333746E+04  0.50400001928E-02 0.  1.
        1   -1    0    0  501    0  0.00000000000E+00  0.00000000000E+00 -0.93774925493E+03  0.93774925494E+03  0.50400001928E-02 0. -1.
    10030    2    1    2    0    0  0.00000000000E+00  0.00000000000E+00  0.20911841196E+04  0.39666826295E+04  0.33706853993E+04 0.  0.
        3    1    3    3  502    0  0.91489396786E+03 -0.62590221497E+03  0.25395461472E+04  0.27709347158E+04  0.10100000352E+00 0.  1.
       -3    1    3    3    0  502 -0.91489396786E+03  0.62590221497E+03 -0.44836202760E+03  0.11957479137E+04  0.10100000352E+00 0. -1.
</event>
<event>
 5   0  0.1269497E-06  0.3396148E+04  0.7818609E-02  0.8138852E-01
        2   -1    0    0  501    0  0.00000000000E+00  0.00000000000E+00  0.25796201537E+04  0.25796201537E+04  0.25500000920E-02 0.  1.
       -2   -1    0    0    0  501  0.00000000000E+00  0.00000000000E+00 -0.11177829253E+04  0.11177829253E+04  0.25500000920E-02 0. -1.
    10030    2    1    2    0    0  0.00000000000E+00  0.00000000000E+00  0.14618372284E+04  0.36974030790E+04  0.33961480307E+04 0.  0.
        5    1    3    3  502    0  0.16183284360E+04  0.30298433340E+03  0.11832841412E+04  0.20275526829E+04  0.46999998093E+01 0.  1.
       -5    1    3    3    0  502 -0.16183284360E+04 -0.30298433340E+03  0.27855308716E+03  0.16698503961E+04  0.46999998093E+01 0. -1.
</event>
<event>
 5   0  0.4289684E-07  0.3253407E+04  0.7818609E-02  0.8174853E-01
        1   -1    0    0  501    0  0.00000000000E+00  0.00000000000E+00  0.16796408609E+04  0.16796408609E+04  0.50400001928E-02 0. -1.
       -1   -1    0    0    0  501  0.00000000000E+00  0.00000000000E+00 -0.15754344316E+04  0.15754344316E+04  0.50400001928E-02 0.  1.
    10030    2    1    2    0    0  0.00000000000E+00  0.00000000000E+00  0.10420642931E+03  0.32550752924E+04  0.32534068574E+04 0.  0.
        4    1    3    3  502    0  0.13648483968E+04 -0.81525436789E+03 -0.29261897713E+03  0.16165018742E+04  0.12699999809E+01 0.  1.
       -4    1    3    3    0  502 -0.13648483968E+04  0.81525436789E+03  0.39682540644E+03  0.16385734182E+04  0.12699999809E+01 0. -1.
</event>
<event>
 5   0  0.1269497E-06  0.3422239E+04  0.7818609E-02  0.8132470E-01
       -2   -1    0    0    0  501  0.00000000000E+00  0.00000000000E+00  0.14240353313E+04  0.14240353313E+04  0.25500000920E-02 0.  1.
        2   -1    0    0  501    0  0.00000000000E+00  0.00000000000E+00 -0.20560800615E+04  0.20560800615E+04  0.25500000920E-02 0. -1.
    10030    2    1    2    0    0  0.00000000000E+00  0.00000000000E+00 -0.63204473015E+03  0.34801153928E+04  0.34222394139E+04 0.  0.
        5    1    3    3  502    0 -0.31541306757E+02 -0.15351879117E+04  0.45180443087E+03  0.16006080445E+04  0.46999998093E+01 0.  1.
       -5    1    3    3    0  502  0.31541306757E+02  0.15351879117E+04 -0.10838491610E+04  0.18795073483E+04  0.46999998093E+01 0. -1.
</event>
<event>
 5   0  0.4289684E-07  0.3371974E+04  0.7818609E-02  0.8144819E-01
       -1   -1    0    0    0  501  0.00000000000E+00  0.00000000000E+00  0.15162468822E+04  0.15162468822E+04  0.50400001928E-02 0. -1.
        1   -1    0    0  501    0  0.00000000000E+00  0.00000000000E+00 -0.18747294388E+04  0.18747294388E+04  0.50400001928E-02 0.  1.
    10030    2    1    2    0    0  0.00000000000E+00  0.00000000000E+00 -0.35848255658E+03  0.33909763209E+04  0.33719742979E+04 0.  0.
        4    1    3    3  502    0  0.65277358787E+03  0.76916259646E+03  0.11792326332E+04  0.15518748896E+04  0.12699999809E+01 0. -1.
       -4    1    3    3    0  502 -0.65277358787E+03 -0.76916259646E+03 -0.15377151898E+04  0.18391014313E+04  0.12699999809E+01 0.  1.
</event>
<event>
 5   0  0.4060750E-07  0.3376347E+04  0.7818609E-02  0.8143736E-01
        3   -1    0    0  501    0  0.00000000000E+00  0.00000000000E+00  0.16521067407E+04  0.16521067438E+04  0.10100000352E+00 0. -1.
       -3   -1    0    0    0  501  0.00000000000E+00  0.00000000000E+00 -0.17250278654E+04  0.17250278684E+04  0.10100000352E+00 0.  1.
    10030    2    1    2    0    0  0.00000000000E+00  0.00000000000E+00 -0.72921124715E+02  0.33771346122E+04  0.33763472420E+04 0.  0.
        1    1    3    3  502    0 -0.10690697827E+04  0.13004554233E+04 -0.16232975242E+03  0.16912851495E+04  0.50400001928E-02 0. -1.
       -1    1    3    3    0  502  0.10690697827E+04 -0.13004554233E+04  0.89408627705E+02  0.16858494627E+04  0.50400001928E-02 0.  1.
</event>
<event>
 5   0  0.4464951E-07  0.3416589E+04  0.7818609E-02  0.8133847E-01
        1   -1    0    0  501    0  0.00000000000E+00  0.00000000000E+00  0.18438554947E+04  0.18438554947E+04  0.50400001928E-02 0. -1.
       -1   -1    0    0    0  501  0.00000000000E+00  0.00000000000E+00 -0.15827003502E+04  0.15827003502E+04  0.50400001928E-02 0.  1.
    10030    2    1    2    0    0  0.00000000000E+00  0.00000000000E+00  0.26115514454E+03  0.34265558449E+04  0.34165893737E+04 0.  0.
        3    1    3    3  502    0 -0.77912169964E+02 -0.16864128788E+04 -0.13135861016E+03  0.16933144417E+04  0.10100000352E+00 0.  1.
       -3    1    3    3    0  502  0.77912169964E+02  0.16864128788E+04  0.39251375469E+03  0.17332414032E+04  0.10100000352E+00 0. -1.
</event>
<event>
 5   0  0.4464951E-07  0.3389665E+04  0.7818609E-02  0.8140447E-01
        1   -1    0    0  501    0  0.00000000000E+00  0.00000000000E+00  0.10701324072E+04  0.10701324072E+04  0.50400001928E-02 0.  1.
       -1   -1    0    0    0  501  0.00000000000E+00  0.00000000000E+00 -0.26842075143E+04  0.26842075143E+04  0.50400001928E-02 0. -1.
    10030    2    1    2    0    0  0.00000000000E+00  0.00000000000E+00 -0.16140751072E+04  0.37543399215E+04  0.33896651449E+04 0.  0.
        3    1    3    3  502    0 -0.46893727046E+03  0.13071555233E+04 -0.18831055640E+04  0.23397957820E+04  0.10100000352E+00 0. -1.
       -3    1    3    3    0  502  0.46893727046E+03 -0.13071555233E+04  0.26903045685E+03  0.14145441395E+04  0.10100000352E+00 0.  1.
</event>
<event>
 5   0  0.1277635E-06  0.3415273E+04  0.7818609E-02  0.8134168E-01
        2   -1    0    0  501    0  0.00000000000E+00  0.00000000000E+00  0.22941490488E+04  0.22941490488E+04  0.25500000920E-02 0. -1.
       -2   -1    0    0    0  501  0.00000000000E+00  0.00000000000E+00 -0.12710691220E+04  0.12710691220E+04  0.25500000920E-02 0.  1.
    10030    2    1    2    0    0  0.00000000000E+00  0.00000000000E+00  0.10230799268E+04  0.35652181709E+04  0.34152727664E+04 0.  0.
        4    1    3    3  502    0 -0.30437230371E+02  0.20492593226E+03  0.22809807655E+04  0.22903702601E+04  0.12699999809E+01 0. -1.
       -4    1    3    3    0  502  0.30437230371E+02 -0.20492593226E+03 -0.12579008387E+04  0.12748479108E+04  0.12699999809E+01 0.  1.
</event>
<event>
 5   0  0.1268230E-06  0.3436438E+04  0.7818609E-02  0.8129021E-01
       -2   -1    0    0    0  501  0.00000000000E+00  0.00000000000E+00  0.18653157118E+04  0.18653157118E+04  0.25500000920E-02 0. -1.
        2   -1    0    0  501    0  0.00000000000E+00  0.00000000000E+00 -0.15827219368E+04  0.15827219368E+04  0.25500000920E-02 0.  1.
    10030    2    1    2    0    0  0.00000000000E+00  0.00000000000E+00  0.28259377503E+03  0.34480376487E+04  0.34364377464E+04 0.  0.
        2    1    3    3  502    0 -0.11317526711E+04 -0.19795501221E+03  0.14231953826E+04  0.18290804773E+04  0.25500000920E-02 0. -1.
       -2    1    3    3    0  502  0.11317526711E+04  0.19795501221E+03 -0.11406016076E+04  0.16189571713E+04  0.25500000920E-02 0.  1.
</event>
<event>
 5   0  0.4464951E-07  0.3354612E+04  0.7818609E-02  0.8149137E-01
        1   -1    0    0  501    0  0.00000000000E+00  0.00000000000E+00  0.16018067942E+04  0.16018067943E+04  0.50400001928E-02 0. -1.
       -1   -1    0    0    0  501  0.00000000000E+00  0.00000000000E+00 -0.17563635067E+04  0.17563635067E+04  0.50400001928E-02 0.  1.
    10030    2    1    2    0    0  0.00000000000E+00  0.00000000000E+00 -0.15455671244E+03  0.33581703009E+04  0.33546117499E+04 0.  0.
        3    1    3    3  502    0 -0.39694336879E+03 -0.56161984499E+03  0.14541726033E+04  0.16086015227E+04  0.10100000352E+00 0. -1.
       -3    1    3    3    0  502  0.39694336879E+03  0.56161984499E+03 -0.16087293158E+04  0.17495687783E+04  0.10100000352E+00 0.  1.
</event>
<event>
 5   0  0.1256208E-06  0.3389923E+04  0.7818609E-02  0.8140384E-01
       -2   -1    0    0    0  501  0.00000000000E+00  0.00000000000E+00  0.11115874886E+04  0.11115874887E+04  0.25500000920E-02 0. -1.
        2   -1    0    0  501    0  0.00000000000E+00  0.00000000000E+00 -0.25844971345E+04  0.25844971345E+04  0.25500000920E-02 0.  1.
    10030    2    1    2    0    0  0.00000000000E+00  0.00000000000E+00 -0.14729096459E+04  0.36960846232E+04  0.33899231137E+04 0.  0.
        3    1    3    3  502    0 -0.69974005959E+03 -0.46109720303E+03 -0.23428291245E+04  0.24881911298E+04  0.10100000352E+00 0.  1.
       -3    1    3    3    0  502  0.69974005959E+03  0.46109720303E+03  0.86991947867E+03  0.12078934933E+04  0.10100000352E+00 0. -1.
</event>
<event>
 5   0  0.4272633E-07  0.3369002E+04  0.7818609E-02  0.8145557E-01
       -1   -1    0    0    0  501  0.00000000000E+00  0.00000000000E+00  0.11713351745E+04  0.11713351745E+04  0.50400001928E-02 0.  1.
        1   -1    0    0  501    0  0.00000000000E+00  0.00000000000E+00 -0.24224858954E+04  0.24224858954E+04  0.50400001928E-02 0. -1.
    10030    2    1    2    0    0  0.00000000000E+00  0.00000000000E+00 -0.12511507208E+04  0.35938210699E+04  0.33690015964E+04 0.  0.
        1    1    3    3  502    0  0.19644891798E+03 -0.63526560244E+03 -0.22765606461E+04  0.23716835662E+04  0.50400001928E-02 0. -1.
       -1    1    3    3    0  502 -0.19644891798E+03  0.63526560244E+03  0.10254099253E+04  0.12221375037E+04  0.50400001928E-02 0.  1.
</event>
<event>
 5   0  0.4289684E-07  0.3396208E+04  0.7818609E-02  0.8138838E-01
       -1   -1    0    0    0  501  0.00000000000E+00  0.00000000000E+00  0.16796110983E+04  0.16796110983E+04  0.50400001928E-02 0. -1.
        1   -1    0    0  501    0  0.00000000000E+00  0.00000000000E+00 -0.17168007286E+04  0.17168007286E+04  0.50400001928E-02 0.  1.
    10030    2    1    2    0    0  0.00000000000E+00  0.00000000000E+00 -0.37189630268E+02  0.33964118269E+04  0.33962082135E+04 0.  0.
        4    1    3    3  502    0 -0.68590996793E+03  0.14719378636E+04 -0.51509450454E+03  0.17036424273E+04  0.12699999809E+01 0.  1.
       -4    1    3    3    0  502  0.68590996793E+03 -0.14719378636E+04  0.47790487427E+03  0.16927693996E+04  0.12699999809E+01 0. -1.
</event>
<event>
 5   0  0.4109937E-07  0.3006317E+04  0.7818609E-02  0.8241929E-01
       -1   -1    0    0    0  501  0.00000000000E+00  0.00000000000E+00  0.10525026325E+04  0.10525026325E+04  0.50400001928E-02 0.  1.
        1   -1    0    0  501    0  0.00000000000E+00  0.00000000000E+00 -0.21467742397E+04  0.21467742398E+04  0.50400001928E-02 0. -1.
    10030    2    1    2    0    0  0.00000000000E+00  0.00000000000E+00 -0.10942716072E+04  0.31992768723E+04  0.30063170417E+04 0.  0.
        5    1    3    3  502    0 -0.22313666367E+03  0.14659935993E+04 -0.80896904789E+03  0.16891951380E+04  0.46999998093E+01 0.  1.
       -5    1    3    3    0  502  0.22313666367E+03 -0.14659935993E+04 -0.28530255932E+03  0.15100817343E+04  0.46999998093E+01 0. -1.
</event>
<event>
 5   0  0.1256208E-06  0.3360252E+04  0.7818609E-02  0.8147731E-01
       -2   -1    0    0    0  501  0.00000000000E+00  0.00000000000E+00  0.17021663277E+04  0.17021663277E+04  0.25500000920E-02 0. -1.
        2   -1    0    0  501    0  0.00000000000E+00  0.00000000000E+00 -0.16583714406E+04  0.16583714406E+04  0.25500000920E-02 0.  1.
    10030    2    1    2    0    0  0.00000000000E+00  0.00000000000E+00  0.43794887054E+02  0.33605377683E+04  0.33602523864E+04 0.  0.
        3    1    3    3  502    0 -0.53229988881E+03  0.45473196643E+03 -0.15055500761E+04  0.16603630250E+04  0.10100000352E+00 0.  1.
       -3    1    3    3    0  502  0.53229988881E+03 -0.45473196643E+03  0.15493449631E+04  0.17001747433E+04  0.10100000352E+00 0. -1.
</event>
<event>
 5   0  0.4272633E-07  0.3372722E+04  0.7818609E-02  0.8144634E-01
       -1   -1    0    0    0  501  0.00000000000E+00  0.00000000000E+00  0.14672185079E+04  0.14672185079E+04  0.50400001928E-02 0. -1.
        1   -1    0    0  501    0  0.00000000000E+00  0.00000000000E+00 -0.19382345574E+04  0.19382345574E+04  0.50400001928E-02 0.  1.
    10030    2    1    2    0    0  0.00000000000E+00  0.00000000000E+00 -0.47101604946E+03  0.34054530653E+04  0.33727221144E+04 0.  0.
        1    1    3    3  502    0 -0.10108242018E+04 -0.13189107758E+04 -0.52556298711E+03  0.17428447019E+04  0.50400001928E-02 0.  1.
       -1    1    3    3    0  502  0.10108242018E+04  0.13189107758E+04  0.54546937651E+02  0.16626083634E+04  0.50400001928E-02 0. -1.
</event>
<event>
 5   0  0.1300176E-06  0.3340837E+04  0.7818609E-02  0.8152581E-01
        2   -1    0    0  501    0  0.00000000000E+00  0.00000000000E+00  0.17161943322E+04  0.17161943322E+04  0.25500000920E-02 0. -1.
       -2   -1    0    0    0  501  0.00000000000E+00  0.00000000000E+00 -0.16258636293E+04  0.16258636293E+04  0.25500000920E-02 0.  1.
    10030    2    1    2    0    0  0.00000000000E+00  0.00000000000E+00  0.90330702917E+02  0.33420579615E+04  0.33408369883E+04 0.  0.
        1    1    3    3  502    0  0.12827422487E+04  0.20402750669E+03 -0.10055722922E+04  0.16426291532E+04  0.50400001928E-02 0.  1.
       -1    1    3    3    0  502 -0.12827422487E+04 -0.20402750669E+03  0.10959029951E+04  0.16994288083E+04  0.50400001928E-02 0. -1.
</event>
<event>
 5   0  0.4289684E-07  0.2863841E+04  0.7818609E-02  0.8283718E-01
       -1   -1    0    0    0  501  0.00000000000E+00  0.00000000000E+00  0.18645894562E+04  0.18645894562E+04  0.50400001928E-02 0.  1.
        1   -1    0    0  501    0  0.00000000000E+00  0.00000000000E+00 -0.10996502578E+04  0.10996502579E+04  0.50400001928E-02 0. -1.
    10030    2    1    2    0    0  0.00000000000E+00  0.00000000000E+00  0.76493919839E+03  0.29642397141E+04  0.28638409707E+04 0.  0.
        4    1    3    3  502    0 -0.10516789298E+04  0.17393326017E+03 -0.60714123358E+03  0.12267450594E+04  0.12699999809E+01 0. -1.
       -4    1    3    3    0  502  0.10516789298E+04 -0.17393326017E+03  0.13720804320E+04  0.17374946547E+04  0.12699999809E+01 0.  1.
</event>
<event>
 5   0  0.4109937E-07  0.3386013E+04  0.7818609E-02  0.8141348E-01
        1   -1    0    0  501    0  0.00000000000E+00  0.00000000000E+00  0.17138990670E+04  0.17138990670E+04  0.50400001928E-02 0. -1.
       -1   -1    0    0    0  501  0.00000000000E+00  0.00000000000E+00 -0.16723681447E+04  0.16723681447E+04  0.50400001928E-02 0.  1.
    10030    2    1    2    0    0  0.00000000000E+00  0.00000000000E+00  0.41530922333E+02  0.33862672118E+04  0.33860125239E+04 0.  0.
        5    1    3    3  502    0  0.16186748913E+04 -0.49604481865E+03  0.11862710434E+02  0.16930244180E+04  0.46999998093E+01 0.  1.
       -5    1    3    3    0  502 -0.16186748913E+04  0.49604481865E+03  0.29668211899E+02  0.16932427938E+04  0.46999998093E+01 0. -1.
</event>
<event>
 5   0  0.4125758E-07  0.3401564E+04  0.7818609E-02  0.8137523E-01
        1   -1    0    0  501    0  0.00000000000E+00  0.00000000000E+00  0.16916819803E+04  0.16916819803E+04  0.50400001928E-02 0. -1.
       -1   -1    0    0    0  501  0.00000000000E+00  0.00000000000E+00 -0.17099310752E+04  0.17099310753E+04  0.50400001928E-02 0.  1.
    10030    2    1    2    0    0  0.00000000000E+00  0.00000000000E+00 -0.18249094913E+02  0.34016130556E+04  0.34015641035E+04 0.  0.
        2    1    3    3  502    0  0.63912572647E+03 -0.84030361565E+03  0.13243367020E+04  0.16936527274E+04  0.25500000920E-02 0. -1.
       -2    1    3    3    0  502 -0.63912572647E+03  0.84030361565E+03 -0.13425857969E+04  0.17079603282E+04  0.25500000920E-02 0.  1.
</event>
<event>
 5   0  0.4289684E-07  0.3377475E+04  0.7818609E-02  0.8143457E-01
        1   -1    0    0  501    0  0.00000000000E+00  0.00000000000E+00  0.17561739227E+04  0.17561739227E+04  0.50400001928E-02 0. -1.
       -1   -1    0    0    0  501  0.00000000000E+00  0.00000000000E+00 -0.16238903143E+04  0.16238903143E+04  0.50400001928E-02 0.  1.
    10030    2    1    2    0    0  0.00000000000E+00  0.00000000000E+00  0.13228360845E+03  0.33800642370E+04  0.33774746917E+04 0.  0.
        4    1    3    3  502    0 -0.10704656882E+04 -0.30942647588E+03  0.13360475973E+04  0.17397316830E+04  0.12699999809E+01 0. -1.
       -4    1    3    3    0  502  0.10704656882E+04  0.30942647588E+03 -0.12037639889E+04  0.16403325539E+04  0.12699999809E+01 0.  1.
</event>
<event>
 5   0  0.4109937E-07  0.3393043E+04  0.7818609E-02  0.8139616E-01
        1   -1    0    0  501    0  0.00000000000E+00  0.00000000000E+00  0.17104541385E+04  0.17104541385E+04  0.50400001928E-02 0. -1.
       -1   -1    0    0    0  501  0.00000000000E+00  0.00000000000E+00 -0.16827027312E+04  0.16827027312E+04  0.50400001928E-02 0.  1.
    10030    2    1    2    0    0  0.00000000000E+00  0.00000000000E+00  0.27751407358E+02  0.33931568697E+04  0.33930433834E+04 0.  0.
        5    1    3    3  502    0  0.13139078016E+04  0.10438958749E+03  0.10820466564E+04  0.17053146202E+04  0.46999998093E+01 0. -1.
       -5    1    3    3    0  502 -0.13139078016E+04 -0.10438958749E+03 -0.10542952490E+04  0.16878422495E+04  0.46999998093E+01 0.  1.
</event>
<event>
 5   0  0.1268230E-06  0.3389821E+04  0.7818609E-02  0.8140409E-01
        2   -1    0    0  501    0  0.00000000000E+00  0.00000000000E+00  0.13953627839E+04  0.13953627839E+04  0.25500000920E-02 0. -1.
       -2   -1    0    0    0  501  0.00000000000E+00  0.00000000000E+00 -0.20587631737E+04  0.20587631737E+04  0.25500000920E-02 0.  1.
    10030    2    1    2    0    0  0.00000000000E+00  0.00000000000E+00 -0.66340038980E+03  0.34541259575E+04  0.33898209471E+04 0.  0.
        2    1    3    3  502    0  0.15240718027E+04 -0.13821560810E+03  0.41069699278E+03  0.15844779689E+04  0.25500000920E-02 0. -1.
       -2    1    3    3    0  502 -0.15240718027E+04  0.13821560810E+03 -0.10740973826E+04  0.18696479886E+04  0.25500000920E-02 0.  1.
</event>
<event>
 5   0  0.4272633E-07  0.3431482E+04  0.7818609E-02  0.8130223E-01
       -1   -1    0    0    0  501  0.00000000000E+00  0.00000000000E+00  0.20192940380E+04  0.20192940380E+04  0.50400001928E-02 0. -1.
        1   -1    0    0  501    0  0.00000000000E+00  0.00000000000E+00 -0.14578201472E+04  0.14578201472E+04  0.50400001928E-02 0.  1.
    10030    2    1    2    0    0  0.00000000000E+00  0.00000000000E+00  0.56147389079E+03  0.34771141852E+04  0.34314822055E+04 0.  0.
        1    1    3    3  502    0  0.14820492066E+04  0.74511170122E+03 -0.16339082573E+03  0.16668406823E+04  0.50400001928E-02 0.  1.
       -1    1    3    3    0  502 -0.14820492066E+04 -0.74511170122E+03  0.72486471652E+03  0.18102735029E+04  0.50400001928E-02 0. -1.
</event>
<event>
 5   0  0.4272633E-07  0.3027838E+04  0.7818609E-02  0.8235826E-01
        1   -1    0    0  501    0  0.00000000000E+00  0.00000000000E+00  0.25712552172E+04  0.25712552172E+04  0.50400001928E-02 0. -1.
       -1   -1    0    0    0  501  0.00000000000E+00  0.00000000000E+00 -0.89137451266E+03  0.89137451267E+03  0.50400001928E-02 0.  1.
    10030    2    1    2    0    0  0.00000000000E+00  0.00000000000E+00  0.16798807045E+04  0.34626297299E+04  0.30278384146E+04 0.  0.
        1    1    3    3  502    0  0.56245118856E+03  0.35134475716E+03 -0.71642747440E+03  0.97624935544E+03  0.50400001928E-02 0.  1.
       -1    1    3    3    0  502 -0.56245118856E+03 -0.35134475716E+03  0.23963081789E+04  0.24863803744E+04  0.50400001928E-02 0. -1.
</event>
<event>
 5   0  0.4272633E-07  0.3002927E+04  0.7818609E-02  0.8242896E-01
       -1   -1    0    0    0  501  0.00000000000E+00  0.00000000000E+00  0.82775679806E+03  0.82775679808E+03  0.50400001928E-02 0. -1.
        1   -1    0    0  501    0  0.00000000000E+00  0.00000000000E+00 -0.27234960853E+04  0.27234960853E+04  0.50400001928E-02 0.  1.
    10030    2    1    2    0    0  0.00000000000E+00  0.00000000000E+00 -0.18957392873E+04  0.35512528834E+04  0.30029268384E+04 0.  0.
        1    1    3    3  502    0  0.99765395144E+02  0.13872273039E+04 -0.16168891129E+04  0.21327641994E+04  0.50400001928E-02 0.  1.
       -1    1    3    3    0  502 -0.99765395144E+02 -0.13872273039E+04 -0.27885017437E+03  0.14184886840E+04  0.50400001928E-02 0. -1.
</event>
<event>
 5   0  0.1277635E-06  0.3437043E+04  0.7818609E-02  0.8128874E-01
        2   -1    0    0  501    0  0.00000000000E+00  0.00000000000E+00  0.13598605498E+04  0.13598605498E+04  0.25500000920E-02 0.  1.
       -2   -1    0    0    0  501  0.00000000000E+00  0.00000000000E+00 -0.21717791086E+04  0.21717791086E+04  0.25500000920E-02 0. -1.
    10030    2    1    2    0    0  0.00000000000E+00  0.00000000000E+00 -0.81191855879E+03  0.35316396584E+04  0.34370433414E+04 0.  0.
        4    1    3    3  502    0 -0.17006267879E+04  0.24285967477E+03 -0.35773324883E+03  0.17547327385E+04  0.12699999809E+01 0.  1.
       -4    1    3    3    0  502  0.17006267879E+04 -0.24285967477E+03 -0.45418530997E+03  0.17769069199E+04  0.12699999809E+01 0. -1.
</event>
<event>
 5   0  0.4464951E-07  0.3376071E+04  0.7818609E-02  0.8143804E-01
        1   -1    0    0  501    0  0.00000000000E+00  0.00000000000E+00  0.24133230392E+04  0.24133230392E+04  0.50400001928E-02 0. -1.
       -1   -1    0    0    0  501  0.00000000000E+00  0.00000000000E+00 -0.11807219124E+04  0.11807219124E+04  0.50400001928E-02 0.  1.
    10030    2    1    2    0    0  0.00000000000E+00  0.00000000000E+00  0.12326011267E+04  0.35940449516E+04  0.33760707304E+04 0.  0.
        3    1    3    3  502    0 -0.39407213853E+03  0.16160531656E+04  0.31044857951E+03  0.16921285457E+04  0.10100000352E+00 0.  1.
       -3    1    3    3    0  502  0.39407213853E+03 -0.16160531656E+04  0.92215254723E+03  0.19019164059E+04  0.10100000352E+00 0. -1.
</event>
<event>
 5   0  0.1277635E-06  0.3390651E+04  0.7818609E-02  0.8140205E-01
       -2   -1    0    0    0  501  0.00000000000E+00  0.00000000000E+00  0.18473312841E+04  0.18473312842E+04  0.25500000920E-02 0.  1.
        2   -1    0    0  501    0  0.00000000000E+00  0.00000000000E+00 -0.15558273007E+04  0.15558273007E+04  0.25500000920E-02 0. -1.
    10030    2    1    2    0    0  0.00000000000E+00  0.00000000000E+00  0.29150398344E+03  0.34031585849E+04  0.33906509377E+04 0.  0.
        4    1    3    3  502    0 -0.11321639806E+04 -0.11684201125E+04  0.62408739529E+03  0.17425520159E+04  0.12699999809E+01 0. -1.
       -4    1    3    3    0  502  0.11321639806E+04  0.11684201125E+04 -0.33258341186E+03  0.16606065690E+04  0.12699999809E+01 0.  1.
</event>
<event>
 5   0  0.1256208E-06  0.3374795E+04  0.7818609E-02  0.8144120E-01
        2   -1    0    0  501    0  0.00000000000E+00  0.00000000000E+00  0.22670489141E+04  0.22670489141E+04  0.25500000920E-02 0. -1.
       -2   -1    0    0    0  501  0.00000000000E+00  0.00000000000E+00 -0.12559546047E+04  0.12559546047E+04  0.25500000920E-02 0.  1.
    10030    2    1    2    0    0  0.00000000000E+00  0.00000000000E+00  0.10110943094E+04  0.35230035189E+04  0.33747951184E+04 0.  0.
        3    1    3    3  502    0 -0.34881024331E+02  0.15574009719E+04 -0.17146778779E+03  0.15671999507E+04  0.10100000352E+00 0.  1.
       -3    1    3    3    0  502  0.34881024331E+02 -0.15574009719E+04  0.11825620972E+04  0.19558035681E+04  0.10100000352E+00 0. -1.
</event>
<event>
 5   0  0.1300176E-06  0.3417199E+04  0.7818609E-02  0.8133698E-01
        2   -1    0    0  501    0  0.00000000000E+00  0.00000000000E+00  0.26266518388E+04  0.26266518388E+04  0.25500000920E-02 0. -1.
       -2   -1    0    0    0  501  0.00000000000E+00  0.00000000000E+00 -0.11114195240E+04  0.11114195240E+04  0.25500000920E-02 0.  1.
    10030    2    1    2    0    0  0.00000000000E+00  0.00000000000E+00  0.15152323148E+04  0.37380713628E+04  0.34171989326E+04 0.  0.
        1    1    3    3  502    0  0.88662584552E+03 -0.12914676354E+04  0.11421223985E+02  0.15665645495E+04  0.50400001928E-02 0.  1.
       -1    1    3    3    0  502 -0.88662584552E+03  0.12914676354E+04  0.15038110908E+04  0.21715068133E+04  0.50400001928E-02 0. -1.
</event>
<event>
 5   0  0.1277635E-06  0.3382245E+04  0.7818609E-02  0.8142278E-01
        2   -1    0    0  501    0  0.00000000000E+00  0.00000000000E+00  0.11531159661E+04  0.11531159661E+04  0.25500000920E-02 0. -1.
       -2   -1    0    0    0  501  0.00000000000E+00  0.00000000000E+00 -0.24801450050E+04  0.24801450050E+04  0.25500000920E-02 0.  1.
    10030    2    1    2    0    0  0.00000000000E+00  0.00000000000E+00 -0.13270290389E+04  0.36332609711E+04  0.33822447005E+04 0.  0.
        4    1    3    3  502    0 -0.36738163563E+03  0.16438359355E+04 -0.50157013685E+03  0.17574811703E+04  0.12699999809E+01 0.  1.
       -4    1    3    3    0  502  0.36738163563E+03 -0.16438359355E+04 -0.82545890204E+03  0.18757798007E+04  0.12699999809E+01 0. -1.
</event>
<event>
 5   0  0.4464951E-07  0.3415039E+04  0.7818609E-02  0.8134225E-01
        1   -1    0    0  501    0  0.00000000000E+00  0.00000000000E+00  0.27714506181E+04  0.27714506181E+04  0.50400001928E-02 0. -1.
       -1   -1    0    0    0  501  0.00000000000E+00  0.00000000000E+00 -0.10520205489E+04  0.10520205489E+04  0.50400001928E-02 0.  1.
    10030    2    1    2    0    0  0.00000000000E+00  0.00000000000E+00  0.17194300692E+04  0.38234711670E+04  0.34150390923E+04 0.  0.
        3    1    3    3  502    0  0.78195771515E+03  0.11499612831E+04 -0.24962201348E+03  0.14128623361E+04  0.10100000352E+00 0.  1.
       -3    1    3    3    0  502 -0.78195771515E+03 -0.11499612831E+04  0.19690520826E+04  0.24106088309E+04  0.10100000352E+00 0. -1.
</event>
<event>
 5   0  0.1256208E-06  0.3380185E+04  0.7818609E-02  0.8142787E-01
       -2   -1    0    0    0  501  0.00000000000E+00  0.00000000000E+00  0.12261701546E+04  0.12261701546E+04  0.25500000920E-02 0.  1.
        2   -1    0    0  501    0  0.00000000000E+00  0.00000000000E+00 -0.23295398657E+04  0.23295398657E+04  0.25500000920E-02 0. -1.
    10030    2    1    2    0    0  0.00000000000E+00  0.00000000000E+00 -0.11033697111E+04  0.35557100203E+04  0.33801847625E+04 0.  0.
        3    1    3    3  502    0 -0.10044457180E+04  0.33422476469E+03 -0.19375950652E+04  0.22079157684E+04  0.10100000352E+00 0. -1.
       -3    1    3    3    0  502  0.10044457180E+04 -0.33422476469E+03  0.83422535408E+03  0.13477942518E+04  0.10100000352E+00 0.  1.
</event>
<event>
 5   0  0.4464951E-07  0.3479290E+04  0.7818609E-02  0.8118716E-01
       -1   -1    0    0    0  501  0.00000000000E+00  0.00000000000E+00  0.14860421034E+04  0.14860421034E+04  0.50400001928E-02 0.  1.
        1   -1    0    0  501    0  0.00000000000E+00  0.00000000000E+00 -0.20365267455E+04  0.20365267455E+04  0.50400001928E-02 0. -1.
    10030    2    1    2    0    0  0.00000000000E+00  0.00000000000E+00 -0.55048464210E+03  0.35225688489E+04  0.34792898635E+04 0.  0.
        3    1    3    3  502    0  0.44284610595E+03  0.73219485845E+03 -0.18087256997E+04  0.20009274478E+04  0.10100000352E+00 0. -1.
       -3    1    3    3    0  502 -0.44284610595E+03 -0.73219485845E+03  0.12582410576E+04  0.15216414011E+04  0.10100000352E+00 0.  1.
</event>
<event>
 5   0  0.1277635E-06  0.3398361E+04  0.7818609E-02  0.8138309E-01
        2   -1    0    0  501    0  0.00000000000E+00  0.00000000000E+00  0.16314263791E+04  0.16314263791E+04  0.25500000920E-02 0.  1.
       -2   -1    0    0    0  501  0.00000000000E+00  0.00000000000E+00 -0.17697487824E+04  0.17697487824E+04  0.25500000920E-02 0. -1.
    10030    2    1    2    0    0  0.00000000000E+00  0.00000000000E+00 -0.13832240332E+03  0.34011751615E+04  0.33983612804E+04 0.  0.
        4    1    3    3  502    0 -0.14637741446E+03  0.57458829411E+03  0.15245250871E+04  0.16357739481E+04  0.12699999809E+01 0.  1.
       -4    1    3    3    0  502  0.14637741446E+03 -0.57458829411E+03 -0.16628474904E+04  0.17654012134E+04  0.12699999809E+01 0. -1.
</event>
<event>
 5   0  0.1268230E-06  0.3341002E+04  0.7818609E-02  0.8152540E-01
       -2   -1    0    0    0  501  0.00000000000E+00  0.00000000000E+00  0.15562703085E+04  0.15562703086E+04  0.25500000920E-02 0. -1.
        2   -1    0    0  501    0  0.00000000000E+00  0.00000000000E+00 -0.17931165766E+04  0.17931165766E+04  0.25500000920E-02 0.  1.
    10030    2    1    2    0    0  0.00000000000E+00  0.00000000000E+00 -0.23684626810E+03  0.33493868852E+04  0.33410022975E+04 0.  0.
        2    1    3    3  502    0  0.12205207484E+04  0.10511654841E+04 -0.56220132725E+03  0.17060744722E+04  0.25500000920E-02 0. -1.
       -2    1    3    3    0  502 -0.12205207484E+04 -0.10511654841E+04  0.32535505916E+03  0.16433124130E+04  0.25500000920E-02 0.  1.
</event>
<event>
 5   0  0.1300176E-06  0.3413287E+04  0.7818609E-02  0.8134653E-01
       -2   -1    0    0    0  501  0.00000000000E+00  0.00000000000E+00  0.12637495191E+04  0.12637495191E+04  0.25500000920E-02 0. -1.
        2   -1    0    0  501    0  0.00000000000E+00  0.00000000000E+00 -0.23047545884E+04  0.23047545884E+04  0.25500000920E-02 0.  1.
    10030    2    1    2    0    0  0.00000000000E+00  0.00000000000E+00 -0.10410050693E+04  0.35685041074E+04  0.34132872734E+04 0.  0.
        1    1    3    3  502    0  0.10666843244E+03 -0.15204589665E+03  0.12531520469E+04  0.12668410168E+04  0.50400001928E-02 0. -1.
       -1    1    3    3    0  502 -0.10666843244E+03  0.15204589665E+03 -0.22941571162E+04  0.23016630907E+04  0.50400001928E-02 0.  1.
</event>
<event>
 5   0  0.1256208E-06  0.3409456E+04  0.7818609E-02  0.8135589E-01
       -2   -1    0    0    0  501  0.00000000000E+00  0.00000000000E+00  0.12914014584E+04  0.12914014584E+04  0.25500000920E-02 0. -1.
        2   -1    0    0  501    0  0.00000000000E+00  0.00000000000E+00 -0.22503435856E+04  0.22503435856E+04  0.25500000920E-02 0.  1.
    10030    2    1    2    0    0  0.00000000000E+00  0.00000000000E+00 -0.95894212726E+03  0.35417450440E+04  0.34094556682E+04 0.  0.
        3    1    3    3  502    0 -0.66522825902E+03 -0.15613086241E+04 -0.64659767579E+03  0.18161227438E+04  0.10100000352E+00 0.  1.
       -3    1    3    3    0  502  0.66522825902E+03  0.15613086241E+04 -0.31234445147E+03  0.17256223001E+04  0.10100000352E+00 0. -1.
</event>
<event>
 5   0  0.1268230E-06  0.3429275E+04  0.7818609E-02  0.8130758E-01
       -2   -1    0    0    0  501  0.00000000000E+00  0.00000000000E+00  0.14502449997E+04  0.14502449997E+04  0.25500000920E-02 0.  1.
        2   -1    0    0  501    0  0.00000000000E+00  0.00000000000E+00 -0.20272312646E+04  0.20272312646E+04  0.25500000920E-02 0. -1.
    10030    2    1    2    0    0  0.00000000000E+00  0.00000000000E+00 -0.57698626492E+03  0.34774762642E+04  0.34292751448E+04 0.  0.
        2    1    3    3  502    0 -0.12779153195E+04 -0.91935553563E+02 -0.14440105978E+04  0.19304627208E+04  0.25500000920E-02 0. -1.
       -2    1    3    3    0  502  0.12779153195E+04  0.91935553563E+02  0.86702433288E+03  0.15470135434E+04  0.25500000920E-02 0.  1.
</event>
<event>
 5   0  0.4125758E-07  0.3375812E+04  0.7818609E-02  0.8143868E-01
       -1   -1    0    0    0  501  0.00000000000E+00  0.00000000000E+00  0.25556426389E+04  0.25556426389E+04  0.50400001928E-02 0. -1.
        1   -1    0    0  501    0  0.00000000000E+00  0.00000000000E+00 -0.11147986693E+04  0.11147986693E+04  0.50400001928E-02 0.  1.
    10030    2    1    2    0    0  0.00000000000E+00  0.00000000000E+00  0.14408439696E+04  0.36704413081E+04  0.33758122062E+04 0.  0.
        2    1    3    3  502    0 -0.67764757960E+03  0.90913864314E+03 -0.63901618572E+03  0.13015686690E+04  0.25500000920E-02 0.  1.
       -2    1    3    3    0  502  0.67764757960E+03 -0.90913864314E+03  0.20798601553E+04  0.23688726391E+04  0.25500000920E-02 0. -1.
</event>
<event>
 5   0  0.4125758E-07  0.3355938E+04  0.7818609E-02  0.8148806E-01
       -1   -1    0    0    0  501  0.00000000000E+00  0.00000000000E+00  0.86577441751E+03  0.86577441752E+03  0.50400001928E-02 0. -1.
        1   -1    0    0  501    0  0.00000000000E+00  0.00000000000E+00 -0.32520936794E+04  0.32520936794E+04  0.50400001928E-02 0.  1.
    10030    2    1    2    0    0  0.00000000000E+00  0.00000000000E+00 -0.23863192619E+04  0.41178680969E+04  0.33559377295E+04 0.  0.
        2    1    3    3  502    0 -0.14366107723E+03 -0.15361711790E+04 -0.20025585472E+04  0.25279836098E+04  0.25500000920E-02 0.  1.
       -2    1    3    3    0  502  0.14366107723E+03  0.15361711790E+04 -0.38376071467E+03  0.15898844871E+04  0.25500000920E-02 0. -1.
</event>
<event>
 5   0  0.4289684E-07  0.3359825E+04  0.7818609E-02  0.8147838E-01
        1   -1    0    0  501    0  0.00000000000E+00  0.00000000000E+00  0.10211412952E+04  0.10211412952E+04  0.50400001928E-02 0.  1.
       -1   -1    0    0    0  501  0.00000000000E+00  0.00000000000E+00 -0.27636781245E+04  0.27636781245E+04  0.50400001928E-02 0. -1.
    10030    2    1    2    0    0  0.00000000000E+00  0.00000000000E+00 -0.17425368293E+04  0.37848194197E+04  0.33598249119E+04 0.  0.
        4    1    3    3  502    0 -0.81610239541E+03  0.10574048268E+04 -0.20189520965E+04  0.24208050868E+04  0.12699999809E+01 0. -1.
       -4    1    3    3    0  502  0.81610239541E+03 -0.10574048268E+04  0.27641526720E+03  0.13640143329E+04  0.12699999809E+01 0.  1.
</event>
<event>
 5   0  0.4109937E-07  0.3319168E+04  0.7818609E-02  0.8158035E-01
       -1   -1    0    0    0  501  0.00000000000E+00  0.00000000000E+00  0.15426614245E+04  0.15426614246E+04  0.50400001928E-02 0. -1.
        1   -1    0    0  501    0  0.00000000000E+00  0.00000000000E+00 -0.17853681685E+04  0.17853681685E+04  0.50400001928E-02 0.  1.
    10030    2    1    2    0    0  0.00000000000E+00  0.00000000000E+00 -0.24270674392E+03  0.33280295930E+04  0.33191677283E+04 0.  0.
        5    1    3    3  502    0  0.25190909766E+03 -0.13468267218E+04 -0.10602273123E+04  0.17324850522E+04  0.46999998093E+01 0.  1.
       -5    1    3    3    0  502 -0.25190909766E+03  0.13468267218E+04  0.81752056842E+03  0.15955445409E+04  0.46999998093E+01 0. -1.
</event>
<event>
 5   0  0.4109937E-07  0.3401935E+04  0.7818609E-02  0.8137432E-01
        1   -1    0    0  501    0  0.00000000000E+00  0.00000000000E+00  0.25136604853E+04  0.25136604853E+04  0.50400001928E-02 0. -1.
       -1   -1    0    0    0  501  0.00000000000E+00  0.00000000000E+00 -0.11510267446E+04  0.11510267447E+04  0.50400001928E-02 0.  1.
    10030    2    1    2    0    0  0.00000000000E+00  0.00000000000E+00  0.13626337406E+04  0.36646872299E+04  0.34019350056E+04 0.  0.
        5    1    3    3  502    0 -0.21013821030E+03 -0.61872826364E+03 -0.10104191191E+04  0.12033086129E+04  0.46999998093E+01 0.  1.
       -5    1    3    3    0  502  0.21013821030E+03  0.61872826364E+03  0.23730528597E+04  0.24613786171E+04  0.46999998093E+01 0. -1.
</event>
<event>
 5   0  0.1256208E-06  0.3404029E+04  0.7818609E-02  0.8136918E-01
       -2   -1    0    0    0  501  0.00000000000E+00  0.00000000000E+00  0.34144429910E+04  0.34144429910E+04  0.25500000920E-02 0.  1.
        2   -1    0    0  501    0  0.00000000000E+00  0.00000000000E+00 -0.84841189196E+03  0.84841189196E+03  0.25500000920E-02 0. -1.
    10030    2    1    2    0    0  0.00000000000E+00  0.00000000000E+00  0.25660310990E+04  0.42628548829E+04  0.34040293994E+04 0.  0.
        3    1    3    3  502    0 -0.13424436676E+04  0.89176822441E+03  0.19682959153E+04  0.25439328583E+04  0.10100000352E+00 0.  1.
       -3    1    3    3    0  502  0.13424436676E+04 -0.89176822441E+03  0.59773518371E+03  0.17189220247E+04  0.10100000352E+00 0. -1.
</event>
<event>
 5   0  0.1256208E-06  0.3411961E+04  0.7818609E-02  0.8134977E-01
       -2   -1    0    0    0  501  0.00000000000E+00  0.00000000000E+00  0.15901726222E+04  0.15901726222E+04  0.25500000920E-02 0. -1.
        2   -1    0    0  501    0  0.00000000000E+00  0.00000000000E+00 -0.18302227612E+04  0.18302227612E+04  0.25500000920E-02 0.  1.
    10030    2    1    2    0    0  0.00000000000E+00  0.00000000000E+00 -0.24005013894E+03  0.34203953834E+04  0.34119613875E+04 0.  0.
        3    1    3    3  502    0  0.14419220489E+04  0.90618107668E+03 -0.19443720095E+02  0.17031386929E+04  0.10100000352E+00 0. -1.
       -3    1    3    3    0  502 -0.14419220489E+04 -0.90618107668E+03 -0.22060641884E+03  0.17172566905E+04  0.10100000352E+00 0.  1.
</event>
<event>
 5   0  0.4060750E-07  0.3393169E+04  0.7818609E-02  0.8139585E-01
       -3   -1    0    0    0  501  0.00000000000E+00  0.00000000000E+00  0.11047591195E+04  0.11047591241E+04  0.10100000352E+00 0.  1.
        3   -1    0    0  501    0  0.00000000000E+00  0.00000000000E+00 -0.26054537402E+04  0.26054537422E+04  0.10100000352E+00 0. -1.
    10030    2    1    2    0    0  0.00000000000E+00  0.00000000000E+00 -0.15006946207E+04  0.37102128663E+04  0.33931688978E+04 0.  0.
        1    1    3    3  502    0 -0.35976069842E+03 -0.33459788003E+03  0.10252712402E+04  0.11369101185E+04  0.50400001928E-02 0.  1.
       -1    1    3    3    0  502  0.35976069842E+03  0.33459788003E+03 -0.25259658609E+04  0.25733027479E+04  0.50400001928E-02 0. -1.
</event>
<event>
 5   0  0.1300176E-06  0.3382055E+04  0.7818609E-02  0.8142325E-01
        2   -1    0    0  501    0  0.00000000000E+00  0.00000000000E+00  0.27349167616E+04  0.27349167616E+04  0.25500000920E-02 0.  1.
       -2   -1    0    0    0  501  0.00000000000E+00  0.00000000000E+00 -0.10455796514E+04  0.10455796514E+04  0.25500000920E-02 0. -1.
    10030    2    1    2    0    0  0.00000000000E+00  0.00000000000E+00  0.16893371102E+04  0.37804964130E+04  0.33820545910E+04 0.  0.
        1    1    3    3  502    0 -0.31543185785E+03 -0.14026799699E+04 -0.15047480732E+03  0.14455625281E+04  0.50400001928E-02 0. -1.
       -1    1    3    3    0  502  0.31543185785E+03  0.14026799699E+04  0.18398119175E+04  0.23349338849E+04  0.50400001928E-02 0.  1.
</event>
<event>
 5   0  0.4125758E-07  0.3416552E+04  0.7818609E-02  0.8133856E-01
        1   -1    0    0  501    0  0.00000000000E+00  0.00000000000E+00  0.15801548023E+04  0.15801548023E+04  0.50400001928E-02 0. -1.
       -1   -1    0    0    0  501  0.00000000000E+00  0.00000000000E+00 -0.18467851496E+04  0.18467851496E+04  0.50400001928E-02 0.  1.
    10030    2    1    2    0    0  0.00000000000E+00  0.00000000000E+00 -0.26663034732E+03  0.34269399519E+04  0.34165517253E+04 0.  0.
        2    1    3    3  502    0  0.16172196118E+03  0.15056397782E+04  0.65972226679E+03  0.16517683263E+04  0.25500000920E-02 0.  1.
       -2    1    3    3    0  502 -0.16172196118E+03 -0.15056397782E+04 -0.92635261411E+03  0.17751716256E+04  0.25500000920E-02 0. -1.
</event>
<event>
 5   0  0.1256208E-06  0.3385032E+04  0.7818609E-02  0.8141590E-01
       -2   -1    0    0    0  501  0.00000000000E+00  0.00000000000E+00  0.13190829362E+04  0.13190829362E+04  0.25500000920E-02 0.  1.
        2   -1    0    0  501    0  0.00000000000E+00  0.00000000000E+00 -0.21716676014E+04  0.21716676014E+04  0.25500000920E-02 0. -1.
    10030    2    1    2    0    0  0.00000000000E+00  0.00000000000E+00 -0.85258466520E+03  0.34907505376E+04  0.33850315663E+04 0.  0.
        3    1    3    3  502    0 -0.14291659830E+04  0.56755496049E+02  0.50688544000E+03  0.15174549261E+04  0.10100000352E+00 0.  1.
       -3    1    3    3    0  502  0.14291659830E+04 -0.56755496049E+02 -0.13594701052E+04  0.19732956115E+04  0.10100000352E+00 0. -1.
</event>
<event>
 5   0  0.1277635E-06  0.3370220E+04  0.7818609E-02  0.8145254E-01
       -2   -1    0    0    0  501  0.00000000000E+00  0.00000000000E+00  0.11069404822E+04  0.11069404822E+04  0.25500000920E-02 0.  1.
        2   -1    0    0  501    0  0.00000000000E+00  0.00000000000E+00 -0.25652651702E+04  0.25652651702E+04  0.25500000920E-02 0. -1.
    10030    2    1    2    0    0  0.00000000000E+00  0.00000000000E+00 -0.14583246881E+04  0.36722056524E+04  0.33702200904E+04 0.  0.
        4    1    3    3  502    0  0.13409006111E+03  0.13277745037E+04 -0.18502527081E+04  0.22813158426E+04  0.12699999809E+01 0. -1.
       -4    1    3    3    0  502 -0.13409006111E+03 -0.13277745037E+04  0.39192802000E+03  0.13908898098E+04  0.12699999809E+01 0.  1.
</event>
<event>
 5   0  0.1269497E-06  0.3399494E+04  0.7818609E-02  0.8138030E-01
       -2   -1    0    0    0  501  0.00000000000E+00  0.00000000000E+00  0.11611049716E+04  0.11611049716E+04  0.25500000920E-02 0.  1.
        2   -1    0    0  501    0  0.00000000000E+00  0.00000000000E+00 -0.24882676874E+04  0.24882676874E+04  0.25500000920E-02 0. -1.
    10030    2    1    2    0    0  0.00000000000E+00  0.00000000000E+00 -0.13271627158E+04  0.36493726590E+04  0.33994940697E+04 0.  0.
        5    1    3    3  502    0  0.15607702356E+04 -0.65269123847E+03 -0.84032962248E+03  0.18889641462E+04  0.46999998093E+01 0. -1.
       -5    1    3    3    0  502 -0.15607702356E+04  0.65269123847E+03 -0.48683309327E+03  0.17604085128E+04  0.46999998093E+01 0.  1.
</event>
<event>
 5   0  0.4272633E-07  0.3348898E+04  0.7818609E-02  0.8150563E-01
       -1   -1    0    0    0  501  0.00000000000E+00  0.00000000000E+00  0.11995837076E+04  0.11995837076E+04  0.50400001928E-02 0.  1.
        1   -1    0    0  501    0  0.00000000000E+00  0.00000000000E+00 -0.23372943238E+04  0.23372943238E+04  0.50400001928E-02 0. -1.
    10030    2    1    2    0    0  0.00000000000E+00  0.00000000000E+00 -0.11377106162E+04  0.35368780315E+04  0.33488984403E+04 0.  0.
        1    1    3    3  502    0 -0.45516427440E+03 -0.81115439732E+03 -0.20393587430E+04  0.22414571278E+04  0.50400001928E-02 0. -1.
       -1    1    3    3    0  502  0.45516427440E+03  0.81115439732E+03  0.90164812683E+03  0.12954209037E+04  0.50400001928E-02 0.  1.
</event>
<event>
 5   0  0.4464951E-07  0.3370676E+04  0.7818609E-02  0.8145141E-01
        1   -1    0    0  501    0  0.00000000000E+00  0.00000000000E+00  0.27205570880E+04  0.27205570880E+04  0.50400001928E-02 0.  1.
       -1   -1    0    0    0  501  0.00000000000E+00  0.00000000000E+00 -0.10440378224E+04  0.10440378224E+04  0.50400001928E-02 0. -1.
    10030    2    1    2    0    0  0.00000000000E+00  0.00000000000E+00  0.16765192656E+04  0.37645949104E+04  0.33706761920E+04 0.  0.
        3    1    3    3  502    0 -0.59789801006E+03  0.23587478108E+03  0.25782949916E+04  0.26572022912E+04  0.10100000352E+00 0.  1.
       -3    1    3    3    0  502  0.59789801006E+03 -0.23587478108E+03 -0.90177572599E+03  0.11073926192E+04  0.10100000352E+00 0. -1.
</event>
<event>
 5   0  0.4289684E-07  0.3386424E+04  0.7818609E-02  0.8141246E-01
        1   -1    0    0  501    0  0.00000000000E+00  0.00000000000E+00  0.81969592976E+03  0.81969592977E+03  0.50400001928E-02 0.  1.
       -1   -1    0    0    0  501  0.00000000000E+00  0.00000000000E+00 -0.34975979201E+04  0.34975979201E+04  0.50400001928E-02 0. -1.
    10030    2    1    2    0    0  0.00000000000E+00  0.00000000000E+00 -0.26779019904E+04  0.43172938499E+04  0.33864239422E+04 0.  0.
        4    1    3    3  502    0 -0.46671077159E+03 -0.11531006680E+04 -0.28034052667E+04  0.30670087704E+04  0.12699999809E+01 0. -1.
       -4    1    3    3    0  502  0.46671077159E+03  0.11531006680E+04  0.12550327635E+03  0.12502850796E+04  0.12699999809E+01 0.  1.
</event>
<event>
 5   0  0.4109937E-07  0.3650954E+04  0.7818609E-02  0.8078919E-01
       -1   -1    0    0    0  501  0.00000000000E+00  0.00000000000E+00  0.18046131732E+04  0.18046131732E+04  0.50400001928E-02 0. -1.
        1   -1    0    0  501    0  0.00000000000E+00  0.00000000000E+00 -0.18465815582E+04  0.18465815582E+04  0.50400001928E-02 0.  1.
    10030    2    1    2    0    0  0.00000000000E+00  0.00000000000E+00 -0.41968384975E+02  0.36511947313E+04  0.36509535221E+04 0.  0.
        5    1    3    3  502    0  0.17059432215E+03  0.17419364622E+04  0.49760407027E+03  0.18196364916E+04  0.46999998093E+01 0. -1.
       -5    1    3    3    0  502 -0.17059432215E+03 -0.17419364622E+04 -0.53957245524E+03  0.18315582397E+04  0.46999998093E+01 0.  1.
</event>
<event>
 5   0  0.1256208E-06  0.3383079E+04  0.7818609E-02  0.8142072E-01
       -2   -1    0    0    0  501  0.00000000000E+00  0.00000000000E+00  0.12128957070E+04  0.12128957070E+04  0.25500000920E-02 0. -1.
        2   -1    0    0  501    0  0.00000000000E+00  0.00000000000E+00 -0.23590701444E+04  0.23590701444E+04  0.25500000920E-02 0.  1.
    10030    2    1    2    0    0  0.00000000000E+00  0.00000000000E+00 -0.11461744373E+04  0.35719658514E+04  0.33830791009E+04 0.  0.
        3    1    3    3  502    0  0.31500562101E+03 -0.36602172917E+03 -0.22847434728E+04  0.23352201596E+04  0.10100000352E+00 0.  1.
       -3    1    3    3    0  502 -0.31500562101E+03  0.36602172917E+03  0.11385690354E+04  0.12367456918E+04  0.10100000352E+00 0. -1.
</event>
<event>
 5   0  0.4125758E-07  0.3414838E+04  0.7818609E-02  0.8134274E-01
       -1   -1    0    0    0  501  0.00000000000E+00  0.00000000000E+00  0.11897945836E+04  0.11897945836E+04  0.50400001928E-02 0. -1.
        1   -1    0    0  501    0  0.00000000000E+00  0.00000000000E+00 -0.24502371349E+04  0.24502371349E+04  0.50400001928E-02 0.  1.
    10030    2    1    2    0    0  0.00000000000E+00  0.00000000000E+00 -0.12604425513E+04  0.36400317185E+04  0.34148375491E+04 0.  0.
        2    1    3    3  502    0  0.33427541089E+03  0.98143974554E+02 -0.24119478609E+04  0.24369786158E+04  0.25500000920E-02 0.  1.
       -2    1    3    3    0  502 -0.33427541089E+03 -0.98143974554E+02  0.11515053096E+04  0.12030531027E+04  0.25500000920E-02 0. -1.
</event>
<event>
 5   0  0.4289684E-07  0.3424260E+04  0.7818609E-02  0.8131978E-01
       -1   -1    0    0    0  501  0.00000000000E+00  0.00000000000E+00  0.25834388391E+04  0.25834388391E+04  0.50400001928E-02 0.  1.
        1   -1    0    0  501    0  0.00000000000E+00  0.00000000000E+00 -0.11346847722E+04  0.11346847722E+04  0.50400001928E-02 0. -1.
    10030    2    1    2    0    0  0.00000000000E+00  0.00000000000E+00  0.14487540670E+04  0.37181236113E+04  0.34242597510E+04 0.  0.
        4    1    3    3  502    0 -0.15524680218E+03 -0.13617615377E+04 -0.38978623962E+03  0.14249319214E+04  0.12699999809E+01 0. -1.
       -4    1    3    3    0  502  0.15524680218E+03  0.13617615377E+04  0.18385403066E+04  0.22931916900E+04  0.12699999809E+01 0.  1.
</event>
<event>
 5   0  0.4464951E-07  0.3395288E+04  0.7818609E-02  0.8139064E-01
       -1   -1    0    0    0  501  0.00000000000E+00  0.00000000000E+00  0.15568813360E+04  0.15568813360E+04  0.50400001928E-02 0.  1.
        1   -1    0    0  501    0  0.00000000000E+00  0.00000000000E+00 -0.18511329679E+04  0.18511329679E+04  0.50400001928E-02 0. -1.
    10030    2    1    2    0    0  0.00000000000E+00  0.00000000000E+00 -0.29425163183E+03  0.34080143039E+04  0.33952875390E+04 0.  0.
        3    1    3    3  502    0 -0.10194981225E+04 -0.12070354521E+04  0.47623614468E+03  0.16501854077E+04  0.10100000352E+00 0. -1.
       -3    1    3    3    0  502  0.10194981225E+04  0.12070354521E+04 -0.77048777651E+03  0.17578288962E+04  0.10100000352E+00 0.  1.
</event>
<event>
 5   0  0.4289684E-07  0.3388200E+04  0.7818609E-02  0.8140808E-01
        1   -1    0    0  501    0  0.00000000000E+00  0.00000000000E+00  0.19949578013E+04  0.19949578013E+04  0.50400001928E-02 0. -1.
       -1   -1    0    0    0  501  0.00000000000E+00  0.00000000000E+00 -0.14386145935E+04  0.14386145936E+04  0.50400001928E-02 0.  1.
    10030    2    1    2    0    0  0.00000000000E+00  0.00000000000E+00  0.55634320777E+03  0.34335723949E+04  0.33882003521E+04 0.  0.
        4    1    3    3  502    0  0.99049900976E+03  0.94493076066E+03  0.12895295978E+04  0.18806569670E+04  0.12699999809E+01 0. -1.
       -4    1    3    3    0  502 -0.99049900976E+03 -0.94493076066E+03 -0.73318639006E+03  0.15529154279E+04  0.12699999809E+01 0.  1.
</event>
<event>
 5   0  0.1268230E-06  0.3407718E+04  0.7818609E-02  0.8136015E-01
       -2   -1    0    0    0  501  0.00000000000E+00  0.00000000000E+00  0.18376014479E+04  0.18376014479E+04  0.25500000920E-02 0.  1.
        2   -1    0    0  501    0  0.00000000000E+00  0.00000000000E+00 -0.15798503349E+04  0.15798503349E+04  0.25500000920E-02 0. -1.
    10030    2    1    2    0    0  0.00000000000E+00  0.00000000000E+00  0.25775111303E+03  0.34174517828E+04  0.34077178656E+04 0.  0.
        2    1    3    3  502    0  0.10517703984E+03  0.12387556254E+04  0.12973464266E+04  0.17968543235E+04  0.25500000920E-02 0. -1.
       -2    1    3    3    0  502 -0.10517703984E+03 -0.12387556254E+04 -0.10395953136E+04  0.16205974593E+04  0.25500000920E-02 0.  1.
</event>
<event>
 5   0  0.1269497E-06  0.3463380E+04  0.7818609E-02  0.8122524E-01
       -2   -1    0    0    0  501  0.00000000000E+00  0.00000000000E+00  0.12783655238E+04  0.12783655238E+04  0.25500000920E-02 0.  1.
        2   -1    0    0  501    0  0.00000000000E+00  0.00000000000E+00 -0.23457683757E+04  0.23457683757E+04  0.25500000920E-02 0. -1.
    10030    2    1    2    0    0  0.00000000000E+00  0.00000000000E+00 -0.10674028520E+04  0.36241338995E+04  0.34633795162E+04 0.  0.
        5    1    3    3  502    0 -0.96243987870E+03  0.37158551834E+03 -0.19890697421E+04  0.22407112367E+04  0.46999998093E+01 0. -1.
       -5    1    3    3    0  502  0.96243987870E+03 -0.37158551834E+03  0.92166689010E+03  0.13834226628E+04  0.46999998093E+01 0.  1.
</event>
<event>
 5   0  0.1256208E-06  0.3364723E+04  0.7818609E-02  0.8146619E-01
       -2   -1    0    0    0  501  0.00000000000E+00  0.00000000000E+00  0.15017451009E+04  0.15017451009E+04  0.25500000920E-02 0.  1.
        2   -1    0    0  501    0  0.00000000000E+00  0.00000000000E+00 -0.18847004050E+04  0.18847004050E+04  0.25500000920E-02 0. -1.
    10030    2    1    2    0    0  0.00000000000E+00  0.00000000000E+00 -0.38295530414E+03  0.33864455059E+04  0.33647226334E+04 0.  0.
        3    1    3    3  502    0 -0.10412510157E+04  0.63808677470E+03 -0.13560917909E+04  0.18249228382E+04  0.10100000352E+00 0. -1.
       -3    1    3    3    0  502  0.10412510157E+04 -0.63808677470E+03  0.97313648677E+03  0.15615226677E+04  0.10100000352E+00 0.  1.
</event>
<event>
 5   0  0.1269497E-06  0.3338761E+04  0.7818609E-02  0.8153102E-01
       -2   -1    0    0    0  501  0.00000000000E+00  0.00000000000E+00  0.12215286673E+04  0.12215286673E+04  0.25500000920E-02 0.  1.
        2   -1    0    0  501    0  0.00000000000E+00  0.00000000000E+00 -0.22814288315E+04  0.22814288315E+04  0.25500000920E-02 0. -1.
    10030    2    1    2    0    0  0.00000000000E+00  0.00000000000E+00 -0.10599001642E+04  0.35029574987E+04  0.33387606802E+04 0.  0.
        5    1    3    3  502    0  0.12426430592E+04  0.96695523569E+03 -0.11118845828E+04  0.19275563846E+04  0.46999998093E+01 0.  1.
       -5    1    3    3    0  502 -0.12426430592E+04 -0.96695523569E+03  0.51984418623E+02  0.15754011141E+04  0.46999998093E+01 0. -1.
</event>
<event>
 5   0  0.4289684E-07  0.3408926E+04  0.7818609E-02  0.8135719E-01
        1   -1    0    0  501    0  0.00000000000E+00  0.00000000000E+00  0.20190362183E+04  0.20190362183E+04  0.50400001928E-02 0. -1.
       -1   -1    0    0    0  501  0.00000000000E+00  0.00000000000E+00 -0.14389018525E+04  0.14389018525E+04  0.50400001928E-02 0.  1.
    10030    2    1    2    0    0  0.00000000000E+00  0.00000000000E+00  0.58013436580E+03  0.34579380709E+04  0.34089264908E+04 0.  0.
        4    1    3    3  502    0  0.25131236498E+03 -0.12997829179E+04 -0.79896031399E+03  0.15462641219E+04  0.12699999809E+01 0.  1.
       -4    1    3    3    0  502 -0.25131236498E+03  0.12997829179E+04  0.13790946798E+04  0.19116739490E+04  0.12699999809E+01 0. -1.
</event>
<event>
 5   0  0.4109937E-07  0.3491260E+04  0.7818609E-02  0.8115864E-01
        1   -1    0    0  501    0  0.00000000000E+00  0.00000000000E+00  0.13116692276E+04  0.13116692276E+04  0.50400001928E-02 0. -1.
       -1   -1    0    0    0  501  0.00000000000E+00  0.00000000000E+00 -0.23231645701E+04  0.23231645701E+04  0.50400001928E-02 0.  1.
    10030    2    1    2    0    0  0.00000000000E+00  0.00000000000E+00 -0.10114953425E+04  0.36348337977E+04  0.34912596450E+04 0.  0.
        5    1    3    3  502    0 -0.47052518919E+03  0.60596894094E+03 -0.21382249650E+04  0.22716998926E+04  0.46999998093E+01 0.  1.
       -5    1    3    3    0  502  0.47052518919E+03 -0.60596894094E+03  0.11267296225E+04  0.13631339051E+04  0.46999998093E+01 0. -1.
</event>
<event>
 5   0  0.4464951E-07  0.3440379E+04  0.7818609E-02  0.8128067E-01
       -1   -1    0    0    0  501  0.00000000000E+00  0.00000000000E+00  0.16982480605E+04  0.16982480605E+04  0.50400001928E-02 0. -1.
        1   -1    0    0  501    0  0.00000000000E+00  0.00000000000E+00 -0.17424139880E+04  0.17424139881E+04  0.50400001928E-02 0.  1.
    10030    2    1    2    0    0  0.00000000000E+00  0.00000000000E+00 -0.44165927585E+02  0.34406620485E+04  0.34403785697E+04 0.  0.
        3    1    3    3  502    0  0.14726347972E+04  0.15846218827E+03  0.85279632806E+03  0.17091006695E+04  0.10100000352E+00 0. -1.
       -3    1    3    3    0  502 -0.14726347972E+04 -0.15846218827E+03 -0.89696225565E+03  0.17315613790E+04  0.10100000352E+00 0.  1.
</event>
<event>
 5   0  0.4109937E-07  0.3370959E+04  0.7818609E-02  0.8145071E-01
       -1   -1    0    0    0  501  0.00000000000E+00  0.00000000000E+00  0.14064855932E+04  0.14064855932E+04  0.50400001928E-02 0.  1.
        1   -1    0    0  501    0  0.00000000000E+00  0.00000000000E+00 -0.20198153484E+04  0.20198153485E+04  0.50400001928E-02 0. -1.
    10030    2    1    2    0    0  0.00000000000E+00  0.00000000000E+00 -0.61332975523E+03  0.34263009417E+04  0.33709590259E+04 0.  0.
        5    1    3    3  502    0 -0.11241716756E+04  0.76330790054E+03 -0.13202414461E+04  0.18945871512E+04  0.46999998093E+01 0. -1.
       -5    1    3    3    0  502  0.11241716756E+04 -0.76330790054E+03  0.70691169090E+03  0.15317137905E+04  0.46999998093E+01 0.  1.
</event>
<event>
 5   0  0.1268230E-06  0.3167975E+04  0.7818609E-02  0.8197326E-01
       -2   -1    0    0    0  501  0.00000000000E+00  0.00000000000E+00  0.17015071359E+04  0.17015071359E+04  0.25500000920E-02 0.  1.
        2   -1    0    0  501    0  0.00000000000E+00  0.00000000000E+00 -0.14745850209E+04  0.14745850209E+04  0.25500000920E-02 0. -1.
    10030    2    1    2    0    0  0.00000000000E+00  0.00000000000E+00  0.22692211500E+03  0.31760921568E+04  0.31679753380E+04 0.  0.
        2    1    3    3  502    0 -0.53700637841E+03  0.13200922360E+04  0.80660614450E+03  0.16375691846E+04  0.25500000920E-02 0.  1.
       -2    1    3    3    0  502  0.53700637841E+03 -0.13200922360E+04 -0.57968402950E+03  0.15385229722E+04  0.25500000920E-02 0. -1.
</event>
<event>
 5   0  0.1256208E-06  0.3365265E+04  0.7818609E-02  0.8146484E-01
       -2   -1    0    0    0  501  0.00000000000E+00  0.00000000000E+00  0.14454560492E+04  0.14454560492E+04  0.25500000920E-02 0. -1.
        2   -1    0    0  501    0  0.00000000000E+00  0.00000000000E+00 -0.19587261281E+04  0.19587261281E+04  0.25500000920E-02 0.  1.
    10030    2    1    2    0    0  0.00000000000E+00  0.00000000000E+00 -0.51327007887E+03  0.34041821772E+04  0.33652652380E+04 0.  0.
        3    1    3    3  502    0 -0.16459459492E+04 -0.90536009538E+02  0.84785046165E+02  0.16506130228E+04  0.10100000352E+00 0.  1.
       -3    1    3    3    0  502  0.16459459492E+04  0.90536009538E+02 -0.59805512503E+03  0.17535691545E+04  0.10100000352E+00 0. -1.
</event>
<event>
 5   0  0.1256208E-06  0.3392180E+04  0.7818609E-02  0.8139828E-01
        2   -1    0    0  501    0  0.00000000000E+00  0.00000000000E+00  0.25645156842E+04  0.25645156842E+04  0.25500000920E-02 0. -1.
       -2   -1    0    0    0  501  0.00000000000E+00  0.00000000000E+00 -0.11217408149E+04  0.11217408149E+04  0.25500000920E-02 0.  1.
    10030    2    1    2    0    0  0.00000000000E+00  0.00000000000E+00  0.14427748694E+04  0.36862564991E+04  0.33921803686E+04 0.  0.
        3    1    3    3  502    0  0.27732653987E+03 -0.53556278937E+03  0.24440551332E+04  0.25173682717E+04  0.10100000352E+00 0. -1.
       -3    1    3    3    0  502 -0.27732653987E+03  0.53556278937E+03 -0.10012802639E+04  0.11688882274E+04  0.10100000352E+00 0.  1.
</event>
<event>
 5   0  0.4125758E-07  0.3051898E+04  0.7818609E-02  0.8229064E-01
       -1   -1    0    0    0  501  0.00000000000E+00  0.00000000000E+00  0.12578053967E+04  0.12578053967E+04  0.50400001928E-02 0. -1.
        1   -1    0    0  501    0  0.00000000000E+00  0.00000000000E+00 -0.18512567345E+04  0.18512567345E+04  0.50400001928E-02 0.  1.
    10030    2    1    2    0    0  0.00000000000E+00  0.00000000000E+00 -0.59345133783E+03  0.31090621312E+04  0.30518982364E+04 0.  0.
        2    1    3    3  502    0  0.86230504461E+03 -0.76686385022E+03  0.72040965532E+03  0.13603823824E+04  0.25500000920E-02 0. -1.
       -2    1    3    3    0  502 -0.86230504461E+03  0.76686385022E+03 -0.13138609932E+04  0.17486797489E+04  0.25500000920E-02 0.  1.
</event>
<event>
 5   0  0.1277635E-06  0.3367494E+04  0.7818609E-02  0.8145931E-01
        2   -1    0    0  501    0  0.00000000000E+00  0.00000000000E+00  0.29452722410E+04  0.29452722410E+04  0.25500000920E-02 0.  1.
       -2   -1    0    0    0  501  0.00000000000E+00  0.00000000000E+00 -0.96256114319E+03  0.96256114319E+03  0.25500000920E-02 0. -1.
    10030    2    1    2    0    0  0.00000000000E+00  0.00000000000E+00  0.19827110978E+04  0.39078333842E+04  0.33674943892E+04 0.  0.
        4    1    3    3  502    0 -0.59919102666E+03  0.90832130220E+03  0.24824079259E+04  0.27104295227E+04  0.12699999809E+01 0.  1.
       -4    1    3    3    0  502  0.59919102666E+03 -0.90832130220E+03 -0.49969682808E+03  0.11974038614E+04  0.12699999809E+01 0. -1.
</event>
<event>
 5   0  0.1256208E-06  0.3353154E+04  0.7818609E-02  0.8149500E-01
       -2   -1    0    0    0  501  0.00000000000E+00  0.00000000000E+00  0.14326224547E+04  0.14326224547E+04  0.25500000920E-02 0. -1.
        2   -1    0    0  501    0  0.00000000000E+00  0.00000000000E+00 -0.19620735728E+04  0.19620735728E+04  0.25500000920E-02 0.  1.
    10030    2    1    2    0    0  0.00000000000E+00  0.00000000000E+00 -0.52945111812E+03  0.33946960275E+04  0.33531541320E+04 0.  0.
        3    1    3    3  502    0  0.87851814262E+03  0.13746653606E+04  0.12660127720E+03  0.16363150290E+04  0.10100000352E+00 0. -1.
       -3    1    3    3    0  502 -0.87851814262E+03 -0.13746653606E+04 -0.65605239532E+03  0.17583809986E+04  0.10100000352E+00 0.  1.
</event>
<event>
 5   0  0.1256208E-06  0.3396477E+04  0.7818609E-02  0.8138771E-01
       -2   -1    0    0    0  501  0.00000000000E+00  0.00000000000E+00  0.11716295601E+04  0.11716295601E+04  0.25500000920E-02 0. -1.
        2   -1    0    0  501    0  0.00000000000E+00  0.00000000000E+00 -0.24615414706E+04  0.24615414706E+04  0.25500000920E-02 0.  1.
    10030    2    1    2    0    0  0.00000000000E+00  0.00000000000E+00 -0.12899119106E+04  0.36331710307E+04  0.33964774401E+04 0.  0.
        3    1    3    3  502    0  0.15713742030E+04 -0.48661980638E+03 -0.10962565563E+04  0.19768141464E+04  0.10100000352E+00 0.  1.
       -3    1    3    3    0  502 -0.15713742030E+04  0.48661980638E+03 -0.19365535428E+03  0.16563568843E+04  0.10100000352E+00 0. -1.
</event>
<event>
 5   0  0.1256208E-06  0.3478143E+04  0.7818609E-02  0.8118989E-01
       -2   -1    0    0    0  501  0.00000000000E+00  0.00000000000E+00  0.13941506642E+04  0.13941506642E+04  0.25500000920E-02 0. -1.
        2   -1    0    0  501    0  0.00000000000E+00  0.00000000000E+00 -0.21693272080E+04  0.21693272080E+04  0.25500000920E-02 0.  1.
    10030    2    1    2    0    0  0.00000000000E+00  0.00000000000E+00 -0.77517654382E+03  0.35634778722E+04  0.34781425893E+04 0.  0.
        3    1    3    3  502    0  0.13715732382E+04  0.58432361932E+03  0.52976900056E+03  0.15821828099E+04  0.10100000352E+00 0. -1.
       -3    1    3    3    0  502 -0.13715732382E+04 -0.58432361932E+03 -0.13049455444E+04  0.19812950623E+04  0.10100000352E+00 0.  1.
</event>
<event>
 5   0  0.1269497E-06  0.3443321E+04  0.7818609E-02  0.8127355E-01
       -2   -1    0    0    0  501  0.00000000000E+00  0.00000000000E+00  0.10138378259E+04  0.10138378259E+04  0.25500000920E-02 0.  1.
        2   -1    0    0  501    0  0.00000000000E+00  0.00000000000E+00 -0.29236576623E+04  0.29236576623E+04  0.25500000920E-02 0. -1.
    10030    2    1    2    0    0  0.00000000000E+00  0.00000000000E+00 -0.19098198364E+04  0.39374954882E+04  0.34433209133E+04 0.  0.
        5    1    3    3  502    0  0.24073321485E+03  0.73065810846E+03  0.80635806557E+03  0.11144725982E+04  0.46999998093E+01 0.  1.
       -5    1    3    3    0  502 -0.24073321485E+03 -0.73065810846E+03 -0.27161779020E+04  0.28230228900E+04  0.46999998093E+01 0. -1.
</event>
<event>
 5   0  0.4464951E-07  0.3384723E+04  0.7818609E-02  0.8141666E-01
        1   -1    0    0  501    0  0.00000000000E+00  0.00000000000E+00  0.92092525519E+03  0.92092525520E+03  0.50400001928E-02 0.  1.
       -1   -1    0    0    0  501  0.00000000000E+00  0.00000000000E+00 -0.31100113935E+04  0.31100113935E+04  0.50400001928E-02 0. -1.
    10030    2    1    2    0    0  0.00000000000E+00  0.00000000000E+00 -0.21890861383E+04  0.40309366487E+04  0.33847233483E+04 0.  0.
        3    1    3    3  502    0  0.13663215683E+04  0.92794725221E+03 -0.15340029166E+04  0.22541263694E+04  0.10100000352E+00 0. -1.
       -3    1    3    3    0  502 -0.13663215683E+04 -0.92794725221E+03 -0.65508322167E+03  0.17768102793E+04  0.10100000352E+00 0.  1.
</event>
<event>
 5   0  0.4125758E-07  0.3397593E+04  0.7818609E-02  0.8138497E-01
       -1   -1    0    0    0  501  0.00000000000E+00  0.00000000000E+00  0.14683807296E+04  0.14683807296E+04  0.50400001928E-02 0.  1.
        1   -1    0    0  501    0  0.00000000000E+00  0.00000000000E+00 -0.19653684856E+04  0.19653684856E+04  0.50400001928E-02 0. -1.
    10030    2    1    2    0    0  0.00000000000E+00  0.00000000000E+00 -0.49698775599E+03  0.34337492152E+04  0.33975928013E+04 0.  0.
        2    1    3    3  502    0  0.11216364709E+04  0.25472680341E+03  0.10149923005E+04  0.15340024404E+04  0.25500000920E-02 0.  1.
       -2    1    3    3    0  502 -0.11216364709E+04 -0.25472680341E+03 -0.15119800565E+04  0.18997467748E+04  0.25500000920E-02 0. -1.
</event>
<event>
 5   0  0.4289684E-07  0.3404237E+04  0.7818609E-02  0.8136867E-01
        1   -1    0    0  501    0  0.00000000000E+00  0.00000000000E+00  0.10643507543E+04  0.10643507543E+04  0.50400001928E-02 0.  1.
       -1   -1    0    0    0  501  0.00000000000E+00  0.00000000000E+00 -0.27220426276E+04  0.27220426276E+04  0.50400001928E-02 0. -1.
    10030    2    1    2    0    0  0.00000000000E+00  0.00000000000E+00 -0.16576918733E+04  0.37863933820E+04  0.34042374324E+04 0.  0.
        4    1    3    3  502    0 -0.33423632797E+03 -0.24719837928E+03 -0.26647085327E+04  0.26969416268E+04  0.12699999809E+01 0. -1.
       -4    1    3    3    0  502  0.33423632797E+03  0.24719837928E+03  0.10070166594E+04  0.10894517551E+04  0.12699999809E+01 0.  1.
</event>
<event>
 5   0  0.1256208E-06  0.3363534E+04  0.7818609E-02  0.8146915E-01
        2   -1    0    0  501    0  0.00000000000E+00  0.00000000000E+00  0.16176790977E+04  0.16176790977E+04  0.25500000920E-02 0. -1.
       -2   -1    0    0    0  501  0.00000000000E+00  0.00000000000E+00 -0.17483943877E+04  0.17483943877E+04  0.25500000920E-02 0.  1.
    10030    2    1    2    0    0  0.00000000000E+00  0.00000000000E+00 -0.13071529007E+03  0.33660734854E+04  0.33635344835E+04 0.  0.
        3    1    3    3  502    0  0.47981152766E+03  0.14672150500E+04 -0.73324582977E+03  0.17089729554E+04  0.10100000352E+00 0.  1.
       -3    1    3    3    0  502 -0.47981152766E+03 -0.14672150500E+04  0.60253053970E+03  0.16571005300E+04  0.10100000352E+00 0. -1.
</event>
<event>
 5   0  0.1256208E-06  0.3386844E+04  0.7818609E-02  0.8141143E-01
        2   -1    0    0  501    0  0.00000000000E+00  0.00000000000E+00  0.26098756493E+04  0.26098756493E+04  0.25500000920E-02 0.  1.
       -2   -1    0    0    0  501  0.00000000000E+00  0.00000000000E+00 -0.10987797394E+04  0.10987797394E+04  0.25500000920E-02 0. -1.
    10030    2    1    2    0    0  0.00000000000E+00  0.00000000000E+00  0.15110959098E+04  0.37086553887E+04  0.33868442455E+04 0.  0.
        3    1    3    3  502    0  0.14354672135E+04 -0.25377607161E+03 -0.18814542564E+03  0.14698187395E+04  0.10100000352E+00 0. -1.
       -3    1    3    3    0  502 -0.14354672135E+04  0.25377607161E+03  0.16992413355E+04  0.22388366492E+04  0.10100000352E+00 0.  1.
</event>
<event>
 5   0  0.1300176E-06  0.3400838E+04  0.7818609E-02  0.8137701E-01
       -2   -1    0    0    0  501  0.00000000000E+00  0.00000000000E+00  0.20058417057E+04  0.20058417057E+04  0.25500000920E-02 0. -1.
        2   -1    0    0  501    0  0.00000000000E+00  0.00000000000E+00 -0.14415015728E+04  0.14415015728E+04  0.25500000920E-02 0.  1.
    10030    2    1    2    0    0  0.00000000000E+00  0.00000000000E+00  0.56434013294E+03  0.34473432785E+04  0.34008375284E+04 0.  0.
        1    1    3    3  502    0 -0.99592854473E+03 -0.45836453048E+03 -0.10353935992E+04  0.15079826306E+04  0.50400001928E-02 0.  1.
       -1    1    3    3    0  502  0.99592854473E+03  0.45836453048E+03  0.15997337321E+04  0.19393606479E+04  0.50400001928E-02 0. -1.
</event>
<event>
 5   0  0.4272633E-07  0.3410998E+04  0.7818609E-02  0.8135212E-01
       -1   -1    0    0    0  501  0.00000000000E+00  0.00000000000E+00  0.22527065897E+04  0.22527065897E+04  0.50400001928E-02 0.  1.
        1   -1    0    0  501    0  0.00000000000E+00  0.00000000000E+00 -0.12912138864E+04  0.12912138864E+04  0.50400001928E-02 0. -1.
    10030    2    1    2    0    0  0.00000000000E+00  0.00000000000E+00  0.96149270338E+03  0.35439204761E+04  0.34109975260E+04 0.  0.
        1    1    3    3  502    0 -0.12102621131E+04 -0.57834623764E+03 -0.61363237209E+03  0.14750469284E+04  0.50400001928E-02 0. -1.
       -1    1    3    3    0  502  0.12102621131E+04  0.57834623764E+03  0.15751250755E+04  0.20688735477E+04  0.50400001928E-02 0.  1.
</event>
<event>
 5   0  0.1268230E-06  0.3331603E+04  0.7818609E-02  0.8154900E-01
        2   -1    0    0  501    0  0.00000000000E+00  0.00000000000E+00  0.23188638756E+04  0.23188638756E+04  0.25500000920E-02 0.  1.
       -2   -1    0    0    0  501  0.00000000000E+00  0.00000000000E+00 -0.11966612332E+04  0.11966612332E+04  0.25500000920E-02 0. -1.
    10030    2    1    2    0    0  0.00000000000E+00  0.00000000000E+00  0.11222026424E+04  0.35155251088E+04  0.33316029205E+04 0.  0.
        2    1    3    3  502    0  0.10250712343E+04  0.12400865161E+04  0.10563761747E+03  0.16123724474E+04  0.25500000920E-02 0. -1.
       -2    1    3    3    0  502 -0.10250712343E+04 -0.12400865161E+04  0.10165650249E+04  0.19031526614E+04  0.25500000920E-02 0.  1.
</event>
<event>
 5   0  0.1256208E-06  0.3412877E+04  0.7818609E-02  0.8134753E-01
       -2   -1    0    0    0  501  0.00000000000E+00  0.00000000000E+00  0.17488178156E+04  0.17488178156E+04  0.25500000920E-02 0.  1.
        2   -1    0    0  501    0  0.00000000000E+00  0.00000000000E+00 -0.16650862519E+04  0.16650862519E+04  0.25500000920E-02 0. -1.
    10030    2    1    2    0    0  0.00000000000E+00  0.00000000000E+00  0.83731563654E+02  0.34139040675E+04  0.34128770864E+04 0.  0.
        3    1    3    3  502    0 -0.71672126983E+03 -0.10840295529E+03 -0.15034265478E+04  0.16690512197E+04  0.10100000352E+00 0. -1.
       -3    1    3    3    0  502  0.71672126983E+03  0.10840295529E+03  0.15871581114E+04  0.17448528477E+04  0.10100000352E+00 0.  1.
</event>
<event>
 5   0  0.4272633E-07  0.3404267E+04  0.7818609E-02  0.8136860E-01
       -1   -1    0    0    0  501  0.00000000000E+00  0.00000000000E+00  0.16166452554E+04  0.16166452554E+04  0.50400001928E-02 0.  1.
        1   -1    0    0  501    0  0.00000000000E+00  0.00000000000E+00 -0.17921426137E+04  0.17921426137E+04  0.50400001928E-02 0. -1.
    10030    2    1    2    0    0  0.00000000000E+00  0.00000000000E+00 -0.17549735829E+03  0.34087878691E+04  0.34042672359E+04 0.  0.
        1    1    3    3  502    0 -0.13953680435E+04 -0.82070419330E+03  0.43892649570E+03  0.16772786943E+04  0.50400001928E-02 0.  1.
       -1    1    3    3    0  502  0.13953680435E+04  0.82070419330E+03 -0.61442385399E+03  0.17315091747E+04  0.50400001928E-02 0. -1.
</event>
<event>
 5   0  0.1277635E-06  0.2913859E+04  0.7818609E-02  0.8268766E-01
       -2   -1    0    0    0  501  0.00000000000E+00  0.00000000000E+00  0.98652976932E+03  0.98652976933E+03  0.25500000920E-02 0. -1.
        2   -1    0    0  501    0  0.00000000000E+00  0.00000000000E+00 -0.21516262988E+04  0.21516262988E+04  0.25500000920E-02 0.  1.
    10030    2    1    2    0    0  0.00000000000E+00  0.00000000000E+00 -0.11650965295E+04  0.31381560681E+04  0.29138588821E+04 0.  0.
        4    1    3    3  502    0  0.10531112706E+04 -0.80582711928E+03  0.67432479793E+02  0.13277610654E+04  0.12699999809E+01 0. -1.
       -4    1    3    3    0  502 -0.10531112706E+04  0.80582711928E+03 -0.12325290093E+04  0.18103950028E+04  0.12699999809E+01 0.  1.
</event>
<event>
 5   0  0.4060750E-07  0.3407639E+04  0.7818609E-02  0.8136034E-01
       -3   -1    0    0    0  501  0.00000000000E+00  0.00000000000E+00  0.31121944141E+04  0.31121944157E+04  0.10100000352E+00 0.  1.
        3   -1    0    0  501    0  0.00000000000E+00  0.00000000000E+00 -0.93278274548E+03  0.93278275095E+03  0.10100000352E+00 0. -1.
    10030    2    1    2    0    0  0.00000000000E+00  0.00000000000E+00  0.21794116686E+04  0.40449771666E+04  0.34076392206E+04 0.  0.
        3    1    3    3  502    0 -0.35216738550E+03  0.13216705029E+03  0.30622915108E+04  0.30853070032E+04  0.10100000352E+00 0.  1.
       -3    1    3    3    0  502  0.35216738550E+03 -0.13216705029E+03 -0.88287984223E+03  0.95967016345E+03  0.10100000352E+00 0. -1.
</event>
<event>
 5   0  0.1269497E-06  0.3423130E+04  0.7818609E-02  0.8132253E-01
        2   -1    0    0  501    0  0.00000000000E+00  0.00000000000E+00  0.16599068909E+04  0.16599068909E+04  0.25500000920E-02 0.  1.
       -2   -1    0    0    0  501  0.00000000000E+00  0.00000000000E+00 -0.17648304464E+04  0.17648304464E+04  0.25500000920E-02 0. -1.
    10030    2    1    2    0    0  0.00000000000E+00  0.00000000000E+00 -0.10492355557E+03  0.34247373373E+04  0.34231296904E+04 0.  0.
        5    1    3    3  502    0 -0.11266189133E+04  0.47344820409E+03 -0.12513603930E+04  0.17490992827E+04  0.46999998093E+01 0. -1.
       -5    1    3    3    0  502  0.11266189133E+04 -0.47344820409E+03  0.11464368374E+04  0.16756380546E+04  0.46999998093E+01 0.  1.
</event>
<event>
 5   0  0.1277635E-06  0.3398285E+04  0.7818609E-02  0.8138327E-01
        2   -1    0    0  501    0  0.00000000000E+00  0.00000000000E+00  0.22036233497E+04  0.22036233497E+04  0.25500000920E-02 0.  1.
       -2   -1    0    0    0  501  0.00000000000E+00  0.00000000000E+00 -0.13101536783E+04  0.13101536783E+04  0.25500000920E-02 0. -1.
    10030    2    1    2    0    0  0.00000000000E+00  0.00000000000E+00  0.89346967135E+03  0.35137770280E+04  0.33982850011E+04 0.  0.
        4    1    3    3  502    0  0.61677826129E+03  0.14216324914E+04 -0.27381964563E+03  0.15736686994E+04  0.12699999809E+01 0.  1.
       -4    1    3    3    0  502 -0.61677826129E+03 -0.14216324914E+04  0.11672893170E+04  0.19401083286E+04  0.12699999809E+01 0. -1.
</event>
<event>
 5   0  0.1256208E-06  0.3392937E+04  0.7818609E-02  0.8139642E-01
        2   -1    0    0  501    0  0.00000000000E+00  0.00000000000E+00  0.13731609455E+04  0.13731609455E+04  0.25500000920E-02 0.  1.
       -2   -1    0    0    0  501  0.00000000000E+00  0.00000000000E+00 -0.20958980131E+04  0.20958980131E+04  0.25500000920E-02 0. -1.
    10030    2    1    2    0    0  0.00000000000E+00  0.00000000000E+00 -0.72273706761E+03  0.34690589587E+04  0.33929369564E+04 0.  0.
        3    1    3    3  502    0 -0.10624126108E+04 -0.66373412522E+03  0.80830016527E+03  0.14908429535E+04  0.10100000352E+00 0.  1.
       -3    1    3    3    0  502  0.10624126108E+04  0.66373412522E+03 -0.15310372329E+04  0.19782160052E+04  0.10100000352E+00 0. -1.
</event>
<event>
 5   0  0.1256208E-06  0.3381798E+04  0.7818609E-02  0.8142388E-01
       -2   -1    0    0    0  501  0.00000000000E+00  0.00000000000E+00  0.12037358773E+04  0.12037358773E+04  0.25500000920E-02 0. -1.
        2   -1    0    0  501    0  0.00000000000E+00  0.00000000000E+00 -0.23752221258E+04  0.23752221258E+04  0.25500000920E-02 0.  1.
    10030    2    1    2    0    0  0.00000000000E+00  0.00000000000E+00 -0.11714862484E+04  0.35789580031E+04  0.33817983910E+04 0.  0.
        3    1    3    3  502    0 -0.67763631311E+03 -0.21996410550E+03  0.10371404833E+04  0.12582668925E+04  0.10100000352E+00 0. -1.
       -3    1    3    3    0  502  0.67763631311E+03  0.21996410550E+03 -0.22086267317E+04  0.23206911106E+04  0.10100000352E+00 0.  1.
</event>
<event>
 5   0  0.1277635E-06  0.3444303E+04  0.7818609E-02  0.8127118E-01
       -2   -1    0    0    0  501  0.00000000000E+00  0.00000000000E+00  0.14866602482E+04  0.14866602482E+04  0.25500000920E-02 0. -1.
        2   -1    0    0  501    0  0.00000000000E+00  0.00000000000E+00 -0.19949453403E+04  0.19949453403E+04  0.25500000920E-02 0.  1.
    10030    2    1    2    0    0  0.00000000000E+00  0.00000000000E+00 -0.50828509208E+03  0.34816055885E+04  0.34443030846E+04 0.  0.
        4    1    3    3  502    0  0.15571471252E+04  0.72936698578E+03 -0.15760454489E+03  0.17267090592E+04  0.12699999809E+01 0.  1.
       -4    1    3    3    0  502 -0.15571471252E+04 -0.72936698578E+03 -0.35068054719E+03  0.17548965293E+04  0.12699999809E+01 0. -1.
</event>
<event>
 5   0  0.1256208E-06  0.3423372E+04  0.7818609E-02  0.8132194E-01
       -2   -1    0    0    0  501  0.00000000000E+00  0.00000000000E+00  0.11442294284E+04  0.11442294284E+04  0.25500000920E-02 0. -1.
        2   -1    0    0  501    0  0.00000000000E+00  0.00000000000E+00 -0.25605612201E+04  0.25605612201E+04  0.25500000920E-02 0.  1.
    10030    2    1    2    0    0  0.00000000000E+00  0.00000000000E+00 -0.14163317917E+04  0.37047906485E+04  0.34233723147E+04 0.  0.
        3    1    3    3  502    0 -0.12381360117E+04  0.47256731401E+03 -0.18805335368E+04  0.23005884123E+04  0.10100000352E+00 0.  1.
       -3    1    3    3    0  502  0.12381360117E+04 -0.47256731401E+03  0.46420174511E+03  0.14042022362E+04  0.10100000352E+00 0. -1.
</event>
<event>
 5   0  0.4109937E-07  0.3131377E+04  0.7818609E-02  0.8207179E-01
       -1   -1    0    0    0  501  0.00000000000E+00  0.00000000000E+00  0.87170961912E+03  0.87170961914E+03  0.50400001928E-02 0. -1.
        1   -1    0    0  501    0  0.00000000000E+00  0.00000000000E+00 -0.28121532818E+04  0.28121532818E+04  0.50400001928E-02 0.  1.
    10030    2    1    2    0    0  0.00000000000E+00  0.00000000000E+00 -0.19404436627E+04  0.36838629010E+04  0.31313773750E+04 0.  0.
        5    1    3    3  502    0  0.13002262864E+04 -0.80126586284E+03 -0.56483171992E+03  0.16283956339E+04  0.46999998093E+01 0. -1.
       -5    1    3    3    0  502 -0.13002262864E+04  0.80126586284E+03 -0.13756119428E+04  0.20554672670E+04  0.46999998093E+01 0.  1.
</event>
<event>
 5   0  0.1300176E-06  0.3036919E+04  0.7818609E-02  0.8233266E-01
        2   -1    0    0  501    0  0.00000000000E+00  0.00000000000E+00  0.69177033057E+03  0.69177033058E+03  0.25500000920E-02 0. -1.
       -2   -1    0    0    0  501  0.00000000000E+00  0.00000000000E+00 -0.33330698866E+04  0.33330698866E+04  0.25500000920E-02 0.  1.
    10030    2    1    2    0    0  0.00000000000E+00  0.00000000000E+00 -0.26412995560E+04  0.40248402171E+04  0.30369187393E+04 0.  0.
        1    1    3    3  502    0  0.80956859254E+03  0.12198375124E+04 -0.78670855073E+03  0.16620214218E+04  0.50400001928E-02 0. -1.
       -1    1    3    3    0  502 -0.80956859254E+03 -0.12198375124E+04 -0.18545910053E+04  0.23628187953E+04  0.50400001928E-02 0.  1.
</event>
<event>
 5   0  0.4464951E-07  0.3321571E+04  0.7818609E-02  0.8157428E-01
       -1   -1    0    0    0  501  0.00000000000E+00  0.00000000000E+00  0.12205603965E+04  0.12205603965E+04  0.50400001928E-02 0. -1.
        1   -1    0    0  501    0  0.00000000000E+00  0.00000000000E+00 -0.22597887863E+04  0.22597887863E+04  0.50400001928E-02 0.  1.
    10030    2    1    2    0    0  0.00000000000E+00  0.00000000000E+00 -0.10392283898E+04  0.34803491828E+04  0.33215711325E+04 0.  0.
        3    1    3    3  502    0 -0.12355394687E+04 -0.54078200699E+03 -0.15350667295E+04  0.20433875873E+04  0.10100000352E+00 0.  1.
       -3    1    3    3    0  502  0.12355394687E+04  0.54078200699E+03  0.49583833965E+03  0.14369615955E+04  0.10100000352E+00 0. -1.
</event>
<event>
 5   0  0.1277635E-06  0.3434767E+04  0.7818609E-02  0.8129426E-01
        2   -1    0    0  501    0  0.00000000000E+00  0.00000000000E+00  0.13801792957E+04  0.13801792957E+04  0.25500000920E-02 0.  1.
       -2   -1    0    0    0  501  0.00000000000E+00  0.00000000000E+00 -0.21369731432E+04  0.21369731432E+04  0.25500000920E-02 0. -1.
    10030    2    1    2    0    0  0.00000000000E+00  0.00000000000E+00 -0.75679384750E+03  0.35171524389E+04  0.34347670010E+04 0.  0.
        4    1    3    3  502    0 -0.29608850852E+03 -0.28766578413E+03 -0.20854104779E+04  0.21258782849E+04  0.12699999809E+01 0. -1.
       -4    1    3    3    0  502  0.29608850852E+03  0.28766578413E+03  0.13286166304E+04  0.13912741540E+04  0.12699999809E+01 0.  1.
</event>
<event>
 5   0  0.1277635E-06  0.3377516E+04  0.7818609E-02  0.8143447E-01
        2   -1    0    0  501    0  0.00000000000E+00  0.00000000000E+00  0.17051852075E+04  0.17051852075E+04  0.25500000920E-02 0.  1.
       -2   -1    0    0    0  501  0.00000000000E+00  0.00000000000E+00 -0.16724894896E+04  0.16724894896E+04  0.25500000920E-02 0. -1.
    10030    2    1    2    0    0  0.00000000000E+00  0.00000000000E+00  0.32695717942E+02  0.33776746971E+04  0.33775164469E+04 0.  0.
        4    1    3    3  502    0 -0.14604422076E+04  0.25198484599E+03 -0.79332883479E+03  0.16809997196E+04  0.12699999809E+01 0. -1.
       -4    1    3    3    0  502  0.14604422076E+04 -0.25198484599E+03  0.82602455273E+03  0.16966749774E+04  0.12699999809E+01 0.  1.
</event>
<event>
 5   0  0.1277635E-06  0.3369664E+04  0.7818609E-02  0.8145392E-01
       -2   -1    0    0    0  501  0.00000000000E+00  0.00000000000E+00  0.19787158530E+04  0.19787158530E+04  0.25500000920E-02 0. -1.
        2   -1    0    0  501    0  0.00000000000E+00  0.00000000000E+00 -0.14345966066E+04  0.14345966066E+04  0.25500000920E-02 0.  1.
    10030    2    1    2    0    0  0.00000000000E+00  0.00000000000E+00  0.54411924640E+03  0.34133124597E+04  0.33696641069E+04 0.  0.
        4    1    3    3  502    0  0.88794217956E+03  0.86224544320E+03 -0.88587891579E+03  0.15220681932E+04  0.12699999809E+01 0.  1.
       -4    1    3    3    0  502 -0.88794217956E+03 -0.86224544320E+03  0.14299981622E+04  0.18912442664E+04  0.12699999809E+01 0. -1.
</event>
<event>
 5   0  0.1300176E-06  0.3345231E+04  0.7818609E-02  0.8151481E-01
        2   -1    0    0  501    0  0.00000000000E+00  0.00000000000E+00  0.20271765783E+04  0.20271765783E+04  0.25500000920E-02 0. -1.
       -2   -1    0    0    0  501  0.00000000000E+00  0.00000000000E+00 -0.13800685464E+04  0.13800685464E+04  0.25500000920E-02 0.  1.
    10030    2    1    2    0    0  0.00000000000E+00  0.00000000000E+00  0.64710803190E+03  0.34072451247E+04  0.33452310137E+04 0.  0.
        1    1    3    3  502    0 -0.43464062331E+03  0.12677814336E+04 -0.69572751392E+03  0.15100394063E+04  0.50400001928E-02 0.  1.
       -1    1    3    3    0  502  0.43464062331E+03 -0.12677814336E+04  0.13428355458E+04  0.18972057184E+04  0.50400001928E-02 0. -1.
</event>
<event>
 5   0  0.4289684E-07  0.3436544E+04  0.7818609E-02  0.8128995E-01
        1   -1    0    0  501    0  0.00000000000E+00  0.00000000000E+00  0.29115133854E+04  0.29115133854E+04  0.50400001928E-02 0.  1.
       -1   -1    0    0    0  501  0.00000000000E+00  0.00000000000E+00 -0.10140630722E+04  0.10140630722E+04  0.50400001928E-02 0. -1.
    10030    2    1    2    0    0  0.00000000000E+00  0.00000000000E+00  0.18974503132E+04  0.39255764576E+04  0.34365437337E+04 0.  0.
        4    1    3    3  502    0  0.35058306889E+03 -0.71366635524E+03 -0.79126558834E+03  0.11217535375E+04  0.12699999809E+01 0. -1.
       -4    1    3    3    0  502 -0.35058306889E+03  0.71366635524E+03  0.26887159016E+04  0.28038229201E+04  0.12699999809E+01 0.  1.
</event>
<event>
 5   0  0.4109937E-07  0.3396062E+04  0.7818609E-02  0.8138873E-01
       -1   -1    0    0    0  501  0.00000000000E+00  0.00000000000E+00  0.25469045038E+04  0.25469045038E+04  0.50400001928E-02 0. -1.
        1   -1    0    0  501    0  0.00000000000E+00  0.00000000000E+00 -0.11320838745E+04  0.11320838745E+04  0.50400001928E-02 0.  1.
    10030    2    1    2    0    0  0.00000000000E+00  0.00000000000E+00  0.14148206293E+04  0.36789883784E+04  0.33960621424E+04 0.  0.
        5    1    3    3  502    0  0.11452313592E+04  0.11792365676E+04  0.11684649503E+04  0.20168009764E+04  0.46999998093E+01 0. -1.
       -5    1    3    3    0  502 -0.11452313592E+04 -0.11792365676E+04  0.24635567903E+03  0.16621874019E+04  0.46999998093E+01 0.  1.
</event>
<event>
 5   0  0.1277635E-06  0.3414876E+04  0.7818609E-02  0.8134265E-01
        2   -1    0    0  501    0  0.00000000000E+00  0.00000000000E+00  0.22757777751E+04  0.22757777751E+04  0.25500000920E-02 0. -1.
       -2   -1    0    0    0  501  0.00000000000E+00  0.00000000000E+00 -0.12810318665E+04  0.12810318665E+04  0.25500000920E-02 0.  1.
    10030    2    1    2    0    0  0.00000000000E+00  0.00000000000E+00  0.99474590864E+03  0.35568096417E+04  0.34148756060E+04 0.  0.
        4    1    3    3  502    0 -0.22147653641E+03 -0.31908243157E+03  0.22291509135E+04  0.22627374709E+04  0.12699999809E+01 0. -1.
       -4    1    3    3    0  502  0.22147653641E+03  0.31908243157E+03 -0.12344050048E+04  0.12940721708E+04  0.12699999809E+01 0.  1.
</event>
<event>
 5   0  0.1300176E-06  0.3397391E+04  0.7818609E-02  0.8138547E-01
        2   -1    0    0  501    0  0.00000000000E+00  0.00000000000E+00  0.24771223087E+04  0.24771223087E+04  0.25500000920E-02 0. -1.
       -2   -1    0    0    0  501  0.00000000000E+00  0.00000000000E+00 -0.11648866594E+04  0.11648866594E+04  0.25500000920E-02 0.  1.
    10030    2    1    2    0    0  0.00000000000E+00  0.00000000000E+00  0.13122356493E+04  0.36420089681E+04  0.33973911939E+04 0.  0.
        1    1    3    3  502    0 -0.60495145342E+03  0.10706670887E+04 -0.60012562049E+03  0.13683731349E+04  0.50400001928E-02 0.  1.
       -1    1    3    3    0  502  0.60495145342E+03 -0.10706670887E+04  0.19123612698E+04  0.22736358333E+04  0.50400001928E-02 0. -1.
</event>
<event>
 5   0  0.1268230E-06  0.3361781E+04  0.7818609E-02  0.8147351E-01
       -2   -1    0    0    0  501  0.00000000000E+00  0.00000000000E+00  0.15539995727E+04  0.15539995727E+04  0.25500000920E-02 0.  1.
        2   -1    0    0  501    0  0.00000000000E+00  0.00000000000E+00 -0.18181427483E+04  0.18181427483E+04  0.25500000920E-02 0. -1.
    10030    2    1    2    0    0  0.00000000000E+00  0.00000000000E+00 -0.26414317559E+03  0.33721423211E+04  0.33617811077E+04 0.  0.
        2    1    3    3  502    0 -0.49714561684E+02  0.87453415993E+03  0.13069619486E+04  0.15733502692E+04  0.25500000920E-02 0.  1.
       -2    1    3    3    0  502  0.49714561684E+02 -0.87453415993E+03 -0.15711051242E+04  0.17987920519E+04  0.25500000920E-02 0. -1.
</event>
<event>
 5   0  0.1269497E-06  0.3448356E+04  0.7818609E-02  0.8126139E-01
        2   -1    0    0  501    0  0.00000000000E+00  0.00000000000E+00  0.22723919210E+04  0.22723919210E+04  0.25500000920E-02 0. -1.
       -2   -1    0    0    0  501  0.00000000000E+00  0.00000000000E+00 -0.13082202174E+04  0.13082202174E+04  0.25500000920E-02 0.  1.
    10030    2    1    2    0    0  0.00000000000E+00  0.00000000000E+00  0.96417170364E+03  0.35806121384E+04  0.34483555808E+04 0.  0.
        5    1    3    3  502    0 -0.58126335545E+03 -0.47497124358E+03  0.20938106027E+04  0.22243043183E+04  0.46999998093E+01 0. -1.
       -5    1    3    3    0  502  0.58126335545E+03  0.47497124358E+03 -0.11296388990E+04  0.13563078201E+04  0.46999998093E+01 0.  1.
</event>
<event>
 5   0  0.1268230E-06  0.3402639E+04  0.7818609E-02  0.8137259E-01
       -2   -1    0    0    0  501  0.00000000000E+00  0.00000000000E+00  0.13642984746E+04  0.13642984746E+04  0.25500000920E-02 0.  1.
        2   -1    0    0  501    0  0.00000000000E+00  0.00000000000E+00 -0.21215939481E+04  0.21215939481E+04  0.25500000920E-02 0. -1.
    10030    2    1    2    0    0  0.00000000000E+00  0.00000000000E+00 -0.75729547351E+03  0.34858924226E+04  0.34026386155E+04 0.  0.
        2    1    3    3  502    0 -0.40112784067E+03  0.51722650310E+03 -0.19874402075E+04  0.20924496119E+04  0.25500000920E-02 0. -1.
       -2    1    3    3    0  502  0.40112784067E+03 -0.51722650310E+03  0.12301447340E+04  0.13934428107E+04  0.25500000920E-02 0.  1.
</event>
<event>
 5   0  0.4464951E-07  0.3411545E+04  0.7818609E-02  0.8135079E-01
       -1   -1    0    0    0  501  0.00000000000E+00  0.00000000000E+00  0.12479137833E+04  0.12479137833E+04  0.50400001928E-02 0.  1.
        1   -1    0    0  501    0  0.00000000000E+00  0.00000000000E+00 -0.23316198046E+04  0.23316198046E+04  0.50400001928E-02 0. -1.
    10030    2    1    2    0    0  0.00000000000E+00  0.00000000000E+00 -0.10837060213E+04  0.35795335879E+04  0.34115453927E+04 0.  0.
        3    1    3    3  502    0  0.11564144652E+04  0.90895131242E+03 -0.14482015118E+04  0.20641643667E+04  0.10100000352E+00 0. -1.
       -3    1    3    3    0  502 -0.11564144652E+04 -0.90895131242E+03  0.36449549058E+03  0.15153692212E+04  0.10100000352E+00 0.  1.
</event>
<event>
 5   0  0.1300176E-06  0.3409901E+04  0.7818609E-02  0.8135481E-01
        2   -1    0    0  501    0  0.00000000000E+00  0.00000000000E+00  0.10564830168E+04  0.10564830168E+04  0.25500000920E-02 0. -1.
       -2   -1    0    0    0  501  0.00000000000E+00  0.00000000000E+00 -0.27514454562E+04  0.27514454562E+04  0.25500000920E-02 0.  1.
    10030    2    1    2    0    0  0.00000000000E+00  0.00000000000E+00 -0.16949624393E+04  0.38079284730E+04  0.34099005241E+04 0.  0.
        1    1    3    3  502    0 -0.14367536476E+04 -0.72901305280E+03 -0.14703850948E+04  0.21812274990E+04  0.50400001928E-02 0.  1.
       -1    1    3    3    0  502  0.14367536476E+04  0.72901305280E+03 -0.22457734451E+03  0.16267009740E+04  0.50400001928E-02 0. -1.
</event>
<event>
 5   0  0.4289684E-07  0.3356859E+04  0.7818609E-02  0.8148576E-01
       -1   -1    0    0    0  501  0.00000000000E+00  0.00000000000E+00  0.10788866199E+04  0.10788866199E+04  0.50400001928E-02 0. -1.
        1   -1    0    0  501    0  0.00000000000E+00  0.00000000000E+00 -0.26111415980E+04  0.26111415980E+04  0.50400001928E-02 0.  1.
    10030    2    1    2    0    0  0.00000000000E+00  0.00000000000E+00 -0.15322549782E+04  0.36900282179E+04  0.33568590872E+04 0.  0.
        4    1    3    3  502    0  0.54081413263E+03  0.12684269560E+04  0.28579082625E+03  0.14082133638E+04  0.12699999809E+01 0. -1.
       -4    1    3    3    0  502 -0.54081413263E+03 -0.12684269560E+04 -0.18180458044E+04  0.22818148541E+04  0.12699999809E+01 0.  1.
</event>
<event>
 5   0  0.4289684E-07  0.3399600E+04  0.7818609E-02  0.8138004E-01
        1   -1    0    0  501    0  0.00000000000E+00  0.00000000000E+00  0.17633304008E+04  0.17633304008E+04  0.50400001928E-02 0.  1.
       -1   -1    0    0    0  501  0.00000000000E+00  0.00000000000E+00 -0.16385586047E+04  0.16385586047E+04  0.50400001928E-02 0. -1.
    10030    2    1    2    0    0  0.00000000000E+00  0.00000000000E+00  0.12477179610E+03  0.34018890054E+04  0.33996000947E+04 0.  0.
        4    1    3    3  502    0  0.85775300586E+03 -0.11104292878E+04  0.10224719049E+04  0.17361577784E+04  0.12699999809E+01 0.  1.
       -4    1    3    3    0  502 -0.85775300586E+03  0.11104292878E+04 -0.89770010882E+03  0.16657312270E+04  0.12699999809E+01 0. -1.
</event>
<event>
 5   0  0.1256208E-06  0.3381691E+04  0.7818609E-02  0.8142415E-01
       -2   -1    0    0    0  501  0.00000000000E+00  0.00000000000E+00  0.21273257319E+04  0.21273257319E+04  0.25500000920E-02 0.  1.
        2   -1    0    0  501    0  0.00000000000E+00  0.00000000000E+00 -0.13439215011E+04  0.13439215011E+04  0.25500000920E-02 0. -1.
    10030    2    1    2    0    0  0.00000000000E+00  0.00000000000E+00  0.78340423074E+03  0.34712472330E+04  0.33816911692E+04 0.  0.
        3    1    3    3  502    0  0.82324741813E+03 -0.55898852742E+03 -0.10115241499E+04  0.14189381950E+04  0.10100000352E+00 0. -1.
       -3    1    3    3    0  502 -0.82324741813E+03  0.55898852742E+03  0.17949283807E+04  0.20523090379E+04  0.10100000352E+00 0.  1.
</event>
<event>
 5   0  0.1269497E-06  0.3421750E+04  0.7818609E-02  0.8132589E-01
       -2   -1    0    0    0  501  0.00000000000E+00  0.00000000000E+00  0.25734149625E+04  0.25734149625E+04  0.25500000920E-02 0.  1.
        2   -1    0    0  501    0  0.00000000000E+00  0.00000000000E+00 -0.11374356281E+04  0.11374356281E+04  0.25500000920E-02 0. -1.
    10030    2    1    2    0    0  0.00000000000E+00  0.00000000000E+00  0.14359793344E+04  0.37108505907E+04  0.34217503500E+04 0.  0.
        5    1    3    3  502    0 -0.40514450630E+03 -0.53995299890E+02 -0.10837034005E+04  0.11582282649E+04  0.46999998093E+01 0. -1.
       -5    1    3    3    0  502  0.40514450630E+03  0.53995299890E+02  0.25196827349E+04  0.25526223258E+04  0.46999998093E+01 0.  1.
</event>
<event>
 5   0  0.1269497E-06  0.3408488E+04  0.7818609E-02  0.8135826E-01
        2   -1    0    0  501    0  0.00000000000E+00  0.00000000000E+00  0.31878383527E+04  0.31878383527E+04  0.25500000920E-02 0. -1.
       -2   -1    0    0    0  501  0.00000000000E+00  0.00000000000E+00 -0.91110251876E+03  0.91110251876E+03  0.25500000920E-02 0.  1.
    10030    2    1    2    0    0  0.00000000000E+00  0.00000000000E+00  0.22767358340E+04  0.40989408715E+04  0.34084879654E+04 0.  0.
        5    1    3    3  502    0 -0.64408470529E+03 -0.60218199346E+03 -0.61546922923E+03  0.10753105240E+04  0.46999998093E+01 0.  1.
       -5    1    3    3    0  502  0.64408470529E+03  0.60218199346E+03  0.28922050632E+04  0.30236303475E+04  0.46999998093E+01 0. -1.
</event>
<event>
 5   0  0.1300176E-06  0.3532873E+04  0.7818609E-02  0.8106043E-01
        2   -1    0    0  501    0  0.00000000000E+00  0.00000000000E+00  0.26466808263E+04  0.26466808263E+04  0.25500000920E-02 0. -1.
       -2   -1    0    0    0  501  0.00000000000E+00  0.00000000000E+00 -0.11789477117E+04  0.11789477117E+04  0.25500000920E-02 0.  1.
    10030    2    1    2    0    0  0.00000000000E+00  0.00000000000E+00  0.14677331146E+04  0.38256285381E+04  0.35328732238E+04 0.  0.
        1    1    3    3  502    0  0.25786550519E+03  0.59512772499E+03  0.25130740580E+04  0.25954215166E+04  0.50400001928E-02 0. -1.
       -1    1    3    3    0  502 -0.25786550519E+03 -0.59512772499E+03 -0.10453409434E+04  0.12302070215E+04  0.50400001928E-02 0.  1.
</event>
<event>
 5   0  0.4289684E-07  0.3405841E+04  0.7818609E-02  0.8136474E-01
       -1   -1    0    0    0  501  0.00000000000E+00  0.00000000000E+00  0.13108393787E+04  0.13108393787E+04  0.50400001928E-02 0.  1.
        1   -1    0    0  501    0  0.00000000000E+00  0.00000000000E+00 -0.22122753640E+04  0.22122753640E+04  0.50400001928E-02 0. -1.
    10030    2    1    2    0    0  0.00000000000E+00  0.00000000000E+00 -0.90143598526E+03  0.35231147427E+04  0.34058406679E+04 0.  0.
        4    1    3    3  502    0  0.86237163851E+03  0.14012145037E+04 -0.90498510312E+03  0.18777876818E+04  0.12699999809E+01 0.  1.
       -4    1    3    3    0  502 -0.86237163851E+03 -0.14012145037E+04  0.35491178605E+01  0.16453270609E+04  0.12699999809E+01 0. -1.
</event>
<event>
 5   0  0.4060750E-07  0.3397722E+04  0.7818609E-02  0.8138466E-01
       -3   -1    0    0    0  501  0.00000000000E+00  0.00000000000E+00  0.12355586957E+04  0.12355586998E+04  0.10100000352E+00 0. -1.
        3   -1    0    0  501    0  0.00000000000E+00  0.00000000000E+00 -0.23358893935E+04  0.23358893957E+04  0.10100000352E+00 0.  1.
    10030    2    1    2    0    0  0.00000000000E+00  0.00000000000E+00 -0.11003306978E+04  0.35714480955E+04  0.33977218624E+04 0.  0.
        3    1    3    3  502    0  0.13007091488E+04  0.10357567574E+04 -0.18378637399E+03  0.16728460155E+04  0.10100000352E+00 0. -1.
       -3    1    3    3    0  502 -0.13007091488E+04 -0.10357567574E+04 -0.91654432383E+03  0.18986020800E+04  0.10100000352E+00 0.  1.
</event>
<event>
 5   0  0.1269497E-06  0.3380814E+04  0.7818609E-02  0.8142631E-01
       -2   -1    0    0    0  501  0.00000000000E+00  0.00000000000E+00  0.12433633835E+04  0.12433633835E+04  0.25500000920E-02 0.  1.
        2   -1    0    0  501    0  0.00000000000E+00  0.00000000000E+00 -0.22981826460E+04  0.22981826460E+04  0.25500000920E-02 0. -1.
    10030    2    1    2    0    0  0.00000000000E+00  0.00000000000E+00 -0.10548192625E+04  0.35415460295E+04  0.33808141923E+04 0.  0.
        5    1    3    3  502    0  0.11647363155E+04  0.11810642302E+03 -0.18047646794E+04  0.21512223153E+04  0.46999998093E+01 0. -1.
       -5    1    3    3    0  502 -0.11647363155E+04 -0.11810642302E+03  0.74994541693E+03  0.13903237142E+04  0.46999998093E+01 0.  1.
</event>
<event>
 5   0  0.1268230E-06  0.2811474E+04  0.7818609E-02  0.8299715E-01
        2   -1    0    0  501    0  0.00000000000E+00  0.00000000000E+00  0.21747498335E+04  0.21747498335E+04  0.25500000920E-02 0. -1.
       -2   -1    0    0    0  501  0.00000000000E+00  0.00000000000E+00 -0.90865452229E+03  0.90865452230E+03  0.25500000920E-02 0.  1.
    10030    2    1    2    0    0  0.00000000000E+00  0.00000000000E+00  0.12660953112E+04  0.30834043558E+04  0.28114738278E+04 0.  0.
        2    1    3    3  502    0 -0.95699249379E+03 -0.34294898558E+03  0.16978552179E+04  0.19789292511E+04  0.25500000920E-02 0. -1.
       -2    1    3    3    0  502  0.95699249379E+03  0.34294898558E+03 -0.43175990669E+03  0.11044751047E+04  0.25500000920E-02 0.  1.
</event>
<event>
 5   0  0.1256208E-06  0.2739641E+04  0.7818609E-02  0.8322256E-01
        2   -1    0    0  501    0  0.00000000000E+00  0.00000000000E+00  0.24012003753E+04  0.24012003753E+04  0.25500000920E-02 0. -1.
       -2   -1    0    0    0  501  0.00000000000E+00  0.00000000000E+00 -0.78144588832E+03  0.78144588833E+03  0.25500000920E-02 0.  1.
    10030    2    1    2    0    0  0.00000000000E+00  0.00000000000E+00  0.16197544870E+04  0.31826462636E+04  0.27396409694E+04 0.  0.
        3    1    3    3  502    0  0.37530660155E+03  0.11979046891E+03 -0.71421344759E+03  0.81566271248E+03  0.10100000352E+00 0.  1.
       -3    1    3    3    0  502 -0.37530660155E+03 -0.11979046891E+03  0.23339679346E+04  0.23669835511E+04  0.10100000352E+00 0. -1.
</event>
<event>
 5   0  0.4272633E-07  0.3405799E+04  0.7818609E-02  0.8136485E-01
       -1   -1    0    0    0  501  0.00000000000E+00  0.00000000000E+00  0.12109433231E+04  0.12109433231E+04  0.50400001928E-02 0. -1.
        1   -1    0    0  501    0  0.00000000000E+00  0.00000000000E+00 -0.23947164950E+04  0.23947164950E+04  0.50400001928E-02 0.  1.
    10030    2    1    2    0    0  0.00000000000E+00  0.00000000000E+00 -0.11837731719E+04  0.36056598181E+04  0.34057985556E+04 0.  0.
        1    1    3    3  502    0  0.11474581865E+04  0.92341152132E+03  0.31297240059E+03  0.15057559069E+04  0.50400001928E-02 0. -1.
       -1    1    3    3    0  502 -0.11474581865E+04 -0.92341152132E+03 -0.14967455725E+04  0.20999039112E+04  0.50400001928E-02 0.  1.
</event>
<event>
 5   0  0.1256208E-06  0.3431168E+04  0.7818609E-02  0.8130299E-01
       -2   -1    0    0    0  501  0.00000000000E+00  0.00000000000E+00  0.24702020495E+04  0.24702020495E+04  0.25500000920E-02 0.  1.
        2   -1    0    0  501    0  0.00000000000E+00  0.00000000000E+00 -0.11914930639E+04  0.11914930639E+04  0.25500000920E-02 0. -1.
    10030    2    1    2    0    0  0.00000000000E+00  0.00000000000E+00  0.12787089856E+04  0.36616951134E+04  0.34311680860E+04 0.  0.
        3    1    3    3  502    0 -0.81891769468E+03  0.14931623506E+04  0.41788160093E+03  0.17535064980E+04  0.10100000352E+00 0.  1.
       -3    1    3    3    0  502  0.81891769468E+03 -0.14931623506E+04  0.86082738463E+03  0.19081886155E+04  0.10100000352E+00 0. -1.
</event>
<event>
 5   0  0.1269497E-06  0.3416697E+04  0.7818609E-02  0.8133821E-01
       -2   -1    0    0    0  501  0.00000000000E+00  0.00000000000E+00  0.91168703218E+03  0.91168703218E+03  0.25500000920E-02 0. -1.
        2   -1    0    0  501    0  0.00000000000E+00  0.00000000000E+00 -0.32011576447E+04  0.32011576447E+04  0.25500000920E-02 0.  1.
    10030    2    1    2    0    0  0.00000000000E+00  0.00000000000E+00 -0.22894706125E+04  0.41128446769E+04  0.34166965991E+04 0.  0.
        5    1    3    3  502    0  0.89473615736E+03  0.22268671802E+03 -0.28759127036E+04  0.30201056496E+04  0.46999998093E+01 0.  1.
       -5    1    3    3    0  502 -0.89473615736E+03 -0.22268671802E+03  0.58644209108E+03  0.10927390273E+04  0.46999998093E+01 0. -1.
</event>
<event>
 5   0  0.4272633E-07  0.3424994E+04  0.7818609E-02  0.8131799E-01
        1   -1    0    0  501    0  0.00000000000E+00  0.00000000000E+00  0.14660433725E+04  0.14660433725E+04  0.50400001928E-02 0.  1.
       -1   -1    0    0    0  501  0.00000000000E+00  0.00000000000E+00 -0.20003816110E+04  0.20003816110E+04  0.50400001928E-02 0. -1.
    10030    2    1    2    0    0  0.00000000000E+00  0.00000000000E+00 -0.53433823851E+03  0.34664249835E+04  0.34249941333E+04 0.  0.
        1    1    3    3  502    0  0.46406680117E+03 -0.47424178853E+03 -0.18649946586E+04  0.19795121486E+04  0.50400001928E-02 0. -1.
       -1    1    3    3    0  502 -0.46406680117E+03  0.47424178853E+03  0.13306564201E+04  0.14869128348E+04  0.50400001928E-02 0.  1.
</event>
<event>
 5   0  0.4125758E-07  0.3430242E+04  0.7818609E-02  0.8130524E-01
        1   -1    0    0  501    0  0.00000000000E+00  0.00000000000E+00  0.21313384361E+04  0.21313384361E+04  0.50400001928E-02 0. -1.
       -1   -1    0    0    0  501  0.00000000000E+00  0.00000000000E+00 -0.13801845410E+04  0.13801845410E+04  0.50400001928E-02 0.  1.
    10030    2    1    2    0    0  0.00000000000E+00  0.00000000000E+00  0.75115389516E+03  0.35115229771E+04  0.34302421845E+04 0.  0.
        2    1    3    3  502    0 -0.11151327745E+04 -0.10359369124E+04  0.11848493801E+04  0.19288738799E+04  0.25500000920E-02 0. -1.
       -2    1    3    3    0  502  0.11151327745E+04  0.10359369124E+04 -0.43369548495E+03  0.15826490972E+04  0.25500000920E-02 0.  1.
</event>
<event>
 5   0  0.1277635E-06  0.3435067E+04  0.7818609E-02  0.8129353E-01
        2   -1    0    0  501    0  0.00000000000E+00  0.00000000000E+00  0.12355571817E+04  0.12355571817E+04  0.25500000920E-02 0.  1.
       -2   -1    0    0    0  501  0.00000000000E+00  0.00000000000E+00 -0.23875228443E+04  0.23875228443E+04  0.25500000920E-02 0. -1.
    10030    2    1    2    0    0  0.00000000000E+00  0.00000000000E+00 -0.11519656626E+04  0.36230800261E+04  0.34350668098E+04 0.  0.
        4    1    3    3  502    0 -0.59155233919E+03 -0.66849621405E+03 -0.21236395590E+04  0.23036206171E+04  0.12699999809E+01 0. -1.
       -4    1    3    3    0  502  0.59155233919E+03  0.66849621405E+03  0.97167389636E+03  0.13194594090E+04  0.12699999809E+01 0.  1.
</event>
<event>
 5   0  0.1277635E-06  0.3370582E+04  0.7818609E-02  0.8145164E-01
       -2   -1    0    0    0  501  0.00000000000E+00  0.00000000000E+00  0.17725542399E+04  0.17725542399E+04  0.25500000920E-02 0. -1.
        2   -1    0    0  501    0  0.00000000000E+00  0.00000000000E+00 -0.16023234958E+04  0.16023234958E+04  0.25500000920E-02 0.  1.
    10030    2    1    2    0    0  0.00000000000E+00  0.00000000000E+00  0.17023074413E+03  0.33748777357E+04  0.33705817339E+04 0.  0.
        4    1    3    3  502    0  0.53153694118E+03 -0.86619364277E+03  0.14312174878E+04  0.17553370209E+04  0.12699999809E+01 0. -1.
       -4    1    3    3    0  502 -0.53153694118E+03  0.86619364277E+03 -0.12609867436E+04  0.16195407149E+04  0.12699999809E+01 0.  1.
</event>
<event>
 5   0  0.1268230E-06  0.3368610E+04  0.7818609E-02  0.8145654E-01
        2   -1    0    0  501    0  0.00000000000E+00  0.00000000000E+00  0.22070627077E+04  0.22070627077E+04  0.25500000920E-02 0. -1.
       -2   -1    0    0    0  501  0.00000000000E+00  0.00000000000E+00 -0.12853658953E+04  0.12853658953E+04  0.25500000920E-02 0.  1.
    10030    2    1    2    0    0  0.00000000000E+00  0.00000000000E+00  0.92169681246E+03  0.34924286030E+04  0.33686098814E+04 0.  0.
        2    1    3    3  502    0  0.92287429400E+03 -0.52110120154E+03  0.18180256739E+04  0.21043908324E+04  0.25500000920E-02 0. -1.
       -2    1    3    3    0  502 -0.92287429400E+03  0.52110120154E+03 -0.89632886140E+03  0.13880377706E+04  0.25500000920E-02 0.  1.
</event>
<event>
 5   0  0.1300176E-06  0.3394410E+04  0.7818609E-02  0.8139280E-01
        2   -1    0    0  501    0  0.00000000000E+00  0.00000000000E+00  0.19131220632E+04  0.19131220632E+04  0.25500000920E-02 0.  1.
       -2   -1    0    0    0  501  0.00000000000E+00  0.00000000000E+00 -0.15056563216E+04  0.15056563216E+04  0.25500000920E-02 0. -1.
    10030    2    1    2    0    0  0.00000000000E+00  0.00000000000E+00  0.40746574153E+03  0.34187783848E+04  0.33944097151E+04 0.  0.
        1    1    3    3  502    0 -0.55678128152E+03  0.14469851983E+04  0.89914808856E+03  0.17922719784E+04  0.50400001928E-02 0.  1.
       -1    1    3    3    0  502  0.55678128152E+03 -0.14469851983E+04 -0.49168234703E+03  0.16265064063E+04  0.50400001928E-02 0. -1.
</event>
<event>
 5   0  0.1277635E-06  0.3399572E+04  0.7818609E-02  0.8138011E-01
       -2   -1    0    0    0  501  0.00000000000E+00  0.00000000000E+00  0.14975329653E+04  0.14975329653E+04  0.25500000920E-02 0.  1.
        2   -1    0    0  501    0  0.00000000000E+00  0.00000000000E+00 -0.19293543141E+04  0.19293543141E+04  0.25500000920E-02 0. -1.
    10030    2    1    2    0    0  0.00000000000E+00  0.00000000000E+00 -0.43182134885E+03  0.34268872794E+04  0.33995715537E+04 0.  0.
        4    1    3    3  502    0  0.55724893154E+03 -0.16017716526E+04 -0.10066235091E+03  0.16989212226E+04  0.12699999809E+01 0.  1.
       -4    1    3    3    0  502 -0.55724893154E+03  0.16017716526E+04 -0.33115899795E+03  0.17279660568E+04  0.12699999809E+01 0. -1.
</event>
<event>
 5   0  0.1256208E-06  0.3399984E+04  0.7818609E-02  0.8137910E-01
       -2   -1    0    0    0  501  0.00000000000E+00  0.00000000000E+00  0.12982073803E+04  0.12982073804E+04  0.25500000920E-02 0.  1.
        2   -1    0    0  501    0  0.00000000000E+00  0.00000000000E+00 -0.22261250864E+04  0.22261250864E+04  0.25500000920E-02 0. -1.
    10030    2    1    2    0    0  0.00000000000E+00  0.00000000000E+00 -0.92791770604E+03  0.35243324667E+04  0.33999835392E+04 0.  0.
        3    1    3    3  502    0  0.45908254648E+03  0.61484804111E+02 -0.21594567110E+04  0.22085720415E+04  0.10100000352E+00 0. -1.
       -3    1    3    3    0  502 -0.45908254648E+03 -0.61484804111E+02  0.12315390050E+04  0.13157604252E+04  0.10100000352E+00 0.  1.
</event>
<event>
 5   0  0.4464951E-07  0.3321273E+04  0.7818609E-02  0.8157504E-01
        1   -1    0    0  501    0  0.00000000000E+00  0.00000000000E+00  0.36060077551E+04  0.36060077551E+04  0.50400001928E-02 0. -1.
       -1   -1    0    0    0  501  0.00000000000E+00  0.00000000000E+00 -0.76475524329E+03  0.76475524331E+03  0.50400001928E-02 0.  1.
    10030    2    1    2    0    0  0.00000000000E+00  0.00000000000E+00  0.28412525118E+04  0.43707629984E+04  0.33212728513E+04 0.  0.
        3    1    3    3  502    0 -0.14995339619E+04  0.96945654870E+02  0.49034788414E+03  0.15806459504E+04  0.10100000352E+00 0.  1.
       -3    1    3    3    0  502  0.14995339619E+04 -0.96945654870E+02  0.23509046277E+04  0.27901170480E+04  0.10100000352E+00 0. -1.
</event>
<event>
 5   0  0.4464951E-07  0.3505320E+04  0.7818609E-02  0.8112530E-01
        1   -1    0    0  501    0  0.00000000000E+00  0.00000000000E+00  0.14044744261E+04  0.14044744261E+04  0.50400001928E-02 0.  1.
       -1   -1    0    0    0  501  0.00000000000E+00  0.00000000000E+00 -0.21871647076E+04  0.21871647076E+04  0.50400001928E-02 0. -1.
    10030    2    1    2    0    0  0.00000000000E+00  0.00000000000E+00 -0.78269028149E+03  0.35916391337E+04  0.35053198984E+04 0.  0.
        3    1    3    3  502    0  0.15102698341E+04 -0.14124985433E+03  0.50831453292E+03  0.15997656603E+04  0.10100000352E+00 0.  1.
       -3    1    3    3    0  502 -0.15102698341E+04  0.14124985433E+03 -0.12910048144E+04  0.19918734734E+04  0.10100000352E+00 0. -1.
</event>
<event>
 5   0  0.4289684E-07  0.3041091E+04  0.7818609E-02  0.8232093E-01
        1   -1    0    0  501    0  0.00000000000E+00  0.00000000000E+00  0.26184092372E+04  0.26184092372E+04  0.50400001928E-02 0. -1.
       -1   -1    0    0    0  501  0.00000000000E+00  0.00000000000E+00 -0.88300125209E+03  0.88300125211E+03  0.50400001928E-02 0.  1.
    10030    2    1    2    0    0  0.00000000000E+00  0.00000000000E+00  0.17354079851E+04  0.35014104893E+04  0.30410910115E+04 0.  0.
        4    1    3    3  502    0  0.28031375431E+03 -0.14445095774E+04  0.42645366533E+03  0.15320078530E+04  0.12699999809E+01 0.  1.
       -4    1    3    3    0  502 -0.28031375431E+03  0.14445095774E+04  0.13089543198E+04  0.19694026364E+04  0.12699999809E+01 0. -1.
</event>
<event>
 5   0  0.4272633E-07  0.3369708E+04  0.7818609E-02  0.8145381E-01
        1   -1    0    0  501    0  0.00000000000E+00  0.00000000000E+00  0.14416462897E+04  0.14416462897E+04  0.50400001928E-02 0. -1.
       -1   -1    0    0    0  501  0.00000000000E+00  0.00000000000E+00 -0.19690914239E+04  0.19690914239E+04  0.50400001928E-02 0.  1.
    10030    2    1    2    0    0  0.00000000000E+00  0.00000000000E+00 -0.52744513424E+03  0.34107377137E+04  0.33697082042E+04 0.  0.
        1    1    3    3  502    0 -0.46172136957E+03 -0.15029198150E+04 -0.87671923279E+03  0.18001642166E+04  0.50400001928E-02 0.  1.
       -1    1    3    3    0  502  0.46172136957E+03  0.15029198150E+04  0.34927409855E+03  0.16105734971E+04  0.50400001928E-02 0. -1.
</event>
<event>
 5   0  0.1300176E-06  0.3416053E+04  0.7818609E-02  0.8133978E-01
        2   -1    0    0  501    0  0.00000000000E+00  0.00000000000E+00  0.22445228156E+04  0.22445228156E+04  0.25500000920E-02 0.  1.
       -2   -1    0    0    0  501  0.00000000000E+00  0.00000000000E+00 -0.12997658993E+04  0.12997658993E+04  0.25500000920E-02 0. -1.
    10030    2    1    2    0    0  0.00000000000E+00  0.00000000000E+00  0.94475691635E+03  0.35442887149E+04  0.34160528192E+04 0.  0.
        1    1    3    3  502    0  0.13245651862E+04 -0.13550283520E+03  0.15823612813E+04  0.20680186593E+04  0.50400001928E-02 0.  1.
       -1    1    3    3    0  502 -0.13245651862E+04  0.13550283520E+03 -0.63760436491E+03  0.14762700556E+04  0.50400001928E-02 0. -1.
</event>
<event>
 5   0  0.1277635E-06  0.3417088E+04  0.7818609E-02  0.8133725E-01
        2   -1    0    0  501    0  0.00000000000E+00  0.00000000000E+00  0.14809009285E+04  0.14809009285E+04  0.25500000920E-02 0. -1.
       -2   -1    0    0    0  501  0.00000000000E+00  0.00000000000E+00 -0.19711800086E+04  0.19711800086E+04  0.25500000920E-02 0.  1.
    10030    2    1    2    0    0  0.00000000000E+00  0.00000000000E+00 -0.49027908007E+03  0.34520809371E+04  0.34170878274E+04 0.  0.
        4    1    3    3  502    0  0.93008162231E+03  0.10618485942E+04 -0.12175697043E+04  0.18641490978E+04  0.12699999809E+01 0.  1.
       -4    1    3    3    0  502 -0.93008162231E+03 -0.10618485942E+04  0.72729062419E+03  0.15879318393E+04  0.12699999809E+01 0. -1.
</event>
<event>
 5   0  0.1268230E-06  0.3417945E+04  0.7818609E-02  0.8133516E-01
        2   -1    0    0  501    0  0.00000000000E+00  0.00000000000E+00  0.25589767715E+04  0.25589767715E+04  0.25500000920E-02 0.  1.
       -2   -1    0    0    0  501  0.00000000000E+00  0.00000000000E+00 -0.11413107804E+04  0.11413107804E+04  0.25500000920E-02 0. -1.
    10030    2    1    2    0    0  0.00000000000E+00  0.00000000000E+00  0.14176659912E+04  0.37002875519E+04  0.34179454508E+04 0.  0.
        2    1    3    3  502    0 -0.96643670647E+03 -0.42620560459E+03 -0.74562548872E+03  0.12929069937E+04  0.25500000920E-02 0. -1.
       -2    1    3    3    0  502  0.96643670647E+03  0.42620560459E+03  0.21632914799E+04  0.24073805582E+04  0.25500000920E-02 0.  1.
</event>
<event>
 5   0  0.4060750E-07  0.2756785E+04  0.7818609E-02  0.8316812E-01
        3   -1    0    0  501    0  0.00000000000E+00  0.00000000000E+00  0.20264116594E+04  0.20264116619E+04  0.10100000352E+00 0. -1.
       -3   -1    0    0    0  501  0.00000000000E+00  0.00000000000E+00 -0.93760093941E+03  0.93760094485E+03  0.10100000352E+00 0.  1.
    10030    2    1    2    0    0  0.00000000000E+00  0.00000000000E+00  0.10888107200E+04  0.29640126068E+04  0.27567847121E+04 0.  0.
        2    1    3    3  502    0  0.42634499061E+02 -0.98601896928E+03  0.15789818592E+04  0.18620512399E+04  0.25500000920E-02 0. -1.
       -2    1    3    3    0  502 -0.42634499061E+02  0.98601896928E+03 -0.49017113924E+03  0.11019613669E+04  0.25500000920E-02 0.  1.
</event>
<event>
 5   0  0.4464951E-07  0.3452991E+04  0.7818609E-02  0.8125022E-01
        1   -1    0    0  501    0  0.00000000000E+00  0.00000000000E+00  0.21107466676E+04  0.21107466676E+04  0.50400001928E-02 0. -1.
       -1   -1    0    0    0  501  0.00000000000E+00  0.00000000000E+00 -0.14121952520E+04  0.14121952520E+04  0.50400001928E-02 0.  1.
    10030    2    1    2    0    0  0.00000000000E+00  0.00000000000E+00  0.69855141562E+03  0.35229419196E+04  0.34529908324E+04 0.  0.
        3    1    3    3  502    0 -0.12618896168E+04  0.68736753844E+03  0.13257148948E+04  0.19550855558E+04  0.10100000352E+00 0. -1.
       -3    1    3    3    0  502  0.12618896168E+04 -0.68736753844E+03 -0.62716347920E+03  0.15678563639E+04  0.10100000352E+00 0.  1.
</event>
<event>
 5   0  0.1300176E-06  0.3458968E+04  0.7818609E-02  0.8123583E-01
        2   -1    0    0  501    0  0.00000000000E+00  0.00000000000E+00  0.21813575404E+04  0.21813575404E+04  0.25500000920E-02 0. -1.
       -2   -1    0    0    0  501  0.00000000000E+00  0.00000000000E+00 -0.13712174353E+04  0.13712174353E+04  0.25500000920E-02 0.  1.
    10030    2    1    2    0    0  0.00000000000E+00  0.00000000000E+00  0.81014010506E+03  0.35525749757E+04  0.34589683387E+04 0.  0.
        1    1    3    3  502    0 -0.10207623884E+04  0.78904790968E+02  0.18366831172E+04  0.21027569266E+04  0.50400001928E-02 0. -1.
       -1    1    3    3    0  502  0.10207623884E+04 -0.78904790968E+02 -0.10265430121E+04  0.14498180490E+04  0.50400001928E-02 0.  1.
</event>
<event>
 5   0  0.4289684E-07  0.3395069E+04  0.7818609E-02  0.8139118E-01
        1   -1    0    0  501    0  0.00000000000E+00  0.00000000000E+00  0.18073940240E+04  0.18073940240E+04  0.50400001928E-02 0.  1.
       -1   -1    0    0    0  501  0.00000000000E+00  0.00000000000E+00 -0.15943525034E+04  0.15943525034E+04  0.50400001928E-02 0. -1.
    10030    2    1    2    0    0  0.00000000000E+00  0.00000000000E+00  0.21304152061E+03  0.34017465273E+04  0.33950688869E+04 0.  0.
        4    1    3    3  502    0  0.13077953487E+04 -0.96610511932E+03  0.59526474815E+03  0.17314818824E+04  0.12699999809E+01 0.  1.
       -4    1    3    3    0  502 -0.13077953487E+04  0.96610511932E+03 -0.38222322753E+03  0.16702646450E+04  0.12699999809E+01 0. -1.
</event>
<event>
 5   0  0.4464951E-07  0.3411875E+04  0.7818609E-02  0.8134998E-01
        1   -1    0    0  501    0  0.00000000000E+00  0.00000000000E+00  0.16896523985E+04  0.16896523985E+04  0.50400001928E-02 0. -1.
       -1   -1    0    0    0  501  0.00000000000E+00  0.00000000000E+00 -0.17223793150E+04  0.17223793150E+04  0.50400001928E-02 0.  1.
    10030    2    1    2    0    0  0.00000000000E+00  0.00000000000E+00 -0.32726916473E+02  0.34120317136E+04  0.34118747579E+04 0.  0.
        3    1    3    3  502    0  0.13928121736E+04 -0.92586858023E+03 -0.35262876201E+03  0.17092411863E+04  0.10100000352E+00 0.  1.
       -3    1    3    3    0  502 -0.13928121736E+04  0.92586858023E+03  0.31990184554E+03  0.17027905273E+04  0.10100000352E+00 0. -1.
</event>
<event>
 5   0  0.4272633E-07  0.3406123E+04  0.7818609E-02  0.8136405E-01
        1   -1    0    0  501    0  0.00000000000E+00  0.00000000000E+00  0.21336793363E+04  0.21336793363E+04  0.50400001928E-02 0. -1.
       -1   -1    0    0    0  501  0.00000000000E+00  0.00000000000E+00 -0.13593507578E+04  0.13593507578E+04  0.50400001928E-02 0.  1.
    10030    2    1    2    0    0  0.00000000000E+00  0.00000000000E+00  0.77432857852E+03  0.34930300942E+04  0.34061230881E+04 0.  0.
        1    1    3    3  502    0  0.15365302118E+04  0.54344787168E+03  0.89389522286E+03  0.18588462418E+04  0.50400001928E-02 0. -1.
       -1    1    3    3    0  502 -0.15365302118E+04 -0.54344787168E+03 -0.11956664434E+03  0.16341838524E+04  0.50400001928E-02 0.  1.
</event>
<event>
 5   0  0.4060750E-07  0.3387455E+04  0.7818609E-02  0.8140992E-01
       -3   -1    0    0    0  501  0.00000000000E+00  0.00000000000E+00  0.24295769501E+04  0.24295769522E+04  0.10100000352E+00 0. -1.
        3   -1    0    0  501    0  0.00000000000E+00  0.00000000000E+00 -0.11807460393E+04  0.11807460436E+04  0.10100000352E+00 0.  1.
    10030    2    1    2    0    0  0.00000000000E+00  0.00000000000E+00  0.12488309108E+04  0.36103229958E+04  0.33874553119E+04 0.  0.
        2    1    3    3  502    0 -0.28546932570E+03  0.60508589731E+03 -0.10339418254E+04  0.12315264420E+04  0.25500000920E-02 0.  1.
       -2    1    3    3    0  502  0.28546932570E+03 -0.60508589731E+03  0.22827727362E+04  0.23787965538E+04  0.25500000920E-02 0. -1.
</event>
<event>
 5   0  0.4464951E-07  0.3341520E+04  0.7818609E-02  0.8152410E-01
       -1   -1    0    0    0  501  0.00000000000E+00  0.00000000000E+00  0.14735250348E+04  0.14735250348E+04  0.50400001928E-02 0.  1.
        1   -1    0    0  501    0  0.00000000000E+00  0.00000000000E+00 -0.18943947989E+04  0.18943947989E+04  0.50400001928E-02 0. -1.
    10030    2    1    2    0    0  0.00000000000E+00  0.00000000000E+00 -0.42086976412E+03  0.33679198337E+04  0.33415195119E+04 0.  0.
        3    1    3    3  502    0 -0.57871030131E+03 -0.12205776758E+03 -0.17853533120E+04  0.18807685052E+04  0.10100000352E+00 0. -1.
       -3    1    3    3    0  502  0.57871030131E+03  0.12205776758E+03  0.13644835478E+04  0.14871513285E+04  0.10100000352E+00 0.  1.
</event>
<event>
 5   0  0.1277635E-06  0.3421757E+04  0.7818609E-02  0.8132587E-01
        2   -1    0    0  501    0  0.00000000000E+00  0.00000000000E+00  0.33205429756E+04  0.33205429756E+04  0.25500000920E-02 0.  1.
       -2   -1    0    0    0  501  0.00000000000E+00  0.00000000000E+00 -0.88151378961E+03  0.88151378962E+03  0.25500000920E-02 0. -1.
    10030    2    1    2    0    0  0.00000000000E+00  0.00000000000E+00  0.24390291860E+04  0.42020567652E+04  0.34217565208E+04 0.  0.
        4    1    3    3  502    0 -0.37277905370E+03  0.18652898541E+03 -0.81819912482E+03  0.91826396315E+03  0.12699999809E+01 0. -1.
       -4    1    3    3    0  502  0.37277905370E+03 -0.18652898541E+03  0.32572283108E+04  0.32837928020E+04  0.12699999809E+01 0.  1.
</event>
<event>
 5   0  0.1300176E-06  0.3414739E+04  0.7818609E-02  0.8134298E-01
        2   -1    0    0  501    0  0.00000000000E+00  0.00000000000E+00  0.14693982838E+04  0.14693982838E+04  0.25500000920E-02 0.  1.
       -2   -1    0    0    0  501  0.00000000000E+00  0.00000000000E+00 -0.19838805454E+04  0.19838805454E+04  0.25500000920E-02 0. -1.
    10030    2    1    2    0    0  0.00000000000E+00  0.00000000000E+00 -0.51448226164E+03  0.34532788292E+04  0.34147390347E+04 0.  0.
        1    1    3    3  502    0 -0.12922176139E+04 -0.96439651702E+03 -0.82502563285E+03  0.18112300513E+04  0.50400001928E-02 0.  1.
       -1    1    3    3    0  502  0.12922176139E+04  0.96439651702E+03  0.31054337121E+03  0.16420487779E+04  0.50400001928E-02 0. -1.
</event>
<event>
 5   0  0.4289684E-07  0.3409693E+04  0.7818609E-02  0.8135531E-01
        1   -1    0    0  501    0  0.00000000000E+00  0.00000000000E+00  0.20846184772E+04  0.20846184772E+04  0.50400001928E-02 0.  1.
       -1   -1    0    0    0  501  0.00000000000E+00  0.00000000000E+00 -0.13942608095E+04  0.13942608095E+04  0.50400001928E-02 0. -1.
    10030    2    1    2    0    0  0.00000000000E+00  0.00000000000E+00  0.69035766772E+03  0.34788792867E+04  0.34096931508E+04 0.  0.
        4    1    3    3  502    0 -0.49985510641E+03  0.16267374933E+04  0.24127816987E+03  0.17188213309E+04  0.12699999809E+01 0. -1.
       -4    1    3    3    0  502  0.49985510641E+03 -0.16267374933E+04  0.44907949785E+03  0.17600579558E+04  0.12699999809E+01 0.  1.
</event>
<event>
 5   0  0.1269497E-06  0.3130429E+04  0.7818609E-02  0.8207436E-01
        2   -1    0    0  501    0  0.00000000000E+00  0.00000000000E+00  0.18260675213E+04  0.18260675213E+04  0.25500000920E-02 0. -1.
       -2   -1    0    0    0  501  0.00000000000E+00  0.00000000000E+00 -0.13416242046E+04  0.13416242046E+04  0.25500000920E-02 0.  1.
    10030    2    1    2    0    0  0.00000000000E+00  0.00000000000E+00  0.48444331674E+03  0.31676917259E+04  0.31304289712E+04 0.  0.
        5    1    3    3  502    0  0.30193337464E+03 -0.14559861835E+04  0.73672547121E+03  0.16594716144E+04  0.46999998093E+01 0. -1.
       -5    1    3    3    0  502 -0.30193337464E+03  0.14559861835E+04 -0.25228215447E+03  0.15082201115E+04  0.46999998093E+01 0.  1.
</event>
<event>
 5   0  0.4289684E-07  0.3371936E+04  0.7818609E-02  0.8144829E-01
        1   -1    0    0  501    0  0.00000000000E+00  0.00000000000E+00  0.16011458809E+04  0.16011458810E+04  0.50400001928E-02 0. -1.
       -1   -1    0    0    0  501  0.00000000000E+00  0.00000000000E+00 -0.17752837011E+04  0.17752837011E+04  0.50400001928E-02 0.  1.
    10030    2    1    2    0    0  0.00000000000E+00  0.00000000000E+00 -0.17413782013E+03  0.33764295820E+04  0.33719360525E+04 0.  0.
        4    1    3    3  502    0 -0.47291564798E+03  0.12914346716E+04 -0.10635781447E+04  0.17385778107E+04  0.12699999809E+01 0.  1.
       -4    1    3    3    0  502  0.47291564798E+03 -0.12914346716E+04  0.88944032458E+03  0.16378517713E+04  0.12699999809E+01 0. -1.
</event>
<event>
 5   0  0.4272633E-07  0.3385036E+04  0.7818609E-02  0.8141589E-01
       -1   -1    0    0    0  501  0.00000000000E+00  0.00000000000E+00  0.13383047079E+04  0.13383047079E+04  0.50400001928E-02 0.  1.
        1   -1    0    0  501    0  0.00000000000E+00  0.00000000000E+00 -0.21404818382E+04  0.21404818382E+04  0.50400001928E-02 0. -1.
    10030    2    1    2    0    0  0.00000000000E+00  0.00000000000E+00 -0.80217713031E+03  0.34787865461E+04  0.33850358469E+04 0.  0.
        1    1    3    3  502    0 -0.62948144479E+03 -0.59852375005E+03 -0.18939519904E+04  0.20836342555E+04  0.50400001928E-02 0. -1.
       -1    1    3    3    0  502  0.62948144479E+03  0.59852375005E+03  0.10917748601E+04  0.13951522906E+04  0.50400001928E-02 0.  1.
</event>
<event>
 5   0  0.4272633E-07  0.3395544E+04  0.7818609E-02  0.8139001E-01
       -1   -1    0    0    0  501  0.00000000000E+00  0.00000000000E+00  0.15623791351E+04  0.15623791351E+04  0.50400001928E-02 0. -1.
        1   -1    0    0  501    0  0.00000000000E+00  0.00000000000E+00 -0.18448979283E+04  0.18448979283E+04  0.50400001928E-02 0.  1.
    10030    2    1    2    0    0  0.00000000000E+00  0.00000000000E+00 -0.28251879326E+03  0.34072770634E+04  0.33955441564E+04 0.  0.
        1    1    3    3  502    0 -0.12669434146E+04  0.62654495946E+03 -0.10851081794E+04  0.17818989767E+04  0.50400001928E-02 0.  1.
       -1    1    3    3    0  502  0.12669434146E+04 -0.62654495946E+03  0.80258938615E+03  0.16253780867E+04  0.50400001928E-02 0. -1.
</event>
<event>
 5   0  0.4464951E-07  0.3424695E+04  0.7818609E-02  0.8131872E-01
        1   -1    0    0  501    0  0.00000000000E+00  0.00000000000E+00  0.14044494607E+04  0.14044494607E+04  0.50400001928E-02 0. -1.
       -1   -1    0    0    0  501  0.00000000000E+00  0.00000000000E+00 -0.20877462126E+04  0.20877462126E+04  0.50400001928E-02 0.  1.
    10030    2    1    2    0    0  0.00000000000E+00  0.00000000000E+00 -0.68329675194E+03  0.34921956733E+04  0.34246950477E+04 0.  0.
        3    1    3    3  502    0 -0.13476051805E+04 -0.31388097899E+03 -0.13702790250E+04  0.19473637585E+04  0.10100000352E+00 0.  1.
       -3    1    3    3    0  502  0.13476051805E+04  0.31388097899E+03  0.68698227302E+03  0.15448319148E+04  0.10100000352E+00 0. -1.
</event>
<event>
 5   0  0.1269497E-06  0.3374128E+04  0.7818609E-02  0.8144285E-01
        2   -1    0    0  501    0  0.00000000000E+00  0.00000000000E+00  0.78625271820E+03  0.78625271820E+03  0.25500000920E-02 0.  1.
       -2   -1    0    0    0  501  0.00000000000E+00  0.00000000000E+00 -0.36199366186E+04  0.36199366186E+04  0.25500000920E-02 0. -1.
    10030    2    1    2    0    0  0.00000000000E+00  0.00000000000E+00 -0.28336839004E+04  0.44061893368E+04  0.33741280391E+04 0.  0.
        5    1    3    3  502    0 -0.11887156723E+04  0.72144486786E+03 -0.16931418439E+03  0.14007915727E+04  0.46999998093E+01 0.  1.
       -5    1    3    3    0  502  0.11887156723E+04 -0.72144486786E+03 -0.26643697160E+04  0.30053977641E+04  0.46999998093E+01 0. -1.
</event>
<event>
 5   0  0.1300176E-06  0.3404046E+04  0.7818609E-02  0.8136914E-01
       -2   -1    0    0    0  501  0.00000000000E+00  0.00000000000E+00  0.16751150738E+04  0.16751150738E+04  0.25500000920E-02 0. -1.
        2   -1    0    0  501    0  0.00000000000E+00  0.00000000000E+00 -0.17293627326E+04  0.17293627326E+04  0.25500000920E-02 0.  1.
    10030    2    1    2    0    0  0.00000000000E+00  0.00000000000E+00 -0.54247658844E+02  0.34044778064E+04  0.34040455822E+04 0.  0.
        1    1    3    3  502    0  0.60490770878E+03 -0.15633014735E+04  0.26796744028E+03  0.16975368574E+04  0.50400001928E-02 0. -1.
       -1    1    3    3    0  502 -0.60490770878E+03  0.15633014735E+04 -0.32221509913E+03  0.17069409490E+04  0.50400001928E-02 0.  1.
</event>
<event>
 5   0  0.4289684E-07  0.3405441E+04  0.7818609E-02  0.8136572E-01
        1   -1    0    0  501    0  0.00000000000E+00  0.00000000000E+00  0.14298183526E+04  0.14298183526E+04  0.50400001928E-02 0.  1.
       -1   -1    0    0    0  501  0.00000000000E+00  0.00000000000E+00 -0.20277103652E+04  0.20277103652E+04  0.50400001928E-02 0. -1.
    10030    2    1    2    0    0  0.00000000000E+00  0.00000000000E+00 -0.59789201256E+03  0.34575287178E+04  0.34054412307E+04 0.  0.
        4    1    3    3  502    0  0.69698461784E+03 -0.10907047480E+04  0.82424396104E+03  0.15345371045E+04  0.12699999809E+01 0.  1.
       -4    1    3    3    0  502 -0.69698461784E+03  0.10907047480E+04 -0.14221359736E+04  0.19229916134E+04  0.12699999809E+01 0. -1.
</event>
<event>
 5   0  0.4464951E-07  0.3382429E+04  0.7818609E-02  0.8142232E-01
        1   -1    0    0  501    0  0.00000000000E+00  0.00000000000E+00  0.12533201976E+04  0.12533201976E+04  0.50400001928E-02 0.  1.
       -1   -1    0    0    0  501  0.00000000000E+00  0.00000000000E+00 -0.22821037956E+04  0.22821037956E+04  0.50400001928E-02 0. -1.
    10030    2    1    2    0    0  0.00000000000E+00  0.00000000000E+00 -0.10287835979E+04  0.35354239932E+04  0.33824291745E+04 0.  0.
        3    1    3    3  502    0  0.35428313558E+03 -0.49729006213E+03  0.11340931333E+04  0.12880144375E+04  0.10100000352E+00 0.  1.
       -3    1    3    3    0  502 -0.35428313558E+03  0.49729006213E+03 -0.21628767313E+04  0.22474095557E+04  0.10100000352E+00 0. -1.
</event>
<event>
 5   0  0.1269497E-06  0.3392241E+04  0.7818609E-02  0.8139813E-01
        2   -1    0    0  501    0  0.00000000000E+00  0.00000000000E+00  0.24545528381E+04  0.24545528381E+04  0.25500000920E-02 0. -1.
       -2   -1    0    0    0  501  0.00000000000E+00  0.00000000000E+00 -0.11720359337E+04  0.11720359337E+04  0.25500000920E-02 0.  1.
    10030    2    1    2    0    0  0.00000000000E+00  0.00000000000E+00  0.12825169044E+04  0.36265887718E+04  0.33922406327E+04 0.  0.
        5    1    3    3  502    0 -0.80117292780E+03  0.72447743406E+03 -0.75677280345E+03  0.13188907380E+04  0.46999998093E+01 0.  1.
       -5    1    3    3    0  502  0.80117292780E+03 -0.72447743406E+03  0.20392897079E+04  0.23076980338E+04  0.46999998093E+01 0. -1.
</event>
<event>
 5   0  0.4109937E-07  0.3370882E+04  0.7818609E-02  0.8145090E-01
        1   -1    0    0  501    0  0.00000000000E+00  0.00000000000E+00  0.19563486379E+04  0.19563486379E+04  0.50400001928E-02 0.  1.
       -1   -1    0    0    0  501  0.00000000000E+00  0.00000000000E+00 -0.14520477571E+04  0.14520477571E+04  0.50400001928E-02 0. -1.
    10030    2    1    2    0    0  0.00000000000E+00  0.00000000000E+00  0.50430088078E+03  0.34083963951E+04  0.33708821705E+04 0.  0.
        5    1    3    3  502    0  0.93255574264E+03  0.15778462935E+03 -0.11584136511E+04  0.14954933900E+04  0.46999998093E+01 0. -1.
       -5    1    3    3    0  502 -0.93255574264E+03 -0.15778462935E+03  0.16627145319E+04  0.19129030051E+04  0.46999998093E+01 0.  1.
</event>
<event>
 5   0  0.4464951E-07  0.3373925E+04  0.7818609E-02  0.8144336E-01
        1   -1    0    0  501    0  0.00000000000E+00  0.00000000000E+00  0.20763208320E+04  0.20763208320E+04  0.50400001928E-02 0.  1.
       -1   -1    0    0    0  501  0.00000000000E+00  0.00000000000E+00 -0.13706182491E+04  0.13706182491E+04  0.50400001928E-02 0. -1.
    10030    2    1    2    0    0  0.00000000000E+00  0.00000000000E+00  0.70570258290E+03  0.34469390810E+04  0.33739254427E+04 0.  0.
        3    1    3    3  502    0 -0.13688693015E+04  0.91980755096E+03  0.71548925018E+03  0.17977135402E+04  0.10100000352E+00 0.  1.
       -3    1    3    3    0  502  0.13688693015E+04 -0.91980755096E+03 -0.97866672814E+01  0.16492255408E+04  0.10100000352E+00 0. -1.
</event>
<event>
 5   0  0.1277635E-06  0.3211873E+04  0.7818609E-02  0.8185689E-01
       -2   -1    0    0    0  501  0.00000000000E+00  0.00000000000E+00  0.12892038765E+04  0.12892038765E+04  0.25500000920E-02 0.  1.
        2   -1    0    0  501    0  0.00000000000E+00  0.00000000000E+00 -0.20004837185E+04  0.20004837185E+04  0.25500000920E-02 0. -1.
    10030    2    1    2    0    0  0.00000000000E+00  0.00000000000E+00 -0.71127984203E+03  0.32896875950E+04  0.32118725782E+04 0.  0.
        4    1    3    3  502    0  0.39896854237E+02 -0.16036941845E+04 -0.27897354431E+03  0.16282673759E+04  0.12699999809E+01 0.  1.
       -4    1    3    3    0  502 -0.39896854237E+02  0.16036941845E+04 -0.43230629772E+03  0.16614202190E+04  0.12699999809E+01 0. -1.
</event>
<event>
 5   0  0.1268230E-06  0.3392065E+04  0.7818609E-02  0.8139857E-01
       -2   -1    0    0    0  501  0.00000000000E+00  0.00000000000E+00  0.14483919190E+04  0.14483919190E+04  0.25500000920E-02 0.  1.
        2   -1    0    0  501    0  0.00000000000E+00  0.00000000000E+00 -0.19860136821E+04  0.19860136821E+04  0.25500000920E-02 0. -1.
    10030    2    1    2    0    0  0.00000000000E+00  0.00000000000E+00 -0.53762176306E+03  0.34344056011E+04  0.33920649571E+04 0.  0.
        2    1    3    3  502    0 -0.11075531385E+04 -0.34205592694E+03 -0.15223481387E+04  0.19134314900E+04  0.25500000920E-02 0. -1.
       -2    1    3    3    0  502  0.11075531385E+04  0.34205592694E+03  0.98472637564E+03  0.15209741111E+04  0.25500000920E-02 0.  1.
</event>
<event>
 5   0  0.4125758E-07  0.3370178E+04  0.7818609E-02  0.8145265E-01
       -1   -1    0    0    0  501  0.00000000000E+00  0.00000000000E+00  0.23995967296E+04  0.23995967296E+04  0.50400001928E-02 0. -1.
        1   -1    0    0  501    0  0.00000000000E+00  0.00000000000E+00 -0.11833344542E+04  0.11833344542E+04  0.50400001928E-02 0.  1.
    10030    2    1    2    0    0  0.00000000000E+00  0.00000000000E+00  0.12162622754E+04  0.35829311838E+04  0.33701783255E+04 0.  0.
        2    1    3    3  502    0 -0.56831000189E+03 -0.13244718172E+04  0.15363604477E+04  0.21065624315E+04  0.25500000920E-02 0. -1.
       -2    1    3    3    0  502  0.56831000189E+03  0.13244718172E+04 -0.32009817227E+03  0.14763687523E+04  0.25500000920E-02 0.  1.
</event>
<event>
 5   0  0.1268230E-06  0.3379787E+04  0.7818609E-02  0.8142885E-01
        2   -1    0    0  501    0  0.00000000000E+00  0.00000000000E+00  0.12894111236E+04  0.12894111236E+04  0.25500000920E-02 0. -1.
       -2   -1    0    0    0  501  0.00000000000E+00  0.00000000000E+00 -0.22147630073E+04  0.22147630073E+04  0.25500000920E-02 0.  1.
    10030    2    1    2    0    0  0.00000000000E+00  0.00000000000E+00 -0.92535188368E+03  0.35041741309E+04  0.33797870097E+04 0.  0.
        2    1    3    3  502    0  0.35393712184E+03 -0.79036305037E+03  0.10418662575E+04  0.13547806229E+04  0.25500000920E-02 0. -1.
       -2    1    3    3    0  502 -0.35393712184E+03  0.79036305037E+03 -0.19672181411E+04  0.21493935081E+04  0.25500000920E-02 0.  1.
</event>
<event>
 5   0  0.4125758E-07  0.3335887E+04  0.7818609E-02  0.8153824E-01
        1   -1    0    0  501    0  0.00000000000E+00  0.00000000000E+00  0.25754222954E+04  0.25754222954E+04  0.50400001928E-02 0. -1.
       -1   -1    0    0    0  501  0.00000000000E+00  0.00000000000E+00 -0.10802247218E+04  0.10802247218E+04  0.50400001928E-02 0.  1.
    10030    2    1    2    0    0  0.00000000000E+00  0.00000000000E+00  0.14951975735E+04  0.36556470172E+04  0.33358865884E+04 0.  0.
        2    1    3    3  502    0 -0.11402579984E+04  0.22854683666E+03 -0.56267545104E+03  0.12919077454E+04  0.25500000920E-02 0.  1.
       -2    1    3    3    0  502  0.11402579984E+04 -0.22854683666E+03  0.20578730246E+04  0.23637392718E+04  0.25500000920E-02 0. -1.
</event>
<event>
 5   0  0.4272633E-07  0.3361329E+04  0.7818609E-02  0.8147463E-01
        1   -1    0    0  501    0  0.00000000000E+00  0.00000000000E+00  0.11117584490E+04  0.11117584490E+04  0.50400001928E-02 0.  1.
       -1   -1    0    0    0  501  0.00000000000E+00  0.00000000000E+00 -0.25406889710E+04  0.25406889710E+04  0.50400001928E-02 0. -1.
    10030    2    1    2    0    0  0.00000000000E+00  0.00000000000E+00 -0.14289305220E+04  0.36524474200E+04  0.33613285645E+04 0.  0.
        1    1    3    3  502    0 -0.95152384222E+03  0.31757764592E+03  0.75079657932E+03  0.12529759324E+04  0.50400001928E-02 0.  1.
       -1    1    3    3    0  502  0.95152384222E+03 -0.31757764592E+03 -0.21797271013E+04  0.23994714876E+04  0.50400001928E-02 0. -1.
</event>
<event>
 5   0  0.1268230E-06  0.3476780E+04  0.7818609E-02  0.8119315E-01
        2   -1    0    0  501    0  0.00000000000E+00  0.00000000000E+00  0.25331470140E+04  0.25331470140E+04  0.25500000920E-02 0.  1.
       -2   -1    0    0    0  501  0.00000000000E+00  0.00000000000E+00 -0.11929823990E+04  0.11929823990E+04  0.25500000920E-02 0. -1.
    10030    2    1    2    0    0  0.00000000000E+00  0.00000000000E+00  0.13401646150E+04  0.37261294130E+04  0.34767800056E+04 0.  0.
        2    1    3    3  502    0  0.10561492922E+04  0.18944549367E+03 -0.79572884890E+03  0.13358612666E+04  0.25500000920E-02 0. -1.
       -2    1    3    3    0  502 -0.10561492922E+04 -0.18944549367E+03  0.21358934639E+04  0.23902681464E+04  0.25500000920E-02 0.  1.
</event>
<event>
 5   0  0.1277635E-06  0.3402500E+04  0.7818609E-02  0.8137293E-01
       -2   -1    0    0    0  501  0.00000000000E+00  0.00000000000E+00  0.98567954798E+03  0.98567954798E+03  0.25500000920E-02 0.  1.
        2   -1    0    0  501    0  0.00000000000E+00  0.00000000000E+00 -0.29363006518E+04  0.29363006518E+04  0.25500000920E-02 0. -1.
    10030    2    1    2    0    0  0.00000000000E+00  0.00000000000E+00 -0.19506211038E+04  0.39219801998E+04  0.34024999628E+04 0.  0.
        4    1    3    3  502    0 -0.34018579882E+03  0.93072242795E+03  0.61866966238E+03  0.11682141840E+04  0.12699999809E+01 0.  1.
       -4    1    3    3    0  502  0.34018579882E+03 -0.93072242795E+03 -0.25692907662E+04  0.27537660158E+04  0.12699999809E+01 0. -1.
</event>
<event>
 5   0  0.1300176E-06  0.3409462E+04  0.7818609E-02  0.8135588E-01
       -2   -1    0    0    0  501  0.00000000000E+00  0.00000000000E+00  0.12568435233E+04  0.12568435233E+04  0.25500000920E-02 0. -1.
        2   -1    0    0  501    0  0.00000000000E+00  0.00000000000E+00 -0.23122277100E+04  0.23122277100E+04  0.25500000920E-02 0.  1.
    10030    2    1    2    0    0  0.00000000000E+00  0.00000000000E+00 -0.10553841867E+04  0.35690712333E+04  0.34094623750E+04 0.  0.
        1    1    3    3  502    0 -0.36669969707E+03 -0.72666587985E+03  0.10402921209E+04  0.13208783690E+04  0.50400001928E-02 0. -1.
       -1    1    3    3    0  502  0.36669969707E+03  0.72666587985E+03 -0.20956763076E+04  0.22481928643E+04  0.50400001928E-02 0.  1.
</event>
<event>
 5   0  0.1300176E-06  0.3459540E+04  0.7818609E-02  0.8123446E-01
        2   -1    0    0  501    0  0.00000000000E+00  0.00000000000E+00  0.15647343184E+04  0.15647343184E+04  0.25500000920E-02 0. -1.
       -2   -1    0    0    0  501  0.00000000000E+00  0.00000000000E+00 -0.19122125358E+04  0.19122125358E+04  0.25500000920E-02 0.  1.
    10030    2    1    2    0    0  0.00000000000E+00  0.00000000000E+00 -0.34747821740E+03  0.34769468542E+04  0.34595401884E+04 0.  0.
        1    1    3    3  502    0 -0.27261954660E+03 -0.10337823899E+04 -0.15403887327E+04  0.18750533045E+04  0.50400001928E-02 0.  1.
       -1    1    3    3    0  502  0.27261954660E+03  0.10337823899E+04  0.11929105153E+04  0.16018935497E+04  0.50400001928E-02 0. -1.
</event>
<event>
 5   0  0.4125758E-07  0.3394239E+04  0.7818609E-02  0.8139322E-01
       -1   -1    0    0    0  501  0.00000000000E+00  0.00000000000E+00  0.10187669598E+04  0.10187669598E+04  0.50400001928E-02 0.  1.
        1   -1    0    0  501    0  0.00000000000E+00  0.00000000000E+00 -0.28271574406E+04  0.28271574406E+04  0.50400001928E-02 0. -1.
    10030    2    1    2    0    0  0.00000000000E+00  0.00000000000E+00 -0.18083904808E+04  0.38459244004E+04  0.33942389961E+04 0.  0.
        2    1    3    3  502    0 -0.47743805530E+03  0.11590965373E+04  0.39205479323E+03  0.13134530218E+04  0.25500000920E-02 0.  1.
       -2    1    3    3    0  502  0.47743805530E+03 -0.11590965373E+04 -0.22004452740E+04  0.25324713786E+04  0.25500000920E-02 0. -1.
</event>
<event>
 5   0  0.4125758E-07  0.3418102E+04  0.7818609E-02  0.8133478E-01
        1   -1    0    0  501    0  0.00000000000E+00  0.00000000000E+00  0.15073385023E+04  0.15073385023E+04  0.50400001928E-02 0.  1.
       -1   -1    0    0    0  501  0.00000000000E+00  0.00000000000E+00 -0.19377563335E+04  0.19377563335E+04  0.50400001928E-02 0. -1.
    10030    2    1    2    0    0  0.00000000000E+00  0.00000000000E+00 -0.43041783118E+03  0.34450948358E+04  0.34181016542E+04 0.  0.
        2    1    3    3  502    0 -0.57373523395E+03 -0.46897240182E+03 -0.17674187567E+04  0.19164749657E+04  0.25500000920E-02 0. -1.
       -2    1    3    3    0  502  0.57373523395E+03  0.46897240182E+03  0.13370009256E+04  0.15286198701E+04  0.25500000920E-02 0.  1.
</event>
<event>
 5   0  0.1300176E-06  0.3426819E+04  0.7818609E-02  0.8131355E-01
       -2   -1    0    0    0  501  0.00000000000E+00  0.00000000000E+00  0.18920127668E+04  0.18920127668E+04  0.25500000920E-02 0. -1.
        2   -1    0    0  501    0  0.00000000000E+00  0.00000000000E+00 -0.15516658232E+04  0.15516658233E+04  0.25500000920E-02 0.  1.
    10030    2    1    2    0    0  0.00000000000E+00  0.00000000000E+00  0.34034694356E+03  0.34436785901E+04  0.34268186689E+04 0.  0.
        1    1    3    3  502    0 -0.12200033474E+03  0.16891963207E+04 -0.90918697288E+02  0.16960349351E+04  0.50400001928E-02 0. -1.
       -1    1    3    3    0  502  0.12200033474E+03 -0.16891963207E+04  0.43126564085E+03  0.17476436549E+04  0.50400001928E-02 0.  1.
</event>
<event>
 5   0  0.1269497E-06  0.3313302E+04  0.7818609E-02  0.8159519E-01
       -2   -1    0    0    0  501  0.00000000000E+00  0.00000000000E+00  0.15694171345E+04  0.15694171345E+04  0.25500000920E-02 0.  1.
        2   -1    0    0  501    0  0.00000000000E+00  0.00000000000E+00 -0.17487338475E+04  0.17487338475E+04  0.25500000920E-02 0. -1.
    10030    2    1    2    0    0  0.00000000000E+00  0.00000000000E+00 -0.17931671300E+03  0.33181509820E+04  0.33133021981E+04 0.  0.
        5    1    3    3  502    0 -0.51381542855E+03 -0.97074401117E+03  0.11523664822E+04  0.15919550336E+04  0.46999998093E+01 0.  1.
       -5    1    3    3    0  502  0.51381542855E+03  0.97074401117E+03 -0.13316831952E+04  0.17261959484E+04  0.46999998093E+01 0. -1.
</event>
<event>
 5   0  0.1277635E-06  0.3395449E+04  0.7818609E-02  0.8139024E-01
        2   -1    0    0  501    0  0.00000000000E+00  0.00000000000E+00  0.11686515974E+04  0.11686515974E+04  0.25500000920E-02 0.  1.
       -2   -1    0    0    0  501  0.00000000000E+00  0.00000000000E+00 -0.24663196914E+04  0.24663196914E+04  0.25500000920E-02 0. -1.
    10030    2    1    2    0    0  0.00000000000E+00  0.00000000000E+00 -0.12976680940E+04  0.36349712888E+04  0.33954489818E+04 0.  0.
        4    1    3    3  502    0 -0.89707356099E+03 -0.10568013886E+04  0.40045930585E+03  0.14428927255E+04  0.12699999809E+01 0.  1.
       -4    1    3    3    0  502  0.89707356099E+03  0.10568013886E+04 -0.16981273999E+04  0.21920785633E+04  0.12699999809E+01 0. -1.
</event>
<event>
 5   0  0.4272633E-07  0.3422573E+04  0.7818609E-02  0.8132388E-01
       -1   -1    0    0    0  501  0.00000000000E+00  0.00000000000E+00  0.13302935543E+04  0.13302935543E+04  0.50400001928E-02 0. -1.
        1   -1    0    0  501    0  0.00000000000E+00  0.00000000000E+00 -0.22013945670E+04  0.22013945670E+04  0.50400001928E-02 0.  1.
    10030    2    1    2    0    0  0.00000000000E+00  0.00000000000E+00 -0.87110101263E+03  0.35316881213E+04  0.34225727183E+04 0.  0.
        1    1    3    3  502    0 -0.14756357840E+04  0.50270269710E+03  0.29285087562E+03  0.15861817690E+04  0.50400001928E-02 0. -1.
       -1    1    3    3    0  502  0.14756357840E+04 -0.50270269710E+03 -0.11639518883E+04  0.19455063523E+04  0.50400001928E-02 0.  1.
</event>
<event>
 5   0  0.1256208E-06  0.3245004E+04  0.7818609E-02  0.8177032E-01
       -2   -1    0    0    0  501  0.00000000000E+00  0.00000000000E+00  0.11770981499E+04  0.11770981499E+04  0.25500000920E-02 0. -1.
        2   -1    0    0  501    0  0.00000000000E+00  0.00000000000E+00 -0.22364424093E+04  0.22364424093E+04  0.25500000920E-02 0.  1.
    10030    2    1    2    0    0  0.00000000000E+00  0.00000000000E+00 -0.10593442594E+04  0.34135405593E+04  0.32450036810E+04 0.  0.
        3    1    3    3  502    0 -0.13521510172E+04 -0.54711571618E+03 -0.12771135745E+04  0.19387282101E+04  0.10100000352E+00 0.  1.
       -3    1    3    3    0  502  0.13521510172E+04  0.54711571618E+03  0.21776931512E+03  0.14748123491E+04  0.10100000352E+00 0. -1.
</event>
<event>
 5   0  0.1300176E-06  0.3347133E+04  0.7818609E-02  0.8151005E-01
       -2   -1    0    0    0  501  0.00000000000E+00  0.00000000000E+00  0.22299359668E+04  0.22299359668E+04  0.25500000920E-02 0. -1.
        2   -1    0    0  501    0  0.00000000000E+00  0.00000000000E+00 -0.12560116060E+04  0.12560116060E+04  0.25500000920E-02 0.  1.
    10030    2    1    2    0    0  0.00000000000E+00  0.00000000000E+00  0.97392436080E+03  0.34859475729E+04  0.33471333736E+04 0.  0.
        1    1    3    3  502    0 -0.55489647349E+03 -0.40711057173E+03 -0.11018131206E+04  0.12990924781E+04  0.50400001928E-02 0.  1.
       -1    1    3    3    0  502  0.55489647349E+03  0.40711057173E+03  0.20757374814E+04  0.21868550948E+04  0.50400001928E-02 0. -1.
</event>
<event>
 5   0  0.4289684E-07  0.3415905E+04  0.7818609E-02  0.8134014E-01
       -1   -1    0    0    0  501  0.00000000000E+00  0.00000000000E+00  0.20973039253E+04  0.20973039253E+04  0.50400001928E-02 0. -1.
        1   -1    0    0  501    0  0.00000000000E+00  0.00000000000E+00 -0.13908819358E+04  0.13908819358E+04  0.50400001928E-02 0.  1.
    10030    2    1    2    0    0  0.00000000000E+00  0.00000000000E+00  0.70642198949E+03  0.34881858612E+04  0.34159052350E+04 0.  0.
        4    1    3    3  502    0  0.56146721432E+03  0.46165321471E+03  0.19314670470E+04  0.20637188980E+04  0.12699999809E+01 0. -1.
       -4    1    3    3    0  502 -0.56146721432E+03 -0.46165321471E+03 -0.12250450575E+04  0.14244669632E+04  0.12699999809E+01 0.  1.
</event>
<event>
 5   0  0.1256208E-06  0.3413815E+04  0.7818609E-02  0.8134524E-01
       -2   -1    0    0    0  501  0.00000000000E+00  0.00000000000E+00  0.20649434700E+04  0.20649434700E+04  0.25500000920E-02 0. -1.
        2   -1    0    0  501    0  0.00000000000E+00  0.00000000000E+00 -0.14109508531E+04  0.14109508531E+04  0.25500000920E-02 0.  1.
    10030    2    1    2    0    0  0.00000000000E+00  0.00000000000E+00  0.65399261683E+03  0.34758943231E+04  0.34138153146E+04 0.  0.
        3    1    3    3  502    0  0.14020391595E+03 -0.10782002587E+04 -0.10127431009E+04  0.14858739969E+04  0.10100000352E+00 0.  1.
       -3    1    3    3    0  502 -0.14020391595E+03  0.10782002587E+04  0.16667357177E+04  0.19900203262E+04  0.10100000352E+00 0. -1.
</event>
<event>
 5   0  0.1300176E-06  0.3385172E+04  0.7818609E-02  0.8141555E-01
        2   -1    0    0  501    0  0.00000000000E+00  0.00000000000E+00  0.22298557936E+04  0.22298557936E+04  0.25500000920E-02 0. -1.
       -2   -1    0    0    0  501  0.00000000000E+00  0.00000000000E+00 -0.12847677331E+04  0.12847677331E+04  0.25500000920E-02 0.  1.
    10030    2    1    2    0    0  0.00000000000E+00  0.00000000000E+00  0.94508806054E+03  0.35146235267E+04  0.33851716488E+04 0.  0.
        1    1    3    3  502    0  0.11235292452E+04  0.47353405186E+03  0.16914468971E+04  0.20850767537E+04  0.50400001928E-02 0. -1.
       -1    1    3    3    0  502 -0.11235292452E+04 -0.47353405186E+03 -0.74635883653E+03  0.14295467730E+04  0.50400001928E-02 0.  1.
</event>
<event>
 5   0  0.4125758E-07  0.3460724E+04  0.7818609E-02  0.8123161E-01
        1   -1    0    0  501    0  0.00000000000E+00  0.00000000000E+00  0.24838858744E+04  0.24838858744E+04  0.50400001928E-02 0.  1.
       -1   -1    0    0    0  501  0.00000000000E+00  0.00000000000E+00 -0.12054307533E+04  0.12054307533E+04  0.50400001928E-02 0. -1.
    10030    2    1    2    0    0  0.00000000000E+00  0.00000000000E+00  0.12784551211E+04  0.36893166278E+04  0.34607238669E+04 0.  0.
        2    1    3    3  502    0  0.12417128872E+03 -0.15330857506E+04 -0.20583886362E+03  0.15518183094E+04  0.25500000920E-02 0. -1.
       -2    1    3    3    0  502 -0.12417128872E+03  0.15330857506E+04  0.14842939847E+04  0.21374983183E+04  0.25500000920E-02 0.  1.
</event>
<event>
 5   0  0.1269497E-06  0.3322108E+04  0.7818609E-02  0.8157293E-01
        2   -1    0    0  501    0  0.00000000000E+00  0.00000000000E+00  0.20023510646E+04  0.20023510646E+04  0.25500000920E-02 0. -1.
       -2   -1    0    0    0  501  0.00000000000E+00  0.00000000000E+00 -0.13779305801E+04  0.13779305801E+04  0.25500000920E-02 0.  1.
    10030    2    1    2    0    0  0.00000000000E+00  0.00000000000E+00  0.62442048450E+03  0.33802816448E+04  0.33221082247E+04 0.  0.
        5    1    3    3  502    0  0.14442509607E+04 -0.16692739397E+03 -0.50519572699E+03  0.15391459986E+04  0.46999998093E+01 0.  1.
       -5    1    3    3    0  502 -0.14442509607E+04  0.16692739397E+03  0.11296162115E+04  0.18411356462E+04  0.46999998093E+01 0. -1.
</event>
<event>
 5   0  0.4272633E-07  0.3411261E+04  0.7818609E-02  0.8135148E-01
       -1   -1    0    0    0  501  0.00000000000E+00  0.00000000000E+00  0.11359637984E+04  0.11359637984E+04  0.50400001928E-02 0.  1.
        1   -1    0    0  501    0  0.00000000000E+00  0.00000000000E+00 -0.25609751093E+04  0.25609751093E+04  0.50400001928E-02 0. -1.
    10030    2    1    2    0    0  0.00000000000E+00  0.00000000000E+00 -0.14250113109E+04  0.36969389078E+04  0.34112607716E+04 0.  0.
        1    1    3    3  502    0 -0.11263598264E+04  0.38383997353E+03  0.61177447428E+03  0.13380162896E+04  0.50400001928E-02 0.  1.
       -1    1    3    3    0  502  0.11263598264E+04 -0.38383997353E+03 -0.20367857852E+04  0.23589226182E+04  0.50400001928E-02 0. -1.
</event>
<event>
 5   0  0.1300176E-06  0.3336632E+04  0.7818609E-02  0.8153636E-01
        2   -1    0    0  501    0  0.00000000000E+00  0.00000000000E+00  0.25776013693E+04  0.25776013693E+04  0.25500000920E-02 0.  1.
       -2   -1    0    0    0  501  0.00000000000E+00  0.00000000000E+00 -0.10797937499E+04  0.10797937499E+04  0.25500000920E-02 0. -1.
    10030    2    1    2    0    0  0.00000000000E+00  0.00000000000E+00  0.14978076194E+04  0.36573951193E+04  0.33366317438E+04 0.  0.
        1    1    3    3  502    0 -0.30361792742E+03  0.15616364850E+04  0.19822825702E+03  0.16031802141E+04  0.50400001928E-02 0. -1.
       -1    1    3    3    0  502  0.30361792742E+03 -0.15616364850E+04  0.12995793624E+04  0.20542149051E+04  0.50400001928E-02 0.  1.
</event>
<event>
 5   0  0.1268230E-06  0.3373775E+04  0.7818609E-02  0.8144373E-01
       -2   -1    0    0    0  501  0.00000000000E+00  0.00000000000E+00  0.23757051491E+04  0.23757051491E+04  0.25500000920E-02 0. -1.
        2   -1    0    0  501    0  0.00000000000E+00  0.00000000000E+00 -0.11977869492E+04  0.11977869492E+04  0.25500000920E-02 0.  1.
    10030    2    1    2    0    0  0.00000000000E+00  0.00000000000E+00  0.11779182000E+04  0.35734920983E+04  0.33737745169E+04 0.  0.
        2    1    3    3  502    0  0.54375497733E+03 -0.26893671724E+03  0.22561743887E+04  0.23363046260E+04  0.25500000920E-02 0. -1.
       -2    1    3    3    0  502 -0.54375497733E+03  0.26893671724E+03 -0.10782561887E+04  0.12371874724E+04  0.25500000920E-02 0.  1.
</event>
<event>
 5   0  0.4060750E-07  0.3407847E+04  0.7818609E-02  0.8135983E-01
       -3   -1    0    0    0  501  0.00000000000E+00  0.00000000000E+00  0.10842013109E+04  0.10842013156E+04  0.10100000352E+00 0.  1.
        3   -1    0    0  501    0  0.00000000000E+00  0.00000000000E+00 -0.26778739466E+04  0.26778739485E+04  0.10100000352E+00 0. -1.
    10030    2    1    2    0    0  0.00000000000E+00  0.00000000000E+00 -0.15936726356E+04  0.37620752641E+04  0.34078465082E+04 0.  0.
        4    1    3    3  502    0 -0.22167536032E+03 -0.48689065159E+03 -0.25827554602E+04  0.26375803025E+04  0.12699999809E+01 0. -1.
       -4    1    3    3    0  502  0.22167536032E+03  0.48689065159E+03  0.98908282456E+03  0.11244949616E+04  0.12699999809E+01 0.  1.
</event>
<event>
 5   0  0.4464951E-07  0.3393606E+04  0.7818609E-02  0.8139477E-01
       -1   -1    0    0    0  501  0.00000000000E+00  0.00000000000E+00  0.13146263401E+04  0.13146263401E+04  0.50400001928E-02 0.  1.
        1   -1    0    0  501    0  0.00000000000E+00  0.00000000000E+00 -0.21900831931E+04  0.21900831931E+04  0.50400001928E-02 0. -1.
    10030    2    1    2    0    0  0.00000000000E+00  0.00000000000E+00 -0.87545685295E+03  0.35047095332E+04  0.33936063724E+04 0.  0.
        3    1    3    3  502    0 -0.53028063691E+03  0.33819526890E+02  0.12264879517E+04  0.13366428170E+04  0.10100000352E+00 0.  1.
       -3    1    3    3    0  502  0.53028063691E+03 -0.33819526890E+02 -0.21019448046E+04  0.21680667163E+04  0.10100000352E+00 0. -1.
</event>
<event>
 5   0  0.1256208E-06  0.3423867E+04  0.7818609E-02  0.8132073E-01
       -2   -1    0    0    0  501  0.00000000000E+00  0.00000000000E+00  0.14333099100E+04  0.14333099100E+04  0.25500000920E-02 0. -1.
        2   -1    0    0  501    0  0.00000000000E+00  0.00000000000E+00 -0.20447186574E+04  0.20447186574E+04  0.25500000920E-02 0.  1.
    10030    2    1    2    0    0  0.00000000000E+00  0.00000000000E+00 -0.61140874739E+03  0.34780285675E+04  0.34238665365E+04 0.  0.
        3    1    3    3  502    0  0.43539935114E+03  0.10789055267E+04  0.96999025922E+03  0.15147576848E+04  0.10100000352E+00 0. -1.
       -3    1    3    3    0  502 -0.43539935114E+03 -0.10789055267E+04 -0.15813990066E+04  0.19632708827E+04  0.10100000352E+00 0.  1.
</event>
<event>
 5   0  0.1269497E-06  0.3330926E+04  0.7818609E-02  0.8155070E-01
        2   -1    0    0  501    0  0.00000000000E+00  0.00000000000E+00  0.20458440874E+04  0.20458440874E+04  0.25500000920E-02 0.  1.
       -2   -1    0    0    0  501  0.00000000000E+00  0.00000000000E+00 -0.13558058483E+04  0.13558058483E+04  0.25500000920E-02 0. -1.
    10030    2    1    2    0    0  0.00000000000E+00  0.00000000000E+00  0.69003823916E+03  0.34016499357E+04  0.33309262246E+04 0.  0.
        5    1    3    3  502    0 -0.60170184518E+03  0.13881913988E+04  0.10559500837E+04  0.18450401458E+04  0.46999998093E+01 0.  1.
       -5    1    3    3    0  502  0.60170184518E+03 -0.13881913988E+04 -0.36591184451E+03  0.15566097900E+04  0.46999998093E+01 0. -1.
</event>
<event>
 5   0  0.4060750E-07  0.3349685E+04  0.7818609E-02  0.8150367E-01
        3   -1    0    0  501    0  0.00000000000E+00  0.00000000000E+00  0.31970740809E+04  0.31970740825E+04  0.10100000352E+00 0.  1.
       -3   -1    0    0    0  501  0.00000000000E+00  0.00000000000E+00 -0.87739534546E+03  0.87739535127E+03  0.10100000352E+00 0. -1.
    10030    2    1    2    0    0  0.00000000000E+00  0.00000000000E+00  0.23196787355E+04  0.40744694338E+04  0.33496853182E+04 0.  0.
        4    1    3    3  502    0  0.15348814641E+04  0.64478783380E+03  0.13824186898E+04  0.21639536747E+04  0.12699999809E+01 0. -1.
       -4    1    3    3    0  502 -0.15348814641E+04 -0.64478783380E+03  0.93726004562E+03  0.19105157590E+04  0.12699999809E+01 0.  1.
</event>
<event>
 5   0  0.1300176E-06  0.3446398E+04  0.7818609E-02  0.8126612E-01
        2   -1    0    0  501    0  0.00000000000E+00  0.00000000000E+00  0.26802918332E+04  0.26802918332E+04  0.25500000920E-02 0. -1.
       -2   -1    0    0    0  501  0.00000000000E+00  0.00000000000E+00 -0.11078702650E+04  0.11078702650E+04  0.25500000920E-02 0.  1.
    10030    2    1    2    0    0  0.00000000000E+00  0.00000000000E+00  0.15724215682E+04  0.37881620982E+04  0.34463984816E+04 0.  0.
        1    1    3    3  502    0 -0.93507383595E+03 -0.73231985957E+02  0.23751378286E+04  0.25536259921E+04  0.50400001928E-02 0. -1.
       -1    1    3    3    0  502  0.93507383595E+03  0.73231985957E+02 -0.80271626047E+03  0.12345361061E+04  0.50400001928E-02 0.  1.
</event>
<event>
 5   0  0.4272633E-07  0.3398764E+04  0.7818609E-02  0.8138210E-01
        1   -1    0    0  501    0  0.00000000000E+00  0.00000000000E+00  0.21408047816E+04  0.21408047816E+04  0.50400001928E-02 0. -1.
       -1   -1    0    0    0  501  0.00000000000E+00  0.00000000000E+00 -0.13489780909E+04  0.13489780910E+04  0.50400001928E-02 0.  1.
    10030    2    1    2    0    0  0.00000000000E+00  0.00000000000E+00  0.79182669066E+03  0.34897828726E+04  0.33987637443E+04 0.  0.
        1    1    3    3  502    0  0.31876678318E+03  0.15141303185E+03 -0.13109400049E+04  0.13576088777E+04  0.50400001928E-02 0.  1.
       -1    1    3    3    0  502 -0.31876678318E+03 -0.15141303185E+03  0.21027666956E+04  0.21321739949E+04  0.50400001928E-02 0. -1.
</event>
<event>
 5   0  0.1256208E-06  0.3409581E+04  0.7818609E-02  0.8135559E-01
       -2   -1    0    0    0  501  0.00000000000E+00  0.00000000000E+00  0.19431406690E+04  0.19431406690E+04  0.25500000920E-02 0. -1.
        2   -1    0    0  501    0  0.00000000000E+00  0.00000000000E+00 -0.14956769316E+04  0.14956769316E+04  0.25500000920E-02 0.  1.
    10030    2    1    2    0    0  0.00000000000E+00  0.00000000000E+00  0.44746373739E+03  0.34388176006E+04  0.34095810145E+04 0.  0.
        3    1    3    3  502    0  0.21646182711E+03 -0.93177330335E+03  0.16469497698E+04  0.19045998965E+04  0.10100000352E+00 0. -1.
       -3    1    3    3    0  502 -0.21646182711E+03  0.93177330335E+03 -0.11994860324E+04  0.15342177041E+04  0.10100000352E+00 0.  1.
</event>
<event>
 5   0  0.1277635E-06  0.3430839E+04  0.7818609E-02  0.8130379E-01
        2   -1    0    0  501    0  0.00000000000E+00  0.00000000000E+00  0.29505756367E+04  0.29505756367E+04  0.25500000920E-02 0.  1.
       -2   -1    0    0    0  501  0.00000000000E+00  0.00000000000E+00 -0.99731890686E+03  0.99731890687E+03  0.25500000920E-02 0. -1.
    10030    2    1    2    0    0  0.00000000000E+00  0.00000000000E+00  0.19532567298E+04  0.39478945435E+04  0.34308394708E+04 0.  0.
        4    1    3    3  502    0 -0.67613733654E+03  0.61415269363E+03 -0.69420525902E+03  0.11472871408E+04  0.12699999809E+01 0. -1.
       -4    1    3    3    0  502  0.67613733654E+03 -0.61415269363E+03  0.26474619888E+04  0.28006074027E+04  0.12699999809E+01 0.  1.
</event>
<event>
 5   0  0.1268230E-06  0.3336755E+04  0.7818609E-02  0.8153606E-01
        2   -1    0    0  501    0  0.00000000000E+00  0.00000000000E+00  0.21594702025E+04  0.21594702025E+04  0.25500000920E-02 0. -1.
       -2   -1    0    0    0  501  0.00000000000E+00  0.00000000000E+00 -0.12889660471E+04  0.12889660471E+04  0.25500000920E-02 0.  1.
    10030    2    1    2    0    0  0.00000000000E+00  0.00000000000E+00  0.87050415544E+03  0.34484362496E+04  0.33367551727E+04 0.  0.
        2    1    3    3  502    0  0.67451000978E+03  0.91571763701E+03 -0.82625083477E+03  0.14057713135E+04  0.25500000920E-02 0.  1.
       -2    1    3    3    0  502 -0.67451000978E+03 -0.91571763701E+03  0.16967549902E+04  0.20426649360E+04  0.25500000920E-02 0. -1.
</event>
<event>
 5   0  0.1268230E-06  0.3386952E+04  0.7818609E-02  0.8141116E-01
        2   -1    0    0  501    0  0.00000000000E+00  0.00000000000E+00  0.20857245474E+04  0.20857245474E+04  0.25500000920E-02 0.  1.
       -2   -1    0    0    0  501  0.00000000000E+00  0.00000000000E+00 -0.13749953100E+04  0.13749953101E+04  0.25500000920E-02 0. -1.
    10030    2    1    2    0    0  0.00000000000E+00  0.00000000000E+00  0.71072923732E+03  0.34607198574E+04  0.33869523000E+04 0.  0.
        2    1    3    3  502    0  0.54736993100E+03  0.12896618856E+04 -0.61668048506E+03  0.15307306886E+04  0.25500000920E-02 0. -1.
       -2    1    3    3    0  502 -0.54736993100E+03 -0.12896618856E+04  0.13274097224E+04  0.19299891688E+04  0.25500000920E-02 0.  1.
</event>
<event>
 5   0  0.1300176E-06  0.2823480E+04  0.7818609E-02  0.8296016E-01
        2   -1    0    0  501    0  0.00000000000E+00  0.00000000000E+00  0.14632398405E+04  0.14632398405E+04  0.25500000920E-02 0. -1.
       -2   -1    0    0    0  501  0.00000000000E+00  0.00000000000E+00 -0.13620526590E+04  0.13620526590E+04  0.25500000920E-02 0.  1.
    10030    2    1    2    0    0  0.00000000000E+00  0.00000000000E+00  0.10118718147E+03  0.28252924995E+04  0.28234799206E+04 0.  0.
        1    1    3    3  502    0 -0.10164890961E+04  0.43231711356E+03  0.93028340359E+03  0.14441521320E+04  0.50400001928E-02 0. -1.
       -1    1    3    3    0  502  0.10164890961E+04 -0.43231711356E+03 -0.82909622212E+03  0.13811403675E+04  0.50400001928E-02 0.  1.
</event>
<event>
 5   0  0.4060750E-07  0.3411228E+04  0.7818609E-02  0.8135156E-01
       -3   -1    0    0    0  501  0.00000000000E+00  0.00000000000E+00  0.27284128229E+04  0.27284128247E+04  0.10100000352E+00 0.  1.
        3   -1    0    0  501    0  0.00000000000E+00  0.00000000000E+00 -0.10662310361E+04  0.10662310409E+04  0.10100000352E+00 0. -1.
    10030    2    1    2    0    0  0.00000000000E+00  0.00000000000E+00  0.16621817868E+04  0.37946438656E+04  0.34112276052E+04 0.  0.
        4    1    3    3  502    0 -0.16266649266E+04 -0.49130442792E+03  0.99494987102E+03  0.19690976825E+04  0.12699999809E+01 0. -1.
       -4    1    3    3    0  502  0.16266649266E+04  0.49130442792E+03  0.66723191577E+03  0.18255461831E+04  0.12699999809E+01 0.  1.
</event>
<event>
 5   0  0.4272633E-07  0.3406013E+04  0.7818609E-02  0.8136432E-01
        1   -1    0    0  501    0  0.00000000000E+00  0.00000000000E+00  0.24406062528E+04  0.24406062528E+04  0.50400001928E-02 0.  1.
       -1   -1    0    0    0  501  0.00000000000E+00  0.00000000000E+00 -0.11883240364E+04  0.11883240364E+04  0.50400001928E-02 0. -1.
    10030    2    1    2    0    0  0.00000000000E+00  0.00000000000E+00  0.12522822164E+04  0.36289302892E+04  0.34060129616E+04 0.  0.
        1    1    3    3  502    0  0.10576258612E+04  0.11903697071E+04  0.12695505827E+04  0.20364948279E+04  0.50400001928E-02 0.  1.
       -1    1    3    3    0  502 -0.10576258612E+04 -0.11903697071E+04 -0.17268366301E+02  0.15924354613E+04  0.50400001928E-02 0. -1.
</event>
<event>
 5   0  0.1300176E-06  0.3441345E+04  0.7818609E-02  0.8127833E-01
        2   -1    0    0  501    0  0.00000000000E+00  0.00000000000E+00  0.24899124971E+04  0.24899124971E+04  0.25500000920E-02 0.  1.
       -2   -1    0    0    0  501  0.00000000000E+00  0.00000000000E+00 -0.11890834901E+04  0.11890834901E+04  0.25500000920E-02 0. -1.
    10030    2    1    2    0    0  0.00000000000E+00  0.00000000000E+00  0.13008290069E+04  0.36789959872E+04  0.34413449941E+04 0.  0.
        1    1    3    3  502    0  0.13155698483E+04 -0.60960226867E+02  0.18342593899E+04  0.22580849595E+04  0.50400001928E-02 0.  1.
       -1    1    3    3    0  502 -0.13155698483E+04  0.60960226867E+02 -0.53343038292E+03  0.14209110277E+04  0.50400001928E-02 0. -1.
</event>
<event>
 5   0  0.4125758E-07  0.3440103E+04  0.7818609E-02  0.8128133E-01
        1   -1    0    0  501    0  0.00000000000E+00  0.00000000000E+00  0.21787278929E+04  0.21787278929E+04  0.50400001928E-02 0. -1.
       -1   -1    0    0    0  501  0.00000000000E+00  0.00000000000E+00 -0.13579381342E+04  0.13579381342E+04  0.50400001928E-02 0.  1.
    10030    2    1    2    0    0  0.00000000000E+00  0.00000000000E+00  0.82078975869E+03  0.35366660270E+04  0.34401033064E+04 0.  0.
        2    1    3    3  502    0 -0.85668909666E+03  0.10930004164E+04 -0.63298778759E+03  0.15261846736E+04  0.25500000920E-02 0.  1.
       -2    1    3    3    0  502  0.85668909666E+03 -0.10930004164E+04  0.14537775463E+04  0.20104813535E+04  0.25500000920E-02 0. -1.
</event>
<event>
 5   0  0.4109937E-07  0.3399026E+04  0.7818609E-02  0.8138145E-01
       -1   -1    0    0    0  501  0.00000000000E+00  0.00000000000E+00  0.27446930209E+04  0.27446930209E+04  0.50400001928E-02 0.  1.
        1   -1    0    0  501    0  0.00000000000E+00  0.00000000000E+00 -0.10523377979E+04  0.10523377979E+04  0.50400001928E-02 0. -1.
    10030    2    1    2    0    0  0.00000000000E+00  0.00000000000E+00  0.16923552231E+04  0.37970308188E+04  0.33990258661E+04 0.  0.
        5    1    3    3  502    0 -0.96588303689E+03 -0.12504321999E+04  0.15454206998E+04  0.22101714768E+04  0.46999998093E+01 0.  1.
       -5    1    3    3    0  502  0.96588303689E+03  0.12504321999E+04  0.14693452329E+03  0.15868593421E+04  0.46999998093E+01 0. -1.
</event>
<event>
 5   0  0.4289684E-07  0.3426881E+04  0.7818609E-02  0.8131340E-01
        1   -1    0    0  501    0  0.00000000000E+00  0.00000000000E+00  0.14452156695E+04  0.14452156695E+04  0.50400001928E-02 0.  1.
       -1   -1    0    0    0  501  0.00000000000E+00  0.00000000000E+00 -0.20314470413E+04  0.20314470413E+04  0.50400001928E-02 0. -1.
    10030    2    1    2    0    0  0.00000000000E+00  0.00000000000E+00 -0.58623137180E+03  0.34766627109E+04  0.34268814371E+04 0.  0.
        4    1    3    3  502    0  0.10342322646E+04  0.10571259525E+04  0.58474355983E+03  0.15903076118E+04  0.12699999809E+01 0.  1.
       -4    1    3    3    0  502 -0.10342322646E+04 -0.10571259525E+04 -0.11709749316E+04  0.18863550991E+04  0.12699999809E+01 0. -1.
</event>
<event>
 5   0  0.1300176E-06  0.3552290E+04  0.7818609E-02  0.8101508E-01
        2   -1    0    0  501    0  0.00000000000E+00  0.00000000000E+00  0.15573365016E+04  0.15573365016E+04  0.25500000920E-02 0.  1.
       -2   -1    0    0    0  501  0.00000000000E+00  0.00000000000E+00 -0.20256969100E+04  0.20256969100E+04  0.25500000920E-02 0. -1.
    10030    2    1    2    0    0  0.00000000000E+00  0.00000000000E+00 -0.46836040844E+03  0.35830334116E+04  0.35522903818E+04 0.  0.
        1    1    3    3  502    0 -0.10313003755E+04 -0.45607375490E+03  0.11499597745E+04  0.16105872275E+04  0.50400001928E-02 0.  1.
       -1    1    3    3    0  502  0.10313003755E+04  0.45607375490E+03 -0.16183201830E+04  0.19724461841E+04  0.50400001928E-02 0. -1.
</event>
<event>
 5   0  0.4125758E-07  0.3307043E+04  0.7818609E-02  0.8161106E-01
       -1   -1    0    0    0  501  0.00000000000E+00  0.00000000000E+00  0.10378911625E+04  0.10378911625E+04  0.50400001928E-02 0.  1.
        1   -1    0    0  501    0  0.00000000000E+00  0.00000000000E+00 -0.26343160460E+04  0.26343160460E+04  0.50400001928E-02 0. -1.
    10030    2    1    2    0    0  0.00000000000E+00  0.00000000000E+00 -0.15964248835E+04  0.36722072086E+04  0.33070429955E+04 0.  0.
        2    1    3    3  502    0 -0.78460668464E+01 -0.14436750897E+04 -0.16933750328E+04  0.22252591595E+04  0.25500000920E-02 0. -1.
       -2    1    3    3    0  502  0.78460668464E+01  0.14436750897E+04  0.96950149256E+02  0.14469480491E+04  0.25500000920E-02 0.  1.
</event>
<event>
 5   0  0.4109937E-07  0.3412175E+04  0.7818609E-02  0.8134925E-01
        1   -1    0    0  501    0  0.00000000000E+00  0.00000000000E+00  0.10619507096E+04  0.10619507096E+04  0.50400001928E-02 0.  1.
       -1   -1    0    0    0  501  0.00000000000E+00  0.00000000000E+00 -0.27409319412E+04  0.27409319412E+04  0.50400001928E-02 0. -1.
    10030    2    1    2    0    0  0.00000000000E+00  0.00000000000E+00 -0.16789812316E+04  0.38028826509E+04  0.34121750365E+04 0.  0.
        5    1    3    3  502    0  0.38514529723E+03  0.15195621312E+04 -0.15898643514E+04  0.22327330150E+04  0.46999998093E+01 0. -1.
       -5    1    3    3    0  502 -0.38514529723E+03 -0.15195621312E+04 -0.89116880194E+02  0.15701496358E+04  0.46999998093E+01 0.  1.
</event>
<event>
 5   0  0.4109937E-07  0.2996127E+04  0.7818609E-02  0.8244838E-01
       -1   -1    0    0    0  501  0.00000000000E+00  0.00000000000E+00  0.15304677331E+04  0.15304677331E+04  0.50400001928E-02 0.  1.
        1   -1    0    0  501    0  0.00000000000E+00  0.00000000000E+00 -0.14663449721E+04  0.14663449721E+04  0.50400001928E-02 0. -1.
    10030    2    1    2    0    0  0.00000000000E+00  0.00000000000E+00  0.64122761042E+02  0.29968127052E+04  0.29961266098E+04 0.  0.
        5    1    3    3  502    0  0.10942938267E+04  0.48271249199E+03 -0.87018800045E+03  0.14791009348E+04  0.46999998093E+01 0. -1.
       -5    1    3    3    0  502 -0.10942938267E+04 -0.48271249199E+03  0.93431076149E+03  0.15177117705E+04  0.46999998093E+01 0.  1.
</event>
<event>
 5   0  0.1300176E-06  0.3391258E+04  0.7818609E-02  0.8140055E-01
       -2   -1    0    0    0  501  0.00000000000E+00  0.00000000000E+00  0.15512106855E+04  0.15512106855E+04  0.25500000920E-02 0.  1.
        2   -1    0    0  501    0  0.00000000000E+00  0.00000000000E+00 -0.18534925054E+04  0.18534925054E+04  0.25500000920E-02 0. -1.
    10030    2    1    2    0    0  0.00000000000E+00  0.00000000000E+00 -0.30228181993E+03  0.34047031909E+04  0.33912578078E+04 0.  0.
        1    1    3    3  502    0  0.57188312041E+03  0.13608384053E+04 -0.98885060584E+03  0.17767264814E+04  0.50400001928E-02 0. -1.
       -1    1    3    3    0  502 -0.57188312041E+03 -0.13608384053E+04  0.68656878591E+03  0.16279767095E+04  0.50400001928E-02 0.  1.
</event>
<event>
 5   0  0.4109937E-07  0.3342445E+04  0.7818609E-02  0.8152178E-01
       -1   -1    0    0    0  501  0.00000000000E+00  0.00000000000E+00  0.10593122315E+04  0.10593122315E+04  0.50400001928E-02 0. -1.
        1   -1    0    0  501    0  0.00000000000E+00  0.00000000000E+00 -0.26366016747E+04  0.26366016747E+04  0.50400001928E-02 0.  1.
    10030    2    1    2    0    0  0.00000000000E+00  0.00000000000E+00 -0.15772894432E+04  0.36959139062E+04  0.33424448558E+04 0.  0.
        5    1    3    3  502    0 -0.79528504484E+03 -0.88216592178E+03  0.51138598909E+03  0.12931483812E+04  0.46999998093E+01 0. -1.
       -5    1    3    3    0  502  0.79528504484E+03  0.88216592178E+03 -0.20886754323E+04  0.24027655249E+04  0.46999998093E+01 0.  1.
</event>
<event>
 5   0  0.1268230E-06  0.3369035E+04  0.7818609E-02  0.8145548E-01
        2   -1    0    0  501    0  0.00000000000E+00  0.00000000000E+00  0.16524497456E+04  0.16524497456E+04  0.25500000920E-02 0.  1.
       -2   -1    0    0    0  501  0.00000000000E+00  0.00000000000E+00 -0.17172074244E+04  0.17172074244E+04  0.25500000920E-02 0. -1.
    10030    2    1    2    0    0  0.00000000000E+00  0.00000000000E+00 -0.64757678727E+02  0.33696571700E+04  0.33690348598E+04 0.  0.
        2    1    3    3  502    0  0.12400712333E+04 -0.24748633239E+03  0.10807385985E+04  0.16634368238E+04  0.25500000920E-02 0.  1.
       -2    1    3    3    0  502 -0.12400712333E+04  0.24748633239E+03 -0.11454962773E+04  0.17062203462E+04  0.25500000920E-02 0. -1.
</event>
<event>
 5   0  0.4125758E-07  0.3413334E+04  0.7818609E-02  0.8134641E-01
        1   -1    0    0  501    0  0.00000000000E+00  0.00000000000E+00  0.11506829971E+04  0.11506829971E+04  0.50400001928E-02 0. -1.
       -1   -1    0    0    0  501  0.00000000000E+00  0.00000000000E+00 -0.25312904980E+04  0.25312904980E+04  0.50400001928E-02 0.  1.
    10030    2    1    2    0    0  0.00000000000E+00  0.00000000000E+00 -0.13806075009E+04  0.36819734951E+04  0.34133344031E+04 0.  0.
        2    1    3    3  502    0 -0.11782236591E+04 -0.12203548883E+04 -0.89278949734E+03  0.19169116127E+04  0.25500000920E-02 0.  1.
       -2    1    3    3    0  502  0.11782236591E+04  0.12203548883E+04 -0.48781800357E+03  0.17650618824E+04  0.25500000920E-02 0. -1.
</event>
<event>
 5   0  0.1269497E-06  0.3424134E+04  0.7818609E-02  0.8132008E-01
       -2   -1    0    0    0  501  0.00000000000E+00  0.00000000000E+00  0.17876066790E+04  0.17876066790E+04  0.25500000920E-02 0. -1.
        2   -1    0    0  501    0  0.00000000000E+00  0.00000000000E+00 -0.16397196218E+04  0.16397196218E+04  0.25500000920E-02 0.  1.
    10030    2    1    2    0    0  0.00000000000E+00  0.00000000000E+00  0.14788705722E+03  0.34273263009E+04  0.34241341958E+04 0.  0.
        5    1    3    3  502    0  0.13126057631E+04  0.21761856208E+03  0.11523800507E+04  0.17601970342E+04  0.46999998093E+01 0. -1.
       -5    1    3    3    0  502 -0.13126057631E+04 -0.21761856208E+03 -0.10044929934E+04  0.16671292667E+04  0.46999998093E+01 0.  1.
</event>
<event>
 5   0  0.1277635E-06  0.3409623E+04  0.7818609E-02  0.8135548E-01
       -2   -1    0    0    0  501  0.00000000000E+00  0.00000000000E+00  0.14269019783E+04  0.14269019784E+04  0.25500000920E-02 0. -1.
        2   -1    0    0  501    0  0.00000000000E+00  0.00000000000E+00 -0.20368484272E+04  0.20368484272E+04  0.25500000920E-02 0.  1.
    10030    2    1    2    0    0  0.00000000000E+00  0.00000000000E+00 -0.60994644889E+03  0.34637504056E+04  0.34096234692E+04 0.  0.
        4    1    3    3  502    0 -0.41734202711E+03 -0.58374856182E+03 -0.18759520738E+04  0.20085155083E+04  0.12699999809E+01 0.  1.
       -4    1    3    3    0  502  0.41734202711E+03  0.58374856182E+03  0.12660056249E+04  0.14552348973E+04  0.12699999809E+01 0. -1.
</event>
<event>
 5   0  0.1277635E-06  0.3403574E+04  0.7818609E-02  0.8137030E-01
        2   -1    0    0  501    0  0.00000000000E+00  0.00000000000E+00  0.19505495076E+04  0.19505495076E+04  0.25500000920E-02 0. -1.
       -2   -1    0    0    0  501  0.00000000000E+00  0.00000000000E+00 -0.14847505291E+04  0.14847505291E+04  0.25500000920E-02 0.  1.
    10030    2    1    2    0    0  0.00000000000E+00  0.00000000000E+00  0.46579897847E+03  0.34353000367E+04  0.34035742469E+04 0.  0.
        4    1    3    3  502    0  0.11380842770E+04 -0.12486918823E+04  0.27011393882E+02  0.16897332532E+04  0.12699999809E+01 0.  1.
       -4    1    3    3    0  502 -0.11380842770E+04  0.12486918823E+04  0.43878758459E+03  0.17455667836E+04  0.12699999809E+01 0. -1.
</event>
<event>
 5   0  0.4060750E-07  0.3408497E+04  0.7818609E-02  0.8135824E-01
       -3   -1    0    0    0  501  0.00000000000E+00  0.00000000000E+00  0.11162780591E+04  0.11162780636E+04  0.10100000352E+00 0.  1.
        3   -1    0    0  501    0  0.00000000000E+00  0.00000000000E+00 -0.26019176124E+04  0.26019176144E+04  0.10100000352E+00 0. -1.
    10030    2    1    2    0    0  0.00000000000E+00  0.00000000000E+00 -0.14856395534E+04  0.37181956780E+04  0.34084973548E+04 0.  0.
        4    1    3    3  502    0 -0.58263011546E+03  0.45792833268E+03 -0.24169642170E+04  0.25280177706E+04  0.12699999809E+01 0. -1.
       -4    1    3    3    0  502  0.58263011546E+03 -0.45792833268E+03  0.93132466364E+03  0.11901779074E+04  0.12699999809E+01 0.  1.
</event>
<event>
 5   0  0.4060750E-07  0.3386490E+04  0.7818609E-02  0.8141230E-01
       -3   -1    0    0    0  501  0.00000000000E+00  0.00000000000E+00  0.24886496706E+04  0.24886496727E+04  0.10100000352E+00 0. -1.
        3   -1    0    0  501    0  0.00000000000E+00  0.00000000000E+00 -0.11520617217E+04  0.11520617261E+04  0.10100000352E+00 0.  1.
    10030    2    1    2    0    0  0.00000000000E+00  0.00000000000E+00  0.13365879489E+04  0.36407113987E+04  0.33864896491E+04 0.  0.
        5    1    3    3  502    0  0.12600362111E+04  0.11130790990E+04  0.88443269240E+03  0.18997051380E+04  0.46999998093E+01 0.  1.
       -5    1    3    3    0  502 -0.12600362111E+04 -0.11130790990E+04  0.45215525653E+03  0.17410062607E+04  0.46999998093E+01 0. -1.
</event>
<event>
 5   0  0.4109937E-07  0.3352671E+04  0.7818609E-02  0.8149621E-01
        1   -1    0    0  501    0  0.00000000000E+00  0.00000000000E+00  0.16214620858E+04  0.16214620858E+04  0.50400001928E-02 0. -1.
       -1   -1    0    0    0  501  0.00000000000E+00  0.00000000000E+00 -0.17330661898E+04  0.17330661898E+04  0.50400001928E-02 0.  1.
    10030    2    1    2    0    0  0.00000000000E+00  0.00000000000E+00 -0.11160410400E+03  0.33545282755E+04  0.33526712447E+04 0.  0.
        5    1    3    3  502    0  0.16615523048E+04 -0.13333485906E+02  0.16600787359E+03  0.16698845911E+04  0.46999998093E+01 0.  1.
       -5    1    3    3    0  502 -0.16615523048E+04  0.13333485906E+02 -0.27761197759E+03  0.16846436845E+04  0.46999998093E+01 0. -1.
</event>
<event>
 5   0  0.1277635E-06  0.3628524E+04  0.7818609E-02  0.8083989E-01
        2   -1    0    0  501    0  0.00000000000E+00  0.00000000000E+00  0.22102283358E+04  0.22102283358E+04  0.25500000920E-02 0. -1.
       -2   -1    0    0    0  501  0.00000000000E+00  0.00000000000E+00 -0.14892337468E+04  0.14892337468E+04  0.25500000920E-02 0.  1.
    10030    2    1    2    0    0  0.00000000000E+00  0.00000000000E+00  0.72099458893E+03  0.36994620826E+04  0.36285240117E+04 0.  0.
        4    1    3    3  502    0  0.71201931921E+03  0.14155413437E+03 -0.13346978444E+04  0.15193515172E+04  0.12699999809E+01 0.  1.
       -4    1    3    3    0  502 -0.71201931921E+03 -0.14155413437E+03  0.20556924334E+04  0.21801105654E+04  0.12699999809E+01 0. -1.
</event>
<event>
 5   0  0.1269497E-06  0.3361806E+04  0.7818609E-02  0.8147345E-01
        2   -1    0    0  501    0  0.00000000000E+00  0.00000000000E+00  0.11815767125E+04  0.11815767125E+04  0.25500000920E-02 0. -1.
       -2   -1    0    0    0  501  0.00000000000E+00  0.00000000000E+00 -0.23912408161E+04  0.23912408161E+04  0.25500000920E-02 0.  1.
    10030    2    1    2    0    0  0.00000000000E+00  0.00000000000E+00 -0.12096641036E+04  0.35728175286E+04  0.33618057424E+04 0.  0.
        5    1    3    3  502    0 -0.20026086009E+03 -0.11572583011E+04  0.67317001515E+03  0.13537101414E+04  0.46999998093E+01 0. -1.
       -5    1    3    3    0  502  0.20026086009E+03  0.11572583011E+04 -0.18828341187E+04  0.22191073872E+04  0.46999998093E+01 0.  1.
</event>
<event>
 5   0  0.4109937E-07  0.3404656E+04  0.7818609E-02  0.8136765E-01
        1   -1    0    0  501    0  0.00000000000E+00  0.00000000000E+00  0.19819322122E+04  0.19819322122E+04  0.50400001928E-02 0.  1.
       -1   -1    0    0    0  501  0.00000000000E+00  0.00000000000E+00 -0.14621691761E+04  0.14621691762E+04  0.50400001928E-02 0. -1.
    10030    2    1    2    0    0  0.00000000000E+00  0.00000000000E+00  0.51976303607E+03  0.34441013884E+04  0.34046557476E+04 0.  0.
        5    1    3    3  502    0  0.88223320725E+03 -0.10199957521E+04 -0.79098588820E+03  0.15634601151E+04  0.46999998093E+01 0. -1.
       -5    1    3    3    0  502 -0.88223320725E+03  0.10199957521E+04  0.13107489243E+04  0.18806412733E+04  0.46999998093E+01 0.  1.
</event>
<event>
 5   0  0.1277635E-06  0.3382523E+04  0.7818609E-02  0.8142209E-01
       -2   -1    0    0    0  501  0.00000000000E+00  0.00000000000E+00  0.11770564590E+04  0.11770564590E+04  0.25500000920E-02 0. -1.
        2   -1    0    0  501    0  0.00000000000E+00  0.00000000000E+00 -0.24301001388E+04  0.24301001388E+04  0.25500000920E-02 0.  1.
    10030    2    1    2    0    0  0.00000000000E+00  0.00000000000E+00 -0.12530436798E+04  0.36071565979E+04  0.33825227654E+04 0.  0.
        4    1    3    3  502    0 -0.85311379473E+03 -0.13679183685E+04 -0.81337299774E+02  0.16141936621E+04  0.12699999809E+01 0. -1.
       -4    1    3    3    0  502  0.85311379473E+03  0.13679183685E+04 -0.11717063800E+04  0.19929629358E+04  0.12699999809E+01 0.  1.
</event>
<event>
 5   0  0.1300176E-06  0.3082271E+04  0.7818609E-02  0.8220620E-01
       -2   -1    0    0    0  501  0.00000000000E+00  0.00000000000E+00  0.11480356667E+04  0.11480356667E+04  0.25500000920E-02 0. -1.
        2   -1    0    0  501    0  0.00000000000E+00  0.00000000000E+00 -0.20688367269E+04  0.20688367269E+04  0.25500000920E-02 0.  1.
    10030    2    1    2    0    0  0.00000000000E+00  0.00000000000E+00 -0.92080106015E+03  0.32168723936E+04  0.30822708195E+04 0.  0.
        1    1    3    3  502    0 -0.34498049288E+03  0.10342552529E+04 -0.15971876272E+04  0.19338313745E+04  0.50400001928E-02 0.  1.
       -1    1    3    3    0  502  0.34498049288E+03 -0.10342552529E+04  0.67638656704E+03  0.12830410191E+04  0.50400001928E-02 0. -1.
</event>
<event>
 5   0  0.4464951E-07  0.3384748E+04  0.7818609E-02  0.8141660E-01
       -1   -1    0    0    0  501  0.00000000000E+00  0.00000000000E+00  0.20660334372E+04  0.20660334372E+04  0.50400001928E-02 0. -1.
        1   -1    0    0  501    0  0.00000000000E+00  0.00000000000E+00 -0.13862940208E+04  0.13862940208E+04  0.50400001928E-02 0.  1.
    10030    2    1    2    0    0  0.00000000000E+00  0.00000000000E+00  0.67973941640E+03  0.34523274579E+04  0.33847480264E+04 0.  0.
        3    1    3    3  502    0 -0.26011805604E+03 -0.16372145651E+04  0.68725285622E+03  0.17945610699E+04  0.10100000352E+00 0. -1.
       -3    1    3    3    0  502  0.26011805604E+03  0.16372145651E+04 -0.75134398187E+01  0.16577663880E+04  0.10100000352E+00 0.  1.
</event>
<event>
 5   0  0.1256208E-06  0.3362815E+04  0.7818609E-02  0.8147093E-01
        2   -1    0    0  501    0  0.00000000000E+00  0.00000000000E+00  0.29206087627E+04  0.29206087627E+04  0.25500000920E-02 0.  1.
       -2   -1    0    0    0  501  0.00000000000E+00  0.00000000000E+00 -0.96799381892E+03  0.96799381892E+03  0.25500000920E-02 0. -1.
    10030    2    1    2    0    0  0.00000000000E+00  0.00000000000E+00  0.19526149438E+04  0.38886025816E+04  0.33628150290E+04 0.  0.
        3    1    3    3  502    0 -0.11368580255E+03  0.10242987571E+03 -0.95992501953E+03  0.97204546933E+03  0.10100000352E+00 0. -1.
       -3    1    3    3    0  502  0.11368580255E+03 -0.10242987571E+03  0.29125399633E+04  0.29165571123E+04  0.10100000352E+00 0.  1.
</event>
<event>
 5   0  0.4464951E-07  0.3400633E+04  0.7818609E-02  0.8137751E-01
        1   -1    0    0  501    0  0.00000000000E+00  0.00000000000E+00  0.30090379044E+04  0.30090379044E+04  0.50400001928E-02 0.  1.
       -1   -1    0    0    0  501  0.00000000000E+00  0.00000000000E+00 -0.96079778090E+03  0.96079778091E+03  0.50400001928E-02 0. -1.
    10030    2    1    2    0    0  0.00000000000E+00  0.00000000000E+00  0.20482401235E+04  0.39698356853E+04  0.34006334358E+04 0.  0.
        3    1    3    3  502    0  0.55062776369E+02 -0.90172910981E+03 -0.65744779583E+03  0.11173114656E+04  0.10100000352E+00 0. -1.
       -3    1    3    3    0  502 -0.55062776369E+02  0.90172910981E+03  0.27056879193E+04  0.28525242197E+04  0.10100000352E+00 0.  1.
</event>
<event>
 5   0  0.4109937E-07  0.3454842E+04  0.7818609E-02  0.8124576E-01
       -1   -1    0    0    0  501  0.00000000000E+00  0.00000000000E+00  0.11352166678E+04  0.11352166678E+04  0.50400001928E-02 0. -1.
        1   -1    0    0  501    0  0.00000000000E+00  0.00000000000E+00 -0.26285577780E+04  0.26285577780E+04  0.50400001928E-02 0.  1.
    10030    2    1    2    0    0  0.00000000000E+00  0.00000000000E+00 -0.14933411102E+04  0.37637744458E+04  0.34548415894E+04 0.  0.
        5    1    3    3  502    0  0.12594879031E+04  0.52294365901E+03 -0.19017543891E+04  0.23401862522E+04  0.46999998093E+01 0.  1.
       -5    1    3    3    0  502 -0.12594879031E+04 -0.52294365901E+03  0.40841327891E+03  0.14235881936E+04  0.46999998093E+01 0. -1.
</event>
<event>
 5   0  0.4272633E-07  0.3551622E+04  0.7818609E-02  0.8101664E-01
        1   -1    0    0  501    0  0.00000000000E+00  0.00000000000E+00  0.14740223952E+04  0.14740223952E+04  0.50400001928E-02 0. -1.
       -1   -1    0    0    0  501  0.00000000000E+00  0.00000000000E+00 -0.21393866880E+04  0.21393866880E+04  0.50400001928E-02 0.  1.
    10030    2    1    2    0    0  0.00000000000E+00  0.00000000000E+00 -0.66536429280E+03  0.36134090832E+04  0.35516215395E+04 0.  0.
        1    1    3    3  502    0  0.11580267211E+04  0.10707693098E+03  0.10326830186E+04  0.15552895463E+04  0.50400001928E-02 0. -1.
       -1    1    3    3    0  502 -0.11580267211E+04 -0.10707693098E+03 -0.16980473114E+04  0.20581195368E+04  0.50400001928E-02 0.  1.
</event>
<event>
 5   0  0.4272633E-07  0.3375123E+04  0.7818609E-02  0.8144039E-01
       -1   -1    0    0    0  501  0.00000000000E+00  0.00000000000E+00  0.16155488435E+04  0.16155488435E+04  0.50400001928E-02 0. -1.
        1   -1    0    0  501    0  0.00000000000E+00  0.00000000000E+00 -0.17627838654E+04  0.17627838654E+04  0.50400001928E-02 0.  1.
    10030    2    1    2    0    0  0.00000000000E+00  0.00000000000E+00 -0.14723502193E+03  0.33783327088E+04  0.33751227741E+04 0.  0.
        1    1    3    3  502    0 -0.62762555486E+03 -0.13762994045E+04 -0.82249317546E+03  0.17218039702E+04  0.50400001928E-02 0.  1.
       -1    1    3    3    0  502  0.62762555486E+03  0.13762994045E+04  0.67525815353E+03  0.16565287387E+04  0.50400001928E-02 0. -1.
</event>
<event>
 5   0  0.1256208E-06  0.3379530E+04  0.7818609E-02  0.8142949E-01
       -2   -1    0    0    0  501  0.00000000000E+00  0.00000000000E+00  0.27646547799E+04  0.27646547799E+04  0.25500000920E-02 0.  1.
        2   -1    0    0  501    0  0.00000000000E+00  0.00000000000E+00 -0.10327892360E+04  0.10327892360E+04  0.25500000920E-02 0. -1.
    10030    2    1    2    0    0  0.00000000000E+00  0.00000000000E+00  0.17318655438E+04  0.37974440159E+04  0.33795299662E+04 0.  0.
        3    1    3    3  502    0 -0.13700644486E+04 -0.18505091833E+03  0.19576689015E+04  0.23966201147E+04  0.10100000352E+00 0.  1.
       -3    1    3    3    0  502  0.13700644486E+04  0.18505091833E+03 -0.22580335769E+03  0.14008239013E+04  0.10100000352E+00 0. -1.
</event>
<event>
 5   0  0.4272633E-07  0.3354989E+04  0.7818609E-02  0.8149043E-01
       -1   -1    0    0    0  501  0.00000000000E+00  0.00000000000E+00  0.10242224269E+04  0.10242224269E+04  0.50400001928E-02 0. -1.
        1   -1    0    0  501    0  0.00000000000E+00  0.00000000000E+00 -0.27474382221E+04  0.27474382221E+04  0.50400001928E-02 0.  1.
    10030    2    1    2    0    0  0.00000000000E+00  0.00000000000E+00 -0.17232157952E+04  0.37716606490E+04  0.33549890274E+04 0.  0.
        1    1    3    3  502    0  0.39857139558E+03 -0.91805428365E+03  0.65180403210E+03  0.11943748664E+04  0.50400001928E-02 0. -1.
       -1    1    3    3    0  502 -0.39857139558E+03  0.91805428365E+03 -0.23750198273E+04  0.25772857826E+04  0.50400001928E-02 0.  1.
</event>
<event>
 5   0  0.4125758E-07  0.3375998E+04  0.7818609E-02  0.8143822E-01
        1   -1    0    0  501    0  0.00000000000E+00  0.00000000000E+00  0.29311917488E+04  0.29311917488E+04  0.50400001928E-02 0.  1.
       -1   -1    0    0    0  501  0.00000000000E+00  0.00000000000E+00 -0.97207591877E+03  0.97207591878E+03  0.50400001928E-02 0. -1.
    10030    2    1    2    0    0  0.00000000000E+00  0.00000000000E+00  0.19591158300E+04  0.39032676676E+04  0.33759981708E+04 0.  0.
        2    1    3    3  502    0 -0.61711326489E+03  0.90811686124E+03  0.24619236290E+04  0.26956581702E+04  0.25500000920E-02 0.  1.
       -2    1    3    3    0  502  0.61711326489E+03 -0.90811686124E+03 -0.50280779901E+03  0.12076094974E+04  0.25500000920E-02 0. -1.
</event>
<event>
 5   0  0.4109937E-07  0.3396715E+04  0.7818609E-02  0.8138713E-01
       -1   -1    0    0    0  501  0.00000000000E+00  0.00000000000E+00  0.12444006170E+04  0.12444006170E+04  0.50400001928E-02 0. -1.
        1   -1    0    0  501    0  0.00000000000E+00  0.00000000000E+00 -0.23179181211E+04  0.23179181211E+04  0.50400001928E-02 0.  1.
    10030    2    1    2    0    0  0.00000000000E+00  0.00000000000E+00 -0.10735175041E+04  0.35623187381E+04  0.33967153193E+04 0.  0.
        5    1    3    3  502    0 -0.10206104881E+03  0.13772837496E+04  0.49990136513E+03  0.14687581317E+04  0.46999998093E+01 0. -1.
       -5    1    3    3    0  502  0.10206104881E+03 -0.13772837496E+04 -0.15734188692E+04  0.20935606064E+04  0.46999998093E+01 0.  1.
</event>
<event>
 5   0  0.1300176E-06  0.3387405E+04  0.7818609E-02  0.8141004E-01
        2   -1    0    0  501    0  0.00000000000E+00  0.00000000000E+00  0.19827570812E+04  0.19827570812E+04  0.25500000920E-02 0.  1.
       -2   -1    0    0    0  501  0.00000000000E+00  0.00000000000E+00 -0.14467874126E+04  0.14467874126E+04  0.25500000920E-02 0. -1.
    10030    2    1    2    0    0  0.00000000000E+00  0.00000000000E+00  0.53596966863E+03  0.34295444938E+04  0.33874048989E+04 0.  0.
        1    1    3    3  502    0 -0.12338557761E+04 -0.11025165353E+04  0.63398605539E+03  0.17719709663E+04  0.50400001928E-02 0.  1.
       -1    1    3    3    0  502  0.12338557761E+04  0.11025165353E+04 -0.98016386753E+02  0.16575735275E+04  0.50400001928E-02 0. -1.
</event>
<event>
 5   0  0.1256208E-06  0.2872343E+04  0.7818609E-02  0.8281154E-01
        2   -1    0    0  501    0  0.00000000000E+00  0.00000000000E+00  0.11846677703E+04  0.11846677703E+04  0.25500000920E-02 0.  1.
       -2   -1    0    0    0  501  0.00000000000E+00  0.00000000000E+00 -0.17410686692E+04  0.17410686692E+04  0.25500000920E-02 0. -1.
    10030    2    1    2    0    0  0.00000000000E+00  0.00000000000E+00 -0.55640089896E+03  0.29257364395E+04  0.28723425550E+04 0.  0.
        3    1    3    3  502    0  0.22199942533E+03  0.33895584508E+03  0.11252411050E+04  0.11959692155E+04  0.10100000352E+00 0.  1.
       -3    1    3    3    0  502 -0.22199942533E+03 -0.33895584508E+03 -0.16816420039E+04  0.17297672240E+04  0.10100000352E+00 0. -1.
</event>
<event>
 5   0  0.4272633E-07  0.3450704E+04  0.7818609E-02  0.8125573E-01
        1   -1    0    0  501    0  0.00000000000E+00  0.00000000000E+00  0.20757957846E+04  0.20757957846E+04  0.50400001928E-02 0.  1.
       -1   -1    0    0    0  501  0.00000000000E+00  0.00000000000E+00 -0.14340713108E+04  0.14340713108E+04  0.50400001928E-02 0. -1.
    10030    2    1    2    0    0  0.00000000000E+00  0.00000000000E+00  0.64172447376E+03  0.35098670954E+04  0.34507038018E+04 0.  0.
        1    1    3    3  502    0 -0.12040165660E+04  0.11127612602E+04  0.86761512236E+03  0.18548987880E+04  0.50400001928E-02 0.  1.
       -1    1    3    3    0  502  0.12040165660E+04 -0.11127612602E+04 -0.22589064860E+03  0.16549683074E+04  0.50400001928E-02 0. -1.
</event>
<event>
 5   0  0.4125758E-07  0.3360225E+04  0.7818609E-02  0.8147738E-01
       -1   -1    0    0    0  501  0.00000000000E+00  0.00000000000E+00  0.16210769510E+04  0.16210769510E+04  0.50400001928E-02 0.  1.
        1   -1    0    0  501    0  0.00000000000E+00  0.00000000000E+00 -0.17412977384E+04  0.17412977384E+04  0.50400001928E-02 0. -1.
    10030    2    1    2    0    0  0.00000000000E+00  0.00000000000E+00 -0.12022078736E+03  0.33623746894E+04  0.33602247714E+04 0.  0.
        2    1    3    3  502    0 -0.13569460995E+04  0.20136747082E+03  0.91052366373E+03  0.16464825895E+04  0.25500000920E-02 0.  1.
       -2    1    3    3    0  502  0.13569460995E+04 -0.20136747082E+03 -0.10307444511E+04  0.17158920999E+04  0.25500000920E-02 0. -1.
</event>
<event>
 5   0  0.4289684E-07  0.3380470E+04  0.7818609E-02  0.8142716E-01
        1   -1    0    0  501    0  0.00000000000E+00  0.00000000000E+00  0.18619972547E+04  0.18619972547E+04  0.50400001928E-02 0.  1.
       -1   -1    0    0    0  501  0.00000000000E+00  0.00000000000E+00 -0.15343174080E+04  0.15343174081E+04  0.50400001928E-02 0. -1.
    10030    2    1    2    0    0  0.00000000000E+00  0.00000000000E+00  0.32767984664E+03  0.33963146628E+04  0.33804702641E+04 0.  0.
        4    1    3    3  502    0 -0.15408926668E+04 -0.30224996267E+03  0.79222162175E+03  0.17587842282E+04  0.12699999809E+01 0.  1.
       -4    1    3    3    0  502  0.15408926668E+04  0.30224996267E+03 -0.46454177511E+03  0.16375304346E+04  0.12699999809E+01 0. -1.
</event>
<event>
 5   0  0.4464951E-07  0.3421281E+04  0.7818609E-02  0.8132703E-01
       -1   -1    0    0    0  501  0.00000000000E+00  0.00000000000E+00  0.18313944704E+04  0.18313944704E+04  0.50400001928E-02 0.  1.
        1   -1    0    0  501    0  0.00000000000E+00  0.00000000000E+00 -0.15978489388E+04  0.15978489388E+04  0.50400001928E-02 0. -1.
    10030    2    1    2    0    0  0.00000000000E+00  0.00000000000E+00  0.23354553162E+03  0.34292434092E+04  0.34212814623E+04 0.  0.
        3    1    3    3  502    0  0.22902430018E+02 -0.35410320297E+03  0.17941001787E+04  0.18288545763E+04  0.10100000352E+00 0.  1.
       -3    1    3    3    0  502 -0.22902430018E+02  0.35410320297E+03 -0.15605546471E+04  0.16003888329E+04  0.10100000352E+00 0. -1.
</event>
<event>
 5   0  0.4272633E-07  0.3380067E+04  0.7818609E-02  0.8142816E-01
        1   -1    0    0  501    0  0.00000000000E+00  0.00000000000E+00  0.19538060443E+04  0.19538060443E+04  0.50400001928E-02 0.  1.
       -1   -1    0    0    0  501  0.00000000000E+00  0.00000000000E+00 -0.14618713526E+04  0.14618713526E+04  0.50400001928E-02 0. -1.
    10030    2    1    2    0    0  0.00000000000E+00  0.00000000000E+00  0.49193469165E+03  0.34156773969E+04  0.33800669133E+04 0.  0.
        1    1    3    3  502    0 -0.16768298929E+04  0.17461648689E+03  0.12655438920E+03  0.16906405356E+04  0.50400001928E-02 0.  1.
       -1    1    3    3    0  502  0.16768298929E+04 -0.17461648689E+03  0.36538030245E+03  0.17250368613E+04  0.50400001928E-02 0. -1.
</event>
<event>
 5   0  0.1277635E-06  0.3395131E+04  0.7818609E-02  0.8139102E-01
       -2   -1    0    0    0  501  0.00000000000E+00  0.00000000000E+00  0.23040802750E+04  0.23040802750E+04  0.25500000920E-02 0.  1.
        2   -1    0    0  501    0  0.00000000000E+00  0.00000000000E+00 -0.12507070618E+04  0.12507070618E+04  0.25500000920E-02 0. -1.
    10030    2    1    2    0    0  0.00000000000E+00  0.00000000000E+00  0.10533732132E+04  0.35547873367E+04  0.33951314972E+04 0.  0.
        4    1    3    3  502    0 -0.15727846123E+04  0.22144029253E+03  0.11540639289E+04  0.19633014044E+04  0.12699999809E+01 0.  1.
       -4    1    3    3    0  502  0.15727846123E+04 -0.22144029253E+03 -0.10069071570E+03  0.15914859323E+04  0.12699999809E+01 0. -1.
</event>
<event>
 5   0  0.1277635E-06  0.3385281E+04  0.7818609E-02  0.8141528E-01
       -2   -1    0    0    0  501  0.00000000000E+00  0.00000000000E+00  0.13298852548E+04  0.13298852548E+04  0.25500000920E-02 0.  1.
        2   -1    0    0  501    0  0.00000000000E+00  0.00000000000E+00 -0.21543456143E+04  0.21543456143E+04  0.25500000920E-02 0. -1.
    10030    2    1    2    0    0  0.00000000000E+00  0.00000000000E+00 -0.82446035952E+03  0.34842308692E+04  0.33852813569E+04 0.  0.
        4    1    3    3  502    0 -0.50073299757E+03 -0.36708897742E+03 -0.20329128072E+04  0.21256114289E+04  0.12699999809E+01 0. -1.
       -4    1    3    3    0  502  0.50073299757E+03  0.36708897742E+03  0.12084524477E+04  0.13586194402E+04  0.12699999809E+01 0.  1.
</event>
<event>
 5   0  0.4272633E-07  0.3400894E+04  0.7818609E-02  0.8137687E-01
       -1   -1    0    0    0  501  0.00000000000E+00  0.00000000000E+00  0.16640834331E+04  0.16640834331E+04  0.50400001928E-02 0. -1.
        1   -1    0    0  501    0  0.00000000000E+00  0.00000000000E+00 -0.17376049012E+04  0.17376049012E+04  0.50400001928E-02 0.  1.
    10030    2    1    2    0    0  0.00000000000E+00  0.00000000000E+00 -0.73521468127E+02  0.34016883343E+04  0.34008937233E+04 0.  0.
        1    1    3    3  502    0 -0.83133108026E+03 -0.10940529687E+04 -0.10387214276E+04  0.17224997728E+04  0.50400001928E-02 0.  1.
       -1    1    3    3    0  502  0.83133108026E+03  0.10940529687E+04  0.96519995944E+03  0.16791885615E+04  0.50400001928E-02 0. -1.
</event>
<event>
 5   0  0.4289684E-07  0.3397178E+04  0.7818609E-02  0.8138599E-01
        1   -1    0    0  501    0  0.00000000000E+00  0.00000000000E+00  0.18853019449E+04  0.18853019449E+04  0.50400001928E-02 0. -1.
       -1   -1    0    0    0  501  0.00000000000E+00  0.00000000000E+00 -0.15303674255E+04  0.15303674255E+04  0.50400001928E-02 0.  1.
    10030    2    1    2    0    0  0.00000000000E+00  0.00000000000E+00  0.35493451933E+03  0.34156693704E+04  0.33971780546E+04 0.  0.
        4    1    3    3  502    0 -0.64092238918E+03  0.75253643706E+03  0.15663298269E+04  0.18521564020E+04  0.12699999809E+01 0. -1.
       -4    1    3    3    0  502  0.64092238918E+03 -0.75253643706E+03 -0.12113953076E+04  0.15635129683E+04  0.12699999809E+01 0.  1.
</event>
<event>
 5   0  0.1277635E-06  0.3411643E+04  0.7818609E-02  0.8135055E-01
        2   -1    0    0  501    0  0.00000000000E+00  0.00000000000E+00  0.24885871126E+04  0.24885871126E+04  0.25500000920E-02 0.  1.
       -2   -1    0    0    0  501  0.00000000000E+00  0.00000000000E+00 -0.11692684644E+04  0.11692684644E+04  0.25500000920E-02 0. -1.
    10030    2    1    2    0    0  0.00000000000E+00  0.00000000000E+00  0.13193186482E+04  0.36578555769E+04  0.34116426727E+04 0.  0.
        4    1    3    3  502    0 -0.15870353116E+04 -0.32513948513E+03  0.12324703173E+04  0.20355297741E+04  0.12699999809E+01 0.  1.
       -4    1    3    3    0  502  0.15870353116E+04  0.32513948513E+03  0.86848330919E+02  0.16223258029E+04  0.12699999809E+01 0. -1.
</event>
<event>
 5   0  0.1277635E-06  0.3343029E+04  0.7818609E-02  0.8152032E-01
       -2   -1    0    0    0  501  0.00000000000E+00  0.00000000000E+00  0.16597588572E+04  0.16597588573E+04  0.25500000920E-02 0.  1.
        2   -1    0    0  501    0  0.00000000000E+00  0.00000000000E+00 -0.16833537400E+04  0.16833537400E+04  0.25500000920E-02 0. -1.
    10030    2    1    2    0    0  0.00000000000E+00  0.00000000000E+00 -0.23594882716E+02  0.33431125972E+04  0.33430293327E+04 0.  0.
        4    1    3    3  502    0 -0.16588047888E+04 -0.20080889384E+02  0.19295896438E+03  0.16701111773E+04  0.12699999809E+01 0.  1.
       -4    1    3    3    0  502  0.16588047888E+04  0.20080889384E+02 -0.21655384710E+03  0.16730014200E+04  0.12699999809E+01 0. -1.
</event>
<event>
 5   0  0.1269497E-06  0.3306472E+04  0.7818609E-02  0.8161251E-01
       -2   -1    0    0    0  501  0.00000000000E+00  0.00000000000E+00  0.13101861718E+04  0.13101861718E+04  0.25500000920E-02 0. -1.
        2   -1    0    0  501    0  0.00000000000E+00  0.00000000000E+00 -0.20861070717E+04  0.20861070717E+04  0.25500000920E-02 0.  1.
    10030    2    1    2    0    0  0.00000000000E+00  0.00000000000E+00 -0.77592089993E+03  0.33962932436E+04  0.33064716169E+04 0.  0.
        5    1    3    3  502    0  0.40297846729E+03  0.53175361450E+03 -0.19416692504E+04  0.20531086478E+04  0.46999998093E+01 0.  1.
       -5    1    3    3    0  502 -0.40297846729E+03 -0.53175361450E+03  0.11657483505E+04  0.13431845958E+04  0.46999998093E+01 0. -1.
</event>
<event>
 5   0  0.1300176E-06  0.3405996E+04  0.7818609E-02  0.8136436E-01
        2   -1    0    0  501    0  0.00000000000E+00  0.00000000000E+00  0.32924148032E+04  0.32924148032E+04  0.25500000920E-02 0.  1.
       -2   -1    0    0    0  501  0.00000000000E+00  0.00000000000E+00 -0.88087366678E+03  0.88087366678E+03  0.25500000920E-02 0. -1.
    10030    2    1    2    0    0  0.00000000000E+00  0.00000000000E+00  0.24115411364E+04  0.41732884700E+04  0.34059955961E+04 0.  0.
        1    1    3    3  502    0 -0.10510692550E+04 -0.22024850185E+02 -0.43581263494E+03  0.11380528659E+04  0.50400001928E-02 0. -1.
       -1    1    3    3    0  502  0.10510692550E+04  0.22024850185E+02  0.28473537713E+04  0.30352356040E+04  0.50400001928E-02 0.  1.
</event>
<event>
 5   0  0.4060750E-07  0.3400752E+04  0.7818609E-02  0.8137722E-01
        3   -1    0    0  501    0  0.00000000000E+00  0.00000000000E+00  0.12379129878E+04  0.12379129919E+04  0.10100000352E+00 0.  1.
       -3   -1    0    0    0  501  0.00000000000E+00  0.00000000000E+00 -0.23356074069E+04  0.23356074091E+04  0.10100000352E+00 0. -1.
    10030    2    1    2    0    0  0.00000000000E+00  0.00000000000E+00 -0.10976944191E+04  0.35735204010E+04  0.34007521254E+04 0.  0.
        4    1    3    3  502    0  0.16792639642E+04  0.26466371219E+03 -0.51091919269E+03  0.17751096800E+04  0.12699999809E+01 0. -1.
       -4    1    3    3    0  502 -0.16792639642E+04 -0.26466371219E+03 -0.58677522645E+03  0.17984107209E+04  0.12699999809E+01 0.  1.
</event>
<event>
 5   0  0.1269497E-06  0.3473277E+04  0.7818609E-02  0.8120152E-01
        2   -1    0    0  501    0  0.00000000000E+00  0.00000000000E+00  0.17946921568E+04  0.17946921568E+04  0.25500000920E-02 0.  1.
       -2   -1    0    0    0  501  0.00000000000E+00  0.00000000000E+00 -0.16804628475E+04  0.16804628475E+04  0.25500000920E-02 0. -1.
    10030    2    1    2    0    0  0.00000000000E+00  0.00000000000E+00  0.11422930929E+03  0.34751550043E+04  0.34732771223E+04 0.  0.
        5    1    3    3  502    0  0.18387148036E+03  0.74558831392E+03 -0.15013477164E+04  0.16863504116E+04  0.46999998093E+01 0. -1.
       -5    1    3    3    0  502 -0.18387148036E+03 -0.74558831392E+03  0.16155770256E+04  0.17888045927E+04  0.46999998093E+01 0.  1.
</event>
<event>
 5   0  0.4125758E-07  0.3395729E+04  0.7818609E-02  0.8138955E-01
       -1   -1    0    0    0  501  0.00000000000E+00  0.00000000000E+00  0.14468353573E+04  0.14468353573E+04  0.50400001928E-02 0.  1.
        1   -1    0    0  501    0  0.00000000000E+00  0.00000000000E+00 -0.19924477080E+04  0.19924477080E+04  0.50400001928E-02 0. -1.
    10030    2    1    2    0    0  0.00000000000E+00  0.00000000000E+00 -0.54561235071E+03  0.34392830653E+04  0.33957289594E+04 0.  0.
        2    1    3    3  502    0 -0.80037017593E+03  0.13638367714E+04  0.35326510504E+03  0.16203207682E+04  0.25500000920E-02 0. -1.
       -2    1    3    3    0  502  0.80037017593E+03 -0.13638367714E+04 -0.89887745575E+03  0.18189622970E+04  0.25500000920E-02 0.  1.
</event>
<event>
 5   0  0.1269497E-06  0.3832070E+04  0.7818609E-02  0.8039307E-01
       -2   -1    0    0    0  501  0.00000000000E+00  0.00000000000E+00  0.22490846913E+04  0.22490846913E+04  0.25500000920E-02 0.  1.
        2   -1    0    0  501    0  0.00000000000E+00  0.00000000000E+00 -0.16323044416E+04  0.16323044416E+04  0.25500000920E-02 0. -1.
    10030    2    1    2    0    0  0.00000000000E+00  0.00000000000E+00  0.61678024962E+03  0.38813891329E+04  0.38320704227E+04 0.  0.
        5    1    3    3  502    0  0.13335159680E+04  0.49282271028E+02  0.17010312098E+04  0.21619951077E+04  0.46999998093E+01 0.  1.
       -5    1    3    3    0  502 -0.13335159680E+04 -0.49282271028E+02 -0.10842509601E+04  0.17193940252E+04  0.46999998093E+01 0. -1.
</event>
<event>
 5   0  0.4464951E-07  0.3289261E+04  0.7818609E-02  0.8165633E-01
        1   -1    0    0  501    0  0.00000000000E+00  0.00000000000E+00  0.18037973327E+04  0.18037973327E+04  0.50400001928E-02 0.  1.
       -1   -1    0    0    0  501  0.00000000000E+00  0.00000000000E+00 -0.14995081482E+04  0.14995081482E+04  0.50400001928E-02 0. -1.
    10030    2    1    2    0    0  0.00000000000E+00  0.00000000000E+00  0.30428918445E+03  0.33033054809E+04  0.32892605844E+04 0.  0.
        3    1    3    3  502    0  0.19875880500E+03  0.16148971319E+04 -0.88484388789E+02  0.16294868231E+04  0.10100000352E+00 0.  1.
       -3    1    3    3    0  502 -0.19875880500E+03 -0.16148971319E+04  0.39277357324E+03  0.16738186578E+04  0.10100000352E+00 0. -1.
</event>
<event>
 5   0  0.4289684E-07  0.3349520E+04  0.7818609E-02  0.8150408E-01
       -1   -1    0    0    0  501  0.00000000000E+00  0.00000000000E+00  0.16592490256E+04  0.16592490257E+04  0.50400001928E-02 0. -1.
        1   -1    0    0  501    0  0.00000000000E+00  0.00000000000E+00 -0.16904162695E+04  0.16904162695E+04  0.50400001928E-02 0.  1.
    10030    2    1    2    0    0  0.00000000000E+00  0.00000000000E+00 -0.31167243807E+02  0.33496652951E+04  0.33495202929E+04 0.  0.
        4    1    3    3  502    0 -0.75140801492E+03  0.12316785545E+04 -0.86601673687E+03  0.16827455743E+04  0.12699999809E+01 0.  1.
       -4    1    3    3    0  502  0.75140801492E+03 -0.12316785545E+04  0.83484949306E+03  0.16669197208E+04  0.12699999809E+01 0. -1.
</event>
<event>
 5   0  0.4464951E-07  0.3415016E+04  0.7818609E-02  0.8134231E-01
       -1   -1    0    0    0  501  0.00000000000E+00  0.00000000000E+00  0.13955587799E+04  0.13955587799E+04  0.50400001928E-02 0.  1.
        1   -1    0    0  501    0  0.00000000000E+00  0.00000000000E+00 -0.20891870629E+04  0.20891870629E+04  0.50400001928E-02 0. -1.
    10030    2    1    2    0    0  0.00000000000E+00  0.00000000000E+00 -0.69362828295E+03  0.34847458428E+04  0.34150158702E+04 0.  0.
        3    1    3    3  502    0  0.14724293737E+04 -0.14325679469E+02  0.53531983103E+03  0.15667867810E+04  0.10100000352E+00 0. -1.
       -3    1    3    3    0  502 -0.14724293737E+04  0.14325679469E+02 -0.12289481140E+04  0.19179590618E+04  0.10100000352E+00 0.  1.
</event>
<event>
 5   0  0.4464951E-07  0.3393161E+04  0.7818609E-02  0.8139587E-01
       -1   -1    0    0    0  501  0.00000000000E+00  0.00000000000E+00  0.14663827077E+04  0.14663827077E+04  0.50400001928E-02 0. -1.
        1   -1    0    0  501    0  0.00000000000E+00  0.00000000000E+00 -0.19629156035E+04  0.19629156035E+04  0.50400001928E-02 0.  1.
    10030    2    1    2    0    0  0.00000000000E+00  0.00000000000E+00 -0.49653289575E+03  0.34292983112E+04  0.33931610617E+04 0.  0.
        3    1    3    3  502    0  0.73787607459E+03 -0.73979063932E+03  0.11026192758E+04  0.15190525235E+04  0.10100000352E+00 0. -1.
       -3    1    3    3    0  502 -0.73787607459E+03  0.73979063932E+03 -0.15991521716E+04  0.19102457877E+04  0.10100000352E+00 0.  1.
</event>
<event>
 5   0  0.1268230E-06  0.3397920E+04  0.7818609E-02  0.8138417E-01
        2   -1    0    0  501    0  0.00000000000E+00  0.00000000000E+00  0.17725159326E+04  0.17725159326E+04  0.25500000920E-02 0. -1.
       -2   -1    0    0    0  501  0.00000000000E+00  0.00000000000E+00 -0.16284564049E+04  0.16284564049E+04  0.25500000920E-02 0.  1.
    10030    2    1    2    0    0  0.00000000000E+00  0.00000000000E+00  0.14405952765E+03  0.34009723375E+04  0.33979199067E+04 0.  0.
        2    1    3    3  502    0 -0.88646406453E+03 -0.14000853086E+04 -0.30301675357E+03  0.16845998225E+04  0.25500000920E-02 0.  1.
       -2    1    3    3    0  502  0.88646406453E+03  0.14000853086E+04  0.44707628122E+03  0.17163725150E+04  0.25500000920E-02 0. -1.
</event>
<event>
 5   0  0.4109937E-07  0.3430800E+04  0.7818609E-02  0.8130388E-01
        1   -1    0    0  501    0  0.00000000000E+00  0.00000000000E+00  0.20483103084E+04  0.20483103084E+04  0.50400001928E-02 0. -1.
       -1   -1    0    0    0  501  0.00000000000E+00  0.00000000000E+00 -0.14365976382E+04  0.14365976382E+04  0.50400001928E-02 0.  1.
    10030    2    1    2    0    0  0.00000000000E+00  0.00000000000E+00  0.61171267022E+03  0.34849079466E+04  0.34308003447E+04 0.  0.
        5    1    3    3  502    0  0.89460816889E+03  0.12254239339E+04 -0.50713382291E+03  0.15997482295E+04  0.46999998093E+01 0. -1.
       -5    1    3    3    0  502 -0.89460816889E+03 -0.12254239339E+04  0.11188464931E+04  0.18851597170E+04  0.46999998093E+01 0.  1.
</event>
<event>
 5   0  0.4125758E-07  0.3416907E+04  0.7818609E-02  0.8133769E-01
       -1   -1    0    0    0  501  0.00000000000E+00  0.00000000000E+00  0.10349334240E+04  0.10349334240E+04  0.50400001928E-02 0. -1.
        1   -1    0    0  501    0  0.00000000000E+00  0.00000000000E+00 -0.28202910827E+04  0.28202910827E+04  0.50400001928E-02 0.  1.
    10030    2    1    2    0    0  0.00000000000E+00  0.00000000000E+00 -0.17853576587E+04  0.38552245067E+04  0.34169070851E+04 0.  0.
        2    1    3    3  502    0 -0.11908280550E+02  0.70268022747E+03 -0.26496495077E+04  0.27412668282E+04  0.25500000920E-02 0.  1.
       -2    1    3    3    0  502  0.11908280550E+02 -0.70268022747E+03  0.86429184910E+03  0.11139576786E+04  0.25500000920E-02 0. -1.
</event>
<event>
 5   0  0.4464951E-07  0.2984759E+04  0.7818609E-02  0.8248096E-01
        1   -1    0    0  501    0  0.00000000000E+00  0.00000000000E+00  0.23212749029E+04  0.23212749029E+04  0.50400001928E-02 0.  1.
       -1   -1    0    0    0  501  0.00000000000E+00  0.00000000000E+00 -0.95947143240E+03  0.95947143241E+03  0.50400001928E-02 0. -1.
    10030    2    1    2    0    0  0.00000000000E+00  0.00000000000E+00  0.13618034705E+04  0.32807463353E+04  0.29847592574E+04 0.  0.
        3    1    3    3  502    0 -0.85777963953E+03 -0.10586538228E+04  0.13500972672E+04  0.19181492298E+04  0.10100000352E+00 0.  1.
       -3    1    3    3    0  502  0.85777963953E+03  0.10586538228E+04  0.11706203230E+02  0.13625971055E+04  0.10100000352E+00 0. -1.
</event>
<event>
 5   0  0.1300176E-06  0.3384431E+04  0.7818609E-02  0.8141738E-01
        2   -1    0    0  501    0  0.00000000000E+00  0.00000000000E+00  0.16959869042E+04  0.16959869042E+04  0.25500000920E-02 0. -1.
       -2   -1    0    0    0  501  0.00000000000E+00  0.00000000000E+00 -0.16884529612E+04  0.16884529612E+04  0.25500000920E-02 0.  1.
    10030    2    1    2    0    0  0.00000000000E+00  0.00000000000E+00  0.75339429829E+01  0.33844398654E+04  0.33844314799E+04 0.  0.
        1    1    3    3  502    0 -0.55533320538E+03 -0.15976214650E+04 -0.49193485183E+02  0.16921020399E+04  0.50400001928E-02 0. -1.
       -1    1    3    3    0  502  0.55533320538E+03  0.15976214650E+04  0.56727428165E+02  0.16923378255E+04  0.50400001928E-02 0.  1.
</event>
<event>
 5   0  0.1268230E-06  0.3296761E+04  0.7818609E-02  0.8163720E-01
       -2   -1    0    0    0  501  0.00000000000E+00  0.00000000000E+00  0.12292648601E+04  0.12292648601E+04  0.25500000920E-02 0. -1.
        2   -1    0    0  501    0  0.00000000000E+00  0.00000000000E+00 -0.22103926889E+04  0.22103926889E+04  0.25500000920E-02 0.  1.
    10030    2    1    2    0    0  0.00000000000E+00  0.00000000000E+00 -0.98112782877E+03  0.34396575490E+04  0.32967608706E+04 0.  0.
        2    1    3    3  502    0  0.15573153310E+04 -0.37846923517E+03 -0.89287852343E+03  0.18345849830E+04  0.25500000920E-02 0.  1.
       -2    1    3    3    0  502 -0.15573153310E+04  0.37846923517E+03 -0.88249305342E+02  0.16050725660E+04  0.25500000920E-02 0. -1.
</event>
<event>
 5   0  0.4464951E-07  0.3337198E+04  0.7818609E-02  0.8153494E-01
        1   -1    0    0  501    0  0.00000000000E+00  0.00000000000E+00  0.14978687162E+04  0.14978687162E+04  0.50400001928E-02 0.  1.
       -1   -1    0    0    0  501  0.00000000000E+00  0.00000000000E+00 -0.18587890202E+04  0.18587890202E+04  0.50400001928E-02 0. -1.
    10030    2    1    2    0    0  0.00000000000E+00  0.00000000000E+00 -0.36092030394E+03  0.33566577364E+04  0.33371975809E+04 0.  0.
        3    1    3    3  502    0 -0.10460662931E+04 -0.91602224195E+03  0.74734518762E+03  0.15785677929E+04  0.10100000352E+00 0.  1.
       -3    1    3    3    0  502  0.10460662931E+04  0.91602224195E+03 -0.11082654916E+04  0.17780899435E+04  0.10100000352E+00 0. -1.
</event>
<event>
 5   0  0.1300176E-06  0.3175080E+04  0.7818609E-02  0.8195430E-01
        2   -1    0    0  501    0  0.00000000000E+00  0.00000000000E+00  0.22040605554E+04  0.22040605554E+04  0.25500000920E-02 0. -1.
       -2   -1    0    0    0  501  0.00000000000E+00  0.00000000000E+00 -0.11434728220E+04  0.11434728220E+04  0.25500000920E-02 0.  1.
    10030    2    1    2    0    0  0.00000000000E+00  0.00000000000E+00  0.10605877334E+04  0.33475333774E+04  0.31750800577E+04 0.  0.
        1    1    3    3  502    0  0.11858188865E+04 -0.53695351852E+03 -0.42779789202E+03  0.13702177014E+04  0.50400001928E-02 0.  1.
       -1    1    3    3    0  502 -0.11858188865E+04  0.53695351852E+03  0.14883856254E+04  0.19773156760E+04  0.50400001928E-02 0. -1.
</event>
<event>
 5   0  0.4272633E-07  0.3333792E+04  0.7818609E-02  0.8154350E-01
       -1   -1    0    0    0  501  0.00000000000E+00  0.00000000000E+00  0.12562901264E+04  0.12562901264E+04  0.50400001928E-02 0. -1.
        1   -1    0    0  501    0  0.00000000000E+00  0.00000000000E+00 -0.22117043578E+04  0.22117043578E+04  0.50400001928E-02 0.  1.
    10030    2    1    2    0    0  0.00000000000E+00  0.00000000000E+00 -0.95541423142E+03  0.34679944842E+04  0.33337920434E+04 0.  0.
        1    1    3    3  502    0 -0.79174302843E+03  0.49165499636E+03  0.95993936848E+03  0.13379332008E+04  0.50400001928E-02 0. -1.
       -1    1    3    3    0  502  0.79174302843E+03 -0.49165499636E+03 -0.19153535999E+04  0.21300612834E+04  0.50400001928E-02 0.  1.
</event>
<event>
 5   0  0.4464951E-07  0.3422969E+04  0.7818609E-02  0.8132292E-01
        1   -1    0    0  501    0  0.00000000000E+00  0.00000000000E+00  0.16251853537E+04  0.16251853537E+04  0.50400001928E-02 0. -1.
       -1   -1    0    0    0  501  0.00000000000E+00  0.00000000000E+00 -0.18023665682E+04  0.18023665682E+04  0.50400001928E-02 0.  1.
    10030    2    1    2    0    0  0.00000000000E+00  0.00000000000E+00 -0.17718121449E+03  0.34275519219E+04  0.34229693242E+04 0.  0.
        3    1    3    3  502    0  0.77985091211E+02 -0.15913448469E+04 -0.71450315435E+03  0.17461313994E+04  0.10100000352E+00 0.  1.
       -3    1    3    3    0  502 -0.77985091211E+02  0.15913448469E+04  0.53732193986E+03  0.16814205225E+04  0.10100000352E+00 0. -1.
</event>
<event>
 5   0  0.1277635E-06  0.3365081E+04  0.7818609E-02  0.8146530E-01
       -2   -1    0    0    0  501  0.00000000000E+00  0.00000000000E+00  0.99764948114E+03  0.99764948114E+03  0.25500000920E-02 0.  1.
        2   -1    0    0  501    0  0.00000000000E+00  0.00000000000E+00 -0.28376129522E+04  0.28376129522E+04  0.25500000920E-02 0. -1.
    10030    2    1    2    0    0  0.00000000000E+00  0.00000000000E+00 -0.18399634711E+04  0.38352624334E+04  0.33650813301E+04 0.  0.
        4    1    3    3  502    0 -0.36335059810E+03 -0.56650436489E+03  0.83755572494E+03  0.10744543070E+04  0.12699999809E+01 0.  1.
       -4    1    3    3    0  502  0.36335059810E+03  0.56650436489E+03 -0.26775191960E+04  0.27608081264E+04  0.12699999809E+01 0. -1.
</event>
<event>
 5   0  0.4060750E-07  0.3092401E+04  0.7818609E-02  0.8217826E-01
       -4   -1    0    0    0  501  0.00000000000E+00  0.00000000000E+00  0.15872330669E+04  0.15872335749E+04  0.12699999809E+01 0.  1.
        4   -1    0    0  501    0  0.00000000000E+00  0.00000000000E+00 -0.15062276520E+04  0.15062281874E+04  0.12699999809E+01 0. -1.
    10030    2    1    2    0    0  0.00000000000E+00  0.00000000000E+00  0.81005414817E+02  0.30934617624E+04  0.30924009763E+04 0.  0.
        5    1    3    3  502    0 -0.54230466805E+03  0.79456401448E+02  0.14867877789E+04  0.15846033138E+04  0.46999998093E+01 0.  1.
       -5    1    3    3    0  502  0.54230466805E+03 -0.79456401448E+02 -0.14057823641E+04  0.15088584486E+04  0.46999998093E+01 0. -1.
</event>
<event>
 5   0  0.1300176E-06  0.3378330E+04  0.7818609E-02  0.8143245E-01
       -2   -1    0    0    0  501  0.00000000000E+00  0.00000000000E+00  0.10650053767E+04  0.10650053767E+04  0.25500000920E-02 0.  1.
        2   -1    0    0  501    0  0.00000000000E+00  0.00000000000E+00 -0.26791215807E+04  0.26791215807E+04  0.25500000920E-02 0. -1.
    10030    2    1    2    0    0  0.00000000000E+00  0.00000000000E+00 -0.16141162040E+04  0.37441269574E+04  0.33783302908E+04 0.  0.
        1    1    3    3  502    0 -0.16274454047E+04  0.45174545165E+03 -0.83479582748E+03  0.18840213831E+04  0.50400001928E-02 0.  1.
       -1    1    3    3    0  502  0.16274454047E+04 -0.45174545165E+03 -0.77932037648E+03  0.18601055743E+04  0.50400001928E-02 0. -1.
</event>
<event>
 5   0  0.1269497E-06  0.3367998E+04  0.7818609E-02  0.8145806E-01
       -2   -1    0    0    0  501  0.00000000000E+00  0.00000000000E+00  0.12932273131E+04  0.12932273131E+04  0.25500000920E-02 0.  1.
        2   -1    0    0  501    0  0.00000000000E+00  0.00000000000E+00 -0.21928492421E+04  0.21928492421E+04  0.25500000920E-02 0. -1.
    10030    2    1    2    0    0  0.00000000000E+00  0.00000000000E+00 -0.89962192900E+03  0.34860765551E+04  0.33679979414E+04 0.  0.
        5    1    3    3  502    0 -0.14120414459E+04  0.60070849087E+03  0.26813411713E+03  0.15577643374E+04  0.46999998093E+01 0. -1.
       -5    1    3    3    0  502  0.14120414459E+04 -0.60070849087E+03 -0.11677560461E+04  0.19283122178E+04  0.46999998093E+01 0.  1.
</event>
<event>
 5   0  0.1277635E-06  0.3404261E+04  0.7818609E-02  0.8136861E-01
        2   -1    0    0  501    0  0.00000000000E+00  0.00000000000E+00  0.21380247580E+04  0.21380247580E+04  0.25500000920E-02 0. -1.
       -2   -1    0    0    0  501  0.00000000000E+00  0.00000000000E+00 -0.13551052802E+04  0.13551052802E+04  0.25500000920E-02 0.  1.
    10030    2    1    2    0    0  0.00000000000E+00  0.00000000000E+00  0.78291947780E+03  0.34931300381E+04  0.34042612348E+04 0.  0.
        4    1    3    3  502    0 -0.77406117382E+03  0.64420717781E+03  0.17995338141E+04  0.20621583716E+04  0.12699999809E+01 0. -1.
       -4    1    3    3    0  502  0.77406117382E+03 -0.64420717781E+03 -0.10166143363E+04  0.14309716665E+04  0.12699999809E+01 0.  1.
</event>
<event>
 5   0  0.4464951E-07  0.3404334E+04  0.7818609E-02  0.8136843E-01
       -1   -1    0    0    0  501  0.00000000000E+00  0.00000000000E+00  0.13784192954E+04  0.13784192954E+04  0.50400001928E-02 0. -1.
        1   -1    0    0  501    0  0.00000000000E+00  0.00000000000E+00 -0.21019528708E+04  0.21019528708E+04  0.50400001928E-02 0.  1.
    10030    2    1    2    0    0  0.00000000000E+00  0.00000000000E+00 -0.72353357539E+03  0.34803721662E+04  0.34043339408E+04 0.  0.
        3    1    3    3  502    0 -0.62443681358E+03  0.12820095883E+04 -0.13119905551E+04  0.19377278306E+04  0.10100000352E+00 0.  1.
       -3    1    3    3    0  502  0.62443681358E+03 -0.12820095883E+04  0.58845697972E+03  0.15426443355E+04  0.10100000352E+00 0. -1.
</event>
<event>
 5   0  0.4464951E-07  0.3382205E+04  0.7818609E-02  0.8142288E-01
       -1   -1    0    0    0  501  0.00000000000E+00  0.00000000000E+00  0.10190715454E+04  0.10190715454E+04  0.50400001928E-02 0.  1.
        1   -1    0    0  501    0  0.00000000000E+00  0.00000000000E+00 -0.28063074793E+04  0.28063074794E+04  0.50400001928E-02 0. -1.
    10030    2    1    2    0    0  0.00000000000E+00  0.00000000000E+00 -0.17872359340E+04  0.38253790247E+04  0.33822052568E+04 0.  0.
        3    1    3    3  502    0  0.15817115458E+04  0.43622693292E+03 -0.43041590473E+03  0.16962792260E+04  0.10100000352E+00 0.  1.
       -3    1    3    3    0  502 -0.15817115458E+04 -0.43622693292E+03 -0.13568200292E+04  0.21290997988E+04  0.10100000352E+00 0. -1.
</event>
<event>
 5   0  0.1256208E-06  0.3377298E+04  0.7818609E-02  0.8143501E-01
        2   -1    0    0  501    0  0.00000000000E+00  0.00000000000E+00  0.19419502007E+04  0.19419502007E+04  0.25500000920E-02 0.  1.
       -2   -1    0    0    0  501  0.00000000000E+00  0.00000000000E+00 -0.14683876161E+04  0.14683876161E+04  0.25500000920E-02 0. -1.
    10030    2    1    2    0    0  0.00000000000E+00  0.00000000000E+00  0.47356258461E+03  0.34103378168E+04  0.33772981070E+04 0.  0.
        3    1    3    3  502    0  0.47637849239E+03 -0.11795473482E+04 -0.88460849106E+03  0.15494517119E+04  0.10100000352E+00 0. -1.
       -3    1    3    3    0  502 -0.47637849239E+03  0.11795473482E+04  0.13581710757E+04  0.18608861050E+04  0.10100000352E+00 0.  1.
</event>
<event>
 5   0  0.1277635E-06  0.3301574E+04  0.7818609E-02  0.8162495E-01
       -2   -1    0    0    0  501  0.00000000000E+00  0.00000000000E+00  0.10042845270E+04  0.10042845270E+04  0.25500000920E-02 0.  1.
        2   -1    0    0  501    0  0.00000000000E+00  0.00000000000E+00 -0.27134717866E+04  0.27134717866E+04  0.25500000920E-02 0. -1.
    10030    2    1    2    0    0  0.00000000000E+00  0.00000000000E+00 -0.17091872596E+04  0.37177563136E+04  0.33015740063E+04 0.  0.
        4    1    3    3  502    0 -0.96171922141E+02 -0.16394309011E+04 -0.10433999633E+04  0.19456792681E+04  0.12699999809E+01 0. -1.
       -4    1    3    3    0  502  0.96171922141E+02  0.16394309011E+04 -0.66578729632E+03  0.17720770455E+04  0.12699999809E+01 0.  1.
</event>
<event>
 5   0  0.4125758E-07  0.3403730E+04  0.7818609E-02  0.8136991E-01
        1   -1    0    0  501    0  0.00000000000E+00  0.00000000000E+00  0.17429037511E+04  0.17429037511E+04  0.50400001928E-02 0. -1.
       -1   -1    0    0    0  501  0.00000000000E+00  0.00000000000E+00 -0.16617927597E+04  0.16617927597E+04  0.50400001928E-02 0.  1.
    10030    2    1    2    0    0  0.00000000000E+00  0.00000000000E+00  0.81110991388E+02  0.34046965108E+04  0.34037302093E+04 0.  0.
        2    1    3    3  502    0  0.58100849370E+03  0.12353406742E+04 -0.97595511769E+03  0.16781316524E+04  0.25500000920E-02 0.  1.
       -2    1    3    3    0  502 -0.58100849370E+03 -0.12353406742E+04  0.10570661091E+04  0.17265648584E+04  0.25500000920E-02 0. -1.
</event>
<event>
 5   0  0.4272633E-07  0.3459452E+04  0.7818609E-02  0.8123467E-01
       -1   -1    0    0    0  501  0.00000000000E+00  0.00000000000E+00  0.19718799021E+04  0.19718799021E+04  0.50400001928E-02 0. -1.
        1   -1    0    0  501    0  0.00000000000E+00  0.00000000000E+00 -0.15173092781E+04  0.15173092781E+04  0.50400001928E-02 0.  1.
    10030    2    1    2    0    0  0.00000000000E+00  0.00000000000E+00  0.45457062405E+03  0.34891891802E+04  0.34594517894E+04 0.  0.
        1    1    3    3  502    0  0.12729257432E+04 -0.44031518296E+02 -0.95310510107E+03  0.15908136459E+04  0.50400001928E-02 0.  1.
       -1    1    3    3    0  502 -0.12729257432E+04  0.44031518296E+02  0.14076757251E+04  0.18983755343E+04  0.50400001928E-02 0. -1.
</event>
<event>
 5   0  0.4125758E-07  0.3411293E+04  0.7818609E-02  0.8135140E-01
       -1   -1    0    0    0  501  0.00000000000E+00  0.00000000000E+00  0.11173774543E+04  0.11173774543E+04  0.50400001928E-02 0. -1.
        1   -1    0    0  501    0  0.00000000000E+00  0.00000000000E+00 -0.26036225496E+04  0.26036225496E+04  0.50400001928E-02 0.  1.
    10030    2    1    2    0    0  0.00000000000E+00  0.00000000000E+00 -0.14862450953E+04  0.37210000039E+04  0.34112925037E+04 0.  0.
        2    1    3    3  502    0  0.19128887757E+03 -0.32076153539E+03  0.10722299859E+04  0.11354102958E+04  0.25500000920E-02 0. -1.
       -2    1    3    3    0  502 -0.19128887757E+03  0.32076153539E+03 -0.25584750812E+04  0.25855897080E+04  0.25500000920E-02 0.  1.
</event>
<event>
 5   0  0.1277635E-06  0.2731838E+04  0.7818609E-02  0.8324748E-01
       -2   -1    0    0    0  501  0.00000000000E+00  0.00000000000E+00  0.15921315998E+04  0.15921315998E+04  0.25500000920E-02 0.  1.
        2   -1    0    0  501    0  0.00000000000E+00  0.00000000000E+00 -0.11718471042E+04  0.11718471042E+04  0.25500000920E-02 0. -1.
    10030    2    1    2    0    0  0.00000000000E+00  0.00000000000E+00  0.42028449567E+03  0.27639787040E+04  0.27318380660E+04 0.  0.
        4    1    3    3  502    0 -0.44600202498E+03 -0.87934116374E+03  0.11665544855E+04  0.15274192840E+04  0.12699999809E+01 0.  1.
       -4    1    3    3    0  502  0.44600202498E+03  0.87934116374E+03 -0.74626998985E+03  0.12365594200E+04  0.12699999809E+01 0. -1.
</event>
<event>
 5   0  0.1277635E-06  0.3397259E+04  0.7818609E-02  0.8138579E-01
       -2   -1    0    0    0  501  0.00000000000E+00  0.00000000000E+00  0.14881867300E+04  0.14881867300E+04  0.25500000920E-02 0. -1.
        2   -1    0    0  501    0  0.00000000000E+00  0.00000000000E+00 -0.19388307608E+04  0.19388307608E+04  0.25500000920E-02 0.  1.
    10030    2    1    2    0    0  0.00000000000E+00  0.00000000000E+00 -0.45064403086E+03  0.34270174908E+04  0.33972590186E+04 0.  0.
        4    1    3    3  502    0 -0.75655985465E+03 -0.11670766727E+04 -0.12089995670E+04  0.18428598264E+04  0.12699999809E+01 0.  1.
       -4    1    3    3    0  502  0.75655985465E+03  0.11670766727E+04  0.75835553614E+03  0.15841576644E+04  0.12699999809E+01 0. -1.
</event>
<event>
 5   0  0.1269497E-06  0.3240781E+04  0.7818609E-02  0.8178129E-01
        2   -1    0    0  501    0  0.00000000000E+00  0.00000000000E+00  0.18660189652E+04  0.18660189652E+04  0.25500000920E-02 0.  1.
       -2   -1    0    0    0  501  0.00000000000E+00  0.00000000000E+00 -0.14070943420E+04  0.14070943420E+04  0.25500000920E-02 0. -1.
    10030    2    1    2    0    0  0.00000000000E+00  0.00000000000E+00  0.45892462318E+03  0.32731133073E+04  0.32407806023E+04 0.  0.
        5    1    3    3  502    0  0.77884567629E+03 -0.26850583061E+03  0.16387135880E+04  0.18341483806E+04  0.46999998093E+01 0.  1.
       -5    1    3    3    0  502 -0.77884567629E+03  0.26850583061E+03 -0.11797889648E+04  0.14389649266E+04  0.46999998093E+01 0. -1.
</event>
<event>
 5   0  0.4464951E-07  0.3407742E+04  0.7818609E-02  0.8136009E-01
       -1   -1    0    0    0  501  0.00000000000E+00  0.00000000000E+00  0.15424051684E+04  0.15424051684E+04  0.50400001928E-02 0.  1.
        1   -1    0    0  501    0  0.00000000000E+00  0.00000000000E+00 -0.18822399312E+04  0.18822399312E+04  0.50400001928E-02 0. -1.
    10030    2    1    2    0    0  0.00000000000E+00  0.00000000000E+00 -0.33983476283E+03  0.34246450996E+04  0.34077421253E+04 0.  0.
        3    1    3    3  502    0 -0.71492980379E+03  0.10603618356E+04 -0.13014171779E+04  0.18246036633E+04  0.10100000352E+00 0. -1.
       -3    1    3    3    0  502  0.71492980379E+03 -0.10603618356E+04  0.96158241511E+03  0.16000414364E+04  0.10100000352E+00 0.  1.
</event>
<event>
 5   0  0.4125758E-07  0.3457935E+04  0.7818609E-02  0.8123832E-01
       -1   -1    0    0    0  501  0.00000000000E+00  0.00000000000E+00  0.14843671535E+04  0.14843671535E+04  0.50400001928E-02 0. -1.
        1   -1    0    0  501    0  0.00000000000E+00  0.00000000000E+00 -0.20138738288E+04  0.20138738288E+04  0.50400001928E-02 0.  1.
    10030    2    1    2    0    0  0.00000000000E+00  0.00000000000E+00 -0.52950667530E+03  0.34982409824E+04  0.34579347379E+04 0.  0.
        2    1    3    3  502    0 -0.15025360453E+04  0.70611523042E+03  0.22369420127E+03  0.16751872677E+04  0.25500000920E-02 0. -1.
       -2    1    3    3    0  502  0.15025360453E+04 -0.70611523042E+03 -0.75320087657E+03  0.18230537147E+04  0.25500000920E-02 0.  1.
</event>
<event>
 5   0  0.1300176E-06  0.3405120E+04  0.7818609E-02  0.8136651E-01
        2   -1    0    0  501    0  0.00000000000E+00  0.00000000000E+00  0.18069827367E+04  0.18069827367E+04  0.25500000920E-02 0.  1.
       -2   -1    0    0    0  501  0.00000000000E+00  0.00000000000E+00 -0.16041719173E+04  0.16041719173E+04  0.25500000920E-02 0. -1.
    10030    2    1    2    0    0  0.00000000000E+00  0.00000000000E+00  0.20281081935E+03  0.34111546540E+04  0.34051202395E+04 0.  0.
        1    1    3    3  502    0  0.11496910665E+04  0.82863828176E+03  0.10466240312E+04  0.17617754718E+04  0.50400001928E-02 0.  1.
       -1    1    3    3    0  502 -0.11496910665E+04 -0.82863828176E+03 -0.84381321183E+03  0.16493791822E+04  0.50400001928E-02 0. -1.
</event>
<event>
 5   0  0.4289684E-07  0.3360276E+04  0.7818609E-02  0.8147725E-01
        1   -1    0    0  501    0  0.00000000000E+00  0.00000000000E+00  0.21295932941E+04  0.21295932941E+04  0.50400001928E-02 0. -1.
       -1   -1    0    0    0  501  0.00000000000E+00  0.00000000000E+00 -0.13255410640E+04  0.13255410640E+04  0.50400001928E-02 0.  1.
    10030    2    1    2    0    0  0.00000000000E+00  0.00000000000E+00  0.80405223010E+03  0.34551343581E+04  0.33602757988E+04 0.  0.
        4    1    3    3  502    0  0.16096657040E+04  0.48064531523E+03  0.43143689606E+03  0.17344114293E+04  0.12699999809E+01 0.  1.
       -4    1    3    3    0  502 -0.16096657040E+04 -0.48064531523E+03  0.37261533404E+03  0.17207229289E+04  0.12699999809E+01 0. -1.
</event>
<event>
 5   0  0.1277635E-06  0.3417858E+04  0.7818609E-02  0.8133537E-01
       -2   -1    0    0    0  501  0.00000000000E+00  0.00000000000E+00  0.12867889965E+04  0.12867889965E+04  0.25500000920E-02 0. -1.
        2   -1    0    0  501    0  0.00000000000E+00  0.00000000000E+00 -0.22695555244E+04  0.22695555244E+04  0.25500000920E-02 0.  1.
    10030    2    1    2    0    0  0.00000000000E+00  0.00000000000E+00 -0.98276652795E+03  0.35563445209E+04  0.34178584381E+04 0.  0.
        4    1    3    3  502    0 -0.16115185340E+04  0.53517755690E+03 -0.69161333839E+03  0.18335041930E+04  0.12699999809E+01 0.  1.
       -4    1    3    3    0  502  0.16115185340E+04 -0.53517755690E+03 -0.29115318956E+03  0.17228403280E+04  0.12699999809E+01 0. -1.
</event>
<event>
 5   0  0.1268230E-06  0.3397370E+04  0.7818609E-02  0.8138552E-01
        2   -1    0    0  501    0  0.00000000000E+00  0.00000000000E+00  0.16509546053E+04  0.16509546053E+04  0.25500000920E-02 0. -1.
       -2   -1    0    0    0  501  0.00000000000E+00  0.00000000000E+00 -0.17477948595E+04  0.17477948595E+04  0.25500000920E-02 0.  1.
    10030    2    1    2    0    0  0.00000000000E+00  0.00000000000E+00 -0.96840254257E+02  0.33987494648E+04  0.33973695545E+04 0.  0.
        2    1    3    3  502    0 -0.12634583599E+04 -0.78158416664E+03  0.77552178936E+03  0.16758982316E+04  0.25500000920E-02 0. -1.
       -2    1    3    3    0  502  0.12634583599E+04  0.78158416664E+03 -0.87236204362E+03  0.17228512333E+04  0.25500000920E-02 0.  1.
</event>
<event>
 5   0  0.4289684E-07  0.3418713E+04  0.7818609E-02  0.8133329E-01
        1   -1    0    0  501    0  0.00000000000E+00  0.00000000000E+00  0.19223198511E+04  0.19223198511E+04  0.50400001928E-02 0.  1.
       -1   -1    0    0    0  501  0.00000000000E+00  0.00000000000E+00 -0.15199862566E+04  0.15199862566E+04  0.50400001928E-02 0. -1.
    10030    2    1    2    0    0  0.00000000000E+00  0.00000000000E+00  0.40233359452E+03  0.34423061077E+04  0.34187130646E+04 0.  0.
        4    1    3    3  502    0 -0.13801080784E+04  0.95575274899E+02 -0.80978662575E+03  0.16029937409E+04  0.12699999809E+01 0. -1.
       -4    1    3    3    0  502  0.13801080784E+04 -0.95575274899E+02  0.12121202203E+04  0.18393123668E+04  0.12699999809E+01 0.  1.
</event>
<event>
 5   0  0.1277635E-06  0.3360790E+04  0.7818609E-02  0.8147597E-01
        2   -1    0    0  501    0  0.00000000000E+00  0.00000000000E+00  0.22168020266E+04  0.22168020266E+04  0.25500000920E-02 0.  1.
       -2   -1    0    0    0  501  0.00000000000E+00  0.00000000000E+00 -0.12737839409E+04  0.12737839409E+04  0.25500000920E-02 0. -1.
    10030    2    1    2    0    0  0.00000000000E+00  0.00000000000E+00  0.94301808573E+03  0.34905859675E+04  0.33607896820E+04 0.  0.
        4    1    3    3  502    0 -0.37789164784E+03  0.16328995017E+04  0.34617402827E+03  0.17114324266E+04  0.12699999809E+01 0. -1.
       -4    1    3    3    0  502  0.37789164784E+03 -0.16328995017E+04  0.59684405745E+03  0.17791535409E+04  0.12699999809E+01 0.  1.
</event>
<event>
 5   0  0.4464951E-07  0.3367443E+04  0.7818609E-02  0.8145943E-01
        1   -1    0    0  501    0  0.00000000000E+00  0.00000000000E+00  0.20442947927E+04  0.20442947927E+04  0.50400001928E-02 0.  1.
       -1   -1    0    0    0  501  0.00000000000E+00  0.00000000000E+00 -0.13867462714E+04  0.13867462714E+04  0.50400001928E-02 0. -1.
    10030    2    1    2    0    0  0.00000000000E+00  0.00000000000E+00  0.65754852134E+03  0.34310410641E+04  0.33674430545E+04 0.  0.
        3    1    3    3  502    0  0.66703544691E+03 -0.56876233224E+03  0.17934532292E+04  0.19962217746E+04  0.10100000352E+00 0.  1.
       -3    1    3    3    0  502 -0.66703544691E+03  0.56876233224E+03 -0.11359047078E+04  0.14348192895E+04  0.10100000352E+00 0. -1.
</event>
<event>
 5   0  0.1269497E-06  0.3409097E+04  0.7818609E-02  0.8135677E-01
       -2   -1    0    0    0  501  0.00000000000E+00  0.00000000000E+00  0.94353838522E+03  0.94353838523E+03  0.25500000920E-02 0.  1.
        2   -1    0    0  501    0  0.00000000000E+00  0.00000000000E+00 -0.30793504672E+04  0.30793504672E+04  0.25500000920E-02 0. -1.
    10030    2    1    2    0    0  0.00000000000E+00  0.00000000000E+00 -0.21358120820E+04  0.40228888524E+04  0.34090968701E+04 0.  0.
        5    1    3    3  502    0  0.11790292705E+04 -0.25090652325E+03  0.35423178606E+03  0.12564101052E+04  0.46999998093E+01 0.  1.
       -5    1    3    3    0  502 -0.11790292705E+04  0.25090652325E+03 -0.24900438680E+04  0.27664787472E+04  0.46999998093E+01 0. -1.
</event>
<event>
 5   0  0.1269497E-06  0.3412941E+04  0.7818609E-02  0.8134737E-01
        2   -1    0    0  501    0  0.00000000000E+00  0.00000000000E+00  0.20944096910E+04  0.20944096910E+04  0.25500000920E-02 0. -1.
       -2   -1    0    0    0  501  0.00000000000E+00  0.00000000000E+00 -0.13903880618E+04  0.13903880618E+04  0.25500000920E-02 0.  1.
    10030    2    1    2    0    0  0.00000000000E+00  0.00000000000E+00  0.70402162923E+03  0.34847977528E+04  0.34129413888E+04 0.  0.
        5    1    3    3  502    0  0.12251303339E+04  0.11477682041E+04  0.39454908576E+02  0.16792542884E+04  0.46999998093E+01 0. -1.
       -5    1    3    3    0  502 -0.12251303339E+04 -0.11477682041E+04  0.66456672065E+03  0.18055434643E+04  0.46999998093E+01 0.  1.
</event>
<event>
 5   0  0.1300176E-06  0.3409592E+04  0.7818609E-02  0.8135556E-01
        2   -1    0    0  501    0  0.00000000000E+00  0.00000000000E+00  0.16288640031E+04  0.16288640031E+04  0.25500000920E-02 0. -1.
       -2   -1    0    0    0  501  0.00000000000E+00  0.00000000000E+00 -0.17842675686E+04  0.17842675686E+04  0.25500000920E-02 0.  1.
    10030    2    1    2    0    0  0.00000000000E+00  0.00000000000E+00 -0.15540356548E+03  0.34131315716E+04  0.34095918901E+04 0.  0.
        1    1    3    3  502    0  0.98937965245E+03 -0.13703717046E+04  0.14510176177E+03  0.16964212999E+04  0.50400001928E-02 0.  1.
       -1    1    3    3    0  502 -0.98937965245E+03  0.13703717046E+04 -0.30050532724E+03  0.17167102717E+04  0.50400001928E-02 0. -1.
</event>
<event>
 5   0  0.4289684E-07  0.3375826E+04  0.7818609E-02  0.8143865E-01
       -1   -1    0    0    0  501  0.00000000000E+00  0.00000000000E+00  0.16680147329E+04  0.16680147329E+04  0.50400001928E-02 0.  1.
        1   -1    0    0  501    0  0.00000000000E+00  0.00000000000E+00 -0.17080491332E+04  0.17080491332E+04  0.50400001928E-02 0. -1.
    10030    2    1    2    0    0  0.00000000000E+00  0.00000000000E+00 -0.40034400303E+02  0.33760638661E+04  0.33758264876E+04 0.  0.
        4    1    3    3  502    0  0.55060431672E+02  0.16863356988E+04 -0.67872060223E+02  0.16885994106E+04  0.12699999809E+01 0. -1.
       -4    1    3    3    0  502 -0.55060431672E+02 -0.16863356988E+04  0.27837659920E+02  0.16874644554E+04  0.12699999809E+01 0.  1.
</event>
<event>
 5   0  0.4464951E-07  0.3377454E+04  0.7818609E-02  0.8143462E-01
        1   -1    0    0  501    0  0.00000000000E+00  0.00000000000E+00  0.17193596244E+04  0.17193596244E+04  0.50400001928E-02 0. -1.
       -1   -1    0    0    0  501  0.00000000000E+00  0.00000000000E+00 -0.16586404275E+04  0.16586404275E+04  0.50400001928E-02 0.  1.
    10030    2    1    2    0    0  0.00000000000E+00  0.00000000000E+00  0.60719196827E+02  0.33780000519E+04  0.33774542972E+04 0.  0.
        3    1    3    3  502    0  0.31070925264E+03 -0.12831794144E+04 -0.10227634046E+04  0.16700702504E+04  0.10100000352E+00 0.  1.
       -3    1    3    3    0  502 -0.31070925264E+03  0.12831794144E+04  0.10834826015E+04  0.17079298015E+04  0.10100000352E+00 0. -1.
</event>
<event>
 5   0  0.4464951E-07  0.3440610E+04  0.7818609E-02  0.8128011E-01
       -1   -1    0    0    0  501  0.00000000000E+00  0.00000000000E+00  0.12588172137E+04  0.12588172137E+04  0.50400001928E-02 0. -1.
        1   -1    0    0  501    0  0.00000000000E+00  0.00000000000E+00 -0.23509756541E+04  0.23509756541E+04  0.50400001928E-02 0.  1.
    10030    2    1    2    0    0  0.00000000000E+00  0.00000000000E+00 -0.10921584405E+04  0.36097928678E+04  0.34406096101E+04 0.  0.
        3    1    3    3  502    0 -0.16413292637E+04 -0.15845327214E+03 -0.31685655531E+02  0.16492644367E+04  0.10100000352E+00 0.  1.
       -3    1    3    3    0  502  0.16413292637E+04  0.15845327214E+03 -0.10604727850E+04  0.19605284311E+04  0.10100000352E+00 0. -1.
</event>
<event>
 5   0  0.1277635E-06  0.3399616E+04  0.7818609E-02  0.8138000E-01
        2   -1    0    0  501    0  0.00000000000E+00  0.00000000000E+00  0.18897313984E+04  0.18897313984E+04  0.25500000920E-02 0.  1.
       -2   -1    0    0    0  501  0.00000000000E+00  0.00000000000E+00 -0.15289728443E+04  0.15289728443E+04  0.25500000920E-02 0. -1.
    10030    2    1    2    0    0  0.00000000000E+00  0.00000000000E+00  0.36075855411E+03  0.34187042427E+04  0.33996164438E+04 0.  0.
        4    1    3    3  502    0 -0.13453062120E+04  0.10376898196E+04  0.23260750589E+03  0.17148635020E+04  0.12699999809E+01 0.  1.
       -4    1    3    3    0  502  0.13453062120E+04 -0.10376898196E+04  0.12815104822E+03  0.17038407407E+04  0.12699999809E+01 0. -1.
</event>
<event>
 5   0  0.4109937E-07  0.3387957E+04  0.7818609E-02  0.8140868E-01
        1   -1    0    0  501    0  0.00000000000E+00  0.00000000000E+00  0.19286333473E+04  0.19286333473E+04  0.50400001928E-02 0.  1.
       -1   -1    0    0    0  501  0.00000000000E+00  0.00000000000E+00 -0.14878742645E+04  0.14878742645E+04  0.50400001928E-02 0. -1.
    10030    2    1    2    0    0  0.00000000000E+00  0.00000000000E+00  0.44075908287E+03  0.34165076118E+04  0.33879574514E+04 0.  0.
        5    1    3    3  502    0 -0.16191082194E+04  0.19426273873E+03  0.68282043203E+03  0.17679126874E+04  0.46999998093E+01 0.  1.
       -5    1    3    3    0  502  0.16191082194E+04 -0.19426273873E+03 -0.24206134916E+03  0.16485949244E+04  0.46999998093E+01 0. -1.
</event>
<event>
 5   0  0.4272633E-07  0.3379356E+04  0.7818609E-02  0.8142992E-01
       -1   -1    0    0    0  501  0.00000000000E+00  0.00000000000E+00  0.88505421971E+03  0.88505421972E+03  0.50400001928E-02 0.  1.
        1   -1    0    0  501    0  0.00000000000E+00  0.00000000000E+00 -0.32258040021E+04  0.32258040021E+04  0.50400001928E-02 0. -1.
    10030    2    1    2    0    0  0.00000000000E+00  0.00000000000E+00 -0.23407497824E+04  0.41108582218E+04  0.33793558227E+04 0.  0.
        1    1    3    3  502    0 -0.15300035704E+03 -0.79526340819E+03 -0.29743346142E+04  0.30826156742E+04  0.50400001928E-02 0. -1.
       -1    1    3    3    0  502  0.15300035704E+03  0.79526340819E+03  0.63358483179E+03  0.10282425476E+04  0.50400001928E-02 0.  1.
</event>
<event>
 5   0  0.4125758E-07  0.3412723E+04  0.7818609E-02  0.8134791E-01
       -1   -1    0    0    0  501  0.00000000000E+00  0.00000000000E+00  0.25397182867E+04  0.25397182867E+04  0.50400001928E-02 0. -1.
        1   -1    0    0  501    0  0.00000000000E+00  0.00000000000E+00 -0.11464537416E+04  0.11464537416E+04  0.50400001928E-02 0.  1.
    10030    2    1    2    0    0  0.00000000000E+00  0.00000000000E+00  0.13932645451E+04  0.36861720283E+04  0.34127229787E+04 0.  0.
        2    1    3    3  502    0  0.15803511792E+04 -0.56293654551E+03  0.10334899479E+04  0.19704083019E+04  0.25500000920E-02 0. -1.
       -2    1    3    3    0  502 -0.15803511792E+04  0.56293654551E+03  0.35977459721E+03  0.17157637264E+04  0.25500000920E-02 0.  1.
</event>
<event>
 5   0  0.1256208E-06  0.3364798E+04  0.7818609E-02  0.8146601E-01
        2   -1    0    0  501    0  0.00000000000E+00  0.00000000000E+00  0.14373740563E+04  0.14373740563E+04  0.25500000920E-02 0.  1.
       -2   -1    0    0    0  501  0.00000000000E+00  0.00000000000E+00 -0.19691920857E+04  0.19691920857E+04  0.25500000920E-02 0. -1.
    10030    2    1    2    0    0  0.00000000000E+00  0.00000000000E+00 -0.53181802941E+03  0.34065661420E+04  0.33647975368E+04 0.  0.
        3    1    3    3  502    0  0.11138437627E+04 -0.80551029761E+03 -0.12479869879E+04  0.18566007377E+04  0.10100000352E+00 0.  1.
       -3    1    3    3    0  502 -0.11138437627E+04  0.80551029761E+03  0.71616895846E+03  0.15499654043E+04  0.10100000352E+00 0. -1.
</event>
<event>
 5   0  0.1277635E-06  0.3397470E+04  0.7818609E-02  0.8138528E-01
        2   -1    0    0  501    0  0.00000000000E+00  0.00000000000E+00  0.17926245185E+04  0.17926245185E+04  0.25500000920E-02 0.  1.
       -2   -1    0    0    0  501  0.00000000000E+00  0.00000000000E+00 -0.16097629257E+04  0.16097629257E+04  0.25500000920E-02 0. -1.
    10030    2    1    2    0    0  0.00000000000E+00  0.00000000000E+00  0.18286159283E+03  0.34023874442E+04  0.33974699349E+04 0.  0.
        4    1    3    3  502    0 -0.13292450139E+04  0.82325712052E+03  0.75651122325E+03  0.17369385243E+04  0.12699999809E+01 0.  1.
       -4    1    3    3    0  502  0.13292450139E+04 -0.82325712052E+03 -0.57364963042E+03  0.16654489199E+04  0.12699999809E+01 0. -1.
</event>
<event>
 5   0  0.1300176E-06  0.3423622E+04  0.7818609E-02  0.8132133E-01
       -2   -1    0    0    0  501  0.00000000000E+00  0.00000000000E+00  0.16345024896E+04  0.16345024896E+04  0.25500000920E-02 0.  1.
        2   -1    0    0  501    0  0.00000000000E+00  0.00000000000E+00 -0.17927761726E+04  0.17927761726E+04  0.25500000920E-02 0. -1.
    10030    2    1    2    0    0  0.00000000000E+00  0.00000000000E+00 -0.15827368298E+03  0.34272786622E+04  0.34236221272E+04 0.  0.
        1    1    3    3  502    0  0.12602653530E+03 -0.66458482722E+03 -0.16533116055E+04  0.17863356194E+04  0.50400001928E-02 0. -1.
       -1    1    3    3    0  502 -0.12602653530E+03  0.66458482722E+03  0.14950379225E+04  0.16409430429E+04  0.50400001928E-02 0.  1.
</event>
<event>
 5   0  0.1256208E-06  0.3406405E+04  0.7818609E-02  0.8136336E-01
       -2   -1    0    0    0  501  0.00000000000E+00  0.00000000000E+00  0.10721915348E+04  0.10721915348E+04  0.25500000920E-02 0. -1.
        2   -1    0    0  501    0  0.00000000000E+00  0.00000000000E+00 -0.27055794624E+04  0.27055794624E+04  0.25500000920E-02 0.  1.
    10030    2    1    2    0    0  0.00000000000E+00  0.00000000000E+00 -0.16333879277E+04  0.37777709972E+04  0.34064053759E+04 0.  0.
        3    1    3    3  502    0  0.97781323732E+03 -0.12441037156E+03  0.72372723535E+03  0.12228564057E+04  0.10100000352E+00 0. -1.
       -3    1    3    3    0  502 -0.97781323732E+03  0.12441037156E+03 -0.23571151630E+04  0.25549145915E+04  0.10100000352E+00 0.  1.
</event>
<event>
 5   0  0.4109937E-07  0.3392042E+04  0.7818609E-02  0.8139862E-01
       -1   -1    0    0    0  501  0.00000000000E+00  0.00000000000E+00  0.11716768097E+04  0.11716768097E+04  0.50400001928E-02 0.  1.
        1   -1    0    0  501    0  0.00000000000E+00  0.00000000000E+00 -0.24550177936E+04  0.24550177936E+04  0.50400001928E-02 0. -1.
    10030    2    1    2    0    0  0.00000000000E+00  0.00000000000E+00 -0.12833409839E+04  0.36266946033E+04  0.33920421084E+04 0.  0.
        5    1    3    3  502    0  0.86437596778E+03  0.21771112152E+03  0.90103105048E+03  0.12674474309E+04  0.46999998093E+01 0.  1.
       -5    1    3    3    0  502 -0.86437596778E+03 -0.21771112152E+03 -0.21843720344E+04  0.23592471724E+04  0.46999998093E+01 0. -1.
</event>
<event>
 5   0  0.4289684E-07  0.3755667E+04  0.7818609E-02  0.8055736E-01
        1   -1    0    0  501    0  0.00000000000E+00  0.00000000000E+00  0.31667308066E+04  0.31667308066E+04  0.50400001928E-02 0.  1.
       -1   -1    0    0    0  501  0.00000000000E+00  0.00000000000E+00 -0.11135330496E+04  0.11135330496E+04  0.50400001928E-02 0. -1.
    10030    2    1    2    0    0  0.00000000000E+00  0.00000000000E+00  0.20531977570E+04  0.42802638563E+04  0.37556674041E+04 0.  0.
        4    1    3    3  502    0 -0.29448549357E+03  0.18105242815E+04  0.56854068085E+03  0.19204062066E+04  0.12699999809E+01 0. -1.
       -4    1    3    3    0  502  0.29448549357E+03 -0.18105242815E+04  0.14846570761E+04  0.23598576496E+04  0.12699999809E+01 0.  1.
</event>
<event>
 5   0  0.4109937E-07  0.3126341E+04  0.7818609E-02  0.8208546E-01
       -1   -1    0    0    0  501  0.00000000000E+00  0.00000000000E+00  0.11574559032E+04  0.11574559032E+04  0.50400001928E-02 0.  1.
        1   -1    0    0  501    0  0.00000000000E+00  0.00000000000E+00 -0.21110975463E+04  0.21110975463E+04  0.50400001928E-02 0. -1.
    10030    2    1    2    0    0  0.00000000000E+00  0.00000000000E+00 -0.95364164309E+03  0.32685534495E+04  0.31263411952E+04 0.  0.
        5    1    3    3  502    0  0.50327500893E+03  0.13230267478E+04  0.21651593117E+03  0.14319869931E+04  0.46999998093E+01 0.  1.
       -5    1    3    3    0  502 -0.50327500893E+03 -0.13230267478E+04 -0.11701575743E+04  0.18365664564E+04  0.46999998093E+01 0. -1.
</event>
<event>
 5   0  0.4464951E-07  0.3398628E+04  0.7818609E-02  0.8138243E-01
       -1   -1    0    0    0  501  0.00000000000E+00  0.00000000000E+00  0.16404824768E+04  0.16404824768E+04  0.50400001928E-02 0. -1.
        1   -1    0    0  501    0  0.00000000000E+00  0.00000000000E+00 -0.17602551057E+04  0.17602551057E+04  0.50400001928E-02 0.  1.
    10030    2    1    2    0    0  0.00000000000E+00  0.00000000000E+00 -0.11977262888E+03  0.34007375824E+04  0.33986277557E+04 0.  0.
        3    1    3    3  502    0 -0.21905605649E+03  0.49512939715E+03  0.15518677838E+04  0.16436034511E+04  0.10100000352E+00 0. -1.
       -3    1    3    3    0  502  0.21905605649E+03 -0.49512939715E+03 -0.16716404127E+04  0.17571341313E+04  0.10100000352E+00 0.  1.
</event>
<event>
 5   0  0.1277635E-06  0.3406106E+04  0.7818609E-02  0.8136409E-01
        2   -1    0    0  501    0  0.00000000000E+00  0.00000000000E+00  0.17875293026E+04  0.17875293026E+04  0.25500000920E-02 0. -1.
       -2   -1    0    0    0  501  0.00000000000E+00  0.00000000000E+00 -0.16225684857E+04  0.16225684857E+04  0.25500000920E-02 0.  1.
    10030    2    1    2    0    0  0.00000000000E+00  0.00000000000E+00  0.16496081687E+03  0.34100977884E+04  0.34061055261E+04 0.  0.
        4    1    3    3  502    0 -0.58067144377E+03  0.12609422015E+04  0.10701621937E+04  0.17528272291E+04  0.12699999809E+01 0. -1.
       -4    1    3    3    0  502  0.58067144377E+03 -0.12609422015E+04 -0.90520137681E+03  0.16572705593E+04  0.12699999809E+01 0.  1.
</event>
<event>
 5   0  0.1300176E-06  0.3414548E+04  0.7818609E-02  0.8134345E-01
       -2   -1    0    0    0  501  0.00000000000E+00  0.00000000000E+00  0.12754781131E+04  0.12754781131E+04  0.25500000920E-02 0.  1.
        2   -1    0    0  501    0  0.00000000000E+00  0.00000000000E+00 -0.22852492153E+04  0.22852492153E+04  0.25500000920E-02 0. -1.
    10030    2    1    2    0    0  0.00000000000E+00  0.00000000000E+00 -0.10097711022E+04  0.35607273285E+04  0.34145484956E+04 0.  0.
        1    1    3    3  502    0  0.13479999976E+04  0.66894577005E+03 -0.13457510833E+04  0.20188210458E+04  0.50400001928E-02 0. -1.
       -1    1    3    3    0  502 -0.13479999976E+04 -0.66894577005E+03  0.33597998115E+03  0.15419062826E+04  0.50400001928E-02 0.  1.
</event>
<event>
 5   0  0.1268230E-06  0.3422778E+04  0.7818609E-02  0.8132338E-01
       -2   -1    0    0    0  501  0.00000000000E+00  0.00000000000E+00  0.16741958232E+04  0.16741958232E+04  0.25500000920E-02 0.  1.
        2   -1    0    0  501    0  0.00000000000E+00  0.00000000000E+00 -0.17494089392E+04  0.17494089392E+04  0.25500000920E-02 0. -1.
    10030    2    1    2    0    0  0.00000000000E+00  0.00000000000E+00 -0.75213116043E+02  0.34236047624E+04  0.34227784849E+04 0.  0.
        2    1    3    3  502    0 -0.12606347287E+04 -0.75297457618E+03  0.84162925349E+03  0.16924864643E+04  0.25500000920E-02 0.  1.
       -2    1    3    3    0  502  0.12606347287E+04  0.75297457618E+03 -0.91684236953E+03  0.17311182981E+04  0.25500000920E-02 0. -1.
</event>
<event>
 5   0  0.4464951E-07  0.3444335E+04  0.7818609E-02  0.8127110E-01
        1   -1    0    0  501    0  0.00000000000E+00  0.00000000000E+00  0.22369329843E+04  0.22369329843E+04  0.50400001928E-02 0. -1.
       -1   -1    0    0    0  501  0.00000000000E+00  0.00000000000E+00 -0.13258605459E+04  0.13258605459E+04  0.50400001928E-02 0.  1.
    10030    2    1    2    0    0  0.00000000000E+00  0.00000000000E+00  0.91107243842E+03  0.35627935301E+04  0.34443351681E+04 0.  0.
        3    1    3    3  502    0 -0.45237225771E+03  0.16537770680E+04  0.62310114296E+03  0.18242462264E+04  0.10100000352E+00 0.  1.
       -3    1    3    3    0  502  0.45237225771E+03 -0.16537770680E+04  0.28797129546E+03  0.17385473037E+04  0.10100000352E+00 0. -1.
</event>
<event>
 5   0  0.1256208E-06  0.3396944E+04  0.7818609E-02  0.8138657E-01
        2   -1    0    0  501    0  0.00000000000E+00  0.00000000000E+00  0.17382901683E+04  0.17382901683E+04  0.25500000920E-02 0. -1.
       -2   -1    0    0    0  501  0.00000000000E+00  0.00000000000E+00 -0.16595663620E+04  0.16595663620E+04  0.25500000920E-02 0.  1.
    10030    2    1    2    0    0  0.00000000000E+00  0.00000000000E+00  0.78723806321E+02  0.33978565303E+04  0.33969444450E+04 0.  0.
        3    1    3    3  502    0  0.28558402558E+03 -0.11618979473E+04 -0.11664669843E+04  0.16709908172E+04  0.10100000352E+00 0.  1.
       -3    1    3    3    0  502 -0.28558402558E+03  0.11618979473E+04  0.12451907906E+04  0.17268657130E+04  0.10100000352E+00 0. -1.
</event>
<event>
 5   0  0.1269497E-06  0.3382483E+04  0.7818609E-02  0.8142219E-01
       -2   -1    0    0    0  501  0.00000000000E+00  0.00000000000E+00  0.13433891587E+04  0.13433891587E+04  0.25500000920E-02 0. -1.
        2   -1    0    0  501    0  0.00000000000E+00  0.00000000000E+00 -0.21291657111E+04  0.21291657111E+04  0.25500000920E-02 0.  1.
    10030    2    1    2    0    0  0.00000000000E+00  0.00000000000E+00 -0.78577655243E+03  0.34725548698E+04  0.33824831904E+04 0.  0.
        5    1    3    3  502    0  0.41906202711E+03 -0.15337444308E+04  0.19890879637E+03  0.16023644282E+04  0.46999998093E+01 0. -1.
       -5    1    3    3    0  502 -0.41906202711E+03  0.15337444308E+04 -0.98468534880E+03  0.18701904416E+04  0.46999998093E+01 0.  1.
</event>
<event>
 5   0  0.1300176E-06  0.3328523E+04  0.7818609E-02  0.8155675E-01
       -2   -1    0    0    0  501  0.00000000000E+00  0.00000000000E+00  0.20668665487E+04  0.20668665487E+04  0.25500000920E-02 0. -1.
        2   -1    0    0  501    0  0.00000000000E+00  0.00000000000E+00 -0.13400798136E+04  0.13400798136E+04  0.25500000920E-02 0.  1.
    10030    2    1    2    0    0  0.00000000000E+00  0.00000000000E+00  0.72678673513E+03  0.34069463623E+04  0.33285228792E+04 0.  0.
        1    1    3    3  502    0  0.15353970653E+04 -0.32501226199E+03 -0.20344973194E+03  0.15825513932E+04  0.50400001928E-02 0.  1.
       -1    1    3    3    0  502 -0.15353970653E+04  0.32501226199E+03  0.93023646707E+03  0.18243949691E+04  0.50400001928E-02 0. -1.
</event>
<event>
 5   0  0.4464951E-07  0.3383767E+04  0.7818609E-02  0.8141902E-01
        1   -1    0    0  501    0  0.00000000000E+00  0.00000000000E+00  0.94769477765E+03  0.94769477767E+03  0.50400001928E-02 0.  1.
       -1   -1    0    0    0  501  0.00000000000E+00  0.00000000000E+00 -0.30204547019E+04  0.30204547019E+04  0.50400001928E-02 0. -1.
    10030    2    1    2    0    0  0.00000000000E+00  0.00000000000E+00 -0.20727599243E+04  0.39681494796E+04  0.33837666274E+04 0.  0.
        3    1    3    3  502    0 -0.62580997586E+03  0.45088788931E+03 -0.28022724092E+04  0.29064873439E+04  0.10100000352E+00 0. -1.
       -3    1    3    3    0  502  0.62580997586E+03 -0.45088788931E+03  0.72951248490E+03  0.10616621357E+04  0.10100000352E+00 0.  1.
</event>
<event>
 5   0  0.4289684E-07  0.3443936E+04  0.7818609E-02  0.8127206E-01
        1   -1    0    0  501    0  0.00000000000E+00  0.00000000000E+00  0.20647325591E+04  0.20647325591E+04  0.50400001928E-02 0. -1.
       -1   -1    0    0    0  501  0.00000000000E+00  0.00000000000E+00 -0.14361057949E+04  0.14361057949E+04  0.50400001928E-02 0.  1.
    10030    2    1    2    0    0  0.00000000000E+00  0.00000000000E+00  0.62862676414E+03  0.35008383540E+04  0.34439363485E+04 0.  0.
        4    1    3    3  502    0 -0.81390276059E+03  0.10955852282E+04  0.13816270632E+04  0.19420709695E+04  0.12699999809E+01 0. -1.
       -4    1    3    3    0  502  0.81390276059E+03 -0.10955852282E+04 -0.75300029901E+03  0.15587673845E+04  0.12699999809E+01 0.  1.
</event>
<event>
 5   0  0.4109937E-07  0.3414396E+04  0.7818609E-02  0.8134382E-01
        1   -1    0    0  501    0  0.00000000000E+00  0.00000000000E+00  0.24015188589E+04  0.24015188589E+04  0.50400001928E-02 0.  1.
       -1   -1    0    0    0  501  0.00000000000E+00  0.00000000000E+00 -0.12136175550E+04  0.12136175550E+04  0.50400001928E-02 0. -1.
    10030    2    1    2    0    0  0.00000000000E+00  0.00000000000E+00  0.11879013039E+04  0.36151364139E+04  0.34143962545E+04 0.  0.
        5    1    3    3  502    0  0.11645648966E+04  0.12394164990E+04  0.43641211067E+03  0.17558024595E+04  0.46999998093E+01 0. -1.
       -5    1    3    3    0  502 -0.11645648966E+04 -0.12394164990E+04  0.75148919323E+03  0.18593339544E+04  0.46999998093E+01 0.  1.
</event>
<event>
 5   0  0.1277635E-06  0.3390442E+04  0.7818609E-02  0.8140256E-01
        2   -1    0    0  501    0  0.00000000000E+00  0.00000000000E+00  0.19106689835E+04  0.19106689835E+04  0.25500000920E-02 0.  1.
       -2   -1    0    0    0  501  0.00000000000E+00  0.00000000000E+00 -0.15040669751E+04  0.15040669751E+04  0.25500000920E-02 0. -1.
    10030    2    1    2    0    0  0.00000000000E+00  0.00000000000E+00  0.40660200846E+03  0.34147359586E+04  0.33904419290E+04 0.  0.
        4    1    3    3  502    0 -0.13384390543E+04 -0.10080975386E+04 -0.55626239772E+02  0.16765367998E+04  0.12699999809E+01 0. -1.
       -4    1    3    3    0  502  0.13384390543E+04  0.10080975386E+04  0.46222824823E+03  0.17381991589E+04  0.12699999809E+01 0.  1.
</event>
<event>
 5   0  0.1269497E-06  0.3386352E+04  0.7818609E-02  0.8141264E-01
        2   -1    0    0  501    0  0.00000000000E+00  0.00000000000E+00  0.26293504553E+04  0.26293504553E+04  0.25500000920E-02 0. -1.
       -2   -1    0    0    0  501  0.00000000000E+00  0.00000000000E+00 -0.10903243937E+04  0.10903243937E+04  0.25500000920E-02 0.  1.
    10030    2    1    2    0    0  0.00000000000E+00  0.00000000000E+00  0.15390260616E+04  0.37196748490E+04  0.33863519847E+04 0.  0.
        5    1    3    3  502    0  0.10767106058E+04 -0.11953455453E+04  0.18966392862E+03  0.16199232072E+04  0.46999998093E+01 0.  1.
       -5    1    3    3    0  502 -0.10767106058E+04  0.11953455453E+04  0.13493621330E+04  0.20997516418E+04  0.46999998093E+01 0. -1.
</event>
<event>
 5   0  0.1268230E-06  0.3392743E+04  0.7818609E-02  0.8139690E-01
       -2   -1    0    0    0  501  0.00000000000E+00  0.00000000000E+00  0.13343904714E+04  0.13343904714E+04  0.25500000920E-02 0.  1.
        2   -1    0    0  501    0  0.00000000000E+00  0.00000000000E+00 -0.21565468500E+04  0.21565468500E+04  0.25500000920E-02 0. -1.
    10030    2    1    2    0    0  0.00000000000E+00  0.00000000000E+00 -0.82215637862E+03  0.34909373214E+04  0.33927425883E+04 0.  0.
        2    1    3    3  502    0  0.11857949753E+04 -0.12119103496E+04 -0.46590401751E+03  0.17583807815E+04  0.25500000920E-02 0. -1.
       -2    1    3    3    0  502 -0.11857949753E+04  0.12119103496E+04 -0.35625236112E+03  0.17325565399E+04  0.25500000920E-02 0.  1.
</event>
<event>
 5   0  0.1256208E-06  0.3378721E+04  0.7818609E-02  0.8143149E-01
        2   -1    0    0  501    0  0.00000000000E+00  0.00000000000E+00  0.27372630677E+04  0.27372630677E+04  0.25500000920E-02 0.  1.
       -2   -1    0    0    0  501  0.00000000000E+00  0.00000000000E+00 -0.10426251505E+04  0.10426251505E+04  0.25500000920E-02 0. -1.
    10030    2    1    2    0    0  0.00000000000E+00  0.00000000000E+00  0.16946379172E+04  0.37798882181E+04  0.33787212479E+04 0.  0.
        3    1    3    3  502    0 -0.14766128516E+04  0.50038252269E+03  0.11956494927E+03  0.15636700323E+04  0.10100000352E+00 0. -1.
       -3    1    3    3    0  502  0.14766128516E+04 -0.50038252269E+03  0.15750729680E+04  0.22162181858E+04  0.10100000352E+00 0.  1.
</event>
<event>
 5   0  0.1268230E-06  0.3381138E+04  0.7818609E-02  0.8142551E-01
        2   -1    0    0  501    0  0.00000000000E+00  0.00000000000E+00  0.20381157949E+04  0.20381157949E+04  0.25500000920E-02 0.  1.
       -2   -1    0    0    0  501  0.00000000000E+00  0.00000000000E+00 -0.14022869075E+04  0.14022869076E+04  0.25500000920E-02 0. -1.
    10030    2    1    2    0    0  0.00000000000E+00  0.00000000000E+00  0.63582888732E+03  0.34404027024E+04  0.33811377347E+04 0.  0.
        2    1    3    3  502    0 -0.36735356182E+03  0.15722707499E+04  0.82773476324E+03  0.18144224394E+04  0.25500000920E-02 0.  1.
       -2    1    3    3    0  502  0.36735356182E+03 -0.15722707499E+04 -0.19190587592E+03  0.16259802630E+04  0.25500000920E-02 0. -1.
</event>
<event>
 5   0  0.1256208E-06  0.3259378E+04  0.7818609E-02  0.8173309E-01
       -2   -1    0    0    0  501  0.00000000000E+00  0.00000000000E+00  0.12443079733E+04  0.12443079733E+04  0.25500000920E-02 0.  1.
        2   -1    0    0  501    0  0.00000000000E+00  0.00000000000E+00 -0.21344283429E+04  0.21344283429E+04  0.25500000920E-02 0. -1.
    10030    2    1    2    0    0  0.00000000000E+00  0.00000000000E+00 -0.89012036959E+03  0.33787363161E+04  0.32593779808E+04 0.  0.
        3    1    3    3  502    0 -0.10646267397E+04  0.99223872711E+03  0.31522718537E+03  0.14890721860E+04  0.10100000352E+00 0.  1.
       -3    1    3    3    0  502  0.10646267397E+04 -0.99223872711E+03 -0.12053475550E+04  0.18896641302E+04  0.10100000352E+00 0. -1.
</event>
<event>
 5   0  0.1256208E-06  0.3407256E+04  0.7818609E-02  0.8136128E-01
       -2   -1    0    0    0  501  0.00000000000E+00  0.00000000000E+00  0.31314914148E+04  0.31314914148E+04  0.25500000920E-02 0. -1.
        2   -1    0    0  501    0  0.00000000000E+00  0.00000000000E+00 -0.92682617602E+03  0.92682617603E+03  0.25500000920E-02 0.  1.
    10030    2    1    2    0    0  0.00000000000E+00  0.00000000000E+00  0.22046652388E+04  0.40583175908E+04  0.34072559125E+04 0.  0.
        3    1    3    3  502    0 -0.24231772074E+03  0.13726678054E+04  0.22689922527E+04  0.26629421013E+04  0.10100000352E+00 0. -1.
       -3    1    3    3    0  502  0.24231772074E+03 -0.13726678054E+04 -0.64327013922E+02  0.13953754895E+04  0.10100000352E+00 0.  1.
</event>
<event>
 5   0  0.1277635E-06  0.2914712E+04  0.7818609E-02  0.8268514E-01
        2   -1    0    0  501    0  0.00000000000E+00  0.00000000000E+00  0.11976368574E+04  0.11976368574E+04  0.25500000920E-02 0.  1.
       -2   -1    0    0    0  501  0.00000000000E+00  0.00000000000E+00 -0.17733980822E+04  0.17733980822E+04  0.25500000920E-02 0. -1.
    10030    2    1    2    0    0  0.00000000000E+00  0.00000000000E+00 -0.57576122484E+03  0.29710349396E+04  0.29147122713E+04 0.  0.
        4    1    3    3  502    0 -0.13354000868E+04  0.57874885209E+03 -0.21131816377E+03  0.14706803204E+04  0.12699999809E+01 0.  1.
       -4    1    3    3    0  502  0.13354000868E+04 -0.57874885209E+03 -0.36444306107E+03  0.15003546192E+04  0.12699999809E+01 0. -1.
</event>
<event>
 5   0  0.4109937E-07  0.3336553E+04  0.7818609E-02  0.8153656E-01
       -1   -1    0    0    0  501  0.00000000000E+00  0.00000000000E+00  0.13199836382E+04  0.13199836382E+04  0.50400001928E-02 0.  1.
        1   -1    0    0  501    0  0.00000000000E+00  0.00000000000E+00 -0.21084706909E+04  0.21084706909E+04  0.50400001928E-02 0. -1.
    10030    2    1    2    0    0  0.00000000000E+00  0.00000000000E+00 -0.78848705265E+03  0.34284543291E+04  0.33365531997E+04 0.  0.
        5    1    3    3  502    0 -0.86744925526E+03 -0.14031893018E+04 -0.64951379958E+03  0.17729350504E+04  0.46999998093E+01 0. -1.
       -5    1    3    3    0  502  0.86744925526E+03  0.14031893018E+04 -0.13897325308E+03  0.16555192787E+04  0.46999998093E+01 0.  1.
</event>
<event>
 5   0  0.4125758E-07  0.3402378E+04  0.7818609E-02  0.8137323E-01
        1   -1    0    0  501    0  0.00000000000E+00  0.00000000000E+00  0.24179176666E+04  0.24179176666E+04  0.50400001928E-02 0. -1.
       -1   -1    0    0    0  501  0.00000000000E+00  0.00000000000E+00 -0.11969155668E+04  0.11969155668E+04  0.50400001928E-02 0.  1.
    10030    2    1    2    0    0  0.00000000000E+00  0.00000000000E+00  0.12210020998E+04  0.36148332335E+04  0.34023775772E+04 0.  0.
        2    1    3    3  502    0  0.62223301611E+03  0.15430649070E+04  0.23364047658E+03  0.16801223485E+04  0.25500000920E-02 0. -1.
       -2    1    3    3    0  502 -0.62223301611E+03 -0.15430649070E+04  0.98736162325E+03  0.19347108850E+04  0.25500000920E-02 0.  1.
</event>
<event>
 5   0  0.4125758E-07  0.3271754E+04  0.7818609E-02  0.8170120E-01
        1   -1    0    0  501    0  0.00000000000E+00  0.00000000000E+00  0.26713518592E+04  0.26713518592E+04  0.50400001928E-02 0.  1.
       -1   -1    0    0    0  501  0.00000000000E+00  0.00000000000E+00 -0.10017750443E+04  0.10017750443E+04  0.50400001928E-02 0. -1.
    10030    2    1    2    0    0  0.00000000000E+00  0.00000000000E+00  0.16695768149E+04  0.36731269035E+04  0.32717540415E+04 0.  0.
        2    1    3    3  502    0  0.35679185811E+03  0.41772650532E+03 -0.89511907557E+03  0.10502542657E+04  0.25500000920E-02 0. -1.
       -2    1    3    3    0  502 -0.35679185811E+03 -0.41772650532E+03  0.25646958905E+04  0.26228726377E+04  0.25500000920E-02 0.  1.
</event>
<event>
 5   0  0.4464951E-07  0.3367932E+04  0.7818609E-02  0.8145822E-01
        1   -1    0    0  501    0  0.00000000000E+00  0.00000000000E+00  0.21335118311E+04  0.21335118311E+04  0.50400001928E-02 0.  1.
       -1   -1    0    0    0  501  0.00000000000E+00  0.00000000000E+00 -0.13291427486E+04  0.13291427486E+04  0.50400001928E-02 0. -1.
    10030    2    1    2    0    0  0.00000000000E+00  0.00000000000E+00  0.80436908254E+03  0.34626545797E+04  0.33679321723E+04 0.  0.
        3    1    3    3  502    0 -0.41749314419E+02 -0.14315114658E+04  0.13129741148E+04  0.19429022410E+04  0.10100000352E+00 0.  1.
       -3    1    3    3    0  502  0.41749314419E+02  0.14315114658E+04 -0.50860503223E+03  0.15197523387E+04  0.10100000352E+00 0. -1.
</event>
<event>
 5   0  0.1300176E-06  0.3403905E+04  0.7818609E-02  0.8136948E-01
       -2   -1    0    0    0  501  0.00000000000E+00  0.00000000000E+00  0.17966952091E+04  0.17966952091E+04  0.25500000920E-02 0. -1.
        2   -1    0    0  501    0  0.00000000000E+00  0.00000000000E+00 -0.16122061969E+04  0.16122061969E+04  0.25500000920E-02 0.  1.
    10030    2    1    2    0    0  0.00000000000E+00  0.00000000000E+00  0.18448901218E+03  0.34089014060E+04  0.34039054923E+04 0.  0.
        1    1    3    3  502    0 -0.70721077427E+03 -0.34939697860E+03 -0.14180862689E+04  0.16227119257E+04  0.50400001928E-02 0.  1.
       -1    1    3    3    0  502  0.70721077427E+03  0.34939697860E+03  0.16025752811E+04  0.17861894803E+04  0.50400001928E-02 0. -1.
</event>
<event>
 5   0  0.4464951E-07  0.3384196E+04  0.7818609E-02  0.8141796E-01
       -1   -1    0    0    0  501  0.00000000000E+00  0.00000000000E+00  0.11030877552E+04  0.11030877552E+04  0.50400001928E-02 0. -1.
        1   -1    0    0  501    0  0.00000000000E+00  0.00000000000E+00 -0.25956194473E+04  0.25956194473E+04  0.50400001928E-02 0.  1.
    10030    2    1    2    0    0  0.00000000000E+00  0.00000000000E+00 -0.14925316922E+04  0.36987072025E+04  0.33841962292E+04 0.  0.
        3    1    3    3  502    0  0.14383857955E+04 -0.37297887338E+03  0.13835639746E+03  0.14923838111E+04  0.10100000352E+00 0. -1.
       -3    1    3    3    0  502 -0.14383857955E+04  0.37297887338E+03 -0.16308880896E+04  0.22063233915E+04  0.10100000352E+00 0.  1.
</event>
<event>
 5   0  0.1256208E-06  0.2908261E+04  0.7818609E-02  0.8270424E-01
        2   -1    0    0  501    0  0.00000000000E+00  0.00000000000E+00  0.25398800776E+04  0.25398800777E+04  0.25500000920E-02 0. -1.
       -2   -1    0    0    0  501  0.00000000000E+00  0.00000000000E+00 -0.83251772753E+03  0.83251772754E+03  0.25500000920E-02 0.  1.
    10030    2    1    2    0    0  0.00000000000E+00  0.00000000000E+00  0.17073623501E+04  0.33723978052E+04  0.29082607795E+04 0.  0.
        3    1    3    3  502    0  0.11533899839E+04  0.77839028772E+03  0.13433194747E+04  0.19340907725E+04  0.10100000352E+00 0. -1.
       -3    1    3    3    0  502 -0.11533899839E+04 -0.77839028772E+03  0.36404287538E+03  0.14383070327E+04  0.10100000352E+00 0.  1.
</event>
<event>
 5   0  0.4272633E-07  0.3392373E+04  0.7818609E-02  0.8139781E-01
        1   -1    0    0  501    0  0.00000000000E+00  0.00000000000E+00  0.15984397231E+04  0.15984397231E+04  0.50400001928E-02 0. -1.
       -1   -1    0    0    0  501  0.00000000000E+00  0.00000000000E+00 -0.17999111082E+04  0.17999111082E+04  0.50400001928E-02 0.  1.
    10030    2    1    2    0    0  0.00000000000E+00  0.00000000000E+00 -0.20147138507E+03  0.33983508313E+04  0.33923734543E+04 0.  0.
        1    1    3    3  502    0  0.93861711116E+03 -0.89070073218E+03 -0.11993446291E+04  0.17643064969E+04  0.50400001928E-02 0.  1.
       -1    1    3    3    0  502 -0.93861711116E+03  0.89070073218E+03  0.99787324398E+03  0.16340443344E+04  0.50400001928E-02 0. -1.
</event>
<event>
 5   0  0.1277635E-06  0.3350703E+04  0.7818609E-02  0.8150112E-01
       -2   -1    0    0    0  501  0.00000000000E+00  0.00000000000E+00  0.13196333428E+04  0.13196333428E+04  0.25500000920E-02 0. -1.
        2   -1    0    0  501    0  0.00000000000E+00  0.00000000000E+00 -0.21269565674E+04  0.21269565674E+04  0.25500000920E-02 0.  1.
    10030    2    1    2    0    0  0.00000000000E+00  0.00000000000E+00 -0.80732322465E+03  0.34465899102E+04  0.33507030934E+04 0.  0.
        4    1    3    3  502    0 -0.10879188640E+04 -0.44143115198E+03  0.82568506483E+03  0.14353349281E+04  0.12699999809E+01 0.  1.
       -4    1    3    3    0  502  0.10879188640E+04  0.44143115198E+03 -0.16330082895E+04  0.20112549821E+04  0.12699999809E+01 0. -1.
</event>
<event>
 5   0  0.1277635E-06  0.3442500E+04  0.7818609E-02  0.8127554E-01
        2   -1    0    0  501    0  0.00000000000E+00  0.00000000000E+00  0.24201107279E+04  0.24201107279E+04  0.25500000920E-02 0.  1.
       -2   -1    0    0    0  501  0.00000000000E+00  0.00000000000E+00 -0.12242008382E+04  0.12242008382E+04  0.25500000920E-02 0. -1.
    10030    2    1    2    0    0  0.00000000000E+00  0.00000000000E+00  0.11959098897E+04  0.36443115661E+04  0.34425000111E+04 0.  0.
        4    1    3    3  502    0  0.65517241891E+03  0.14033136968E+03 -0.10804746339E+04  0.12713657378E+04  0.12699999809E+01 0. -1.
       -4    1    3    3    0  502 -0.65517241891E+03 -0.14033136968E+03  0.22763845236E+04  0.23729458283E+04  0.12699999809E+01 0.  1.
</event>
<event>
 5   0  0.4109937E-07  0.3409205E+04  0.7818609E-02  0.8135651E-01
       -1   -1    0    0    0  501  0.00000000000E+00  0.00000000000E+00  0.14420695708E+04  0.14420695709E+04  0.50400001928E-02 0.  1.
        1   -1    0    0  501    0  0.00000000000E+00  0.00000000000E+00 -0.20149299756E+04  0.20149299756E+04  0.50400001928E-02 0. -1.
    10030    2    1    2    0    0  0.00000000000E+00  0.00000000000E+00 -0.57286040474E+03  0.34569995464E+04  0.34092047197E+04 0.  0.
        5    1    3    3  502    0  0.15378754540E+04  0.48692779266E+03 -0.84505044034E+03  0.18210688960E+04  0.46999998093E+01 0. -1.
       -5    1    3    3    0  502 -0.15378754540E+04 -0.48692779266E+03  0.27219003560E+03  0.16359306504E+04  0.46999998093E+01 0.  1.
</event>
<event>
 5   0  0.4464951E-07  0.3404035E+04  0.7818609E-02  0.8136917E-01
       -1   -1    0    0    0  501  0.00000000000E+00  0.00000000000E+00  0.99552135020E+03  0.99552135021E+03  0.50400001928E-02 0.  1.
        1   -1    0    0  501    0  0.00000000000E+00  0.00000000000E+00 -0.29098958300E+04  0.29098958300E+04  0.50400001928E-02 0. -1.
    10030    2    1    2    0    0  0.00000000000E+00  0.00000000000E+00 -0.19143744798E+04  0.39054171802E+04  0.34040349150E+04 0.  0.
        3    1    3    3  502    0  0.24640888074E+03  0.14805273572E+04 -0.36358912717E+02  0.15013329320E+04  0.10100000352E+00 0.  1.
       -3    1    3    3    0  502 -0.24640888074E+03 -0.14805273572E+04 -0.18780155671E+04  0.24040842482E+04  0.10100000352E+00 0. -1.
</event>
<event>
 5   0  0.4125758E-07  0.3484013E+04  0.7818609E-02  0.8117589E-01
        1   -1    0    0  501    0  0.00000000000E+00  0.00000000000E+00  0.98452296573E+03  0.98452296574E+03  0.50400001928E-02 0.  1.
       -1   -1    0    0    0  501  0.00000000000E+00  0.00000000000E+00 -0.30822909502E+04  0.30822909502E+04  0.50400001928E-02 0. -1.
    10030    2    1    2    0    0  0.00000000000E+00  0.00000000000E+00 -0.20977679845E+04  0.40668139160E+04  0.34840127598E+04 0.  0.
        2    1    3    3  502    0  0.16614133019E+04 -0.19338403438E+03 -0.48074810786E+03  0.17403477491E+04  0.25500000920E-02 0.  1.
       -2    1    3    3    0  502 -0.16614133019E+04  0.19338403438E+03 -0.16170198766E+04  0.23264661669E+04  0.25500000920E-02 0. -1.
</event>
<event>
 5   0  0.1277635E-06  0.3362912E+04  0.7818609E-02  0.8147069E-01
       -2   -1    0    0    0  501  0.00000000000E+00  0.00000000000E+00  0.16638912498E+04  0.16638912498E+04  0.25500000920E-02 0.  1.
        2   -1    0    0  501    0  0.00000000000E+00  0.00000000000E+00 -0.16992063517E+04  0.16992063517E+04  0.25500000920E-02 0. -1.
    10030    2    1    2    0    0  0.00000000000E+00  0.00000000000E+00 -0.35315101875E+02  0.33630976015E+04  0.33629121786E+04 0.  0.
        4    1    3    3  502    0  0.10279536966E+04 -0.78889644036E+03  0.10539642098E+04  0.16702959511E+04  0.12699999809E+01 0.  1.
       -4    1    3    3    0  502 -0.10279536966E+04  0.78889644036E+03 -0.10892793117E+04  0.16928016504E+04  0.12699999809E+01 0. -1.
</event>
<event>
 5   0  0.4464951E-07  0.3411755E+04  0.7818609E-02  0.8135027E-01
        1   -1    0    0  501    0  0.00000000000E+00  0.00000000000E+00  0.19862979424E+04  0.19862979424E+04  0.50400001928E-02 0.  1.
       -1   -1    0    0    0  501  0.00000000000E+00  0.00000000000E+00 -0.14650458094E+04  0.14650458094E+04  0.50400001928E-02 0. -1.
    10030    2    1    2    0    0  0.00000000000E+00  0.00000000000E+00  0.52125213303E+03  0.34513437519E+04  0.34117546669E+04 0.  0.
        3    1    3    3  502    0  0.56231211361E+03  0.10743377643E+04  0.14743907517E+04  0.19089852393E+04  0.10100000352E+00 0.  1.
       -3    1    3    3    0  502 -0.56231211361E+03 -0.10743377643E+04 -0.95313861865E+03  0.15423585126E+04  0.10100000352E+00 0. -1.
</event>
<event>
 5   0  0.1268230E-06  0.3387658E+04  0.7818609E-02  0.8140942E-01
        2   -1    0    0  501    0  0.00000000000E+00  0.00000000000E+00  0.17628233162E+04  0.17628233162E+04  0.25500000920E-02 0.  1.
       -2   -1    0    0    0  501  0.00000000000E+00  0.00000000000E+00 -0.16275348723E+04  0.16275348723E+04  0.25500000920E-02 0. -1.
    10030    2    1    2    0    0  0.00000000000E+00  0.00000000000E+00  0.13528844391E+03  0.33903581885E+04  0.33876578463E+04 0.  0.
        2    1    3    3  502    0 -0.57596483061E+02  0.29884325660E+03  0.17352352364E+04  0.17617224448E+04  0.25500000920E-02 0.  1.
       -2    1    3    3    0  502  0.57596483061E+02 -0.29884325660E+03 -0.15999467925E+04  0.16286357437E+04  0.25500000920E-02 0. -1.
</event>
<event>
 5   0  0.1277635E-06  0.3396541E+04  0.7818609E-02  0.8138756E-01
        2   -1    0    0  501    0  0.00000000000E+00  0.00000000000E+00  0.22162480874E+04  0.22162480874E+04  0.25500000920E-02 0.  1.
       -2   -1    0    0    0  501  0.00000000000E+00  0.00000000000E+00 -0.13013536545E+04  0.13013536545E+04  0.25500000920E-02 0. -1.
    10030    2    1    2    0    0  0.00000000000E+00  0.00000000000E+00  0.91489443295E+03  0.35176017419E+04  0.33965409156E+04 0.  0.
        4    1    3    3  502    0  0.44027998297E+03 -0.75821730033E+03 -0.10488272576E+04  0.13670333453E+04  0.12699999809E+01 0. -1.
       -4    1    3    3    0  502 -0.44027998297E+03  0.75821730033E+03  0.19637216905E+04  0.21505683967E+04  0.12699999809E+01 0.  1.
</event>
<event>
 5   0  0.4109937E-07  0.3404374E+04  0.7818609E-02  0.8136834E-01
        1   -1    0    0  501    0  0.00000000000E+00  0.00000000000E+00  0.28022870113E+04  0.28022870113E+04  0.50400001928E-02 0. -1.
       -1   -1    0    0    0  501  0.00000000000E+00  0.00000000000E+00 -0.10339554677E+04  0.10339554677E+04  0.50400001928E-02 0.  1.
    10030    2    1    2    0    0  0.00000000000E+00  0.00000000000E+00  0.17683315435E+04  0.38362424790E+04  0.34043736443E+04 0.  0.
        5    1    3    3  502    0  0.93452412723E+03  0.11640404607E+04  0.18059130464E+04  0.23430043875E+04  0.46999998093E+01 0. -1.
       -5    1    3    3    0  502 -0.93452412723E+03 -0.11640404607E+04 -0.37581502898E+02  0.14932380915E+04  0.46999998093E+01 0.  1.
</event>
<event>
 5   0  0.4125758E-07  0.3406140E+04  0.7818609E-02  0.8136401E-01
       -1   -1    0    0    0  501  0.00000000000E+00  0.00000000000E+00  0.15582973127E+04  0.15582973127E+04  0.50400001928E-02 0. -1.
        1   -1    0    0  501    0  0.00000000000E+00  0.00000000000E+00 -0.18612925579E+04  0.18612925579E+04  0.50400001928E-02 0.  1.
    10030    2    1    2    0    0  0.00000000000E+00  0.00000000000E+00 -0.30299524518E+03  0.34195898706E+04  0.34061398628E+04 0.  0.
        2    1    3    3  502    0 -0.49654166891E+03  0.54517723034E+03  0.13897109805E+04  0.15732350272E+04  0.25500000920E-02 0. -1.
       -2    1    3    3    0  502  0.49654166891E+03 -0.54517723034E+03 -0.16927062257E+04  0.18463548434E+04  0.25500000920E-02 0.  1.
</event>
<event>
 5   0  0.1268230E-06  0.3442149E+04  0.7818609E-02  0.8127638E-01
        2   -1    0    0  501    0  0.00000000000E+00  0.00000000000E+00  0.19031984817E+04  0.19031984817E+04  0.25500000920E-02 0. -1.
       -2   -1    0    0    0  501  0.00000000000E+00  0.00000000000E+00 -0.15563787051E+04  0.15563787051E+04  0.25500000920E-02 0.  1.
    10030    2    1    2    0    0  0.00000000000E+00  0.00000000000E+00  0.34681977662E+03  0.34595771869E+04  0.34421490895E+04 0.  0.
        2    1    3    3  502    0  0.10573637493E+04  0.13561722231E+04  0.24359461886E+03  0.17368245551E+04  0.25500000920E-02 0. -1.
       -2    1    3    3    0  502 -0.10573637493E+04 -0.13561722231E+04  0.10322515775E+03  0.17227526317E+04  0.25500000920E-02 0.  1.
</event>
<event>
 5   0  0.1256208E-06  0.3368739E+04  0.7818609E-02  0.8145622E-01
        2   -1    0    0  501    0  0.00000000000E+00  0.00000000000E+00  0.26926220318E+04  0.26926220318E+04  0.25500000920E-02 0. -1.
       -2   -1    0    0    0  501  0.00000000000E+00  0.00000000000E+00 -0.10536572478E+04  0.10536572478E+04  0.25500000920E-02 0.  1.
    10030    2    1    2    0    0  0.00000000000E+00  0.00000000000E+00  0.16389647840E+04  0.37462792796E+04  0.33687390635E+04 0.  0.
        3    1    3    3  502    0 -0.51751369100E+03 -0.12848471501E+04 -0.24627924963E+03  0.14068781392E+04  0.10100000352E+00 0.  1.
       -3    1    3    3    0  502  0.51751369100E+03  0.12848471501E+04  0.18852440336E+04  0.23394011405E+04  0.10100000352E+00 0. -1.
</event>
<event>
 5   0  0.1269497E-06  0.3375351E+04  0.7818609E-02  0.8143983E-01
       -2   -1    0    0    0  501  0.00000000000E+00  0.00000000000E+00  0.13103051016E+04  0.13103051016E+04  0.25500000920E-02 0. -1.
        2   -1    0    0  501    0  0.00000000000E+00  0.00000000000E+00 -0.21737291844E+04  0.21737291844E+04  0.25500000920E-02 0.  1.
    10030    2    1    2    0    0  0.00000000000E+00  0.00000000000E+00 -0.86342408279E+03  0.34840342860E+04  0.33753509091E+04 0.  0.
        5    1    3    3  502    0  0.18472170923E+03  0.93884615745E+03  0.10032571692E+04  0.13863986637E+04  0.46999998093E+01 0. -1.
       -5    1    3    3    0  502 -0.18472170923E+03 -0.93884615745E+03 -0.18666812520E+04  0.20976356223E+04  0.46999998093E+01 0.  1.
</event>
<event>
 5   0  0.4125758E-07  0.3436542E+04  0.7818609E-02  0.8128995E-01
       -1   -1    0    0    0  501  0.00000000000E+00  0.00000000000E+00  0.17792271961E+04  0.17792271961E+04  0.50400001928E-02 0. -1.
        1   -1    0    0  501    0  0.00000000000E+00  0.00000000000E+00 -0.16594036331E+04  0.16594036331E+04  0.50400001928E-02 0.  1.
    10030    2    1    2    0    0  0.00000000000E+00  0.00000000000E+00  0.11982356295E+03  0.34386308292E+04  0.34365424912E+04 0.  0.
        2    1    3    3  502    0  0.12287916722E+04 -0.42546271259E+03  0.11837633053E+04  0.17584774825E+04  0.25500000920E-02 0. -1.
       -2    1    3    3    0  502 -0.12287916722E+04  0.42546271259E+03 -0.10639397423E+04  0.16801533468E+04  0.25500000920E-02 0.  1.
</event>
<event>
 5   0  0.1268230E-06  0.3385761E+04  0.7818609E-02  0.8141410E-01
        2   -1    0    0  501    0  0.00000000000E+00  0.00000000000E+00  0.26338184877E+04  0.26338184877E+04  0.25500000920E-02 0. -1.
       -2   -1    0    0    0  501  0.00000000000E+00  0.00000000000E+00 -0.10880950024E+04  0.10880950024E+04  0.25500000920E-02 0.  1.
    10030    2    1    2    0    0  0.00000000000E+00  0.00000000000E+00  0.15457234853E+04  0.37219134900E+04  0.33857612045E+04 0.  0.
        2    1    3    3  502    0 -0.47969152763E+03  0.11849281020E+04 -0.44713868157E+03  0.13542863689E+04  0.25500000920E-02 0.  1.
       -2    1    3    3    0  502  0.47969152763E+03 -0.11849281020E+04  0.19928621669E+04  0.23676271211E+04  0.25500000920E-02 0. -1.
</event>
<event>
 5   0  0.4125758E-07  0.3290726E+04  0.7818609E-02  0.8165259E-01
       -1   -1    0    0    0  501  0.00000000000E+00  0.00000000000E+00  0.20443808610E+04  0.20443808610E+04  0.50400001928E-02 0.  1.
        1   -1    0    0  501    0  0.00000000000E+00  0.00000000000E+00 -0.13242247269E+04  0.13242247269E+04  0.50400001928E-02 0. -1.
    10030    2    1    2    0    0  0.00000000000E+00  0.00000000000E+00  0.72015613411E+03  0.33686055880E+04  0.32907261736E+04 0.  0.
        2    1    3    3  502    0 -0.10962479321E+04 -0.12268242876E+04  0.37956341467E+03  0.16884684620E+04  0.25500000920E-02 0. -1.
       -2    1    3    3    0  502  0.10962479321E+04  0.12268242876E+04  0.34059271943E+03  0.16801371259E+04  0.25500000920E-02 0.  1.
</event>
<event>
 5   0  0.1269497E-06  0.3508184E+04  0.7818609E-02  0.8111853E-01
        2   -1    0    0  501    0  0.00000000000E+00  0.00000000000E+00  0.25563570568E+04  0.25563570568E+04  0.25500000920E-02 0.  1.
       -2   -1    0    0    0  501  0.00000000000E+00  0.00000000000E+00 -0.12036029926E+04  0.12036029926E+04  0.25500000920E-02 0. -1.
    10030    2    1    2    0    0  0.00000000000E+00  0.00000000000E+00  0.13527540642E+04  0.37599600494E+04  0.35081841478E+04 0.  0.
        5    1    3    3  502    0 -0.49464133404E+03  0.15072876034E+04  0.14785802423E+04  0.21685957650E+04  0.46999998093E+01 0.  1.
       -5    1    3    3    0  502  0.49464133404E+03 -0.15072876034E+04 -0.12582617808E+03  0.15913642845E+04  0.46999998093E+01 0. -1.
</event>
<event>
 5   0  0.4272633E-07  0.3392997E+04  0.7818609E-02  0.8139627E-01
        1   -1    0    0  501    0  0.00000000000E+00  0.00000000000E+00  0.21027735446E+04  0.21027735446E+04  0.50400001928E-02 0. -1.
       -1   -1    0    0    0  501  0.00000000000E+00  0.00000000000E+00 -0.13687195763E+04  0.13687195763E+04  0.50400001928E-02 0.  1.
    10030    2    1    2    0    0  0.00000000000E+00  0.00000000000E+00  0.73405396825E+03  0.34714931209E+04  0.33929970911E+04 0.  0.
        1    1    3    3  502    0  0.15142914202E+04  0.38768756856E+03  0.10416190177E+04  0.18783903572E+04  0.50400001928E-02 0.  1.
       -1    1    3    3    0  502 -0.15142914202E+04 -0.38768756856E+03 -0.30756504941E+03  0.15931027637E+04  0.50400001928E-02 0. -1.
</event>
<event>
 5   0  0.4289684E-07  0.3431446E+04  0.7818609E-02  0.8130231E-01
        1   -1    0    0  501    0  0.00000000000E+00  0.00000000000E+00  0.15071669816E+04  0.15071669816E+04  0.50400001928E-02 0. -1.
       -1   -1    0    0    0  501  0.00000000000E+00  0.00000000000E+00 -0.19531386318E+04  0.19531386318E+04  0.50400001928E-02 0.  1.
    10030    2    1    2    0    0  0.00000000000E+00  0.00000000000E+00 -0.44597165023E+03  0.34603056134E+04  0.34314463751E+04 0.  0.
        4    1    3    3  502    0 -0.65861563484E+03  0.11691634735E+04  0.85511113628E+03  0.15912053452E+04  0.12699999809E+01 0. -1.
       -4    1    3    3    0  502  0.65861563484E+03 -0.11691634735E+04 -0.13010827865E+04  0.18691002682E+04  0.12699999809E+01 0.  1.
</event>
<event>
 5   0  0.4272633E-07  0.3410358E+04  0.7818609E-02  0.8135369E-01
       -1   -1    0    0    0  501  0.00000000000E+00  0.00000000000E+00  0.25166067674E+04  0.25166067674E+04  0.50400001928E-02 0.  1.
        1   -1    0    0  501    0  0.00000000000E+00  0.00000000000E+00 -0.11553796153E+04  0.11553796153E+04  0.50400001928E-02 0. -1.
    10030    2    1    2    0    0  0.00000000000E+00  0.00000000000E+00  0.13612271521E+04  0.36719863827E+04  0.34103584321E+04 0.  0.
        1    1    3    3  502    0  0.34682833946E+03  0.16087937343E+04  0.11610857851E+04  0.20141070917E+04  0.50400001928E-02 0.  1.
       -1    1    3    3    0  502 -0.34682833946E+03 -0.16087937343E+04  0.20014136699E+03  0.16578792910E+04  0.50400001928E-02 0. -1.
</event>
<event>
 5   0  0.1269497E-06  0.3376449E+04  0.7818609E-02  0.8143711E-01
       -2   -1    0    0    0  501  0.00000000000E+00  0.00000000000E+00  0.93137320345E+03  0.93137320345E+03  0.25500000920E-02 0.  1.
        2   -1    0    0  501    0  0.00000000000E+00  0.00000000000E+00 -0.30601074462E+04  0.30601074462E+04  0.25500000920E-02 0. -1.
    10030    2    1    2    0    0  0.00000000000E+00  0.00000000000E+00 -0.21287342427E+04  0.39914806496E+04  0.33764490667E+04 0.  0.
        5    1    3    3  502    0  0.13611582695E+04 -0.45364146727E+03 -0.21161100285E+04  0.25566552678E+04  0.46999998093E+01 0. -1.
       -5    1    3    3    0  502 -0.13611582695E+04  0.45364146727E+03 -0.12624214199E+02  0.14348253818E+04  0.46999998093E+01 0.  1.
</event>
<event>
 5   0  0.4109937E-07  0.3403888E+04  0.7818609E-02  0.8136953E-01
        1   -1    0    0  501    0  0.00000000000E+00  0.00000000000E+00  0.11949148238E+04  0.11949148238E+04  0.50400001928E-02 0. -1.
       -1   -1    0    0    0  501  0.00000000000E+00  0.00000000000E+00 -0.24241175424E+04  0.24241175424E+04  0.50400001928E-02 0.  1.
    10030    2    1    2    0    0  0.00000000000E+00  0.00000000000E+00 -0.12292027186E+04  0.36190323662E+04  0.34038883566E+04 0.  0.
        5    1    3    3  502    0  0.13842801759E+04  0.73234099178E+03 -0.13230799344E+04  0.20501506131E+04  0.46999998093E+01 0.  1.
       -5    1    3    3    0  502 -0.13842801759E+04 -0.73234099178E+03  0.93877215884E+02  0.15688817531E+04  0.46999998093E+01 0. -1.
</event>
<event>
 5   0  0.4464951E-07  0.3363393E+04  0.7818609E-02  0.8146950E-01
        1   -1    0    0  501    0  0.00000000000E+00  0.00000000000E+00  0.18276754312E+04  0.18276754312E+04  0.50400001928E-02 0. -1.
       -1   -1    0    0    0  501  0.00000000000E+00  0.00000000000E+00 -0.15473775549E+04  0.15473775549E+04  0.50400001928E-02 0.  1.
    10030    2    1    2    0    0  0.00000000000E+00  0.00000000000E+00  0.28029787632E+03  0.33750529861E+04  0.33633934887E+04 0.  0.
        3    1    3    3  502    0 -0.92471309644E+03 -0.14026767619E+04  0.65679001620E+02  0.16813417709E+04  0.10100000352E+00 0. -1.
       -3    1    3    3    0  502  0.92471309644E+03  0.14026767619E+04  0.21461887470E+03  0.16937112152E+04  0.10100000352E+00 0.  1.
</event>
<event>
 5   0  0.1300176E-06  0.3372438E+04  0.7818609E-02  0.8144704E-01
        2   -1    0    0  501    0  0.00000000000E+00  0.00000000000E+00  0.21271017653E+04  0.21271017653E+04  0.25500000920E-02 0. -1.
       -2   -1    0    0    0  501  0.00000000000E+00  0.00000000000E+00 -0.13367179275E+04  0.13367179275E+04  0.25500000920E-02 0.  1.
    10030    2    1    2    0    0  0.00000000000E+00  0.00000000000E+00  0.79038383782E+03  0.34638196928E+04  0.33724383246E+04 0.  0.
        1    1    3    3  502    0  0.11052224530E+04  0.11390554677E+04 -0.18977632963E+03  0.15984301938E+04  0.50400001928E-02 0.  1.
       -1    1    3    3    0  502 -0.11052224530E+04 -0.11390554677E+04  0.98016016745E+03  0.18653894990E+04  0.50400001928E-02 0. -1.
</event>
<event>
 5   0  0.4464951E-07  0.3421090E+04  0.7818609E-02  0.8132749E-01
       -1   -1    0    0    0  501  0.00000000000E+00  0.00000000000E+00  0.19143205357E+04  0.19143205357E+04  0.50400001928E-02 0.  1.
        1   -1    0    0  501    0  0.00000000000E+00  0.00000000000E+00 -0.15284613052E+04  0.15284613052E+04  0.50400001928E-02 0. -1.
    10030    2    1    2    0    0  0.00000000000E+00  0.00000000000E+00  0.38585923050E+03  0.34427818409E+04  0.34210903902E+04 0.  0.
        3    1    3    3  502    0 -0.43095047908E+03 -0.31243805743E+03 -0.14429941172E+04  0.15380402750E+04  0.10100000352E+00 0. -1.
       -3    1    3    3    0  502  0.43095047908E+03  0.31243805743E+03  0.18288533477E+04  0.19047415659E+04  0.10100000352E+00 0.  1.
</event>
<event>
 5   0  0.1256208E-06  0.3434038E+04  0.7818609E-02  0.8129602E-01
       -2   -1    0    0    0  501  0.00000000000E+00  0.00000000000E+00  0.11399247563E+04  0.11399247563E+04  0.25500000920E-02 0.  1.
        2   -1    0    0  501    0  0.00000000000E+00  0.00000000000E+00 -0.25862706874E+04  0.25862706874E+04  0.25500000920E-02 0. -1.
    10030    2    1    2    0    0  0.00000000000E+00  0.00000000000E+00 -0.14463459312E+04  0.37261954437E+04  0.34340378466E+04 0.  0.
        3    1    3    3  502    0 -0.25316104503E+02 -0.15924570695E+04 -0.14193101512E+04  0.21333076990E+04  0.10100000352E+00 0. -1.
       -3    1    3    3    0  502  0.25316104503E+02  0.15924570695E+04 -0.27035780002E+02  0.15928877446E+04  0.10100000352E+00 0.  1.
</event>
<event>
 5   0  0.4272633E-07  0.3413658E+04  0.7818609E-02  0.8134562E-01
       -1   -1    0    0    0  501  0.00000000000E+00  0.00000000000E+00  0.15135661119E+04  0.15135661119E+04  0.50400001928E-02 0.  1.
        1   -1    0    0  501    0  0.00000000000E+00  0.00000000000E+00 -0.19247691612E+04  0.19247691612E+04  0.50400001928E-02 0. -1.
    10030    2    1    2    0    0  0.00000000000E+00  0.00000000000E+00 -0.41120304929E+03  0.34383352731E+04  0.34136580822E+04 0.  0.
        1    1    3    3  502    0 -0.38138697404E+03  0.16542213265E+04 -0.38397251503E+03  0.17404996735E+04  0.50400001928E-02 0. -1.
       -1    1    3    3    0  502  0.38138697404E+03 -0.16542213265E+04 -0.27230534263E+02  0.16978355996E+04  0.50400001928E-02 0.  1.
</event>
<event>
 5   0  0.4272633E-07  0.3402331E+04  0.7818609E-02  0.8137334E-01
        1   -1    0    0  501    0  0.00000000000E+00  0.00000000000E+00  0.14009947725E+04  0.14009947725E+04  0.50400001928E-02 0. -1.
       -1   -1    0    0    0  501  0.00000000000E+00  0.00000000000E+00 -0.20656496280E+04  0.20656496280E+04  0.50400001928E-02 0.  1.
    10030    2    1    2    0    0  0.00000000000E+00  0.00000000000E+00 -0.66465485549E+03  0.34666444004E+04  0.34023311600E+04 0.  0.
        1    1    3    3  502    0 -0.43351892601E+03  0.10503889229E+04  0.95758438751E+03  0.14860092220E+04  0.50400001928E-02 0. -1.
       -1    1    3    3    0  502  0.43351892601E+03 -0.10503889229E+04 -0.16222392430E+04  0.19806351785E+04  0.50400001928E-02 0.  1.
</event>
<event>
 5   0  0.1300176E-06  0.3386348E+04  0.7818609E-02  0.8141265E-01
        2   -1    0    0  501    0  0.00000000000E+00  0.00000000000E+00  0.19870655876E+04  0.19870655876E+04  0.25500000920E-02 0.  1.
       -2   -1    0    0    0  501  0.00000000000E+00  0.00000000000E+00 -0.14427492728E+04  0.14427492728E+04  0.25500000920E-02 0. -1.
    10030    2    1    2    0    0  0.00000000000E+00  0.00000000000E+00  0.54431631482E+03  0.34298148604E+04  0.33863475495E+04 0.  0.
        1    1    3    3  502    0 -0.52412608308E+03  0.13761049213E+04 -0.57431136514E+03  0.15805715579E+04  0.50400001928E-02 0. -1.
       -1    1    3    3    0  502  0.52412608308E+03 -0.13761049213E+04  0.11186276800E+04  0.18492433025E+04  0.50400001928E-02 0.  1.
</event>
<event>
 5   0  0.4464951E-07  0.3417212E+04  0.7818609E-02  0.8133695E-01
        1   -1    0    0  501    0  0.00000000000E+00  0.00000000000E+00  0.15427639398E+04  0.15427639398E+04  0.50400001928E-02 0. -1.
       -1   -1    0    0    0  501  0.00000000000E+00  0.00000000000E+00 -0.18922750266E+04  0.18922750266E+04  0.50400001928E-02 0.  1.
    10030    2    1    2    0    0  0.00000000000E+00  0.00000000000E+00 -0.34951108680E+03  0.34350389665E+04  0.34172115389E+04 0.  0.
        3    1    3    3  502    0  0.40657646390E+03  0.10494103878E+04  0.11175512611E+04  0.15860288189E+04  0.10100000352E+00 0. -1.
       -3    1    3    3    0  502 -0.40657646390E+03 -0.10494103878E+04 -0.14670623479E+04  0.18490101476E+04  0.10100000352E+00 0.  1.
</event>
<event>
 5   0  0.4272633E-07  0.3368551E+04  0.7818609E-02  0.8145668E-01
       -1   -1    0    0    0  501  0.00000000000E+00  0.00000000000E+00  0.13923077477E+04  0.13923077477E+04  0.50400001928E-02 0. -1.
        1   -1    0    0  501    0  0.00000000000E+00  0.00000000000E+00 -0.20374696578E+04  0.20374696579E+04  0.50400001928E-02 0.  1.
    10030    2    1    2    0    0  0.00000000000E+00  0.00000000000E+00 -0.64516191017E+03  0.34297774055E+04  0.33685514930E+04 0.  0.
        1    1    3    3  502    0 -0.13595697186E+03  0.14744513747E+04  0.49468736603E+03  0.15611555799E+04  0.50400001928E-02 0. -1.
       -1    1    3    3    0  502  0.13595697186E+03 -0.14744513747E+04 -0.11398492762E+04  0.18686218256E+04  0.50400001928E-02 0.  1.
</event>
<event>
 5   0  0.1256208E-06  0.3458456E+04  0.7818609E-02  0.8123707E-01
       -2   -1    0    0    0  501  0.00000000000E+00  0.00000000000E+00  0.16635310289E+04  0.16635310289E+04  0.25500000920E-02 0. -1.
        2   -1    0    0  501    0  0.00000000000E+00  0.00000000000E+00 -0.17975192988E+04  0.17975192988E+04  0.25500000920E-02 0.  1.
    10030    2    1    2    0    0  0.00000000000E+00  0.00000000000E+00 -0.13398826990E+03  0.34610503277E+04  0.34584557991E+04 0.  0.
        3    1    3    3  502    0 -0.98438943609E+03 -0.84351179358E+03 -0.12122714854E+04  0.17748624939E+04  0.10100000352E+00 0.  1.
       -3    1    3    3    0  502  0.98438943609E+03  0.84351179358E+03  0.10782832155E+04  0.16861878338E+04  0.10100000352E+00 0. -1.
</event>
<event>
 5   0  0.1269497E-06  0.3425738E+04  0.7818609E-02  0.8131618E-01
       -2   -1    0    0    0  501  0.00000000000E+00  0.00000000000E+00  0.15484329048E+04  0.15484329048E+04  0.25500000920E-02 0.  1.
        2   -1    0    0  501    0  0.00000000000E+00  0.00000000000E+00 -0.18947673858E+04  0.18947673858E+04  0.25500000920E-02 0. -1.
    10030    2    1    2    0    0  0.00000000000E+00  0.00000000000E+00 -0.34633448101E+03  0.34432002905E+04  0.34257379742E+04 0.  0.
        5    1    3    3  502    0 -0.66033785963E+03 -0.13624442356E+04 -0.97824817361E+03  0.18025792530E+04  0.46999998093E+01 0. -1.
       -5    1    3    3    0  502  0.66033785963E+03  0.13624442356E+04  0.63191369261E+03  0.16406210376E+04  0.46999998093E+01 0.  1.
</event>
<event>
 5   0  0.1268230E-06  0.3413671E+04  0.7818609E-02  0.8134559E-01
       -2   -1    0    0    0  501  0.00000000000E+00  0.00000000000E+00  0.26255428030E+04  0.26255428030E+04  0.25500000920E-02 0. -1.
        2   -1    0    0  501    0  0.00000000000E+00  0.00000000000E+00 -0.11095944644E+04  0.11095944644E+04  0.25500000920E-02 0.  1.
    10030    2    1    2    0    0  0.00000000000E+00  0.00000000000E+00  0.15159483386E+04  0.37351372674E+04  0.34136711970E+04 0.  0.
        2    1    3    3  502    0 -0.30990481557E+03  0.16207704748E+04  0.28059756609E+03  0.16738198591E+04  0.25500000920E-02 0.  1.
       -2    1    3    3    0  502  0.30990481557E+03 -0.16207704748E+04  0.12353507725E+04  0.20613174083E+04  0.25500000920E-02 0. -1.
</event>
<event>
 5   0  0.1268230E-06  0.3404400E+04  0.7818609E-02  0.8136827E-01
        2   -1    0    0  501    0  0.00000000000E+00  0.00000000000E+00  0.19920413945E+04  0.19920413945E+04  0.25500000920E-02 0. -1.
       -2   -1    0    0    0  501  0.00000000000E+00  0.00000000000E+00 -0.14545302862E+04  0.14545302862E+04  0.25500000920E-02 0.  1.
    10030    2    1    2    0    0  0.00000000000E+00  0.00000000000E+00  0.53751110826E+03  0.34465716807E+04  0.34043998235E+04 0.  0.
        2    1    3    3  502    0 -0.11865987470E+04 -0.10797090435E+04  0.84474648667E+03  0.18131146770E+04  0.25500000920E-02 0. -1.
       -2    1    3    3    0  502  0.11865987470E+04  0.10797090435E+04 -0.30723537842E+03  0.16334570037E+04  0.25500000920E-02 0.  1.
</event>
<event>
 5   0  0.1256208E-06  0.3395820E+04  0.7818609E-02  0.8138933E-01
       -2   -1    0    0    0  501  0.00000000000E+00  0.00000000000E+00  0.13789239646E+04  0.13789239646E+04  0.25500000920E-02 0.  1.
        2   -1    0    0  501    0  0.00000000000E+00  0.00000000000E+00 -0.20906873736E+04  0.20906873736E+04  0.25500000920E-02 0. -1.
    10030    2    1    2    0    0  0.00000000000E+00  0.00000000000E+00 -0.71176340904E+03  0.34696113382E+04  0.33958203262E+04 0.  0.
        3    1    3    3  502    0 -0.10149614733E+04 -0.10692096462E+04  0.50476604882E+03  0.15582505685E+04  0.10100000352E+00 0. -1.
       -3    1    3    3    0  502  0.10149614733E+04  0.10692096462E+04 -0.12165294579E+04  0.19113607697E+04  0.10100000352E+00 0.  1.
</event>
<event>
 5   0  0.4125758E-07  0.3508499E+04  0.7818609E-02  0.8111779E-01
       -1   -1    0    0    0  501  0.00000000000E+00  0.00000000000E+00  0.19548812456E+04  0.19548812456E+04  0.50400001928E-02 0. -1.
        1   -1    0    0  501    0  0.00000000000E+00  0.00000000000E+00 -0.15742084041E+04  0.15742084041E+04  0.50400001928E-02 0.  1.
    10030    2    1    2    0    0  0.00000000000E+00  0.00000000000E+00  0.38067284146E+03  0.35290896497E+04  0.35084985312E+04 0.  0.
        2    1    3    3  502    0  0.60159928458E+03  0.45204084809E+03 -0.14036176564E+04  0.15926095419E+04  0.25500000920E-02 0.  1.
       -2    1    3    3    0  502 -0.60159928458E+03 -0.45204084809E+03  0.17842904978E+04  0.19364801079E+04  0.25500000920E-02 0. -1.
</event>
<event>
 5   0  0.1300176E-06  0.3446399E+04  0.7818609E-02  0.8126611E-01
       -2   -1    0    0    0  501  0.00000000000E+00  0.00000000000E+00  0.13000963131E+04  0.13000963131E+04  0.25500000920E-02 0.  1.
        2   -1    0    0  501    0  0.00000000000E+00  0.00000000000E+00 -0.22839972204E+04  0.22839972204E+04  0.25500000920E-02 0. -1.
    10030    2    1    2    0    0  0.00000000000E+00  0.00000000000E+00 -0.98390090736E+03  0.35840935335E+04  0.34463989121E+04 0.  0.
        1    1    3    3  502    0  0.21068750065E+03  0.13273536599E+04 -0.16135385941E+04  0.20999437507E+04  0.50400001928E-02 0. -1.
       -1    1    3    3    0  502 -0.21068750065E+03 -0.13273536599E+04  0.62963768675E+03  0.14841497828E+04  0.50400001928E-02 0.  1.
</event>
<event>
 5   0  0.4464951E-07  0.3446137E+04  0.7818609E-02  0.8126675E-01
       -1   -1    0    0    0  501  0.00000000000E+00  0.00000000000E+00  0.25373658163E+04  0.25373658163E+04  0.50400001928E-02 0.  1.
        1   -1    0    0  501    0  0.00000000000E+00  0.00000000000E+00 -0.11700975386E+04  0.11700975387E+04  0.50400001928E-02 0. -1.
    10030    2    1    2    0    0  0.00000000000E+00  0.00000000000E+00  0.13672682777E+04  0.37074633550E+04  0.34461372558E+04 0.  0.
        3    1    3    3  502    0  0.65481161011E+03  0.11537357118E+04 -0.49933120345E+03  0.14174681649E+04  0.10100000352E+00 0. -1.
       -3    1    3    3    0  502 -0.65481161011E+03 -0.11537357118E+04  0.18665994811E+04  0.22899951901E+04  0.10100000352E+00 0.  1.
</event>
<event>
 5   0  0.4464951E-07  0.3483400E+04  0.7818609E-02  0.8117735E-01
       -1   -1    0    0    0  501  0.00000000000E+00  0.00000000000E+00  0.12253846215E+04  0.12253846215E+04  0.50400001928E-02 0.  1.
        1   -1    0    0  501    0  0.00000000000E+00  0.00000000000E+00 -0.24755651694E+04  0.24755651694E+04  0.50400001928E-02 0. -1.
    10030    2    1    2    0    0  0.00000000000E+00  0.00000000000E+00 -0.12501805479E+04  0.37009497909E+04  0.34834003434E+04 0.  0.
        3    1    3    3  502    0  0.46176925639E+03 -0.34895121223E+03 -0.23704010051E+04  0.24400407230E+04  0.10100000352E+00 0. -1.
       -3    1    3    3    0  502 -0.46176925639E+03  0.34895121223E+03  0.11202204572E+04  0.12609090679E+04  0.10100000352E+00 0.  1.
</event>
<event>
 5   0  0.4289684E-07  0.3034149E+04  0.7818609E-02  0.8234046E-01
       -1   -1    0    0    0  501  0.00000000000E+00  0.00000000000E+00  0.12507452123E+04  0.12507452123E+04  0.50400001928E-02 0.  1.
        1   -1    0    0  501    0  0.00000000000E+00  0.00000000000E+00 -0.18401145773E+04  0.18401145773E+04  0.50400001928E-02 0. -1.
    10030    2    1    2    0    0  0.00000000000E+00  0.00000000000E+00 -0.58936936503E+03  0.30908597896E+04  0.30341486435E+04 0.  0.
        4    1    3    3  502    0  0.69236853550E+03  0.86453106564E+02 -0.16669580344E+04  0.18070968513E+04  0.12699999809E+01 0. -1.
       -4    1    3    3    0  502 -0.69236853550E+03 -0.86453106564E+02  0.10775886694E+04  0.12837629383E+04  0.12699999809E+01 0.  1.
</event>
<event>
 5   0  0.1277635E-06  0.3397634E+04  0.7818609E-02  0.8138487E-01
        2   -1    0    0  501    0  0.00000000000E+00  0.00000000000E+00  0.33370762137E+04  0.33370762137E+04  0.25500000920E-02 0.  1.
       -2   -1    0    0    0  501  0.00000000000E+00  0.00000000000E+00 -0.86482245893E+03  0.86482245893E+03  0.25500000920E-02 0. -1.
    10030    2    1    2    0    0  0.00000000000E+00  0.00000000000E+00  0.24722537548E+04  0.42018986726E+04  0.33976335628E+04 0.  0.
        4    1    3    3  502    0  0.15535572127E+04 -0.57228992151E+03  0.17069250982E+04  0.23779509396E+04  0.12699999809E+01 0.  1.
       -4    1    3    3    0  502 -0.15535572127E+04  0.57228992151E+03  0.76532865656E+03  0.18239477330E+04  0.12699999809E+01 0. -1.
</event>
<event>
 5   0  0.4464951E-07  0.3350073E+04  0.7818609E-02  0.8150270E-01
       -1   -1    0    0    0  501  0.00000000000E+00  0.00000000000E+00  0.11915893508E+04  0.11915893509E+04  0.50400001928E-02 0.  1.
        1   -1    0    0  501    0  0.00000000000E+00  0.00000000000E+00 -0.23546256040E+04  0.23546256040E+04  0.50400001928E-02 0. -1.
    10030    2    1    2    0    0  0.00000000000E+00  0.00000000000E+00 -0.11630362532E+04  0.35462149549E+04  0.33500727127E+04 0.  0.
        3    1    3    3  502    0 -0.14042432363E+04 -0.80114172030E+03 -0.11766159731E+03  0.16209785268E+04  0.10100000352E+00 0.  1.
       -3    1    3    3    0  502  0.14042432363E+04  0.80114172030E+03 -0.10453746559E+04  0.19252364281E+04  0.10100000352E+00 0. -1.
</event>
<event>
 5   0  0.1269497E-06  0.3397418E+04  0.7818609E-02  0.8138540E-01
        2   -1    0    0  501    0  0.00000000000E+00  0.00000000000E+00  0.22458603759E+04  0.22458603759E+04  0.25500000920E-02 0.  1.
       -2   -1    0    0    0  501  0.00000000000E+00  0.00000000000E+00 -0.12848583116E+04  0.12848583116E+04  0.25500000920E-02 0. -1.
    10030    2    1    2    0    0  0.00000000000E+00  0.00000000000E+00  0.96100206432E+03  0.35307186875E+04  0.33974180612E+04 0.  0.
        5    1    3    3  502    0  0.10233858361E+04  0.15591444915E+03  0.18801794459E+04  0.21463281957E+04  0.46999998093E+01 0.  1.
       -5    1    3    3    0  502 -0.10233858361E+04 -0.15591444915E+03 -0.91917738155E+03  0.13843904918E+04  0.46999998093E+01 0. -1.
</event>
<event>
 5   0  0.4464951E-07  0.3404858E+04  0.7818609E-02  0.8136715E-01
       -1   -1    0    0    0  501  0.00000000000E+00  0.00000000000E+00  0.13023173309E+04  0.13023173310E+04  0.50400001928E-02 0.  1.
        1   -1    0    0  501    0  0.00000000000E+00  0.00000000000E+00 -0.22254670154E+04  0.22254670154E+04  0.50400001928E-02 0. -1.
    10030    2    1    2    0    0  0.00000000000E+00  0.00000000000E+00 -0.92314968442E+03  0.35277843463E+04  0.34048578611E+04 0.  0.
        3    1    3    3  502    0 -0.85462147856E+02  0.12425781404E+04  0.74091218021E+03  0.14492256839E+04  0.10100000352E+00 0.  1.
       -3    1    3    3    0  502  0.85462147856E+02 -0.12425781404E+04 -0.16640618646E+04  0.20785586625E+04  0.10100000352E+00 0. -1.
</event>
<event>
 5   0  0.1300176E-06  0.3814307E+04  0.7818609E-02  0.8043092E-01
       -2   -1    0    0    0  501  0.00000000000E+00  0.00000000000E+00  0.20573792551E+04  0.20573792551E+04  0.25500000920E-02 0. -1.
        2   -1    0    0  501    0  0.00000000000E+00  0.00000000000E+00 -0.17678966402E+04  0.17678966402E+04  0.25500000920E-02 0.  1.
    10030    2    1    2    0    0  0.00000000000E+00  0.00000000000E+00  0.28948261486E+03  0.38252758953E+04  0.38143066855E+04 0.  0.
        1    1    3    3  502    0 -0.35398060333E+03  0.32443826983E+03 -0.17062836646E+04  0.17725592804E+04  0.50400001928E-02 0.  1.
       -1    1    3    3    0  502  0.35398060333E+03 -0.32443826983E+03  0.19957662795E+04  0.20527166148E+04  0.50400001928E-02 0. -1.
</event>
<event>
 5   0  0.4464951E-07  0.3383368E+04  0.7818609E-02  0.8142001E-01
       -1   -1    0    0    0  501  0.00000000000E+00  0.00000000000E+00  0.10589044821E+04  0.10589044821E+04  0.50400001928E-02 0.  1.
        1   -1    0    0  501    0  0.00000000000E+00  0.00000000000E+00 -0.27025988312E+04  0.27025988312E+04  0.50400001928E-02 0. -1.
    10030    2    1    2    0    0  0.00000000000E+00  0.00000000000E+00 -0.16436943491E+04  0.37615033134E+04  0.33833675625E+04 0.  0.
        3    1    3    3  502    0  0.14513050607E+04 -0.35575797519E+03 -0.17035418508E+04  0.22660328691E+04  0.10100000352E+00 0. -1.
       -3    1    3    3    0  502 -0.14513050607E+04  0.35575797519E+03  0.59847501678E+02  0.14954704443E+04  0.10100000352E+00 0.  1.
</event>
<event>
 5   0  0.1269497E-06  0.3208902E+04  0.7818609E-02  0.8186470E-01
        2   -1    0    0  501    0  0.00000000000E+00  0.00000000000E+00  0.25333837910E+04  0.25333837910E+04  0.25500000920E-02 0. -1.
       -2   -1    0    0    0  501  0.00000000000E+00  0.00000000000E+00 -0.10161364979E+04  0.10161364980E+04  0.25500000920E-02 0.  1.
    10030    2    1    2    0    0  0.00000000000E+00  0.00000000000E+00  0.15172472931E+04  0.35495202890E+04  0.32089024500E+04 0.  0.
        5    1    3    3  502    0 -0.99247077607E+03  0.56815152586E+03  0.20034440555E+04  0.23068603276E+04  0.46999998093E+01 0. -1.
       -5    1    3    3    0  502  0.99247077607E+03 -0.56815152586E+03 -0.48619676244E+03  0.12426599613E+04  0.46999998093E+01 0.  1.
</event>
<event>
 5   0  0.1256208E-06  0.3406177E+04  0.7818609E-02  0.8136392E-01
       -2   -1    0    0    0  501  0.00000000000E+00  0.00000000000E+00  0.13391759644E+04  0.13391759644E+04  0.25500000920E-02 0.  1.
        2   -1    0    0  501    0  0.00000000000E+00  0.00000000000E+00 -0.21658914501E+04  0.21658914501E+04  0.25500000920E-02 0. -1.
    10030    2    1    2    0    0  0.00000000000E+00  0.00000000000E+00 -0.82671548572E+03  0.35050674144E+04  0.34061766081E+04 0.  0.
        3    1    3    3  502    0 -0.29227389079E+03  0.20536928933E+03 -0.21269087506E+04  0.21566968762E+04  0.10100000352E+00 0. -1.
       -3    1    3    3    0  502  0.29227389079E+03 -0.20536928933E+03  0.13001932649E+04  0.13483705382E+04  0.10100000352E+00 0.  1.
</event>
<event>
 5   0  0.1256208E-06  0.3421086E+04  0.7818609E-02  0.8132750E-01
       -2   -1    0    0    0  501  0.00000000000E+00  0.00000000000E+00  0.12764094670E+04  0.12764094670E+04  0.25500000920E-02 0. -1.
        2   -1    0    0  501    0  0.00000000000E+00  0.00000000000E+00 -0.22923345754E+04  0.22923345754E+04  0.25500000920E-02 0.  1.
    10030    2    1    2    0    0  0.00000000000E+00  0.00000000000E+00 -0.10159251084E+04  0.35687440424E+04  0.34210861161E+04 0.  0.
        3    1    3    3  502    0  0.76418881260E+03  0.59321232951E+03 -0.19795490825E+04  0.22032929877E+04  0.10100000352E+00 0.  1.
       -3    1    3    3    0  502 -0.76418881260E+03 -0.59321232951E+03  0.96362397408E+03  0.13654510547E+04  0.10100000352E+00 0. -1.
</event>
<event>
 5   0  0.4272633E-07  0.3377039E+04  0.7818609E-02  0.8143565E-01
       -1   -1    0    0    0  501  0.00000000000E+00  0.00000000000E+00  0.19157758411E+04  0.19157758411E+04  0.50400001928E-02 0. -1.
        1   -1    0    0  501    0  0.00000000000E+00  0.00000000000E+00 -0.14882213184E+04  0.14882213184E+04  0.50400001928E-02 0.  1.
    10030    2    1    2    0    0  0.00000000000E+00  0.00000000000E+00  0.42755452275E+03  0.34039971595E+04  0.33770392050E+04 0.  0.
        1    1    3    3  502    0 -0.15768965976E+04  0.40566556361E+03  0.66448309195E+03  0.17586088844E+04  0.50400001928E-02 0. -1.
       -1    1    3    3    0  502  0.15768965976E+04 -0.40566556361E+03 -0.23692856920E+03  0.16453882751E+04  0.50400001928E-02 0.  1.
</event>
<event>
 5   0  0.4289684E-07  0.3396729E+04  0.7818609E-02  0.8138710E-01
        1   -1    0    0  501    0  0.00000000000E+00  0.00000000000E+00  0.22318557609E+04  0.22318557609E+04  0.50400001928E-02 0.  1.
       -1   -1    0    0    0  501  0.00000000000E+00  0.00000000000E+00 -0.12923963100E+04  0.12923963100E+04  0.50400001928E-02 0. -1.
    10030    2    1    2    0    0  0.00000000000E+00  0.00000000000E+00  0.93945945093E+03  0.35242520709E+04  0.33967291030E+04 0.  0.
        4    1    3    3  502    0 -0.15432633540E+04  0.46624155022E+03  0.10240122544E+04  0.19098810626E+04  0.12699999809E+01 0.  1.
       -4    1    3    3    0  502  0.15432633540E+04 -0.46624155022E+03 -0.84552803457E+02  0.16143710083E+04  0.12699999809E+01 0. -1.
</event>
<event>
 5   0  0.4272633E-07  0.3375666E+04  0.7818609E-02  0.8143905E-01
        1   -1    0    0  501    0  0.00000000000E+00  0.00000000000E+00  0.20700488939E+04  0.20700488939E+04  0.50400001928E-02 0.  1.
       -1   -1    0    0    0  501  0.00000000000E+00  0.00000000000E+00 -0.13761894337E+04  0.13761894337E+04  0.50400001928E-02 0. -1.
    10030    2    1    2    0    0  0.00000000000E+00  0.00000000000E+00  0.69385946017E+03  0.34462383276E+04  0.33756655136E+04 0.  0.
        1    1    3    3  502    0 -0.12997476806E+04  0.62070983551E+03  0.12451849994E+04  0.19039722729E+04  0.50400001928E-02 0.  1.
       -1    1    3    3    0  502  0.12997476806E+04 -0.62070983551E+03 -0.55132553926E+03  0.15422660547E+04  0.50400001928E-02 0. -1.
</event>
<event>
 5   0  0.4060750E-07  0.3390114E+04  0.7818609E-02  0.8140337E-01
       -3   -1    0    0    0  501  0.00000000000E+00  0.00000000000E+00  0.11931428857E+04  0.11931428900E+04  0.10100000352E+00 0.  1.
        3   -1    0    0  501    0  0.00000000000E+00  0.00000000000E+00 -0.24081086034E+04  0.24081086055E+04  0.10100000352E+00 0. -1.
    10030    2    1    2    0    0  0.00000000000E+00  0.00000000000E+00 -0.12149657177E+04  0.36012514955E+04  0.33901136616E+04 0.  0.
        5    1    3    3  502    0  0.21760045971E+03 -0.16323240550E+04 -0.10342021080E+04  0.19445893835E+04  0.46999998093E+01 0.  1.
       -5    1    3    3    0  502 -0.21760045971E+03  0.16323240550E+04 -0.18076360972E+03  0.16566621119E+04  0.46999998093E+01 0. -1.
</event>
<event>
 5   0  0.4109937E-07  0.3347150E+04  0.7818609E-02  0.8151001E-01
       -1   -1    0    0    0  501  0.00000000000E+00  0.00000000000E+00  0.88910054380E+03  0.88910054381E+03  0.50400001928E-02 0. -1.
        1   -1    0    0  501    0  0.00000000000E+00  0.00000000000E+00 -0.31502105208E+04  0.31502105208E+04  0.50400001928E-02 0.  1.
    10030    2    1    2    0    0  0.00000000000E+00  0.00000000000E+00 -0.22611099770E+04  0.40393110646E+04  0.33471503624E+04 0.  0.
        5    1    3    3  502    0  0.12835654582E+04  0.73004213113E+03 -0.20810360515E+04  0.25517121578E+04  0.46999998093E+01 0.  1.
       -5    1    3    3    0  502 -0.12835654582E+04 -0.73004213113E+03 -0.18007392552E+03  0.14875989068E+04  0.46999998093E+01 0. -1.
</event>
<event>
 5   0  0.4289684E-07  0.3419220E+04  0.7818609E-02  0.8133205E-01
        1   -1    0    0  501    0  0.00000000000E+00  0.00000000000E+00  0.16503981958E+04  0.16503981958E+04  0.50400001928E-02 0. -1.
       -1   -1    0    0    0  501  0.00000000000E+00  0.00000000000E+00 -0.17709462842E+04  0.17709462842E+04  0.50400001928E-02 0.  1.
    10030    2    1    2    0    0  0.00000000000E+00  0.00000000000E+00 -0.12054808834E+03  0.34213444800E+04  0.34192201171E+04 0.  0.
        4    1    3    3  502    0 -0.10516351122E+04  0.10071518829E+02  0.12884235730E+04  0.16631520559E+04  0.12699999809E+01 0. -1.
       -4    1    3    3    0  502  0.10516351122E+04 -0.10071518829E+02 -0.14089716614E+04  0.17581924241E+04  0.12699999809E+01 0.  1.
</event>
<event>
 5   0  0.4125758E-07  0.3561239E+04  0.7818609E-02  0.8099429E-01
       -1   -1    0    0    0  501  0.00000000000E+00  0.00000000000E+00  0.18105909573E+04  0.18105909573E+04  0.50400001928E-02 0. -1.
        1   -1    0    0  501    0  0.00000000000E+00  0.00000000000E+00 -0.17511438234E+04  0.17511438234E+04  0.50400001928E-02 0.  1.
    10030    2    1    2    0    0  0.00000000000E+00  0.00000000000E+00  0.59447133952E+02  0.35617347807E+04  0.35612386449E+04 0.  0.
        2    1    3    3  502    0  0.15803714611E+04 -0.62338449198E+03 -0.50366395270E+03  0.17719648860E+04  0.25500000920E-02 0.  1.
       -2    1    3    3    0  502 -0.15803714611E+04  0.62338449198E+03  0.56311108665E+03  0.17897698947E+04  0.25500000920E-02 0. -1.
</event>
<event>
 5   0  0.1268230E-06  0.3444056E+04  0.7818609E-02  0.8127177E-01
        2   -1    0    0  501    0  0.00000000000E+00  0.00000000000E+00  0.17945530022E+04  0.17945530022E+04  0.25500000920E-02 0.  1.
       -2   -1    0    0    0  501  0.00000000000E+00  0.00000000000E+00 -0.16524344515E+04  0.16524344515E+04  0.25500000920E-02 0. -1.
    10030    2    1    2    0    0  0.00000000000E+00  0.00000000000E+00  0.14211855065E+03  0.34469874537E+04  0.34440564490E+04 0.  0.
        2    1    3    3  502    0 -0.65302535937E+01  0.14372192025E+04  0.10204125251E+04  0.17626353570E+04  0.25500000920E-02 0. -1.
       -2    1    3    3    0  502  0.65302535937E+01 -0.14372192025E+04 -0.87829397448E+03  0.16843520967E+04  0.25500000920E-02 0.  1.
</event>
<event>
 5   0  0.4109937E-07  0.3397414E+04  0.7818609E-02  0.8138541E-01
       -1   -1    0    0    0  501  0.00000000000E+00  0.00000000000E+00  0.15674885196E+04  0.15674885196E+04  0.50400001928E-02 0. -1.
        1   -1    0    0  501    0  0.00000000000E+00  0.00000000000E+00 -0.18409098335E+04  0.18409098335E+04  0.50400001928E-02 0.  1.
    10030    2    1    2    0    0  0.00000000000E+00  0.00000000000E+00 -0.27342131397E+03  0.34083983531E+04  0.33974137397E+04 0.  0.
        5    1    3    3  502    0 -0.12943491057E+04 -0.10142382912E+04  0.29077033039E+03  0.16699067022E+04  0.46999998093E+01 0.  1.
       -5    1    3    3    0  502  0.12943491057E+04  0.10142382912E+04 -0.56419164435E+03  0.17384916510E+04  0.46999998093E+01 0. -1.
</event>
<event>
 5   0  0.4464951E-07  0.3399365E+04  0.7818609E-02  0.8138062E-01
        1   -1    0    0  501    0  0.00000000000E+00  0.00000000000E+00  0.15734008448E+04  0.15734008448E+04  0.50400001928E-02 0. -1.
       -1   -1    0    0    0  501  0.00000000000E+00  0.00000000000E+00 -0.18360990989E+04  0.18360990989E+04  0.50400001928E-02 0.  1.
    10030    2    1    2    0    0  0.00000000000E+00  0.00000000000E+00 -0.26269825413E+03  0.34094999437E+04  0.33993645720E+04 0.  0.
        3    1    3    3  502    0  0.89696111471E+03  0.13792250550E+04 -0.55937538914E+03  0.17377289288E+04  0.10100000352E+00 0.  1.
       -3    1    3    3    0  502 -0.89696111471E+03 -0.13792250550E+04  0.29667713501E+03  0.16717710149E+04  0.10100000352E+00 0. -1.
</event>
<event>
 5   0  0.1268230E-06  0.3445927E+04  0.7818609E-02  0.8126725E-01
        2   -1    0    0  501    0  0.00000000000E+00  0.00000000000E+00  0.31610265769E+04  0.31610265769E+04  0.25500000920E-02 0.  1.
       -2   -1    0    0    0  501  0.00000000000E+00  0.00000000000E+00 -0.93912622975E+03  0.93912622976E+03  0.25500000920E-02 0. -1.
    10030    2    1    2    0    0  0.00000000000E+00  0.00000000000E+00  0.22219003472E+04  0.41001528067E+04  0.34459268543E+04 0.  0.
        2    1    3    3  502    0 -0.55748813186E+03 -0.87139839351E+03 -0.52849314317E+03  0.11616510577E+04  0.25500000920E-02 0. -1.
       -2    1    3    3    0  502  0.55748813186E+03  0.87139839351E+03  0.27503934903E+04  0.29385017490E+04  0.25500000920E-02 0.  1.
</event>
<event>
 5   0  0.4125758E-07  0.3377462E+04  0.7818609E-02  0.8143460E-01
       -1   -1    0    0    0  501  0.00000000000E+00  0.00000000000E+00  0.15663778235E+04  0.15663778235E+04  0.50400001928E-02 0.  1.
        1   -1    0    0  501    0  0.00000000000E+00  0.00000000000E+00 -0.18206410265E+04  0.18206410265E+04  0.50400001928E-02 0. -1.
    10030    2    1    2    0    0  0.00000000000E+00  0.00000000000E+00 -0.25426320298E+03  0.33870188501E+04  0.33774616081E+04 0.  0.
        2    1    3    3  502    0 -0.78678848194E+03 -0.14188566242E+04  0.34283242142E+03  0.16582292677E+04  0.25500000920E-02 0. -1.
       -2    1    3    3    0  502  0.78678848194E+03  0.14188566242E+04 -0.59709562440E+03  0.17287895823E+04  0.25500000920E-02 0.  1.
</event>
<event>
 5   0  0.4109937E-07  0.3278549E+04  0.7818609E-02  0.8168375E-01
       -1   -1    0    0    0  501  0.00000000000E+00  0.00000000000E+00  0.10740082274E+04  0.10740082274E+04  0.50400001928E-02 0.  1.
        1   -1    0    0  501    0  0.00000000000E+00  0.00000000000E+00 -0.25020488998E+04  0.25020488998E+04  0.50400001928E-02 0. -1.
    10030    2    1    2    0    0  0.00000000000E+00  0.00000000000E+00 -0.14280406725E+04  0.35760571272E+04  0.32785491326E+04 0.  0.
        5    1    3    3  502    0  0.28261664167E+03  0.57025293160E+03 -0.23617795351E+04  0.24460345939E+04  0.46999998093E+01 0. -1.
       -5    1    3    3    0  502 -0.28261664167E+03 -0.57025293160E+03  0.93373886267E+03  0.11300225333E+04  0.46999998093E+01 0.  1.
</event>
<event>
 5   0  0.1300176E-06  0.3395412E+04  0.7818609E-02  0.8139033E-01
        2   -1    0    0  501    0  0.00000000000E+00  0.00000000000E+00  0.17839659087E+04  0.17839659087E+04  0.25500000920E-02 0.  1.
       -2   -1    0    0    0  501  0.00000000000E+00  0.00000000000E+00 -0.16156169416E+04  0.16156169416E+04  0.25500000920E-02 0. -1.
    10030    2    1    2    0    0  0.00000000000E+00  0.00000000000E+00  0.16834896706E+03  0.33995828503E+04  0.33954119310E+04 0.  0.
        1    1    3    3  502    0  0.12434918327E+04  0.98623500994E+03 -0.51928815119E+03  0.16699076671E+04  0.50400001928E-02 0. -1.
       -1    1    3    3    0  502 -0.12434918327E+04 -0.98623500994E+03  0.68763711825E+03  0.17296751831E+04  0.50400001928E-02 0.  1.
</event>
<event>
 5   0  0.1268230E-06  0.3566234E+04  0.7818609E-02  0.8098270E-01
        2   -1    0    0  501    0  0.00000000000E+00  0.00000000000E+00  0.13323996075E+04  0.13323996075E+04  0.25500000920E-02 0.  1.
       -2   -1    0    0    0  501  0.00000000000E+00  0.00000000000E+00 -0.23863013634E+04  0.23863013634E+04  0.25500000920E-02 0. -1.
    10030    2    1    2    0    0  0.00000000000E+00  0.00000000000E+00 -0.10539017559E+04  0.37187009709E+04  0.35662344286E+04 0.  0.
        2    1    3    3  502    0  0.14951279647E+04  0.89228698255E+03 -0.92800194552E+03  0.19730107199E+04  0.25500000920E-02 0. -1.
       -2    1    3    3    0  502 -0.14951279647E+04 -0.89228698255E+03 -0.12589981039E+03  0.17456902510E+04  0.25500000920E-02 0.  1.
</event>
<event>
 5   0  0.1277635E-06  0.3418820E+04  0.7818609E-02  0.8133303E-01
       -2   -1    0    0    0  501  0.00000000000E+00  0.00000000000E+00  0.11096747905E+04  0.11096747905E+04  0.25500000920E-02 0. -1.
        2   -1    0    0  501    0  0.00000000000E+00  0.00000000000E+00 -0.26332778303E+04  0.26332778303E+04  0.25500000920E-02 0.  1.
    10030    2    1    2    0    0  0.00000000000E+00  0.00000000000E+00 -0.15236030397E+04  0.37429526208E+04  0.34188196938E+04 0.  0.
        4    1    3    3  502    0 -0.11891815030E+04 -0.11584782431E+04 -0.31593626709E+03  0.16899827882E+04  0.12699999809E+01 0. -1.
       -4    1    3    3    0  502  0.11891815030E+04  0.11584782431E+04 -0.12076667726E+04  0.20529698326E+04  0.12699999809E+01 0.  1.
</event>
<event>
 5   0  0.1269497E-06  0.3590780E+04  0.7818609E-02  0.8092607E-01
        2   -1    0    0  501    0  0.00000000000E+00  0.00000000000E+00  0.12177593288E+04  0.12177593288E+04  0.25500000920E-02 0. -1.
       -2   -1    0    0    0  501  0.00000000000E+00  0.00000000000E+00 -0.26470138981E+04  0.26470138981E+04  0.25500000920E-02 0.  1.
    10030    2    1    2    0    0  0.00000000000E+00  0.00000000000E+00 -0.14292545693E+04  0.38647732269E+04  0.35907803430E+04 0.  0.
        5    1    3    3  502    0  0.94307214704E+01 -0.17953215753E+04 -0.72714581575E+03  0.19370161653E+04  0.46999998093E+01 0.  1.
       -5    1    3    3    0  502 -0.94307214704E+01  0.17953215753E+04 -0.70210875354E+03  0.19277570617E+04  0.46999998093E+01 0. -1.
</event>
<event>
 5   0  0.1277635E-06  0.3355915E+04  0.7818609E-02  0.8148812E-01
        2   -1    0    0  501    0  0.00000000000E+00  0.00000000000E+00  0.25246151996E+04  0.25246151996E+04  0.25500000920E-02 0.  1.
       -2   -1    0    0    0  501  0.00000000000E+00  0.00000000000E+00 -0.11152356444E+04  0.11152356444E+04  0.25500000920E-02 0. -1.
    10030    2    1    2    0    0  0.00000000000E+00  0.00000000000E+00  0.14093795551E+04  0.36398508440E+04  0.33559146944E+04 0.  0.
        4    1    3    3  502    0  0.15509831146E+04 -0.74496249722E+02  0.14926250437E+02  0.15528434303E+04  0.12699999809E+01 0. -1.
       -4    1    3    3    0  502 -0.15509831146E+04  0.74496249722E+02  0.13944533047E+04  0.20870074137E+04  0.12699999809E+01 0.  1.
</event>
<event>
 5   0  0.1300176E-06  0.3404560E+04  0.7818609E-02  0.8136788E-01
       -2   -1    0    0    0  501  0.00000000000E+00  0.00000000000E+00  0.18034750540E+04  0.18034750540E+04  0.25500000920E-02 0.  1.
        2   -1    0    0  501    0  0.00000000000E+00  0.00000000000E+00 -0.16067626545E+04  0.16067626545E+04  0.25500000920E-02 0. -1.
    10030    2    1    2    0    0  0.00000000000E+00  0.00000000000E+00  0.19671239949E+03  0.34102377084E+04  0.34045595104E+04 0.  0.
        1    1    3    3  502    0  0.16683989785E+03  0.39962968841E+03 -0.15506631395E+04  0.16099986372E+04  0.50400001928E-02 0. -1.
       -1    1    3    3    0  502 -0.16683989785E+03 -0.39962968841E+03  0.17473755390E+04  0.18002390713E+04  0.50400001928E-02 0.  1.
</event>
<event>
 5   0  0.4289684E-07  0.3316746E+04  0.7818609E-02  0.8158647E-01
       -1   -1    0    0    0  501  0.00000000000E+00  0.00000000000E+00  0.18180042049E+04  0.18180042049E+04  0.50400001928E-02 0. -1.
        1   -1    0    0  501    0  0.00000000000E+00  0.00000000000E+00 -0.15127584448E+04  0.15127584448E+04  0.50400001928E-02 0.  1.
    10030    2    1    2    0    0  0.00000000000E+00  0.00000000000E+00  0.30524576015E+03  0.33307626497E+04  0.33167461246E+04 0.  0.
        4    1    3    3  502    0  0.83526821697E+03 -0.53497758536E+03  0.14872711751E+04  0.17876943733E+04  0.12699999809E+01 0. -1.
       -4    1    3    3    0  502 -0.83526821697E+03  0.53497758536E+03 -0.11820254150E+04  0.15430682764E+04  0.12699999809E+01 0.  1.
</event>
<event>
 5   0  0.1268230E-06  0.3400204E+04  0.7818609E-02  0.8137856E-01
       -2   -1    0    0    0  501  0.00000000000E+00  0.00000000000E+00  0.11035680908E+04  0.11035680908E+04  0.25500000920E-02 0.  1.
        2   -1    0    0  501    0  0.00000000000E+00  0.00000000000E+00 -0.26190927642E+04  0.26190927642E+04  0.25500000920E-02 0. -1.
    10030    2    1    2    0    0  0.00000000000E+00  0.00000000000E+00 -0.15155246734E+04  0.37226608551E+04  0.34002042301E+04 0.  0.
        2    1    3    3  502    0 -0.15956658982E+04 -0.56615801801E+03 -0.58934760391E+03  0.17927674580E+04  0.25500000920E-02 0.  1.
       -2    1    3    3    0  502  0.15956658982E+04  0.56615801801E+03 -0.92617706945E+03  0.19298933971E+04  0.25500000920E-02 0. -1.
</event>
<event>
 5   0  0.1256208E-06  0.3310772E+04  0.7818609E-02  0.8160160E-01
       -2   -1    0    0    0  501  0.00000000000E+00  0.00000000000E+00  0.28787172898E+04  0.28787172898E+04  0.25500000920E-02 0. -1.
        2   -1    0    0  501    0  0.00000000000E+00  0.00000000000E+00 -0.95191796923E+03  0.95191796924E+03  0.25500000920E-02 0.  1.
    10030    2    1    2    0    0  0.00000000000E+00  0.00000000000E+00  0.19267993206E+04  0.38306352591E+04  0.33107719442E+04 0.  0.
        3    1    3    3  502    0  0.12061357112E+04 -0.10615958250E+04  0.50268750893E+03  0.16835806459E+04  0.10100000352E+00 0.  1.
       -3    1    3    3    0  502 -0.12061357112E+04  0.10615958250E+04  0.14241118117E+04  0.21470546132E+04  0.10100000352E+00 0. -1.
</event>
<event>
 5   0  0.4060750E-07  0.3343834E+04  0.7818609E-02  0.8151830E-01
        4   -1    0    0  501    0  0.00000000000E+00  0.00000000000E+00  0.12841014251E+04  0.12841020532E+04  0.12699999809E+01 0.  1.
       -4   -1    0    0    0  501  0.00000000000E+00  0.00000000000E+00 -0.21768570889E+04  0.21768574594E+04  0.12699999809E+01 0. -1.
    10030    2    1    2    0    0  0.00000000000E+00  0.00000000000E+00 -0.89275566375E+03  0.34609595125E+04  0.33438343368E+04 0.  0.
        4    1    3    3  502    0 -0.39678316591E+03 -0.15930362238E+04 -0.77385251347E+03  0.18149519599E+04  0.12699999809E+01 0. -1.
       -4    1    3    3    0  502  0.39678316591E+03  0.15930362238E+04 -0.11890315028E+03  0.16460075526E+04  0.12699999809E+01 0.  1.
</event>
<event>
 5   0  0.1300176E-06  0.3399131E+04  0.7818609E-02  0.8138120E-01
        2   -1    0    0  501    0  0.00000000000E+00  0.00000000000E+00  0.25891813271E+04  0.25891813271E+04  0.25500000920E-02 0.  1.
       -2   -1    0    0    0  501  0.00000000000E+00  0.00000000000E+00 -0.11156122025E+04  0.11156122025E+04  0.25500000920E-02 0. -1.
    10030    2    1    2    0    0  0.00000000000E+00  0.00000000000E+00  0.14735691246E+04  0.37047935296E+04  0.33991306435E+04 0.  0.
        1    1    3    3  502    0 -0.75340660407E+03 -0.13805716086E+04  0.34715548629E+02  0.15731511837E+04  0.50400001928E-02 0. -1.
       -1    1    3    3    0  502  0.75340660407E+03  0.13805716086E+04  0.14388535760E+04  0.21316423459E+04  0.50400001928E-02 0.  1.
</event>
<event>
 5   0  0.4272633E-07  0.3417668E+04  0.7818609E-02  0.8133584E-01
       -1   -1    0    0    0  501  0.00000000000E+00  0.00000000000E+00  0.11414432987E+04  0.11414432988E+04  0.50400001928E-02 0.  1.
        1   -1    0    0  501    0  0.00000000000E+00  0.00000000000E+00 -0.25582637088E+04  0.25582637088E+04  0.50400001928E-02 0. -1.
    10030    2    1    2    0    0  0.00000000000E+00  0.00000000000E+00 -0.14168204100E+04  0.36997070075E+04  0.34176676063E+04 0.  0.
        1    1    3    3  502    0 -0.13655238175E+04  0.10271162148E+04 -0.73237172061E+03  0.18590296802E+04  0.50400001928E-02 0.  1.
       -1    1    3    3    0  502  0.13655238175E+04 -0.10271162148E+04 -0.68444868943E+03  0.18406773273E+04  0.50400001928E-02 0. -1.
</event>
<event>
 5   0  0.1268230E-06  0.3388374E+04  0.7818609E-02  0.8140766E-01
       -2   -1    0    0    0  501  0.00000000000E+00  0.00000000000E+00  0.14541702108E+04  0.14541702108E+04  0.25500000920E-02 0.  1.
        2   -1    0    0  501    0  0.00000000000E+00  0.00000000000E+00 -0.19738196327E+04  0.19738196327E+04  0.25500000920E-02 0. -1.
    10030    2    1    2    0    0  0.00000000000E+00  0.00000000000E+00 -0.51964942187E+03  0.34279898436E+04  0.33883740711E+04 0.  0.
        2    1    3    3  502    0  0.13695279759E+04 -0.98037190658E+03 -0.44508796970E+03  0.17420790030E+04  0.25500000920E-02 0.  1.
       -2    1    3    3    0  502 -0.13695279759E+04  0.98037190658E+03 -0.74561452174E+02  0.16859108405E+04  0.25500000920E-02 0. -1.
</event>
<event>
 5   0  0.4109937E-07  0.3398295E+04  0.7818609E-02  0.8138325E-01
       -1   -1    0    0    0  501  0.00000000000E+00  0.00000000000E+00  0.15688208157E+04  0.15688208157E+04  0.50400001928E-02 0. -1.
        1   -1    0    0  501    0  0.00000000000E+00  0.00000000000E+00 -0.18403008467E+04  0.18403008467E+04  0.50400001928E-02 0.  1.
    10030    2    1    2    0    0  0.00000000000E+00  0.00000000000E+00 -0.27148003098E+03  0.34091216624E+04  0.33982950287E+04 0.  0.
        5    1    3    3  502    0  0.32224158558E+03  0.10236117862E+04 -0.14573054048E+04  0.18098016083E+04  0.46999998093E+01 0.  1.
       -5    1    3    3    0  502 -0.32224158558E+03 -0.10236117862E+04  0.11858253738E+04  0.15993200542E+04  0.46999998093E+01 0. -1.
</event>
<event>
 5   0  0.1269497E-06  0.3417354E+04  0.7818609E-02  0.8133660E-01
        2   -1    0    0  501    0  0.00000000000E+00  0.00000000000E+00  0.24295082877E+04  0.24295082877E+04  0.25500000920E-02 0. -1.
       -2   -1    0    0    0  501  0.00000000000E+00  0.00000000000E+00 -0.12017154013E+04  0.12017154013E+04  0.25500000920E-02 0.  1.
    10030    2    1    2    0    0  0.00000000000E+00  0.00000000000E+00  0.12277928865E+04  0.36312236890E+04  0.34173542555E+04 0.  0.
        5    1    3    3  502    0  0.13794383669E+03 -0.91041406401E+03 -0.91551248706E+03  0.12984866091E+04  0.46999998093E+01 0.  1.
       -5    1    3    3    0  502 -0.13794383669E+03  0.91041406401E+03  0.21433053735E+04  0.23327370799E+04  0.46999998093E+01 0. -1.
</event>
<event>
 5   0  0.4289684E-07  0.3441894E+04  0.7818609E-02  0.8127700E-01
        1   -1    0    0  501    0  0.00000000000E+00  0.00000000000E+00  0.19561517934E+04  0.19561517934E+04  0.50400001928E-02 0.  1.
       -1   -1    0    0    0  501  0.00000000000E+00  0.00000000000E+00 -0.15140230530E+04  0.15140230531E+04  0.50400001928E-02 0. -1.
    10030    2    1    2    0    0  0.00000000000E+00  0.00000000000E+00  0.44212874034E+03  0.34701748465E+04  0.34418941939E+04 0.  0.
        4    1    3    3  502    0  0.12085665375E+04  0.32116658376E+03 -0.97096842682E+03  0.15832126670E+04  0.12699999809E+01 0. -1.
       -4    1    3    3    0  502 -0.12085665375E+04 -0.32116658376E+03  0.14130971672E+04  0.18869621795E+04  0.12699999809E+01 0.  1.
</event>
<event>
 5   0  0.1277635E-06  0.3345568E+04  0.7818609E-02  0.8151397E-01
       -2   -1    0    0    0  501  0.00000000000E+00  0.00000000000E+00  0.21704258005E+04  0.21704258005E+04  0.25500000920E-02 0. -1.
        2   -1    0    0  501    0  0.00000000000E+00  0.00000000000E+00 -0.12892427583E+04  0.12892427583E+04  0.25500000920E-02 0.  1.
    10030    2    1    2    0    0  0.00000000000E+00  0.00000000000E+00  0.88118304226E+03  0.34596685588E+04  0.33455676623E+04 0.  0.
        4    1    3    3  502    0 -0.12595113395E+04  0.98336415913E+03 -0.71087032196E+02  0.15995089443E+04  0.12699999809E+01 0. -1.
       -4    1    3    3    0  502  0.12595113395E+04 -0.98336415913E+03  0.95227007446E+03  0.18601596145E+04  0.12699999809E+01 0.  1.
</event>
<event>
 5   0  0.4272633E-07  0.3232552E+04  0.7818609E-02  0.8180273E-01
        1   -1    0    0  501    0  0.00000000000E+00  0.00000000000E+00  0.23465484726E+04  0.23465484726E+04  0.50400001928E-02 0.  1.
       -1   -1    0    0    0  501  0.00000000000E+00  0.00000000000E+00 -0.11132727680E+04  0.11132727681E+04  0.50400001928E-02 0. -1.
    10030    2    1    2    0    0  0.00000000000E+00  0.00000000000E+00  0.12332757045E+04  0.34598212406E+04  0.32325522507E+04 0.  0.
        1    1    3    3  502    0 -0.41435460433E+03  0.42057388352E+03  0.22270048791E+04  0.23039363839E+04  0.50400001928E-02 0.  1.
       -1    1    3    3    0  502  0.41435460433E+03 -0.42057388352E+03 -0.99372917455E+03  0.11558848567E+04  0.50400001928E-02 0. -1.
</event>
<event>
 5   0  0.1300176E-06  0.3382777E+04  0.7818609E-02  0.8142146E-01
        2   -1    0    0  501    0  0.00000000000E+00  0.00000000000E+00  0.16493684312E+04  0.16493684312E+04  0.25500000920E-02 0.  1.
       -2   -1    0    0    0  501  0.00000000000E+00  0.00000000000E+00 -0.17344789822E+04  0.17344789822E+04  0.25500000920E-02 0. -1.
    10030    2    1    2    0    0  0.00000000000E+00  0.00000000000E+00 -0.85110550977E+02  0.33838474134E+04  0.33827768935E+04 0.  0.
        1    1    3    3  502    0  0.12518425710E+04 -0.11367130305E+04 -0.29379259155E+01  0.16909272509E+04  0.50400001928E-02 0.  1.
       -1    1    3    3    0  502 -0.12518425710E+04  0.11367130305E+04 -0.82172625062E+02  0.16929201625E+04  0.50400001928E-02 0. -1.
</event>
<event>
 5   0  0.4289684E-07  0.3392801E+04  0.7818609E-02  0.8139675E-01
       -1   -1    0    0    0  501  0.00000000000E+00  0.00000000000E+00  0.15868447319E+04  0.15868447319E+04  0.50400001928E-02 0.  1.
        1   -1    0    0  501    0  0.00000000000E+00  0.00000000000E+00 -0.18135200220E+04  0.18135200220E+04  0.50400001928E-02 0. -1.
    10030    2    1    2    0    0  0.00000000000E+00  0.00000000000E+00 -0.22667529012E+03  0.34003647539E+04  0.33928010217E+04 0.  0.
        4    1    3    3  502    0 -0.45672831781E+03 -0.14824688853E+04 -0.80149660922E+03  0.17460564652E+04  0.12699999809E+01 0. -1.
       -4    1    3    3    0  502  0.45672831781E+03  0.14824688853E+04  0.57482131910E+03  0.16543082887E+04  0.12699999809E+01 0.  1.
</event>
<event>
 5   0  0.1256208E-06  0.3384013E+04  0.7818609E-02  0.8141841E-01
       -2   -1    0    0    0  501  0.00000000000E+00  0.00000000000E+00  0.13171286577E+04  0.13171286577E+04  0.25500000920E-02 0. -1.
        2   -1    0    0  501    0  0.00000000000E+00  0.00000000000E+00 -0.21735817217E+04  0.21735817217E+04  0.25500000920E-02 0.  1.
    10030    2    1    2    0    0  0.00000000000E+00  0.00000000000E+00 -0.85645306402E+03  0.34907103794E+04  0.33840134607E+04 0.  0.
        3    1    3    3  502    0  0.13178934681E+04  0.23620666426E+03 -0.14953737841E+04  0.20071819913E+04  0.10100000352E+00 0.  1.
       -3    1    3    3    0  502 -0.13178934681E+04 -0.23620666426E+03  0.63892072011E+03  0.14835283881E+04  0.10100000352E+00 0. -1.
</event>
<event>
 5   0  0.4464951E-07  0.3387231E+04  0.7818609E-02  0.8141047E-01
        1   -1    0    0  501    0  0.00000000000E+00  0.00000000000E+00  0.17652305529E+04  0.17652305529E+04  0.50400001928E-02 0. -1.
       -1   -1    0    0    0  501  0.00000000000E+00  0.00000000000E+00 -0.16249061861E+04  0.16249061861E+04  0.50400001928E-02 0.  1.
    10030    2    1    2    0    0  0.00000000000E+00  0.00000000000E+00  0.14032436684E+03  0.33901367390E+04  0.33872313445E+04 0.  0.
        3    1    3    3  502    0 -0.15173230020E+03 -0.10098691518E+04  0.14224227291E+04  0.17510410690E+04  0.10100000352E+00 0. -1.
       -3    1    3    3    0  502  0.15173230020E+03  0.10098691518E+04 -0.12820983622E+04  0.16390956700E+04  0.10100000352E+00 0.  1.
</event>
<event>
 5   0  0.1300176E-06  0.3385670E+04  0.7818609E-02  0.8141432E-01
       -2   -1    0    0    0  501  0.00000000000E+00  0.00000000000E+00  0.12443283874E+04  0.12443283874E+04  0.25500000920E-02 0.  1.
        2   -1    0    0  501    0  0.00000000000E+00  0.00000000000E+00 -0.23030013902E+04  0.23030013902E+04  0.25500000920E-02 0. -1.
    10030    2    1    2    0    0  0.00000000000E+00  0.00000000000E+00 -0.10586730028E+04  0.35473297776E+04  0.33856698044E+04 0.  0.
        1    1    3    3  502    0 -0.15643559059E+04 -0.40729670004E+03 -0.27556719589E+01  0.16165109328E+04  0.50400001928E-02 0.  1.
       -1    1    3    3    0  502  0.15643559059E+04  0.40729670004E+03 -0.10559173308E+04  0.19308188448E+04  0.50400001928E-02 0. -1.
</event>
<event>
 5   0  0.4289684E-07  0.3430262E+04  0.7818609E-02  0.8130519E-01
       -1   -1    0    0    0  501  0.00000000000E+00  0.00000000000E+00  0.11117136970E+04  0.11117136970E+04  0.50400001928E-02 0. -1.
        1   -1    0    0  501    0  0.00000000000E+00  0.00000000000E+00 -0.26460720639E+04  0.26460720639E+04  0.50400001928E-02 0.  1.
    10030    2    1    2    0    0  0.00000000000E+00  0.00000000000E+00 -0.15343583669E+04  0.37577857609E+04  0.34302621222E+04 0.  0.
        4    1    3    3  502    0 -0.37642646745E+03 -0.98168913518E+03 -0.22516514601E+04  0.24850244172E+04  0.12699999809E+01 0.  1.
       -4    1    3    3    0  502  0.37642646745E+03  0.98168913518E+03  0.71729309319E+03  0.12727613437E+04  0.12699999809E+01 0. -1.
</event>
<event>
 5   0  0.1256208E-06  0.3507862E+04  0.7818609E-02  0.8111929E-01
        2   -1    0    0  501    0  0.00000000000E+00  0.00000000000E+00  0.11124739651E+04  0.11124739651E+04  0.25500000920E-02 0. -1.
       -2   -1    0    0    0  501  0.00000000000E+00  0.00000000000E+00 -0.27652542856E+04  0.27652542856E+04  0.25500000920E-02 0.  1.
    10030    2    1    2    0    0  0.00000000000E+00  0.00000000000E+00 -0.16527803205E+04  0.38777282506E+04  0.35078616846E+04 0.  0.
        3    1    3    3  502    0 -0.26764495731E+03 -0.81082462767E+03 -0.25199877803E+04  0.26607158479E+04  0.10100000352E+00 0.  1.
       -3    1    3    3    0  502  0.26764495731E+03  0.81082462767E+03  0.86720745979E+03  0.12170124028E+04  0.10100000352E+00 0. -1.
</event>
<event>
 5   0  0.4289684E-07  0.3407577E+04  0.7818609E-02  0.8136049E-01
        1   -1    0    0  501    0  0.00000000000E+00  0.00000000000E+00  0.19594137472E+04  0.19594137472E+04  0.50400001928E-02 0. -1.
       -1   -1    0    0    0  501  0.00000000000E+00  0.00000000000E+00 -0.14815125366E+04  0.14815125366E+04  0.50400001928E-02 0.  1.
    10030    2    1    2    0    0  0.00000000000E+00  0.00000000000E+00  0.47790121059E+03  0.34409262838E+04  0.34075774567E+04 0.  0.
        4    1    3    3  502    0 -0.13020258760E+04  0.76883169602E+03 -0.55392219541E+03  0.16103431219E+04  0.12699999809E+01 0.  1.
       -4    1    3    3    0  502  0.13020258760E+04 -0.76883169602E+03  0.10318234060E+04  0.18305831619E+04  0.12699999809E+01 0. -1.
</event>
<event>
 5   0  0.4060750E-07  0.3411128E+04  0.7818609E-02  0.8135181E-01
       -3   -1    0    0    0  501  0.00000000000E+00  0.00000000000E+00  0.12826312172E+04  0.12826312212E+04  0.10100000352E+00 0. -1.
        3   -1    0    0  501    0  0.00000000000E+00  0.00000000000E+00 -0.22679534386E+04  0.22679534408E+04  0.10100000352E+00 0.  1.
    10030    2    1    2    0    0  0.00000000000E+00  0.00000000000E+00 -0.98532222137E+03  0.35505846620E+04  0.34111276086E+04 0.  0.
        5    1    3    3  502    0 -0.10648837332E+04 -0.67091304672E+03  0.70540564999E+03  0.14428170024E+04  0.46999998093E+01 0. -1.
       -5    1    3    3    0  502  0.10648837332E+04  0.67091304672E+03 -0.16907278714E+04  0.21077676595E+04  0.46999998093E+01 0.  1.
</event>
<event>
 5   0  0.4289684E-07  0.3397883E+04  0.7818609E-02  0.8138426E-01
       -1   -1    0    0    0  501  0.00000000000E+00  0.00000000000E+00  0.10709829258E+04  0.10709829259E+04  0.50400001928E-02 0.  1.
        1   -1    0    0  501    0  0.00000000000E+00  0.00000000000E+00 -0.26950969232E+04  0.26950969232E+04  0.50400001928E-02 0. -1.
    10030    2    1    2    0    0  0.00000000000E+00  0.00000000000E+00 -0.16241139973E+04  0.37660798490E+04  0.33978833342E+04 0.  0.
        4    1    3    3  502    0  0.66442498714E+03 -0.10010258198E+04 -0.21434226837E+04  0.24571885701E+04  0.12699999809E+01 0. -1.
       -4    1    3    3    0  502 -0.66442498714E+03  0.10010258198E+04  0.51930868636E+03  0.13088912789E+04  0.12699999809E+01 0.  1.
</event>
<event>
 5   0  0.4109937E-07  0.3437309E+04  0.7818609E-02  0.8128810E-01
       -1   -1    0    0    0  501  0.00000000000E+00  0.00000000000E+00  0.15059418784E+04  0.15059418784E+04  0.50400001928E-02 0.  1.
        1   -1    0    0  501    0  0.00000000000E+00  0.00000000000E+00 -0.19614128043E+04  0.19614128043E+04  0.50400001928E-02 0. -1.
    10030    2    1    2    0    0  0.00000000000E+00  0.00000000000E+00 -0.45547092590E+03  0.34673546827E+04  0.34373092283E+04 0.  0.
        5    1    3    3  502    0  0.38812597950E+03 -0.64908115721E+03  0.13290638326E+04  0.15291765384E+04  0.46999998093E+01 0.  1.
       -5    1    3    3    0  502 -0.38812597950E+03  0.64908115721E+03 -0.17845347585E+04  0.19381781443E+04  0.46999998093E+01 0. -1.
</event>
<event>
 5   0  0.1268230E-06  0.3385709E+04  0.7818609E-02  0.8141423E-01
        2   -1    0    0  501    0  0.00000000000E+00  0.00000000000E+00  0.14215432170E+04  0.14215432170E+04  0.25500000920E-02 0. -1.
       -2   -1    0    0    0  501  0.00000000000E+00  0.00000000000E+00 -0.20159479205E+04  0.20159479205E+04  0.25500000920E-02 0.  1.
    10030    2    1    2    0    0  0.00000000000E+00  0.00000000000E+00 -0.59440470349E+03  0.34374911375E+04  0.33857094336E+04 0.  0.
        2    1    3    3  502    0  0.34108499327E+03 -0.86410140090E+01 -0.19806763057E+04  0.20098488171E+04  0.25500000920E-02 0.  1.
       -2    1    3    3    0  502 -0.34108499327E+03  0.86410140090E+01  0.13862716022E+04  0.14276423204E+04  0.25500000920E-02 0. -1.
</event>
<event>
 5   0  0.1277635E-06  0.3336069E+04  0.7818609E-02  0.8153778E-01
        2   -1    0    0  501    0  0.00000000000E+00  0.00000000000E+00  0.20929246004E+04  0.20929246004E+04  0.25500000920E-02 0. -1.
       -2   -1    0    0    0  501  0.00000000000E+00  0.00000000000E+00 -0.13294028072E+04  0.13294028072E+04  0.25500000920E-02 0.  1.
    10030    2    1    2    0    0  0.00000000000E+00  0.00000000000E+00  0.76352179311E+03  0.34223274076E+04  0.33360694472E+04 0.  0.
        4    1    3    3  502    0  0.52988456583E+03  0.10156788334E+03  0.20009391125E+04  0.20724026233E+04  0.12699999809E+01 0. -1.
       -4    1    3    3    0  502 -0.52988456583E+03 -0.10156788334E+03 -0.12374173194E+04  0.13499247843E+04  0.12699999809E+01 0.  1.
</event>
<event>
 5   0  0.1269497E-06  0.2974433E+04  0.7818609E-02  0.8251069E-01
       -2   -1    0    0    0  501  0.00000000000E+00  0.00000000000E+00  0.90001990511E+03  0.90001990511E+03  0.25500000920E-02 0. -1.
        2   -1    0    0  501    0  0.00000000000E+00  0.00000000000E+00 -0.24575162029E+04  0.24575162029E+04  0.25500000920E-02 0.  1.
    10030    2    1    2    0    0  0.00000000000E+00  0.00000000000E+00 -0.15574962978E+04  0.33575361081E+04  0.29744333913E+04 0.  0.
        5    1    3    3  502    0  0.10670926000E+02 -0.61714062350E+03 -0.23060985175E+04  0.23872764566E+04  0.46999998093E+01 0.  1.
       -5    1    3    3    0  502 -0.10670926000E+02  0.61714062350E+03  0.74860221970E+03  0.97025965142E+03  0.46999998093E+01 0. -1.
</event>
<event>
 5   0  0.1269497E-06  0.2956915E+04  0.7818609E-02  0.8256142E-01
        2   -1    0    0  501    0  0.00000000000E+00  0.00000000000E+00  0.11126644468E+04  0.11126644468E+04  0.25500000920E-02 0. -1.
       -2   -1    0    0    0  501  0.00000000000E+00  0.00000000000E+00 -0.19645068539E+04  0.19645068539E+04  0.25500000920E-02 0.  1.
    10030    2    1    2    0    0  0.00000000000E+00  0.00000000000E+00 -0.85184240710E+03  0.30771713008E+04  0.29569152385E+04 0.  0.
        5    1    3    3  502    0 -0.99460985351E+03 -0.91885773333E+03  0.19173740561E+03  0.13676014103E+04  0.46999998093E+01 0. -1.
       -5    1    3    3    0  502  0.99460985351E+03  0.91885773333E+03 -0.10435798127E+04  0.17095698904E+04  0.46999998093E+01 0.  1.
</event>
<event>
 5   0  0.4289684E-07  0.3375444E+04  0.7818609E-02  0.8143960E-01
        1   -1    0    0  501    0  0.00000000000E+00  0.00000000000E+00  0.18917205512E+04  0.18917205512E+04  0.50400001928E-02 0.  1.
       -1   -1    0    0    0  501  0.00000000000E+00  0.00000000000E+00 -0.15057217308E+04  0.15057217308E+04  0.50400001928E-02 0. -1.
    10030    2    1    2    0    0  0.00000000000E+00  0.00000000000E+00  0.38599882046E+03  0.33974422820E+04  0.33754435220E+04 0.  0.
        4    1    3    3  502    0  0.93272563379E+03  0.12765466601E+04  0.78748796439E+03  0.17662636808E+04  0.12699999809E+01 0.  1.
       -4    1    3    3    0  502 -0.93272563379E+03 -0.12765466601E+04 -0.40148914393E+03  0.16311786011E+04  0.12699999809E+01 0. -1.
</event>
<event>
 5   0  0.4272633E-07  0.3410572E+04  0.7818609E-02  0.8135317E-01
       -1   -1    0    0    0  501  0.00000000000E+00  0.00000000000E+00  0.10502533864E+04  0.10502533864E+04  0.50400001928E-02 0. -1.
        1   -1    0    0  501    0  0.00000000000E+00  0.00000000000E+00 -0.27688553056E+04  0.27688553056E+04  0.50400001928E-02 0.  1.
    10030    2    1    2    0    0  0.00000000000E+00  0.00000000000E+00 -0.17186019192E+04  0.38191086919E+04  0.34105716008E+04 0.  0.
        1    1    3    3  502    0  0.41340633948E+03 -0.83796125552E+03  0.73807839987E+03  0.11907323762E+04  0.50400001928E-02 0. -1.
       -1    1    3    3    0  502 -0.41340633948E+03  0.83796125552E+03 -0.24566803191E+04  0.26283763158E+04  0.50400001928E-02 0.  1.
</event>
<event>
 5   0  0.1256208E-06  0.3368621E+04  0.7818609E-02  0.8145651E-01
       -2   -1    0    0    0  501  0.00000000000E+00  0.00000000000E+00  0.16258777695E+04  0.16258777695E+04  0.25500000920E-02 0.  1.
        2   -1    0    0  501    0  0.00000000000E+00  0.00000000000E+00 -0.17448432995E+04  0.17448432995E+04  0.25500000920E-02 0. -1.
    10030    2    1    2    0    0  0.00000000000E+00  0.00000000000E+00 -0.11896553007E+03  0.33707210690E+04  0.33686210424E+04 0.  0.
        3    1    3    3  502    0 -0.15433558510E+04 -0.56716316854E+03 -0.42478648446E+03  0.16982534882E+04  0.10100000352E+00 0. -1.
       -3    1    3    3    0  502  0.15433558510E+04  0.56716316854E+03  0.30582095438E+03  0.16724675808E+04  0.10100000352E+00 0.  1.
</event>
<event>
 5   0  0.1300176E-06  0.3250481E+04  0.7818609E-02  0.8175611E-01
       -2   -1    0    0    0  501  0.00000000000E+00  0.00000000000E+00  0.11980741945E+04  0.11980741946E+04  0.25500000920E-02 0.  1.
        2   -1    0    0  501    0  0.00000000000E+00  0.00000000000E+00 -0.22047109807E+04  0.22047109807E+04  0.25500000920E-02 0. -1.
    10030    2    1    2    0    0  0.00000000000E+00  0.00000000000E+00 -0.10066367862E+04  0.34027851753E+04  0.32504813997E+04 0.  0.
        1    1    3    3  502    0  0.17033635819E+03  0.12179145803E+04  0.60904993327E+03  0.13723236575E+04  0.50400001928E-02 0.  1.
       -1    1    3    3    0  502 -0.17033635819E+03 -0.12179145803E+04 -0.16156867194E+04  0.20304615178E+04  0.50400001928E-02 0. -1.
</event>
<event>
 5   0  0.1269497E-06  0.3407491E+04  0.7818609E-02  0.8136070E-01
        2   -1    0    0  501    0  0.00000000000E+00  0.00000000000E+00  0.17462316604E+04  0.17462316605E+04  0.25500000920E-02 0.  1.
       -2   -1    0    0    0  501  0.00000000000E+00  0.00000000000E+00 -0.16622928865E+04  0.16622928865E+04  0.25500000920E-02 0. -1.
    10030    2    1    2    0    0  0.00000000000E+00  0.00000000000E+00  0.83938773976E+02  0.34085245469E+04  0.34074908465E+04 0.  0.
        5    1    3    3  502    0 -0.73221728387E+03  0.92993016519E+03 -0.11838876343E+04  0.16740741572E+04  0.46999998093E+01 0.  1.
       -5    1    3    3    0  502  0.73221728387E+03 -0.92993016519E+03  0.12678264083E+04  0.17344503898E+04  0.46999998093E+01 0. -1.
</event>
<event>
 5   0  0.4109937E-07  0.3265973E+04  0.7818609E-02  0.8171608E-01
       -1   -1    0    0    0  501  0.00000000000E+00  0.00000000000E+00  0.12608444133E+04  0.12608444133E+04  0.50400001928E-02 0.  1.
        1   -1    0    0  501    0  0.00000000000E+00  0.00000000000E+00 -0.21149668252E+04  0.21149668252E+04  0.50400001928E-02 0. -1.
    10030    2    1    2    0    0  0.00000000000E+00  0.00000000000E+00 -0.85412241189E+03  0.33758112385E+04  0.32659725080E+04 0.  0.
        5    1    3    3  502    0 -0.92055273859E+03  0.11174234038E+04  0.35370309433E+03  0.14903624984E+04  0.46999998093E+01 0.  1.
       -5    1    3    3    0  502  0.92055273859E+03 -0.11174234038E+04 -0.12078255062E+04  0.18854487400E+04  0.46999998093E+01 0. -1.
</event>
<event>
 5   0  0.1268230E-06  0.3388627E+04  0.7818609E-02  0.8140703E-01
        2   -1    0    0  501    0  0.00000000000E+00  0.00000000000E+00  0.28308406179E+04  0.28308406179E+04  0.25500000920E-02 0.  1.
       -2   -1    0    0    0  501  0.00000000000E+00  0.00000000000E+00 -0.10140795813E+04  0.10140795813E+04  0.25500000920E-02 0. -1.
    10030    2    1    2    0    0  0.00000000000E+00  0.00000000000E+00  0.18167610366E+04  0.38449201992E+04  0.33886266649E+04 0.  0.
        2    1    3    3  502    0 -0.12995605977E+04 -0.39615663557E+02  0.21410719763E+04  0.25049184330E+04  0.25500000920E-02 0.  1.
       -2    1    3    3    0  502  0.12995605977E+04  0.39615663557E+02 -0.32431093971E+03  0.13400017663E+04  0.25500000920E-02 0. -1.
</event>
<event>
 5   0  0.4272633E-07  0.3366045E+04  0.7818609E-02  0.8146291E-01
       -1   -1    0    0    0  501  0.00000000000E+00  0.00000000000E+00  0.26936566415E+04  0.26936566415E+04  0.50400001928E-02 0. -1.
        1   -1    0    0  501    0  0.00000000000E+00  0.00000000000E+00 -0.10515683679E+04  0.10515683679E+04  0.50400001928E-02 0.  1.
    10030    2    1    2    0    0  0.00000000000E+00  0.00000000000E+00  0.16420882736E+04  0.37452250094E+04  0.33660446332E+04 0.  0.
        1    1    3    3  502    0  0.74130647382E+03  0.10879287281E+04  0.19877027560E+04  0.23841322220E+04  0.50400001928E-02 0. -1.
       -1    1    3    3    0  502 -0.74130647382E+03 -0.10879287281E+04 -0.34561448247E+03  0.13610927874E+04  0.50400001928E-02 0.  1.
</event>
<event>
 5   0  0.1256208E-06  0.3390992E+04  0.7818609E-02  0.8140121E-01
       -2   -1    0    0    0  501  0.00000000000E+00  0.00000000000E+00  0.17003815474E+04  0.17003815474E+04  0.25500000920E-02 0. -1.
        2   -1    0    0  501    0  0.00000000000E+00  0.00000000000E+00 -0.16906240554E+04  0.16906240554E+04  0.25500000920E-02 0.  1.
    10030    2    1    2    0    0  0.00000000000E+00  0.00000000000E+00  0.97574919562E+01  0.33910056028E+04  0.33909915644E+04 0.  0.
        3    1    3    3  502    0 -0.16748169446E+04 -0.18486114492E+03  0.19334834686E+03  0.16960451156E+04  0.10100000352E+00 0. -1.
       -3    1    3    3    0  502  0.16748169446E+04  0.18486114492E+03 -0.18359085490E+03  0.16949604872E+04  0.10100000352E+00 0.  1.
</event>
<event>
 5   0  0.1268230E-06  0.3381695E+04  0.7818609E-02  0.8142414E-01
       -2   -1    0    0    0  501  0.00000000000E+00  0.00000000000E+00  0.15038163471E+04  0.15038163471E+04  0.25500000920E-02 0. -1.
        2   -1    0    0  501    0  0.00000000000E+00  0.00000000000E+00 -0.19011393506E+04  0.19011393506E+04  0.25500000920E-02 0.  1.
    10030    2    1    2    0    0  0.00000000000E+00  0.00000000000E+00 -0.39732300346E+03  0.34049556977E+04  0.33816945063E+04 0.  0.
        2    1    3    3  502    0  0.26156515675E+02  0.40466938301E+03  0.14541298738E+04  0.15096142430E+04  0.25500000920E-02 0. -1.
       -2    1    3    3    0  502 -0.26156515675E+02 -0.40466938301E+03 -0.18514528773E+04  0.18953414546E+04  0.25500000920E-02 0.  1.
</event>
<event>
 5   0  0.4272633E-07  0.3408988E+04  0.7818609E-02  0.8135704E-01
       -1   -1    0    0    0  501  0.00000000000E+00  0.00000000000E+00  0.11962853901E+04  0.11962853901E+04  0.50400001928E-02 0. -1.
        1   -1    0    0  501    0  0.00000000000E+00  0.00000000000E+00 -0.24286007312E+04  0.24286007312E+04  0.50400001928E-02 0.  1.
    10030    2    1    2    0    0  0.00000000000E+00  0.00000000000E+00 -0.12323153411E+04  0.36248861213E+04  0.34089878693E+04 0.  0.
        1    1    3    3  502    0  0.12332632485E+04  0.90272996342E+03 -0.14185612852E+04  0.20852279844E+04  0.50400001928E-02 0. -1.
       -1    1    3    3    0  502 -0.12332632485E+04 -0.90272996342E+03  0.18624594408E+03  0.15396581370E+04  0.50400001928E-02 0.  1.
</event>
<event>
 5   0  0.1269497E-06  0.3424095E+04  0.7818609E-02  0.8132018E-01
       -2   -1    0    0    0  501  0.00000000000E+00  0.00000000000E+00  0.15123127131E+04  0.15123127131E+04  0.25500000920E-02 0.  1.
        2   -1    0    0  501    0  0.00000000000E+00  0.00000000000E+00 -0.19381612438E+04  0.19381612438E+04  0.25500000920E-02 0. -1.
    10030    2    1    2    0    0  0.00000000000E+00  0.00000000000E+00 -0.42584853070E+03  0.34504739569E+04  0.34240945601E+04 0.  0.
        5    1    3    3  502    0  0.41649025716E+03  0.15496204001E+04 -0.81442844342E+03  0.17994730613E+04  0.46999998093E+01 0.  1.
       -5    1    3    3    0  502 -0.41649025716E+03 -0.15496204001E+04  0.38857991272E+03  0.16510008956E+04  0.46999998093E+01 0. -1.
</event>
<event>
 5   0  0.1268230E-06  0.3403789E+04  0.7818609E-02  0.8136977E-01
        2   -1    0    0  501    0  0.00000000000E+00  0.00000000000E+00  0.23770417004E+04  0.23770417004E+04  0.25500000920E-02 0.  1.
       -2   -1    0    0    0  501  0.00000000000E+00  0.00000000000E+00 -0.12185081524E+04  0.12185081524E+04  0.25500000920E-02 0. -1.
    10030    2    1    2    0    0  0.00000000000E+00  0.00000000000E+00  0.11585335480E+04  0.35955498527E+04  0.34037888832E+04 0.  0.
        2    1    3    3  502    0  0.10782562570E+04  0.45237147692E+03  0.18855288714E+04  0.22186697893E+04  0.25500000920E-02 0.  1.
       -2    1    3    3    0  502 -0.10782562570E+04 -0.45237147692E+03 -0.72699532340E+03  0.13768800635E+04  0.25500000920E-02 0. -1.
</event>
<event>
 5   0  0.1269497E-06  0.3407993E+04  0.7818609E-02  0.8135947E-01
        2   -1    0    0  501    0  0.00000000000E+00  0.00000000000E+00  0.99318717249E+03  0.99318717249E+03  0.25500000920E-02 0. -1.
       -2   -1    0    0    0  501  0.00000000000E+00  0.00000000000E+00 -0.29235214860E+04  0.29235214860E+04  0.25500000920E-02 0.  1.
    10030    2    1    2    0    0  0.00000000000E+00  0.00000000000E+00 -0.19303343135E+04  0.39167086585E+04  0.34079929803E+04 0.  0.
        5    1    3    3  502    0 -0.42384345028E+03 -0.14570679818E+04 -0.74284234517E+02  0.15192862177E+04  0.46999998093E+01 0. -1.
       -5    1    3    3    0  502  0.42384345028E+03  0.14570679818E+04 -0.18560500790E+04  0.23974224408E+04  0.46999998093E+01 0.  1.
</event>
<event>
 5   0  0.4272633E-07  0.3290744E+04  0.7818609E-02  0.8165255E-01
       -1   -1    0    0    0  501  0.00000000000E+00  0.00000000000E+00  0.96422064842E+03  0.96422064843E+03  0.50400001928E-02 0. -1.
        1   -1    0    0  501    0  0.00000000000E+00  0.00000000000E+00 -0.28077071771E+04  0.28077071771E+04  0.50400001928E-02 0.  1.
    10030    2    1    2    0    0  0.00000000000E+00  0.00000000000E+00 -0.18434865287E+04  0.37719278256E+04  0.32907441316E+04 0.  0.
        1    1    3    3  502    0  0.16019834775E+04 -0.34649975916E+03 -0.10871973003E+04  0.19668276781E+04  0.50400001928E-02 0. -1.
       -1    1    3    3    0  502 -0.16019834775E+04  0.34649975916E+03 -0.75628922836E+03  0.18051001475E+04  0.50400001928E-02 0.  1.
</event>
<event>
 5   0  0.1277635E-06  0.3365761E+04  0.7818609E-02  0.8146361E-01
       -2   -1    0    0    0  501  0.00000000000E+00  0.00000000000E+00  0.15081532331E+04  0.15081532331E+04  0.25500000920E-02 0.  1.
        2   -1    0    0  501    0  0.00000000000E+00  0.00000000000E+00 -0.18778508705E+04  0.18778508705E+04  0.25500000920E-02 0. -1.
    10030    2    1    2    0    0  0.00000000000E+00  0.00000000000E+00 -0.36969763740E+03  0.33860041037E+04  0.33657610502E+04 0.  0.
        4    1    3    3  502    0 -0.65803120843E+03  0.31125861748E+03  0.13415764950E+04  0.15263407558E+04  0.12699999809E+01 0.  1.
       -4    1    3    3    0  502  0.65803120843E+03 -0.31125861748E+03 -0.17112741324E+04  0.18596633478E+04  0.12699999809E+01 0. -1.
</event>
<event>
 5   0  0.1256208E-06  0.3452799E+04  0.7818609E-02  0.8125068E-01
        2   -1    0    0  501    0  0.00000000000E+00  0.00000000000E+00  0.17373238125E+04  0.17373238125E+04  0.25500000920E-02 0. -1.
       -2   -1    0    0    0  501  0.00000000000E+00  0.00000000000E+00 -0.17155438695E+04  0.17155438695E+04  0.25500000920E-02 0.  1.
    10030    2    1    2    0    0  0.00000000000E+00  0.00000000000E+00  0.21779943023E+02  0.34528676820E+04  0.34527989897E+04 0.  0.
        3    1    3    3  502    0  0.11040364329E+04 -0.24682202676E+03 -0.12932209577E+04  0.17182077911E+04  0.10100000352E+00 0.  1.
       -3    1    3    3    0  502 -0.11040364329E+04  0.24682202676E+03  0.13150009007E+04  0.17346598909E+04  0.10100000352E+00 0. -1.
</event>
<event>
 5   0  0.1269497E-06  0.3111223E+04  0.7818609E-02  0.8212665E-01
        2   -1    0    0  501    0  0.00000000000E+00  0.00000000000E+00  0.21471994774E+04  0.21471994775E+04  0.25500000920E-02 0. -1.
       -2   -1    0    0    0  501  0.00000000000E+00  0.00000000000E+00 -0.11270151894E+04  0.11270151894E+04  0.25500000920E-02 0.  1.
    10030    2    1    2    0    0  0.00000000000E+00  0.00000000000E+00  0.10201842881E+04  0.32742146668E+04  0.31112225415E+04 0.  0.
        5    1    3    3  502    0  0.14546870570E+04 -0.53163258434E+03  0.66316564228E+03  0.16848021835E+04  0.46999998093E+01 0.  1.
       -5    1    3    3    0  502 -0.14546870570E+04  0.53163258434E+03  0.35701864580E+03  0.15894124833E+04  0.46999998093E+01 0. -1.
</event>
<event>
 5   0  0.1256208E-06  0.3410781E+04  0.7818609E-02  0.8135265E-01
       -2   -1    0    0    0  501  0.00000000000E+00  0.00000000000E+00  0.14767087690E+04  0.14767087690E+04  0.25500000920E-02 0. -1.
        2   -1    0    0  501    0  0.00000000000E+00  0.00000000000E+00 -0.19694856889E+04  0.19694856889E+04  0.25500000920E-02 0.  1.
    10030    2    1    2    0    0  0.00000000000E+00  0.00000000000E+00 -0.49277691995E+03  0.34461944579E+04  0.34107810175E+04 0.  0.
        3    1    3    3  502    0 -0.77017019173E+02 -0.59161288655E+03  0.13678286876E+04  0.14922777079E+04  0.10100000352E+00 0. -1.
       -3    1    3    3    0  502  0.77017019173E+02  0.59161288655E+03 -0.18606056076E+04  0.19539167500E+04  0.10100000352E+00 0.  1.
</event>
<event>
 5   0  0.4464951E-07  0.3368754E+04  0.7818609E-02  0.8145618E-01
       -1   -1    0    0    0  501  0.00000000000E+00  0.00000000000E+00  0.27524328041E+04  0.27524328041E+04  0.50400001928E-02 0.  1.
        1   -1    0    0  501    0  0.00000000000E+00  0.00000000000E+00 -0.10307702161E+04  0.10307702161E+04  0.50400001928E-02 0. -1.
    10030    2    1    2    0    0  0.00000000000E+00  0.00000000000E+00  0.17216625880E+04  0.37832030202E+04  0.33687539277E+04 0.  0.
        3    1    3    3  502    0  0.90151711504E+03 -0.40456767821E+03 -0.67106933759E+03  0.11944631351E+04  0.10100000352E+00 0. -1.
       -3    1    3    3    0  502 -0.90151711504E+03  0.40456767821E+03  0.23927319256E+04  0.25887398852E+04  0.10100000352E+00 0.  1.
</event>
<event>
 5   0  0.4464951E-07  0.3297247E+04  0.7818609E-02  0.8163596E-01
       -1   -1    0    0    0  501  0.00000000000E+00  0.00000000000E+00  0.11918276933E+04  0.11918276933E+04  0.50400001928E-02 0. -1.
        1   -1    0    0  501    0  0.00000000000E+00  0.00000000000E+00 -0.22804972585E+04  0.22804972585E+04  0.50400001928E-02 0.  1.
    10030    2    1    2    0    0  0.00000000000E+00  0.00000000000E+00 -0.10886695651E+04  0.34723249518E+04  0.32972472077E+04 0.  0.
        3    1    3    3  502    0 -0.97134898099E+03 -0.12804487908E+04 -0.93111270180E+03  0.18574280127E+04  0.10100000352E+00 0.  1.
       -3    1    3    3    0  502  0.97134898099E+03  0.12804487908E+04 -0.15755686332E+03  0.16148969391E+04  0.10100000352E+00 0. -1.
</event>
<event>
 5   0  0.1277635E-06  0.3399529E+04  0.7818609E-02  0.8138022E-01
       -2   -1    0    0    0  501  0.00000000000E+00  0.00000000000E+00  0.16292344866E+04  0.16292344866E+04  0.25500000920E-02 0. -1.
        2   -1    0    0  501    0  0.00000000000E+00  0.00000000000E+00 -0.17733479430E+04  0.17733479430E+04  0.25500000920E-02 0.  1.
    10030    2    1    2    0    0  0.00000000000E+00  0.00000000000E+00 -0.14411345638E+03  0.34025824296E+04  0.33995291589E+04 0.  0.
        4    1    3    3  502    0  0.10187207827E+04 -0.42807052858E+03  0.12206765971E+04  0.16465386051E+04  0.12699999809E+01 0. -1.
       -4    1    3    3    0  502 -0.10187207827E+04  0.42807052858E+03 -0.13647900535E+04  0.17560438245E+04  0.12699999809E+01 0.  1.
</event>
<event>
 5   0  0.4109937E-07  0.3403938E+04  0.7818609E-02  0.8136941E-01
       -1   -1    0    0    0  501  0.00000000000E+00  0.00000000000E+00  0.11957639492E+04  0.11957639492E+04  0.50400001928E-02 0.  1.
        1   -1    0    0  501    0  0.00000000000E+00  0.00000000000E+00 -0.24224661289E+04  0.24224661289E+04  0.50400001928E-02 0. -1.
    10030    2    1    2    0    0  0.00000000000E+00  0.00000000000E+00 -0.12267021797E+04  0.36182300781E+04  0.34039375230E+04 0.  0.
        5    1    3    3  502    0  0.85457377776E+02 -0.27317310511E+03  0.11699901023E+04  0.12045021537E+04  0.46999998093E+01 0.  1.
       -5    1    3    3    0  502 -0.85457377776E+02  0.27317310511E+03 -0.23966922820E+04  0.24137279244E+04  0.46999998093E+01 0. -1.
</event>
<event>
 5   0  0.4109937E-07  0.3327701E+04  0.7818609E-02  0.8155882E-01
       -1   -1    0    0    0  501  0.00000000000E+00  0.00000000000E+00  0.20284166223E+04  0.20284166223E+04  0.50400001928E-02 0. -1.
        1   -1    0    0  501    0  0.00000000000E+00  0.00000000000E+00 -0.13648076842E+04  0.13648076842E+04  0.50400001928E-02 0.  1.
    10030    2    1    2    0    0  0.00000000000E+00  0.00000000000E+00  0.66360893808E+03  0.33932243065E+04  0.33277010640E+04 0.  0.
        5    1    3    3  502    0  0.67270976024E+03 -0.10184208567E+04  0.14848469306E+04  0.19221113288E+04  0.46999998093E+01 0. -1.
       -5    1    3    3    0  502 -0.67270976024E+03  0.10184208567E+04 -0.82123799253E+03  0.14711129777E+04  0.46999998093E+01 0.  1.
</event>
<event>
 5   0  0.4464951E-07  0.3403552E+04  0.7818609E-02  0.8137035E-01
       -1   -1    0    0    0  501  0.00000000000E+00  0.00000000000E+00  0.17428454857E+04  0.17428454857E+04  0.50400001928E-02 0. -1.
        1   -1    0    0  501    0  0.00000000000E+00  0.00000000000E+00 -0.16616741090E+04  0.16616741090E+04  0.50400001928E-02 0.  1.
    10030    2    1    2    0    0  0.00000000000E+00  0.00000000000E+00  0.81171376686E+02  0.34045195947E+04  0.34035518034E+04 0.  0.
        3    1    3    3  502    0 -0.50950159487E+03 -0.84600115528E+03  0.14268843016E+04  0.17353122630E+04  0.10100000352E+00 0. -1.
       -3    1    3    3    0  502  0.50950159487E+03  0.84600115528E+03 -0.13457129249E+04  0.16692073317E+04  0.10100000352E+00 0.  1.
</event>
<event>
 5   0  0.1300176E-06  0.3404428E+04  0.7818609E-02  0.8136820E-01
        2   -1    0    0  501    0  0.00000000000E+00  0.00000000000E+00  0.16322475563E+04  0.16322475563E+04  0.25500000920E-02 0.  1.
       -2   -1    0    0    0  501  0.00000000000E+00  0.00000000000E+00 -0.17751796886E+04  0.17751796886E+04  0.25500000920E-02 0. -1.
    10030    2    1    2    0    0  0.00000000000E+00  0.00000000000E+00 -0.14293213231E+03  0.34074272450E+04  0.34044281216E+04 0.  0.
        1    1    3    3  502    0  0.12066230858E+04 -0.94076796426E+03 -0.81814544065E+03  0.17350347535E+04  0.50400001928E-02 0. -1.
       -1    1    3    3    0  502 -0.12066230858E+04  0.94076796426E+03  0.67521330835E+03  0.16723924915E+04  0.50400001928E-02 0.  1.
</event>
<event>
 5   0  0.4125758E-07  0.3236224E+04  0.7818609E-02  0.8179316E-01
       -1   -1    0    0    0  501  0.00000000000E+00  0.00000000000E+00  0.13227178593E+04  0.13227178593E+04  0.50400001928E-02 0. -1.
        1   -1    0    0  501    0  0.00000000000E+00  0.00000000000E+00 -0.19794744590E+04  0.19794744590E+04  0.50400001928E-02 0.  1.
    10030    2    1    2    0    0  0.00000000000E+00  0.00000000000E+00 -0.65675659974E+03  0.33021923183E+04  0.32362238606E+04 0.  0.
        2    1    3    3  502    0 -0.16179933015E+04  0.18421585506E+01 -0.34828237748E+03  0.16550547821E+04  0.25500000920E-02 0. -1.
       -2    1    3    3    0  502  0.16179933015E+04 -0.18421585506E+01 -0.30847422226E+03  0.16471375362E+04  0.25500000920E-02 0.  1.
</event>
<event>
 5   0  0.4464951E-07  0.3397163E+04  0.7818609E-02  0.8138603E-01
       -1   -1    0    0    0  501  0.00000000000E+00  0.00000000000E+00  0.30458136397E+04  0.30458136397E+04  0.50400001928E-02 0.  1.
        1   -1    0    0  501    0  0.00000000000E+00  0.00000000000E+00 -0.94726064129E+03  0.94726064130E+03  0.50400001928E-02 0. -1.
    10030    2    1    2    0    0  0.00000000000E+00  0.00000000000E+00  0.20985529985E+04  0.39930742810E+04  0.33971631587E+04 0.  0.
        3    1    3    3  502    0 -0.23690552316E+03 -0.48650658361E+03  0.29417908567E+04  0.29911446534E+04  0.10100000352E+00 0.  1.
       -3    1    3    3    0  502  0.23690552316E+03  0.48650658361E+03 -0.84323785829E+03  0.10019296276E+04  0.10100000352E+00 0. -1.
</event>
<event>
 5   0  0.4125758E-07  0.3387710E+04  0.7818609E-02  0.8140929E-01
       -1   -1    0    0    0  501  0.00000000000E+00  0.00000000000E+00  0.11759354718E+04  0.11759354718E+04  0.50400001928E-02 0. -1.
        1   -1    0    0  501    0  0.00000000000E+00  0.00000000000E+00 -0.24398832513E+04  0.24398832513E+04  0.50400001928E-02 0.  1.
    10030    2    1    2    0    0  0.00000000000E+00  0.00000000000E+00 -0.12639477795E+04  0.36158187230E+04  0.33877102958E+04 0.  0.
        2    1    3    3  502    0 -0.58611669142E+03 -0.12159682220E+04  0.46017218619E+03  0.14261381187E+04  0.25500000920E-02 0. -1.
       -2    1    3    3    0  502  0.58611669142E+03  0.12159682220E+04 -0.17241199657E+04  0.21896806043E+04  0.25500000920E-02 0.  1.
</event>
<event>
 5   0  0.4464951E-07  0.3150949E+04  0.7818609E-02  0.8201893E-01
        1   -1    0    0  501    0  0.00000000000E+00  0.00000000000E+00  0.21443103781E+04  0.21443103781E+04  0.50400001928E-02 0.  1.
       -1   -1    0    0    0  501  0.00000000000E+00  0.00000000000E+00 -0.11575373510E+04  0.11575373510E+04  0.50400001928E-02 0. -1.
    10030    2    1    2    0    0  0.00000000000E+00  0.00000000000E+00  0.98677302711E+03  0.33018477292E+04  0.31509486539E+04 0.  0.
        3    1    3    3  502    0 -0.62022761539E+03  0.10384141515E+04  0.15512537542E+04  0.19670725622E+04  0.10100000352E+00 0.  1.
       -3    1    3    3    0  502  0.62022761539E+03 -0.10384141515E+04 -0.56448072710E+03  0.13347751670E+04  0.10100000352E+00 0. -1.
</event>
<event>
 5   0  0.1269497E-06  0.3494773E+04  0.7818609E-02  0.8115030E-01
        2   -1    0    0  501    0  0.00000000000E+00  0.00000000000E+00  0.12056883252E+04  0.12056883252E+04  0.25500000920E-02 0. -1.
       -2   -1    0    0    0  501  0.00000000000E+00  0.00000000000E+00 -0.25324619325E+04  0.25324619325E+04  0.25500000920E-02 0.  1.
    10030    2    1    2    0    0  0.00000000000E+00  0.00000000000E+00 -0.13267736073E+04  0.37381502577E+04  0.34947731176E+04 0.  0.
        5    1    3    3  502    0 -0.11928706974E+04 -0.96192560837E+02  0.69852376284E+03  0.13856951493E+04  0.46999998093E+01 0. -1.
       -5    1    3    3    0  502  0.11928706974E+04  0.96192560837E+02 -0.20252973701E+04  0.23524551084E+04  0.46999998093E+01 0.  1.
</event>
<event>
 5   0  0.1300176E-06  0.3364629E+04  0.7818609E-02  0.8146643E-01
       -2   -1    0    0    0  501  0.00000000000E+00  0.00000000000E+00  0.31629269390E+04  0.31629269390E+04  0.25500000920E-02 0.  1.
        2   -1    0    0  501    0  0.00000000000E+00  0.00000000000E+00 -0.89479829753E+03  0.89479829753E+03  0.25500000920E-02 0. -1.
    10030    2    1    2    0    0  0.00000000000E+00  0.00000000000E+00  0.22681286414E+04  0.40577252365E+04  0.33646287404E+04 0.  0.
        1    1    3    3  502    0  0.95313772516E+02 -0.14218099275E+04  0.55690743933E+02  0.14260889327E+04  0.50400001928E-02 0. -1.
       -1    1    3    3    0  502 -0.95313772516E+02  0.14218099275E+04  0.22124378975E+04  0.26316363038E+04  0.50400001928E-02 0.  1.
</event>
<event>
 5   0  0.4272633E-07  0.3399172E+04  0.7818609E-02  0.8138110E-01
       -1   -1    0    0    0  501  0.00000000000E+00  0.00000000000E+00  0.10929623118E+04  0.10929623118E+04  0.50400001928E-02 0.  1.
        1   -1    0    0  501    0  0.00000000000E+00  0.00000000000E+00 -0.26429017824E+04  0.26429017824E+04  0.50400001928E-02 0. -1.
    10030    2    1    2    0    0  0.00000000000E+00  0.00000000000E+00 -0.15499394706E+04  0.37358640943E+04  0.33991716885E+04 0.  0.
        1    1    3    3  502    0  0.10553795454E+04  0.27103089221E+03  0.65856915676E+03  0.12731838295E+04  0.50400001928E-02 0.  1.
       -1    1    3    3    0  502 -0.10553795454E+04 -0.27103089221E+03 -0.22085086274E+04  0.24626802648E+04  0.50400001928E-02 0. -1.
</event>
<event>
 5   0  0.1268230E-06  0.3406623E+04  0.7818609E-02  0.8136283E-01
       -2   -1    0    0    0  501  0.00000000000E+00  0.00000000000E+00  0.32438823440E+04  0.32438823440E+04  0.25500000920E-02 0.  1.
        2   -1    0    0  501    0  0.00000000000E+00  0.00000000000E+00 -0.89438219387E+03  0.89438219387E+03  0.25500000920E-02 0. -1.
    10030    2    1    2    0    0  0.00000000000E+00  0.00000000000E+00  0.23495001502E+04  0.41382645379E+04  0.34066233179E+04 0.  0.
        2    1    3    3  502    0  0.12684848298E+04 -0.10737677468E+04  0.16280395419E+04  0.23264874140E+04  0.25500000920E-02 0.  1.
       -2    1    3    3    0  502 -0.12684848298E+04  0.10737677468E+04  0.72146060827E+03  0.18117771239E+04  0.25500000920E-02 0. -1.
</event>
<event>
 5   0  0.1269497E-06  0.3300461E+04  0.7818609E-02  0.8162778E-01
        2   -1    0    0  501    0  0.00000000000E+00  0.00000000000E+00  0.29324753242E+04  0.29324753242E+04  0.25500000920E-02 0. -1.
       -2   -1    0    0    0  501  0.00000000000E+00  0.00000000000E+00 -0.92865593021E+03  0.92865593021E+03  0.25500000920E-02 0.  1.
    10030    2    1    2    0    0  0.00000000000E+00  0.00000000000E+00  0.20038193940E+04  0.38611312544E+04  0.33004609375E+04 0.  0.
        5    1    3    3  502    0 -0.84509800044E+02 -0.10028801020E+03 -0.92254187771E+03  0.93182895287E+03  0.46999998093E+01 0.  1.
       -5    1    3    3    0  502  0.84509800044E+02  0.10028801020E+03  0.29263612717E+04  0.29293023016E+04  0.46999998093E+01 0. -1.
</event>
<event>
 5   0  0.4125758E-07  0.3396191E+04  0.7818609E-02  0.8138842E-01
        1   -1    0    0  501    0  0.00000000000E+00  0.00000000000E+00  0.21103220459E+04  0.21103220459E+04  0.50400001928E-02 0.  1.
       -1   -1    0    0    0  501  0.00000000000E+00  0.00000000000E+00 -0.13663925010E+04  0.13663925010E+04  0.50400001928E-02 0. -1.
    10030    2    1    2    0    0  0.00000000000E+00  0.00000000000E+00  0.74392954485E+03  0.34767145469E+04  0.33961909359E+04 0.  0.
        2    1    3    3  502    0  0.44013117313E+03  0.74591742099E+02 -0.13052486266E+04  0.13794757536E+04  0.25500000920E-02 0. -1.
       -2    1    3    3    0  502 -0.44013117313E+03 -0.74591742099E+02  0.20491781715E+04  0.20972387933E+04  0.25500000920E-02 0.  1.
</event>
<event>
 5   0  0.1268230E-06  0.3290324E+04  0.7818609E-02  0.8165362E-01
       -2   -1    0    0    0  501  0.00000000000E+00  0.00000000000E+00  0.13689502430E+04  0.13689502430E+04  0.25500000920E-02 0. -1.
        2   -1    0    0  501    0  0.00000000000E+00  0.00000000000E+00 -0.19771042739E+04  0.19771042739E+04  0.25500000920E-02 0.  1.
    10030    2    1    2    0    0  0.00000000000E+00  0.00000000000E+00 -0.60815403094E+03  0.33460545169E+04  0.32903236170E+04 0.  0.
        2    1    3    3  502    0  0.10635112871E+04  0.11273673286E+04 -0.86527931162E+03  0.17750272219E+04  0.25500000920E-02 0.  1.
       -2    1    3    3    0  502 -0.10635112871E+04 -0.11273673286E+04  0.25712528068E+03  0.15710272950E+04  0.25500000920E-02 0. -1.
</event>
<event>
 5   0  0.1256208E-06  0.3433884E+04  0.7818609E-02  0.8129640E-01
       -2   -1    0    0    0  501  0.00000000000E+00  0.00000000000E+00  0.17345336236E+04  0.17345336236E+04  0.25500000920E-02 0. -1.
        2   -1    0    0  501    0  0.00000000000E+00  0.00000000000E+00 -0.16995288025E+04  0.16995288025E+04  0.25500000920E-02 0.  1.
    10030    2    1    2    0    0  0.00000000000E+00  0.00000000000E+00  0.35004821083E+02  0.34340624260E+04  0.34338840121E+04 0.  0.
        3    1    3    3  502    0 -0.13965663357E+03  0.14223623094E+04  0.96900932073E+03  0.17267303172E+04  0.10100000352E+00 0. -1.
       -3    1    3    3    0  502  0.13965663357E+03 -0.14223623094E+04 -0.93400449964E+03  0.17073321089E+04  0.10100000352E+00 0.  1.
</event>
<event>
 5   0  0.4060750E-07  0.3382693E+04  0.7818609E-02  0.8142167E-01
        3   -1    0    0  501    0  0.00000000000E+00  0.00000000000E+00  0.16768660366E+04  0.16768660396E+04  0.10100000352E+00 0. -1.
       -3   -1    0    0    0  501  0.00000000000E+00  0.00000000000E+00 -0.17059517727E+04  0.17059517757E+04  0.10100000352E+00 0.  1.
    10030    2    1    2    0    0  0.00000000000E+00  0.00000000000E+00 -0.29085736145E+02  0.33828178153E+04  0.33826927723E+04 0.  0.
        5    1    3    3  502    0  0.87895268016E+03  0.60354350508E+03 -0.13275300640E+04  0.17026980758E+04  0.46999998093E+01 0.  1.
       -5    1    3    3    0  502 -0.87895268016E+03 -0.60354350508E+03  0.12984443279E+04  0.16801197395E+04  0.46999998093E+01 0. -1.
</event>
<event>
 5   0  0.4109937E-07  0.3381645E+04  0.7818609E-02  0.8142426E-01
        1   -1    0    0  501    0  0.00000000000E+00  0.00000000000E+00  0.25421823791E+04  0.25421823791E+04  0.50400001928E-02 0. -1.
       -1   -1    0    0    0  501  0.00000000000E+00  0.00000000000E+00 -0.11245774414E+04  0.11245774414E+04  0.50400001928E-02 0.  1.
    10030    2    1    2    0    0  0.00000000000E+00  0.00000000000E+00  0.14176049377E+04  0.36667598205E+04  0.33816451355E+04 0.  0.
        5    1    3    3  502    0  0.54659223703E+03 -0.10614382728E+04 -0.58940734097E+03  0.13314793968E+04  0.46999998093E+01 0.  1.
       -5    1    3    3    0  502 -0.54659223703E+03  0.10614382728E+04  0.20070122787E+04  0.23352804237E+04  0.46999998093E+01 0. -1.
</event>
<event>
 5   0  0.1300176E-06  0.3402762E+04  0.7818609E-02  0.8137229E-01
       -2   -1    0    0    0  501  0.00000000000E+00  0.00000000000E+00  0.14589719054E+04  0.14589719054E+04  0.25500000920E-02 0. -1.
        2   -1    0    0  501    0  0.00000000000E+00  0.00000000000E+00 -0.19840670786E+04  0.19840670786E+04  0.25500000920E-02 0.  1.
    10030    2    1    2    0    0  0.00000000000E+00  0.00000000000E+00 -0.52509517315E+03  0.34430389840E+04  0.34027624814E+04 0.  0.
        1    1    3    3  502    0 -0.13083751258E+04 -0.69594480234E+03  0.58311614040E+03  0.15925479808E+04  0.50400001928E-02 0. -1.
       -1    1    3    3    0  502  0.13083751258E+04  0.69594480234E+03 -0.11082113136E+04  0.18504910033E+04  0.50400001928E-02 0.  1.
</event>
<event>
 5   0  0.4289684E-07  0.3385215E+04  0.7818609E-02  0.8141545E-01
       -1   -1    0    0    0  501  0.00000000000E+00  0.00000000000E+00  0.15300344277E+04  0.15300344277E+04  0.50400001928E-02 0.  1.
        1   -1    0    0  501    0  0.00000000000E+00  0.00000000000E+00 -0.18724547782E+04  0.18724547783E+04  0.50400001928E-02 0. -1.
    10030    2    1    2    0    0  0.00000000000E+00  0.00000000000E+00 -0.34242035056E+03  0.34024892060E+04  0.33852150744E+04 0.  0.
        4    1    3    3  502    0 -0.14603707675E+04  0.78723288853E+03 -0.50833230230E+03  0.17351719632E+04  0.12699999809E+01 0. -1.
       -4    1    3    3    0  502  0.14603707675E+04 -0.78723288853E+03  0.16591195174E+03  0.16673172428E+04  0.12699999809E+01 0.  1.
</event>
<event>
 5   0  0.4125758E-07  0.3393682E+04  0.7818609E-02  0.8139459E-01
       -1   -1    0    0    0  501  0.00000000000E+00  0.00000000000E+00  0.16516830061E+04  0.16516830061E+04  0.50400001928E-02 0. -1.
        1   -1    0    0  501    0  0.00000000000E+00  0.00000000000E+00 -0.17432339351E+04  0.17432339351E+04  0.50400001928E-02 0.  1.
    10030    2    1    2    0    0  0.00000000000E+00  0.00000000000E+00 -0.91550928921E+02  0.33949169412E+04  0.33936822870E+04 0.  0.
        2    1    3    3  502    0  0.78870573187E+02  0.14514263531E+04 -0.92154289776E+03  0.17210753435E+04  0.25500000920E-02 0.  1.
       -2    1    3    3    0  502 -0.78870573187E+02 -0.14514263531E+04  0.82999196884E+03  0.16738415977E+04  0.25500000920E-02 0. -1.
</event>
<event>
 5   0  0.1277635E-06  0.3419474E+04  0.7818609E-02  0.8133143E-01
        2   -1    0    0  501    0  0.00000000000E+00  0.00000000000E+00  0.22314802070E+04  0.22314802070E+04  0.25500000920E-02 0.  1.
       -2   -1    0    0    0  501  0.00000000000E+00  0.00000000000E+00 -0.13099831152E+04  0.13099831152E+04  0.25500000920E-02 0. -1.
    10030    2    1    2    0    0  0.00000000000E+00  0.00000000000E+00  0.92149709177E+03  0.35414633222E+04  0.34194744585E+04 0.  0.
        4    1    3    3  502    0 -0.13859866924E+04  0.99843981007E+03  0.38493450648E+03  0.17510046696E+04  0.12699999809E+01 0.  1.
       -4    1    3    3    0  502  0.13859866924E+04 -0.99843981007E+03  0.53656258529E+03  0.17904586526E+04  0.12699999809E+01 0. -1.
</event>
<event>
 5   0  0.1268230E-06  0.3447204E+04  0.7818609E-02  0.8126417E-01
        2   -1    0    0  501    0  0.00000000000E+00  0.00000000000E+00  0.28779884360E+04  0.28779884360E+04  0.25500000920E-02 0. -1.
       -2   -1    0    0    0  501  0.00000000000E+00  0.00000000000E+00 -0.10322501325E+04  0.10322501325E+04  0.25500000920E-02 0.  1.
    10030    2    1    2    0    0  0.00000000000E+00  0.00000000000E+00  0.18457383035E+04  0.39102385685E+04  0.34472040522E+04 0.  0.
        2    1    3    3  502    0 -0.12178585109E+04  0.76180862123E+03 -0.15758183202E+03  0.14451172138E+04  0.25500000920E-02 0.  1.
       -2    1    3    3    0  502  0.12178585109E+04 -0.76180862123E+03  0.20033201355E+04  0.24651213547E+04  0.25500000920E-02 0. -1.
</event>
<event>
 5   0  0.1269497E-06  0.3152334E+04  0.7818609E-02  0.8201520E-01
       -2   -1    0    0    0  501  0.00000000000E+00  0.00000000000E+00  0.22029818859E+04  0.22029818859E+04  0.25500000920E-02 0.  1.
        2   -1    0    0  501    0  0.00000000000E+00  0.00000000000E+00 -0.11276997533E+04  0.11276997533E+04  0.25500000920E-02 0. -1.
    10030    2    1    2    0    0  0.00000000000E+00  0.00000000000E+00  0.10752821327E+04  0.33306816392E+04  0.31523338207E+04 0.  0.
        5    1    3    3  502    0 -0.59096623343E+03 -0.11300394475E+03  0.20768626432E+04  0.21622653651E+04  0.46999998093E+01 0.  1.
       -5    1    3    3    0  502  0.59096623343E+03  0.11300394475E+03 -0.10015805105E+04  0.11684162741E+04  0.46999998093E+01 0. -1.
</event>
<event>
 5   0  0.4125758E-07  0.3387257E+04  0.7818609E-02  0.8141041E-01
        1   -1    0    0  501    0  0.00000000000E+00  0.00000000000E+00  0.17742829000E+04  0.17742829000E+04  0.50400001928E-02 0.  1.
       -1   -1    0    0    0  501  0.00000000000E+00  0.00000000000E+00 -0.16166404336E+04  0.16166404336E+04  0.50400001928E-02 0. -1.
    10030    2    1    2    0    0  0.00000000000E+00  0.00000000000E+00  0.15764246634E+03  0.33909233336E+04  0.33872569886E+04 0.  0.
        2    1    3    3  502    0 -0.89614461206E+03 -0.13489417866E+04  0.57499706203E+03  0.17185286529E+04  0.25500000920E-02 0.  1.
       -2    1    3    3    0  502  0.89614461206E+03  0.13489417866E+04 -0.41735459569E+03  0.16723946807E+04  0.25500000920E-02 0. -1.
</event>
<event>
 5   0  0.1277635E-06  0.3397976E+04  0.7818609E-02  0.8138403E-01
        2   -1    0    0  501    0  0.00000000000E+00  0.00000000000E+00  0.27465509377E+04  0.27465509377E+04  0.25500000920E-02 0. -1.
       -2   -1    0    0    0  501  0.00000000000E+00  0.00000000000E+00 -0.10509765284E+04  0.10509765284E+04  0.25500000920E-02 0.  1.
    10030    2    1    2    0    0  0.00000000000E+00  0.00000000000E+00  0.16955744093E+04  0.37975274661E+04  0.33979762034E+04 0.  0.
        4    1    3    3  502    0 -0.13639579384E+04 -0.99372520107E+03  0.10676077611E+04  0.19969123610E+04  0.12699999809E+01 0.  1.
       -4    1    3    3    0  502  0.13639579384E+04  0.99372520107E+03  0.62796664821E+03  0.18006151052E+04  0.12699999809E+01 0. -1.
</event>
<event>
 5   0  0.1256208E-06  0.3389637E+04  0.7818609E-02  0.8140455E-01
        2   -1    0    0  501    0  0.00000000000E+00  0.00000000000E+00  0.20697301365E+04  0.20697301365E+04  0.25500000920E-02 0.  1.
       -2   -1    0    0    0  501  0.00000000000E+00  0.00000000000E+00 -0.13878181969E+04  0.13878181969E+04  0.25500000920E-02 0. -1.
    10030    2    1    2    0    0  0.00000000000E+00  0.00000000000E+00  0.68191193959E+03  0.34575483334E+04  0.33896366449E+04 0.  0.
        3    1    3    3  502    0  0.62502762263E+02  0.15467491119E+04  0.10447578066E+04  0.18675808671E+04  0.10100000352E+00 0.  1.
       -3    1    3    3    0  502 -0.62502762263E+02 -0.15467491119E+04 -0.36284586700E+03  0.15899674663E+04  0.10100000352E+00 0. -1.
</event>
<event>
 5   0  0.4109937E-07  0.3011284E+04  0.7818609E-02  0.8240516E-01
        1   -1    0    0  501    0  0.00000000000E+00  0.00000000000E+00  0.16954041039E+04  0.16954041039E+04  0.50400001928E-02 0.  1.
       -1   -1    0    0    0  501  0.00000000000E+00  0.00000000000E+00 -0.13371195103E+04  0.13371195103E+04  0.50400001928E-02 0. -1.
    10030    2    1    2    0    0  0.00000000000E+00  0.00000000000E+00  0.35828459363E+03  0.30325236142E+04  0.30112840484E+04 0.  0.
        5    1    3    3  502    0 -0.97796234708E+03  0.11408557068E+04  0.27454017215E+03  0.15275328121E+04  0.46999998093E+01 0.  1.
       -5    1    3    3    0  502  0.97796234708E+03 -0.11408557068E+04  0.83744421479E+02  0.15049908020E+04  0.46999998093E+01 0. -1.
</event>
<event>
 5   0  0.1256208E-06  0.3387430E+04  0.7818609E-02  0.8140998E-01
        2   -1    0    0  501    0  0.00000000000E+00  0.00000000000E+00  0.25763234005E+04  0.25763234005E+04  0.25500000920E-02 0. -1.
       -2   -1    0    0    0  501  0.00000000000E+00  0.00000000000E+00 -0.11134743598E+04  0.11134743598E+04  0.25500000920E-02 0.  1.
    10030    2    1    2    0    0  0.00000000000E+00  0.00000000000E+00  0.14628490407E+04  0.36897977603E+04  0.33874297330E+04 0.  0.
        3    1    3    3  502    0 -0.10924101084E+04 -0.87733568233E+03 -0.30514545922E+03  0.14339426439E+04  0.10100000352E+00 0. -1.
       -3    1    3    3    0  502  0.10924101084E+04  0.87733568233E+03  0.17679944999E+04  0.22558551164E+04  0.10100000352E+00 0.  1.
</event>
<event>
 5   0  0.4125758E-07  0.3295078E+04  0.7818609E-02  0.8164149E-01
        1   -1    0    0  501    0  0.00000000000E+00  0.00000000000E+00  0.26264471635E+04  0.26264471635E+04  0.50400001928E-02 0.  1.
       -1   -1    0    0    0  501  0.00000000000E+00  0.00000000000E+00 -0.10334814085E+04  0.10334814086E+04  0.50400001928E-02 0. -1.
    10030    2    1    2    0    0  0.00000000000E+00  0.00000000000E+00  0.15929657550E+04  0.36599285721E+04  0.32950777314E+04 0.  0.
        2    1    3    3  502    0 -0.91689096739E+03  0.72288991745E+03  0.20875677139E+04  0.23919025563E+04  0.25500000920E-02 0.  1.
       -2    1    3    3    0  502  0.91689096739E+03 -0.72288991745E+03 -0.49460195892E+03  0.12680260157E+04  0.25500000920E-02 0. -1.
</event>
<event>
 5   0  0.4272633E-07  0.3397997E+04  0.7818609E-02  0.8138398E-01
       -1   -1    0    0    0  501  0.00000000000E+00  0.00000000000E+00  0.12951203560E+04  0.12951203560E+04  0.50400001928E-02 0.  1.
        1   -1    0    0  501    0  0.00000000000E+00  0.00000000000E+00 -0.22288249965E+04  0.22288249965E+04  0.50400001928E-02 0. -1.
    10030    2    1    2    0    0  0.00000000000E+00  0.00000000000E+00 -0.93370464044E+03  0.35239453525E+04  0.33979974238E+04 0.  0.
        1    1    3    3  502    0 -0.39241740040E+02  0.11953839683E+04  0.78456969282E+03  0.14303958713E+04  0.50400001928E-02 0.  1.
       -1    1    3    3    0  502  0.39241740040E+02 -0.11953839683E+04 -0.17182743333E+04  0.20935494812E+04  0.50400001928E-02 0. -1.
</event>
<event>
 5   0  0.1277635E-06  0.3361205E+04  0.7818609E-02  0.8147494E-01
        2   -1    0    0  501    0  0.00000000000E+00  0.00000000000E+00  0.14411030381E+04  0.14411030381E+04  0.25500000920E-02 0.  1.
       -2   -1    0    0    0  501  0.00000000000E+00  0.00000000000E+00 -0.19599046241E+04  0.19599046241E+04  0.25500000920E-02 0. -1.
    10030    2    1    2    0    0  0.00000000000E+00  0.00000000000E+00 -0.51880158600E+03  0.34010076622E+04  0.33612048484E+04 0.  0.
        4    1    3    3  502    0 -0.13721303381E+04  0.27388186476E+03 -0.12013760592E+04  0.18441960278E+04  0.12699999809E+01 0. -1.
       -4    1    3    3    0  502  0.13721303381E+04 -0.27388186476E+03  0.68257447323E+03  0.15568116344E+04  0.12699999809E+01 0.  1.
</event>
<event>
 5   0  0.1277635E-06  0.3342914E+04  0.7818609E-02  0.8152061E-01
       -2   -1    0    0    0  501  0.00000000000E+00  0.00000000000E+00  0.16309679903E+04  0.16309679903E+04  0.25500000920E-02 0. -1.
        2   -1    0    0  501    0  0.00000000000E+00  0.00000000000E+00 -0.17129515573E+04  0.17129515573E+04  0.25500000920E-02 0.  1.
    10030    2    1    2    0    0  0.00000000000E+00  0.00000000000E+00 -0.81983566964E+02  0.33439195476E+04  0.33429143925E+04 0.  0.
        4    1    3    3  502    0  0.14954720437E+04  0.66603506153E+03 -0.37832931715E+03  0.16802303479E+04  0.12699999809E+01 0.  1.
       -4    1    3    3    0  502 -0.14954720437E+04 -0.66603506153E+03  0.29634575019E+03  0.16636891998E+04  0.12699999809E+01 0. -1.
</event>
<event>
 5   0  0.1277635E-06  0.3361765E+04  0.7818609E-02  0.8147355E-01
        2   -1    0    0  501    0  0.00000000000E+00  0.00000000000E+00  0.32276491918E+04  0.32276491918E+04  0.25500000920E-02 0.  1.
       -2   -1    0    0    0  501  0.00000000000E+00  0.00000000000E+00 -0.87536339111E+03  0.87536339112E+03  0.25500000920E-02 0. -1.
    10030    2    1    2    0    0  0.00000000000E+00  0.00000000000E+00  0.23522858006E+04  0.41030125829E+04  0.33617649780E+04 0.  0.
        4    1    3    3  502    0  0.51269889724E+03  0.37484390788E+03  0.30755682524E+04  0.31404601259E+04  0.12699999809E+01 0.  1.
       -4    1    3    3    0  502 -0.51269889724E+03 -0.37484390788E+03 -0.72328245174E+03  0.96255245696E+03  0.12699999809E+01 0. -1.
</event>
<event>
 5   0  0.4464951E-07  0.3019708E+04  0.7818609E-02  0.8238125E-01
        1   -1    0    0  501    0  0.00000000000E+00  0.00000000000E+00  0.14164824889E+04  0.14164824890E+04  0.50400001928E-02 0.  1.
       -1   -1    0    0    0  501  0.00000000000E+00  0.00000000000E+00 -0.16093804736E+04  0.16093804736E+04  0.50400001928E-02 0. -1.
    10030    2    1    2    0    0  0.00000000000E+00  0.00000000000E+00 -0.19289798464E+03  0.30258629626E+04  0.30197081044E+04 0.  0.
        3    1    3    3  502    0  0.86284626025E+03  0.11546746872E+04 -0.54667754410E+03  0.15416334355E+04  0.10100000352E+00 0. -1.
       -3    1    3    3    0  502 -0.86284626025E+03 -0.11546746872E+04  0.35377955946E+03  0.14842295270E+04  0.10100000352E+00 0.  1.
</event>
<event>
 5   0  0.1256208E-06  0.3413081E+04  0.7818609E-02  0.8134703E-01
        2   -1    0    0  501    0  0.00000000000E+00  0.00000000000E+00  0.21720220877E+04  0.21720220877E+04  0.25500000920E-02 0.  1.
       -2   -1    0    0    0  501  0.00000000000E+00  0.00000000000E+00 -0.13408151029E+04  0.13408151029E+04  0.25500000920E-02 0. -1.
    10030    2    1    2    0    0  0.00000000000E+00  0.00000000000E+00  0.83120698486E+03  0.35128371906E+04  0.34130807310E+04 0.  0.
        3    1    3    3  502    0 -0.13891957683E+04 -0.76416938055E+03 -0.23408321499E+03  0.16026898285E+04  0.10100000352E+00 0.  1.
       -3    1    3    3    0  502  0.13891957683E+04  0.76416938055E+03  0.10652901999E+04  0.19101473621E+04  0.10100000352E+00 0. -1.
</event>
<event>
 5   0  0.1300176E-06  0.3508441E+04  0.7818609E-02  0.8111792E-01
       -2   -1    0    0    0  501  0.00000000000E+00  0.00000000000E+00  0.16699302085E+04  0.16699302085E+04  0.25500000920E-02 0. -1.
        2   -1    0    0  501    0  0.00000000000E+00  0.00000000000E+00 -0.18427656484E+04  0.18427656484E+04  0.25500000920E-02 0.  1.
    10030    2    1    2    0    0  0.00000000000E+00  0.00000000000E+00 -0.17283543993E+03  0.35126958569E+04  0.35084412627E+04 0.  0.
        1    1    3    3  502    0 -0.11985129310E+04  0.11451497800E+04 -0.66112492214E+03  0.17846252904E+04  0.50400001928E-02 0.  1.
       -1    1    3    3    0  502  0.11985129310E+04 -0.11451497800E+04  0.48828948221E+03  0.17280705665E+04  0.50400001928E-02 0. -1.
</event>
<event>
 5   0  0.4125758E-07  0.3351813E+04  0.7818609E-02  0.8149835E-01
        1   -1    0    0  501    0  0.00000000000E+00  0.00000000000E+00  0.18453022098E+04  0.18453022098E+04  0.50400001928E-02 0. -1.
       -1   -1    0    0    0  501  0.00000000000E+00  0.00000000000E+00 -0.15220611437E+04  0.15220611437E+04  0.50400001928E-02 0.  1.
    10030    2    1    2    0    0  0.00000000000E+00  0.00000000000E+00  0.32324106615E+03  0.33673633535E+04  0.33518131165E+04 0.  0.
        2    1    3    3  502    0  0.94458151559E+03  0.13717504584E+04 -0.25601852983E+02  0.16657097630E+04  0.25500000920E-02 0.  1.
       -2    1    3    3    0  502 -0.94458151559E+03 -0.13717504584E+04  0.34884291913E+03  0.17016535905E+04  0.25500000920E-02 0. -1.
</event>
<event>
 5   0  0.4272633E-07  0.3401150E+04  0.7818609E-02  0.8137624E-01
        1   -1    0    0  501    0  0.00000000000E+00  0.00000000000E+00  0.18219209306E+04  0.18219209306E+04  0.50400001928E-02 0. -1.
       -1   -1    0    0    0  501  0.00000000000E+00  0.00000000000E+00 -0.15873111778E+04  0.15873111778E+04  0.50400001928E-02 0.  1.
    10030    2    1    2    0    0  0.00000000000E+00  0.00000000000E+00  0.23460975285E+03  0.34092321084E+04  0.34011500750E+04 0.  0.
        1    1    3    3  502    0  0.11708003633E+04 -0.96426275645E+03 -0.65353440055E+03  0.16515699703E+04  0.50400001928E-02 0. -1.
       -1    1    3    3    0  502 -0.11708003633E+04  0.96426275645E+03  0.88814415340E+03  0.17576621380E+04  0.50400001928E-02 0.  1.
</event>
<event>
 5   0  0.4125758E-07  0.3349492E+04  0.7818609E-02  0.8150415E-01
        1   -1    0    0  501    0  0.00000000000E+00  0.00000000000E+00  0.27665100731E+04  0.27665100731E+04  0.50400001928E-02 0. -1.
       -1   -1    0    0    0  501  0.00000000000E+00  0.00000000000E+00 -0.10138314658E+04  0.10138314659E+04  0.50400001928E-02 0.  1.
    10030    2    1    2    0    0  0.00000000000E+00  0.00000000000E+00  0.17526786073E+04  0.37803415390E+04  0.33494924766E+04 0.  0.
        2    1    3    3  502    0 -0.12499763204E+04  0.32520567890E+03  0.20795762616E+04  0.24480271573E+04  0.25500000920E-02 0. -1.
       -2    1    3    3    0  502  0.12499763204E+04 -0.32520567890E+03 -0.32689765428E+03  0.13323143817E+04  0.25500000920E-02 0.  1.
</event>
<event>
 5   0  0.1256208E-06  0.3332730E+04  0.7818609E-02  0.8154617E-01
       -2   -1    0    0    0  501  0.00000000000E+00  0.00000000000E+00  0.13844867768E+04  0.13844867768E+04  0.25500000920E-02 0.  1.
        2   -1    0    0  501    0  0.00000000000E+00  0.00000000000E+00 -0.20056324508E+04  0.20056324508E+04  0.25500000920E-02 0. -1.
    10030    2    1    2    0    0  0.00000000000E+00  0.00000000000E+00 -0.62114567398E+03  0.33901192276E+04  0.33327295764E+04 0.  0.
        3    1    3    3  502    0 -0.35204017606E+01 -0.12657785189E+04 -0.14130084375E+04  0.18970504755E+04  0.10100000352E+00 0. -1.
       -3    1    3    3    0  502  0.35204017606E+01  0.12657785189E+04  0.79186276347E+03  0.14930687521E+04  0.10100000352E+00 0.  1.
</event>
<event>
 5   0  0.4125758E-07  0.3389924E+04  0.7818609E-02  0.8140384E-01
        1   -1    0    0  501    0  0.00000000000E+00  0.00000000000E+00  0.27684229313E+04  0.27684229313E+04  0.50400001928E-02 0.  1.
       -1   -1    0    0    0  501  0.00000000000E+00  0.00000000000E+00 -0.10377373542E+04  0.10377373542E+04  0.50400001928E-02 0. -1.
    10030    2    1    2    0    0  0.00000000000E+00  0.00000000000E+00  0.17306855771E+04  0.38061602855E+04  0.33899238269E+04 0.  0.
        2    1    3    3  502    0  0.41441042105E+03  0.12757070487E+04  0.20287853953E+04  0.24321049836E+04  0.25500000920E-02 0.  1.
       -2    1    3    3    0  502 -0.41441042105E+03 -0.12757070487E+04 -0.29809981817E+03  0.13740553019E+04  0.25500000920E-02 0. -1.
</event>
<event>
 5   0  0.1277635E-06  0.3406760E+04  0.7818609E-02  0.8136249E-01
        2   -1    0    0  501    0  0.00000000000E+00  0.00000000000E+00  0.17664630079E+04  0.17664630079E+04  0.25500000920E-02 0. -1.
       -2   -1    0    0    0  501  0.00000000000E+00  0.00000000000E+00 -0.16425502539E+04  0.16425502539E+04  0.25500000920E-02 0.  1.
    10030    2    1    2    0    0  0.00000000000E+00  0.00000000000E+00  0.12391275392E+03  0.34090132618E+04  0.34067604918E+04 0.  0.
        4    1    3    3  502    0  0.88231553996E+03  0.49933679713E+03 -0.13077748091E+04  0.16547188623E+04  0.12699999809E+01 0.  1.
       -4    1    3    3    0  502 -0.88231553996E+03 -0.49933679713E+03  0.14316875630E+04  0.17542943995E+04  0.12699999809E+01 0. -1.
</event>
<event>
 5   0  0.4464951E-07  0.3396984E+04  0.7818609E-02  0.8138647E-01
       -1   -1    0    0    0  501  0.00000000000E+00  0.00000000000E+00  0.11534825000E+04  0.11534825000E+04  0.50400001928E-02 0.  1.
        1   -1    0    0  501    0  0.00000000000E+00  0.00000000000E+00 -0.25010126066E+04  0.25010126066E+04  0.50400001928E-02 0. -1.
    10030    2    1    2    0    0  0.00000000000E+00  0.00000000000E+00 -0.13475301066E+04  0.36544951066E+04  0.33969835289E+04 0.  0.
        3    1    3    3  502    0  0.15640136697E+04  0.13152695008E+03 -0.13721580004E+04  0.20847675376E+04  0.10100000352E+00 0. -1.
       -3    1    3    3    0  502 -0.15640136697E+04 -0.13152695008E+03  0.24627893760E+02  0.15697275690E+04  0.10100000352E+00 0.  1.
</event>
<event>
 5   0  0.4272633E-07  0.3405262E+04  0.7818609E-02  0.8136616E-01
       -1   -1    0    0    0  501  0.00000000000E+00  0.00000000000E+00  0.95284827293E+03  0.95284827295E+03  0.50400001928E-02 0.  1.
        1   -1    0    0  501    0  0.00000000000E+00  0.00000000000E+00 -0.30424074156E+04  0.30424074156E+04  0.50400001928E-02 0. -1.
    10030    2    1    2    0    0  0.00000000000E+00  0.00000000000E+00 -0.20895591427E+04  0.39952556886E+04  0.34052621935E+04 0.  0.
        1    1    3    3  502    0 -0.29330888504E+03 -0.25500049455E+03 -0.29896661094E+04  0.30148231789E+04  0.50400001928E-02 0. -1.
       -1    1    3    3    0  502  0.29330888504E+03  0.25500049455E+03  0.90010696677E+03  0.98043250962E+03  0.50400001928E-02 0.  1.
</event>
<event>
 5   0  0.1277635E-06  0.3387115E+04  0.7818609E-02  0.8141076E-01
        2   -1    0    0  501    0  0.00000000000E+00  0.00000000000E+00  0.15689585162E+04  0.15689585162E+04  0.25500000920E-02 0. -1.
       -2   -1    0    0    0  501  0.00000000000E+00  0.00000000000E+00 -0.18280512786E+04  0.18280512786E+04  0.25500000920E-02 0.  1.
    10030    2    1    2    0    0  0.00000000000E+00  0.00000000000E+00 -0.25909276241E+03  0.33970097948E+04  0.33871147731E+04 0.  0.
        4    1    3    3  502    0  0.10974860540E+04  0.32683659092E+03  0.11218315394E+04  0.16030612626E+04  0.12699999809E+01 0. -1.
       -4    1    3    3    0  502 -0.10974860540E+04 -0.32683659092E+03 -0.13809243018E+04  0.17939485322E+04  0.12699999809E+01 0.  1.
</event>
<event>
 5   0  0.1269497E-06  0.3056276E+04  0.7818609E-02  0.8227841E-01
       -2   -1    0    0    0  501  0.00000000000E+00  0.00000000000E+00  0.10358249838E+04  0.10358249838E+04  0.25500000920E-02 0.  1.
        2   -1    0    0  501    0  0.00000000000E+00  0.00000000000E+00 -0.22544403186E+04  0.22544403186E+04  0.25500000920E-02 0. -1.
    10030    2    1    2    0    0  0.00000000000E+00  0.00000000000E+00 -0.12186153348E+04  0.32902653024E+04  0.30562759080E+04 0.  0.
        5    1    3    3  502    0 -0.10088630857E+04  0.11364061649E+04 -0.78276361331E+03  0.17093755180E+04  0.46999998093E+01 0.  1.
       -5    1    3    3    0  502  0.10088630857E+04 -0.11364061649E+04 -0.43585172149E+03  0.15808897844E+04  0.46999998093E+01 0. -1.
</event>
<event>
 5   0  0.4125758E-07  0.3397452E+04  0.7818609E-02  0.8138532E-01
        1   -1    0    0  501    0  0.00000000000E+00  0.00000000000E+00  0.24314072649E+04  0.24314072649E+04  0.50400001928E-02 0.  1.
       -1   -1    0    0    0  501  0.00000000000E+00  0.00000000000E+00 -0.11868309170E+04  0.11868309170E+04  0.50400001928E-02 0. -1.
    10030    2    1    2    0    0  0.00000000000E+00  0.00000000000E+00  0.12445763479E+04  0.36182381819E+04  0.33974515825E+04 0.  0.
        2    1    3    3  502    0 -0.11358729147E+04 -0.12516206746E+04  0.44121637623E+03  0.17468352762E+04  0.25500000920E-02 0. -1.
       -2    1    3    3    0  502  0.11358729147E+04  0.12516206746E+04  0.80335997162E+03  0.18714029057E+04  0.25500000920E-02 0.  1.
</event>
<event>
 5   0  0.4289684E-07  0.3377540E+04  0.7818609E-02  0.8143441E-01
       -1   -1    0    0    0  501  0.00000000000E+00  0.00000000000E+00  0.17920037128E+04  0.17920037128E+04  0.50400001928E-02 0.  1.
        1   -1    0    0  501    0  0.00000000000E+00  0.00000000000E+00 -0.15914836165E+04  0.15914836166E+04  0.50400001928E-02 0. -1.
    10030    2    1    2    0    0  0.00000000000E+00  0.00000000000E+00  0.20052009628E+03  0.33834873294E+04  0.33775402587E+04 0.  0.
        4    1    3    3  502    0 -0.18759221846E+03  0.10758079886E+04 -0.11901809686E+04  0.16152665475E+04  0.12699999809E+01 0. -1.
       -4    1    3    3    0  502  0.18759221846E+03 -0.10758079886E+04  0.13907010649E+04  0.17682207819E+04  0.12699999809E+01 0.  1.
</event>
<event>
 5   0  0.4272633E-07  0.3303608E+04  0.7818609E-02  0.8161978E-01
        1   -1    0    0  501    0  0.00000000000E+00  0.00000000000E+00  0.19674128615E+04  0.19674128615E+04  0.50400001928E-02 0. -1.
       -1   -1    0    0    0  501  0.00000000000E+00  0.00000000000E+00 -0.13868244551E+04  0.13868244551E+04  0.50400001928E-02 0.  1.
    10030    2    1    2    0    0  0.00000000000E+00  0.00000000000E+00  0.58058840643E+03  0.33542373166E+04  0.33036078881E+04 0.  0.
        1    1    3    3  502    0 -0.56938229599E+03  0.61184521648E+03  0.17368766873E+04  0.19275091167E+04  0.50400001928E-02 0. -1.
       -1    1    3    3    0  502  0.56938229599E+03 -0.61184521648E+03 -0.11562882809E+04  0.14267281999E+04  0.50400001928E-02 0.  1.
</event>
<event>
 5   0  0.4109937E-07  0.3413940E+04  0.7818609E-02  0.8134493E-01
       -1   -1    0    0    0  501  0.00000000000E+00  0.00000000000E+00  0.13486329231E+04  0.13486329231E+04  0.50400001928E-02 0. -1.
        1   -1    0    0  501    0  0.00000000000E+00  0.00000000000E+00 -0.21605188773E+04  0.21605188773E+04  0.50400001928E-02 0.  1.
    10030    2    1    2    0    0  0.00000000000E+00  0.00000000000E+00 -0.81188595427E+03  0.35091518004E+04  0.34139401804E+04 0.  0.
        5    1    3    3  502    0  0.16433448368E+04  0.28200225887E+03 -0.78167442789E+03  0.18415060488E+04  0.46999998093E+01 0. -1.
       -5    1    3    3    0  502 -0.16433448368E+04 -0.28200225887E+03 -0.30211526380E+02  0.16676457516E+04  0.46999998093E+01 0.  1.
</event>
<event>
 5   0  0.4464951E-07  0.3398535E+04  0.7818609E-02  0.8138266E-01
        1   -1    0    0  501    0  0.00000000000E+00  0.00000000000E+00  0.87112380555E+03  0.87112380556E+03  0.50400001928E-02 0.  1.
       -1   -1    0    0    0  501  0.00000000000E+00  0.00000000000E+00 -0.33146957116E+04  0.33146957117E+04  0.50400001928E-02 0. -1.
    10030    2    1    2    0    0  0.00000000000E+00  0.00000000000E+00 -0.24435719061E+04  0.41858195172E+04  0.33985351801E+04 0.  0.
        3    1    3    3  502    0 -0.75493181422E+03 -0.52598909945E+03 -0.29813380059E+04  0.31200902058E+04  0.10100000352E+00 0. -1.
       -3    1    3    3    0  502  0.75493181422E+03  0.52598909945E+03  0.53776609980E+03  0.10657293114E+04  0.10100000352E+00 0.  1.
</event>
<event>
 5   0  0.1300176E-06  0.3404306E+04  0.7818609E-02  0.8136850E-01
       -2   -1    0    0    0  501  0.00000000000E+00  0.00000000000E+00  0.12069159893E+04  0.12069159893E+04  0.25500000920E-02 0. -1.
        2   -1    0    0  501    0  0.00000000000E+00  0.00000000000E+00 -0.24006015570E+04  0.24006015570E+04  0.25500000920E-02 0.  1.
    10030    2    1    2    0    0  0.00000000000E+00  0.00000000000E+00 -0.11936855677E+04  0.36075175463E+04  0.34043057460E+04 0.  0.
        1    1    3    3  502    0  0.68989101403E+02  0.16952254052E+04 -0.74204670305E+03  0.18518050599E+04  0.50400001928E-02 0.  1.
       -1    1    3    3    0  502 -0.68989101403E+02 -0.16952254052E+04 -0.45163886467E+03  0.17557124863E+04  0.50400001928E-02 0. -1.
</event>
<event>
 5   0  0.4109937E-07  0.3411993E+04  0.7818609E-02  0.8134969E-01
       -1   -1    0    0    0  501  0.00000000000E+00  0.00000000000E+00  0.10880897895E+04  0.10880897895E+04  0.50400001928E-02 0. -1.
        1   -1    0    0  501    0  0.00000000000E+00  0.00000000000E+00 -0.26748016337E+04  0.26748016337E+04  0.50400001928E-02 0.  1.
    10030    2    1    2    0    0  0.00000000000E+00  0.00000000000E+00 -0.15867118442E+04  0.37628914232E+04  0.34119931692E+04 0.  0.
        5    1    3    3  502    0 -0.42494286334E+03  0.64008593932E+03  0.88648580853E+03  0.11731008591E+04  0.46999998093E+01 0. -1.
       -5    1    3    3    0  502  0.42494286334E+03 -0.64008593932E+03 -0.24731976527E+04  0.25897905642E+04  0.46999998093E+01 0.  1.
</event>
<event>
 5   0  0.4272633E-07  0.3137517E+04  0.7818609E-02  0.8205516E-01
       -1   -1    0    0    0  501  0.00000000000E+00  0.00000000000E+00  0.99601053498E+03  0.99601053499E+03  0.50400001928E-02 0.  1.
        1   -1    0    0  501    0  0.00000000000E+00  0.00000000000E+00 -0.24708613116E+04  0.24708613116E+04  0.50400001928E-02 0. -1.
    10030    2    1    2    0    0  0.00000000000E+00  0.00000000000E+00 -0.14748507766E+04  0.34668718465E+04  0.31375174242E+04 0.  0.
        1    1    3    3  502    0 -0.13218360077E+03 -0.53820743555E+02 -0.24636727762E+04  0.24678032184E+04  0.50400001928E-02 0. -1.
       -1    1    3    3    0  502  0.13218360077E+03  0.53820743555E+02  0.98882199961E+03  0.99906862812E+03  0.50400001928E-02 0.  1.
</event>
<event>
 5   0  0.4464951E-07  0.3390783E+04  0.7818609E-02  0.8140172E-01
        1   -1    0    0  501    0  0.00000000000E+00  0.00000000000E+00  0.15898842423E+04  0.15898842423E+04  0.50400001928E-02 0.  1.
       -1   -1    0    0    0  501  0.00000000000E+00  0.00000000000E+00 -0.18079000748E+04  0.18079000748E+04  0.50400001928E-02 0. -1.
    10030    2    1    2    0    0  0.00000000000E+00  0.00000000000E+00 -0.21801583252E+03  0.33977843171E+04  0.33907827065E+04 0.  0.
        3    1    3    3  502    0  0.98903151154E+03  0.13741663519E+04 -0.19770813424E+03  0.17045835298E+04  0.10100000352E+00 0. -1.
       -3    1    3    3    0  502 -0.98903151154E+03 -0.13741663519E+04 -0.20307698286E+02  0.16932007874E+04  0.10100000352E+00 0.  1.
</event>
<event>
 5   0  0.4289684E-07  0.3336450E+04  0.7818609E-02  0.8153682E-01
        1   -1    0    0  501    0  0.00000000000E+00  0.00000000000E+00  0.16988505970E+04  0.16988505970E+04  0.50400001928E-02 0. -1.
       -1   -1    0    0    0  501  0.00000000000E+00  0.00000000000E+00 -0.16381513073E+04  0.16381513074E+04  0.50400001928E-02 0.  1.
    10030    2    1    2    0    0  0.00000000000E+00  0.00000000000E+00  0.60699289654E+02  0.33370019044E+04  0.33364498057E+04 0.  0.
        4    1    3    3  502    0 -0.54104070142E+03 -0.11680425034E+03  0.16043331707E+04  0.16971313470E+04  0.12699999809E+01 0. -1.
       -4    1    3    3    0  502  0.54104070142E+03  0.11680425034E+03 -0.15436338810E+04  0.16398705574E+04  0.12699999809E+01 0.  1.
</event>
<event>
 5   0  0.4464951E-07  0.3422986E+04  0.7818609E-02  0.8132288E-01
       -1   -1    0    0    0  501  0.00000000000E+00  0.00000000000E+00  0.23800425217E+04  0.23800425217E+04  0.50400001928E-02 0. -1.
        1   -1    0    0  501    0  0.00000000000E+00  0.00000000000E+00 -0.12307375031E+04  0.12307375031E+04  0.50400001928E-02 0.  1.
    10030    2    1    2    0    0  0.00000000000E+00  0.00000000000E+00  0.11493050186E+04  0.36107800248E+04  0.34229855919E+04 0.  0.
        3    1    3    3  502    0  0.11002833827E+04  0.11668004945E+04  0.12050692990E+04  0.20060505830E+04  0.10100000352E+00 0. -1.
       -3    1    3    3    0  502 -0.11002833827E+04 -0.11668004945E+04 -0.55764280356E+02  0.16047294418E+04  0.10100000352E+00 0.  1.
</event>
<event>
 5   0  0.1300176E-06  0.3400819E+04  0.7818609E-02  0.8137705E-01
        2   -1    0    0  501    0  0.00000000000E+00  0.00000000000E+00  0.12298740027E+04  0.12298740027E+04  0.25500000920E-02 0. -1.
       -2   -1    0    0    0  501  0.00000000000E+00  0.00000000000E+00 -0.23509663031E+04  0.23509663031E+04  0.25500000920E-02 0.  1.
    10030    2    1    2    0    0  0.00000000000E+00  0.00000000000E+00 -0.11210923004E+04  0.35808403059E+04  0.34008189234E+04 0.  0.
        1    1    3    3  502    0  0.43468735713E+03 -0.16423385826E+04 -0.48488695368E+03  0.17667327121E+04  0.50400001928E-02 0. -1.
       -1    1    3    3    0  502 -0.43468735713E+03  0.16423385826E+04 -0.63620534674E+03  0.18141075937E+04  0.50400001928E-02 0.  1.
</event>
<event>
 5   0  0.1256208E-06  0.3398081E+04  0.7818609E-02  0.8138378E-01
       -2   -1    0    0    0  501  0.00000000000E+00  0.00000000000E+00  0.14992852061E+04  0.14992852061E+04  0.25500000920E-02 0. -1.
        2   -1    0    0  501    0  0.00000000000E+00  0.00000000000E+00 -0.19254096136E+04  0.19254096136E+04  0.25500000920E-02 0.  1.
    10030    2    1    2    0    0  0.00000000000E+00  0.00000000000E+00 -0.42612440748E+03  0.34246948197E+04  0.33980807226E+04 0.  0.
        3    1    3    3  502    0 -0.11203569471E+04  0.89806751889E+03  0.70235407080E+03  0.15984449344E+04  0.10100000352E+00 0. -1.
       -3    1    3    3    0  502  0.11203569471E+04 -0.89806751889E+03 -0.11284784783E+04  0.18262498853E+04  0.10100000352E+00 0.  1.
</event>
<event>
 5   0  0.4464951E-07  0.3463669E+04  0.7818609E-02  0.8122454E-01
        1   -1    0    0  501    0  0.00000000000E+00  0.00000000000E+00  0.18784125738E+04  0.18784125738E+04  0.50400001928E-02 0.  1.
       -1   -1    0    0    0  501  0.00000000000E+00  0.00000000000E+00 -0.15966944141E+04  0.15966944141E+04  0.50400001928E-02 0. -1.
    10030    2    1    2    0    0  0.00000000000E+00  0.00000000000E+00  0.28171815969E+03  0.34751069879E+04  0.34636690743E+04 0.  0.
        3    1    3    3  502    0 -0.12745037330E+04 -0.98333513637E+03  0.78167247678E+03  0.17895026200E+04  0.10100000352E+00 0.  1.
       -3    1    3    3    0  502  0.12745037330E+04  0.98333513637E+03 -0.49995431708E+03  0.16856043679E+04  0.10100000352E+00 0. -1.
</event>
<event>
 5   0  0.4060750E-07  0.3418473E+04  0.7818609E-02  0.8133387E-01
        4   -1    0    0  501    0  0.00000000000E+00  0.00000000000E+00  0.15516162385E+04  0.15516167582E+04  0.12699999809E+01 0.  1.
       -4   -1    0    0    0  501  0.00000000000E+00  0.00000000000E+00 -0.18828680074E+04  0.18828684357E+04  0.12699999809E+01 0. -1.
    10030    2    1    2    0    0  0.00000000000E+00  0.00000000000E+00 -0.33125176895E+03  0.34344851939E+04  0.34184734624E+04 0.  0.
        5    1    3    3  502    0  0.54684402368E+03  0.15177154133E+04 -0.73304520249E+03  0.17719694751E+04  0.46999998093E+01 0. -1.
       -5    1    3    3    0  502 -0.54684402368E+03 -0.15177154133E+04  0.40179343354E+03  0.16625157188E+04  0.46999998093E+01 0.  1.
</event>
<event>
 5   0  0.4289684E-07  0.3332417E+04  0.7818609E-02  0.8154696E-01
       -1   -1    0    0    0  501  0.00000000000E+00  0.00000000000E+00  0.12300733111E+04  0.12300733112E+04  0.50400001928E-02 0. -1.
        1   -1    0    0  501    0  0.00000000000E+00  0.00000000000E+00 -0.22569798981E+04  0.22569798982E+04  0.50400001928E-02 0.  1.
    10030    2    1    2    0    0  0.00000000000E+00  0.00000000000E+00 -0.10269065870E+04  0.34870532093E+04  0.33324169826E+04 0.  0.
        4    1    3    3  502    0  0.56702098662E+03 -0.36984769306E+03 -0.21065831409E+04  0.22126893722E+04  0.12699999809E+01 0.  1.
       -4    1    3    3    0  502 -0.56702098662E+03  0.36984769306E+03  0.10796765539E+04  0.12743638371E+04  0.12699999809E+01 0. -1.
</event>
<event>
 5   0  0.4125758E-07  0.3392740E+04  0.7818609E-02  0.8139691E-01
       -1   -1    0    0    0  501  0.00000000000E+00  0.00000000000E+00  0.15029762134E+04  0.15029762134E+04  0.50400001928E-02 0. -1.
        1   -1    0    0  501    0  0.00000000000E+00  0.00000000000E+00 -0.19146480792E+04  0.19146480792E+04  0.50400001928E-02 0.  1.
    10030    2    1    2    0    0  0.00000000000E+00  0.00000000000E+00 -0.41167186580E+03  0.34176242926E+04  0.33927396128E+04 0.  0.
        2    1    3    3  502    0 -0.43829171671E+03  0.72136802180E+03 -0.16880901828E+04  0.18873579197E+04  0.25500000920E-02 0.  1.
       -2    1    3    3    0  502  0.43829171671E+03 -0.72136802180E+03  0.12764183170E+04  0.15302663728E+04  0.25500000920E-02 0. -1.
</event>
<event>
 5   0  0.4272633E-07  0.3324602E+04  0.7818609E-02  0.8156664E-01
        1   -1    0    0  501    0  0.00000000000E+00  0.00000000000E+00  0.13701530484E+04  0.13701530484E+04  0.50400001928E-02 0. -1.
       -1   -1    0    0    0  501  0.00000000000E+00  0.00000000000E+00 -0.20167411263E+04  0.20167411263E+04  0.50400001928E-02 0.  1.
    10030    2    1    2    0    0  0.00000000000E+00  0.00000000000E+00 -0.64658807791E+03  0.33868941747E+04  0.33246016315E+04 0.  0.
        1    1    3    3  502    0 -0.71493306213E+03 -0.11870020594E+04 -0.12587257188E+04  0.18720292752E+04  0.50400001928E-02 0.  1.
       -1    1    3    3    0  502  0.71493306213E+03  0.11870020594E+04  0.61213764085E+03  0.15148648995E+04  0.50400001928E-02 0. -1.
</event>
<event>
 5   0  0.4109937E-07  0.3407713E+04  0.7818609E-02  0.8136016E-01
       -1   -1    0    0    0  501  0.00000000000E+00  0.00000000000E+00  0.29939523417E+04  0.29939523417E+04  0.50400001928E-02 0.  1.
        1   -1    0    0  501    0  0.00000000000E+00  0.00000000000E+00 -0.96966381385E+03  0.96966381386E+03  0.50400001928E-02 0. -1.
    10030    2    1    2    0    0  0.00000000000E+00  0.00000000000E+00  0.20242885279E+04  0.39636161556E+04  0.34077131606E+04 0.  0.
        5    1    3    3  502    0 -0.15482556566E+04  0.60600856295E+03  0.14454213393E+04  0.22030903056E+04  0.46999998093E+01 0.  1.
       -5    1    3    3    0  502  0.15482556566E+04 -0.60600856295E+03  0.57886718857E+03  0.17605258500E+04  0.46999998093E+01 0. -1.
</event>
<event>
 5   0  0.1269497E-06  0.3400171E+04  0.7818609E-02  0.8137864E-01
        2   -1    0    0  501    0  0.00000000000E+00  0.00000000000E+00  0.16993585230E+04  0.16993585230E+04  0.25500000920E-02 0. -1.
       -2   -1    0    0    0  501  0.00000000000E+00  0.00000000000E+00 -0.17008128569E+04  0.17008128569E+04  0.25500000920E-02 0.  1.
    10030    2    1    2    0    0  0.00000000000E+00  0.00000000000E+00 -0.14543338942E+01  0.34001713799E+04  0.34001710689E+04 0.  0.
        5    1    3    3  502    0  0.32942897793E+03 -0.11555611971E+04  0.12019464660E+04  0.16995712779E+04  0.46999998093E+01 0. -1.
       -5    1    3    3    0  502 -0.32942897793E+03  0.11555611971E+04 -0.12034007998E+04  0.17006001020E+04  0.46999998093E+01 0.  1.
</event>
<event>
 5   0  0.1277635E-06  0.2780975E+04  0.7818609E-02  0.8309199E-01
       -2   -1    0    0    0  501  0.00000000000E+00  0.00000000000E+00  0.11979575993E+04  0.11979575993E+04  0.25500000920E-02 0. -1.
        2   -1    0    0  501    0  0.00000000000E+00  0.00000000000E+00 -0.16139598868E+04  0.16139598868E+04  0.25500000920E-02 0.  1.
    10030    2    1    2    0    0  0.00000000000E+00  0.00000000000E+00 -0.41600228747E+03  0.28119174861E+04  0.27809750171E+04 0.  0.
        4    1    3    3  502    0  0.12467851934E+04  0.15242813658E+03 -0.81108214369E+03  0.14951800935E+04  0.12699999809E+01 0.  1.
       -4    1    3    3    0  502 -0.12467851934E+04 -0.15242813658E+03  0.39507985622E+03  0.13167373926E+04  0.12699999809E+01 0. -1.
</event>
<event>
 5   0  0.4109937E-07  0.3403867E+04  0.7818609E-02  0.8136958E-01
       -1   -1    0    0    0  501  0.00000000000E+00  0.00000000000E+00  0.12084113456E+04  0.12084113456E+04  0.50400001928E-02 0.  1.
        1   -1    0    0  501    0  0.00000000000E+00  0.00000000000E+00 -0.23970128245E+04  0.23970128245E+04  0.50400001928E-02 0. -1.
    10030    2    1    2    0    0  0.00000000000E+00  0.00000000000E+00 -0.11886014789E+04  0.36054241701E+04  0.34038669144E+04 0.  0.
        5    1    3    3  502    0 -0.18437644512E+03  0.10602377711E+04  0.80227894617E+03  0.13423011593E+04  0.46999998093E+01 0.  1.
       -5    1    3    3    0  502  0.18437644512E+03 -0.10602377711E+04 -0.19908804251E+04  0.22631230108E+04  0.46999998093E+01 0. -1.
</event>
<event>
 5   0  0.1256208E-06  0.3489153E+04  0.7818609E-02  0.8116365E-01
        2   -1    0    0  501    0  0.00000000000E+00  0.00000000000E+00  0.18079534404E+04  0.18079534404E+04  0.25500000920E-02 0. -1.
       -2   -1    0    0    0  501  0.00000000000E+00  0.00000000000E+00 -0.16834215758E+04  0.16834215758E+04  0.25500000920E-02 0.  1.
    10030    2    1    2    0    0  0.00000000000E+00  0.00000000000E+00  0.12453186460E+03  0.34913750162E+04  0.34891533814E+04 0.  0.
        3    1    3    3  502    0 -0.13532267874E+04  0.90547336703E+03 -0.56458570842E+03  0.17233286944E+04  0.10100000352E+00 0.  1.
       -3    1    3    3    0  502  0.13532267874E+04 -0.90547336703E+03  0.68911757302E+03  0.17680463218E+04  0.10100000352E+00 0. -1.
</event>
<event>
 5   0  0.1277635E-06  0.3003630E+04  0.7818609E-02  0.8242695E-01
        2   -1    0    0  501    0  0.00000000000E+00  0.00000000000E+00  0.22276111516E+04  0.22276111516E+04  0.25500000920E-02 0. -1.
       -2   -1    0    0    0  501  0.00000000000E+00  0.00000000000E+00 -0.10124961222E+04  0.10124961222E+04  0.25500000920E-02 0.  1.
    10030    2    1    2    0    0  0.00000000000E+00  0.00000000000E+00  0.12151150294E+04  0.32401072738E+04  0.30036295729E+04 0.  0.
        4    1    3    3  502    0 -0.74493829179E+03 -0.12963039040E+04  0.45458616810E+03  0.15626858504E+04  0.12699999809E+01 0.  1.
       -4    1    3    3    0  502  0.74493829179E+03  0.12963039040E+04  0.76052886128E+03  0.16774214234E+04  0.12699999809E+01 0. -1.
</event>
<event>
 5   0  0.1277635E-06  0.3411176E+04  0.7818609E-02  0.8135169E-01
       -2   -1    0    0    0  501  0.00000000000E+00  0.00000000000E+00  0.12493268639E+04  0.12493268639E+04  0.25500000920E-02 0. -1.
        2   -1    0    0  501    0  0.00000000000E+00  0.00000000000E+00 -0.23284787426E+04  0.23284787426E+04  0.25500000920E-02 0.  1.
    10030    2    1    2    0    0  0.00000000000E+00  0.00000000000E+00 -0.10791518787E+04  0.35778056065E+04  0.34111763632E+04 0.  0.
        4    1    3    3  502    0 -0.27635706268E+03 -0.29121838051E+03 -0.22782129657E+04  0.23133173802E+04  0.12699999809E+01 0.  1.
       -4    1    3    3    0  502  0.27635706268E+03  0.29121838051E+03  0.11990610870E+04  0.12644882264E+04  0.12699999809E+01 0. -1.
</event>
<event>
 5   0  0.4272633E-07  0.3552242E+04  0.7818609E-02  0.8101520E-01
       -1   -1    0    0    0  501  0.00000000000E+00  0.00000000000E+00  0.14166523860E+04  0.14166523860E+04  0.50400001928E-02 0.  1.
        1   -1    0    0  501    0  0.00000000000E+00  0.00000000000E+00 -0.22268024653E+04  0.22268024653E+04  0.50400001928E-02 0. -1.
    10030    2    1    2    0    0  0.00000000000E+00  0.00000000000E+00 -0.81015007928E+03  0.36434548513E+04  0.35522415603E+04 0.  0.
        1    1    3    3  502    0  0.42000669147E+03  0.16771323347E+04  0.12095364464E+02  0.17289663926E+04  0.50400001928E-02 0. -1.
       -1    1    3    3    0  502 -0.42000669147E+03 -0.16771323347E+04 -0.82224544375E+03  0.19144884587E+04  0.50400001928E-02 0.  1.
</event>
<event>
 5   0  0.4109937E-07  0.3402509E+04  0.7818609E-02  0.8137291E-01
       -1   -1    0    0    0  501  0.00000000000E+00  0.00000000000E+00  0.14661498887E+04  0.14661498887E+04  0.50400001928E-02 0. -1.
        1   -1    0    0  501    0  0.00000000000E+00  0.00000000000E+00 -0.19740593805E+04  0.19740593805E+04  0.50400001928E-02 0.  1.
    10030    2    1    2    0    0  0.00000000000E+00  0.00000000000E+00 -0.50790949174E+03  0.34402092692E+04  0.34025090395E+04 0.  0.
        5    1    3    3  502    0 -0.87715551845E+03 -0.48621954160E+03  0.11354744937E+04  0.15149705152E+04  0.46999998093E+01 0. -1.
       -5    1    3    3    0  502  0.87715551845E+03  0.48621954160E+03 -0.16433839854E+04  0.19252387540E+04  0.46999998093E+01 0.  1.
</event>
<event>
 5   0  0.4464951E-07  0.3385556E+04  0.7818609E-02  0.8141460E-01
       -1   -1    0    0    0  501  0.00000000000E+00  0.00000000000E+00  0.12292236744E+04  0.12292236744E+04  0.50400001928E-02 0.  1.
        1   -1    0    0  501    0  0.00000000000E+00  0.00000000000E+00 -0.23311440574E+04  0.23311440574E+04  0.50400001928E-02 0. -1.
    10030    2    1    2    0    0  0.00000000000E+00  0.00000000000E+00 -0.11019203830E+04  0.35603677318E+04  0.33855560629E+04 0.  0.
        3    1    3    3  502    0  0.35843694611E+03 -0.12565379256E+04 -0.16826933405E+04  0.21304510065E+04  0.10100000352E+00 0. -1.
       -3    1    3    3    0  502 -0.35843694611E+03  0.12565379256E+04  0.58077295751E+03  0.14299167253E+04  0.10100000352E+00 0.  1.
</event>
<event>
 5   0  0.1277635E-06  0.3390028E+04  0.7818609E-02  0.8140358E-01
       -2   -1    0    0    0  501  0.00000000000E+00  0.00000000000E+00  0.11996852844E+04  0.11996852844E+04  0.25500000920E-02 0. -1.
        2   -1    0    0  501    0  0.00000000000E+00  0.00000000000E+00 -0.23948544903E+04  0.23948544903E+04  0.25500000920E-02 0.  1.
    10030    2    1    2    0    0  0.00000000000E+00  0.00000000000E+00 -0.11951692060E+04  0.35945397747E+04  0.33900275458E+04 0.  0.
        4    1    3    3  502    0  0.15953185447E+04 -0.26666887175E+01  0.96987253577E+01  0.15953507603E+04  0.12699999809E+01 0.  1.
       -4    1    3    3    0  502 -0.15953185447E+04  0.26666887175E+01 -0.12048679314E+04  0.19991890144E+04  0.12699999809E+01 0. -1.
</event>
<event>
 5   0  0.4289684E-07  0.3403846E+04  0.7818609E-02  0.8136963E-01
       -1   -1    0    0    0  501  0.00000000000E+00  0.00000000000E+00  0.26649254582E+04  0.26649254582E+04  0.50400001928E-02 0.  1.
        1   -1    0    0  501    0  0.00000000000E+00  0.00000000000E+00 -0.10869129497E+04  0.10869129497E+04  0.50400001928E-02 0. -1.
    10030    2    1    2    0    0  0.00000000000E+00  0.00000000000E+00  0.15780125085E+04  0.37518384080E+04  0.34038460545E+04 0.  0.
        4    1    3    3  502    0  0.14381817610E+04  0.65420620240E+03  0.14862845735E+04  0.21691924717E+04  0.12699999809E+01 0.  1.
       -4    1    3    3    0  502 -0.14381817610E+04 -0.65420620240E+03  0.91727935024E+02  0.15826459363E+04  0.12699999809E+01 0. -1.
</event>
<event>
 5   0  0.1256208E-06  0.3323937E+04  0.7818609E-02  0.8156831E-01
        2   -1    0    0  501    0  0.00000000000E+00  0.00000000000E+00  0.29714865669E+04  0.29714865669E+04  0.25500000920E-02 0. -1.
       -2   -1    0    0    0  501  0.00000000000E+00  0.00000000000E+00 -0.92954780164E+03  0.92954780164E+03  0.25500000920E-02 0.  1.
    10030    2    1    2    0    0  0.00000000000E+00  0.00000000000E+00  0.20419387653E+04  0.39010343686E+04  0.33239367057E+04 0.  0.
        3    1    3    3  502    0 -0.11556649914E+04  0.13259201645E+03  0.24140684475E+04  0.26797142935E+04  0.10100000352E+00 0. -1.
       -3    1    3    3    0  502  0.11556649914E+04 -0.13259201645E+03 -0.37212968225E+03  0.12213200751E+04  0.10100000352E+00 0.  1.
</event>
<event>
 5   0  0.4109937E-07  0.3405594E+04  0.7818609E-02  0.8136535E-01
        1   -1    0    0  501    0  0.00000000000E+00  0.00000000000E+00  0.28356120891E+04  0.28356120891E+04  0.50400001928E-02 0. -1.
       -1   -1    0    0    0  501  0.00000000000E+00  0.00000000000E+00 -0.10225369584E+04  0.10225369585E+04  0.50400001928E-02 0.  1.
    10030    2    1    2    0    0  0.00000000000E+00  0.00000000000E+00  0.18130751307E+04  0.38581490476E+04  0.34055943158E+04 0.  0.
        5    1    3    3  502    0 -0.94337737350E+02 -0.15377179115E+04  0.84886820464E+02  0.15429529631E+04  0.46999998093E+01 0. -1.
       -5    1    3    3    0  502  0.94337737350E+02  0.15377179115E+04  0.17281883102E+04  0.23151960845E+04  0.46999998093E+01 0.  1.
</event>
<event>
 5   0  0.1256208E-06  0.3349623E+04  0.7818609E-02  0.8150382E-01
        2   -1    0    0  501    0  0.00000000000E+00  0.00000000000E+00  0.19907725381E+04  0.19907725381E+04  0.25500000920E-02 0. -1.
       -2   -1    0    0    0  501  0.00000000000E+00  0.00000000000E+00 -0.14089974009E+04  0.14089974009E+04  0.25500000920E-02 0.  1.
    10030    2    1    2    0    0  0.00000000000E+00  0.00000000000E+00  0.58177513720E+03  0.33997699389E+04  0.33496228634E+04 0.  0.
        3    1    3    3  502    0 -0.72540859968E+03  0.10685758302E+04 -0.79134060092E+03  0.15146920143E+04  0.10100000352E+00 0.  1.
       -3    1    3    3    0  502  0.72540859968E+03 -0.10685758302E+04  0.13731157381E+04  0.18850779246E+04  0.10100000352E+00 0. -1.
</event>
<event>
 5   0  0.1300176E-06  0.3388107E+04  0.7818609E-02  0.8140831E-01
        2   -1    0    0  501    0  0.00000000000E+00  0.00000000000E+00  0.21050172256E+04  0.21050172256E+04  0.25500000920E-02 0. -1.
       -2   -1    0    0    0  501  0.00000000000E+00  0.00000000000E+00 -0.13633226974E+04  0.13633226974E+04  0.25500000920E-02 0.  1.
    10030    2    1    2    0    0  0.00000000000E+00  0.00000000000E+00  0.74169452823E+03  0.34683399230E+04  0.33881072959E+04 0.  0.
        1    1    3    3  502    0  0.98604559930E+03  0.72622021281E+03  0.15690942490E+04  0.19904116367E+04  0.50400001928E-02 0. -1.
       -1    1    3    3    0  502 -0.98604559930E+03 -0.72622021281E+03 -0.82739972077E+03  0.14779282863E+04  0.50400001928E-02 0.  1.
</event>
<event>
 5   0  0.4109937E-07  0.3500739E+04  0.7818609E-02  0.8113615E-01
        1   -1    0    0  501    0  0.00000000000E+00  0.00000000000E+00  0.29635771931E+04  0.29635771931E+04  0.50400001928E-02 0. -1.
       -1   -1    0    0    0  501  0.00000000000E+00  0.00000000000E+00 -0.10338160229E+04  0.10338160229E+04  0.50400001928E-02 0.  1.
    10030    2    1    2    0    0  0.00000000000E+00  0.00000000000E+00  0.19297611702E+04  0.39973932160E+04  0.35007391147E+04 0.  0.
        5    1    3    3  502    0 -0.39980802548E+03  0.91870966190E+03 -0.67397218494E+03  0.12075323996E+04  0.46999998093E+01 0.  1.
       -5    1    3    3    0  502  0.39980802548E+03 -0.91870966190E+03  0.26037333551E+04  0.27898608164E+04  0.46999998093E+01 0. -1.
</event>
<event>
 5   0  0.4125758E-07  0.3389116E+04  0.7818609E-02  0.8140583E-01
       -1   -1    0    0    0  501  0.00000000000E+00  0.00000000000E+00  0.10003518119E+04  0.10003518119E+04  0.50400001928E-02 0.  1.
        1   -1    0    0  501    0  0.00000000000E+00  0.00000000000E+00 -0.28705163737E+04  0.28705163737E+04  0.50400001928E-02 0. -1.
    10030    2    1    2    0    0  0.00000000000E+00  0.00000000000E+00 -0.18701645618E+04  0.38708681856E+04  0.33891156696E+04 0.  0.
        2    1    3    3  502    0 -0.41647774414E+03 -0.21664924558E+03 -0.27947611908E+04  0.28339161456E+04  0.25500000920E-02 0. -1.
       -2    1    3    3    0  502  0.41647774414E+03  0.21664924558E+03  0.92459662896E+03  0.10369520400E+04  0.25500000920E-02 0.  1.
</event>
<event>
 5   0  0.1268230E-06  0.3409487E+04  0.7818609E-02  0.8135582E-01
       -2   -1    0    0    0  501  0.00000000000E+00  0.00000000000E+00  0.13152042741E+04  0.13152042741E+04  0.25500000920E-02 0. -1.
        2   -1    0    0  501    0  0.00000000000E+00  0.00000000000E+00 -0.22096565175E+04  0.22096565175E+04  0.25500000920E-02 0.  1.
    10030    2    1    2    0    0  0.00000000000E+00  0.00000000000E+00 -0.89445224340E+03  0.35248607916E+04  0.34094865867E+04 0.  0.
        2    1    3    3  502    0  0.87662980185E+03 -0.12989042449E+04  0.24669305325E+03  0.15863447007E+04  0.25500000920E-02 0. -1.
       -2    1    3    3    0  502 -0.87662980185E+03  0.12989042449E+04 -0.11411452966E+04  0.19385160910E+04  0.25500000920E-02 0.  1.
</event>
<event>
 5   0  0.1268230E-06  0.3348441E+04  0.7818609E-02  0.8150678E-01
       -2   -1    0    0    0  501  0.00000000000E+00  0.00000000000E+00  0.10149125997E+04  0.10149125997E+04  0.25500000920E-02 0. -1.
        2   -1    0    0  501    0  0.00000000000E+00  0.00000000000E+00 -0.27618277366E+04  0.27618277366E+04  0.25500000920E-02 0.  1.
    10030    2    1    2    0    0  0.00000000000E+00  0.00000000000E+00 -0.17469151369E+04  0.37767403363E+04  0.33484406927E+04 0.  0.
        2    1    3    3  502    0 -0.16228348150E+04 -0.33971757476E+03 -0.11355915156E+04  0.20096191076E+04  0.25500000920E-02 0.  1.
       -2    1    3    3    0  502  0.16228348150E+04  0.33971757476E+03 -0.61132362128E+03  0.17671212288E+04  0.25500000920E-02 0. -1.
</event>
<event>
 5   0  0.4464951E-07  0.3382233E+04  0.7818609E-02  0.8142281E-01
        1   -1    0    0  501    0  0.00000000000E+00  0.00000000000E+00  0.26893861012E+04  0.26893861012E+04  0.50400001928E-02 0. -1.
       -1   -1    0    0    0  501  0.00000000000E+00  0.00000000000E+00 -0.10633929731E+04  0.10633929731E+04  0.50400001928E-02 0.  1.
    10030    2    1    2    0    0  0.00000000000E+00  0.00000000000E+00  0.16259931281E+04  0.37527790742E+04  0.33822325656E+04 0.  0.
        3    1    3    3  502    0 -0.57810853469E+03  0.81751293755E+03 -0.69915363992E+03  0.12212095248E+04  0.10100000352E+00 0.  1.
       -3    1    3    3    0  502  0.57810853469E+03 -0.81751293755E+03  0.23251467680E+04  0.25315695495E+04  0.10100000352E+00 0. -1.
</event>
<event>
 5   0  0.4125758E-07  0.3443093E+04  0.7818609E-02  0.8127410E-01
        1   -1    0    0  501    0  0.00000000000E+00  0.00000000000E+00  0.18433629035E+04  0.18433629035E+04  0.50400001928E-02 0. -1.
       -1   -1    0    0    0  501  0.00000000000E+00  0.00000000000E+00 -0.16077802057E+04  0.16077802058E+04  0.50400001928E-02 0.  1.
    10030    2    1    2    0    0  0.00000000000E+00  0.00000000000E+00  0.23558269771E+03  0.34511431092E+04  0.34430930212E+04 0.  0.
        2    1    3    3  502    0 -0.10698536008E+04  0.93429106986E+02  0.14664507442E+04  0.18176340419E+04  0.25500000920E-02 0. -1.
       -2    1    3    3    0  502  0.10698536008E+04 -0.93429106986E+02 -0.12308680465E+04  0.16335090673E+04  0.25500000920E-02 0.  1.
</event>
<event>
 5   0  0.1300176E-06  0.3112220E+04  0.7818609E-02  0.8212392E-01
       -2   -1    0    0    0  501  0.00000000000E+00  0.00000000000E+00  0.95285488956E+03  0.95285488957E+03  0.25500000920E-02 0. -1.
        2   -1    0    0  501    0  0.00000000000E+00  0.00000000000E+00 -0.25412878347E+04  0.25412878348E+04  0.25500000920E-02 0.  1.
    10030    2    1    2    0    0  0.00000000000E+00  0.00000000000E+00 -0.15884329452E+04  0.34941427243E+04  0.31122201330E+04 0.  0.
        1    1    3    3  502    0  0.47789512010E+03  0.14632133453E+04 -0.10504851009E+04  0.18635707625E+04  0.50400001928E-02 0. -1.
       -1    1    3    3    0  502 -0.47789512010E+03 -0.14632133453E+04 -0.53794784428E+03  0.16305719618E+04  0.50400001928E-02 0.  1.
</event>
<event>
 5   0  0.4289684E-07  0.3339106E+04  0.7818609E-02  0.8153015E-01
       -1   -1    0    0    0  501  0.00000000000E+00  0.00000000000E+00  0.12265568172E+04  0.12265568172E+04  0.50400001928E-02 0. -1.
        1   -1    0    0  501    0  0.00000000000E+00  0.00000000000E+00 -0.22725467576E+04  0.22725467576E+04  0.50400001928E-02 0.  1.
    10030    2    1    2    0    0  0.00000000000E+00  0.00000000000E+00 -0.10459899404E+04  0.34991035748E+04  0.33391062984E+04 0.  0.
        4    1    3    3  502    0  0.54370134265E+03  0.52407490060E+03 -0.20833490336E+04  0.22159897247E+04  0.12699999809E+01 0.  1.
       -4    1    3    3    0  502 -0.54370134265E+03 -0.52407490060E+03  0.10373590931E+04  0.12831138501E+04  0.12699999809E+01 0. -1.
</event>
<event>
 5   0  0.1300176E-06  0.3344844E+04  0.7818609E-02  0.8151578E-01
        2   -1    0    0  501    0  0.00000000000E+00  0.00000000000E+00  0.17775500000E+04  0.17775500000E+04  0.25500000920E-02 0.  1.
       -2   -1    0    0    0  501  0.00000000000E+00  0.00000000000E+00 -0.15735117056E+04  0.15735117056E+04  0.25500000920E-02 0. -1.
    10030    2    1    2    0    0  0.00000000000E+00  0.00000000000E+00  0.20403829446E+03  0.33510617056E+04  0.33448442309E+04 0.  0.
        1    1    3    3  502    0 -0.12388589718E+04 -0.50644572661E+03  0.11067476458E+04  0.17367064166E+04  0.50400001928E-02 0.  1.
       -1    1    3    3    0  502  0.12388589718E+04  0.50644572661E+03 -0.90270935131E+03  0.16143552890E+04  0.50400001928E-02 0. -1.
</event>
<event>
 5   0  0.4272633E-07  0.3344019E+04  0.7818609E-02  0.8151784E-01
        1   -1    0    0  501    0  0.00000000000E+00  0.00000000000E+00  0.16510715169E+04  0.16510715169E+04  0.50400001928E-02 0.  1.
       -1   -1    0    0    0  501  0.00000000000E+00  0.00000000000E+00 -0.16932134103E+04  0.16932134103E+04  0.50400001928E-02 0. -1.
    10030    2    1    2    0    0  0.00000000000E+00  0.00000000000E+00 -0.42141893466E+02  0.33442849272E+04  0.33440193981E+04 0.  0.
        1    1    3    3  502    0 -0.12289425975E+04  0.11191464508E+04 -0.20226962476E+03  0.16744257784E+04  0.50400001928E-02 0.  1.
       -1    1    3    3    0  502  0.12289425975E+04 -0.11191464508E+04  0.16012773129E+03  0.16698591488E+04  0.50400001928E-02 0. -1.
</event>
<event>
 5   0  0.1277635E-06  0.3352796E+04  0.7818609E-02  0.8149590E-01
        2   -1    0    0  501    0  0.00000000000E+00  0.00000000000E+00  0.16619131392E+04  0.16619131392E+04  0.25500000920E-02 0.  1.
       -2   -1    0    0    0  501  0.00000000000E+00  0.00000000000E+00 -0.16910094976E+04  0.16910094976E+04  0.25500000920E-02 0. -1.
    10030    2    1    2    0    0  0.00000000000E+00  0.00000000000E+00 -0.29096358379E+02  0.33529226368E+04  0.33527963866E+04 0.  0.
        4    1    3    3  502    0  0.10950965328E+04 -0.10569782080E+03  0.12503713185E+04  0.16654844618E+04  0.12699999809E+01 0.  1.
       -4    1    3    3    0  502 -0.10950965328E+04  0.10569782080E+03 -0.12794676769E+04  0.16874381750E+04  0.12699999809E+01 0. -1.
</event>
<event>
 5   0  0.1256208E-06  0.3385636E+04  0.7818609E-02  0.8141441E-01
        2   -1    0    0  501    0  0.00000000000E+00  0.00000000000E+00  0.23161799106E+04  0.23161799106E+04  0.25500000920E-02 0.  1.
       -2   -1    0    0    0  501  0.00000000000E+00  0.00000000000E+00 -0.12372236203E+04  0.12372236203E+04  0.25500000920E-02 0. -1.
    10030    2    1    2    0    0  0.00000000000E+00  0.00000000000E+00  0.10789562903E+04  0.35534035308E+04  0.33856358305E+04 0.  0.
        3    1    3    3  502    0  0.13793958071E+03  0.98498470973E+03 -0.89822157713E+03  0.13401582810E+04  0.10100000352E+00 0. -1.
       -3    1    3    3    0  502 -0.13793958071E+03 -0.98498470973E+03  0.19771778674E+04  0.22132452498E+04  0.10100000352E+00 0.  1.
</event>
<event>
 5   0  0.1268230E-06  0.3388088E+04  0.7818609E-02  0.8140836E-01
        2   -1    0    0  501    0  0.00000000000E+00  0.00000000000E+00  0.14963935739E+04  0.14963935739E+04  0.25500000920E-02 0.  1.
       -2   -1    0    0    0  501  0.00000000000E+00  0.00000000000E+00 -0.19178008040E+04  0.19178008040E+04  0.25500000920E-02 0. -1.
    10030    2    1    2    0    0  0.00000000000E+00  0.00000000000E+00 -0.42140723010E+03  0.34141943780E+04  0.33880878378E+04 0.  0.
        2    1    3    3  502    0 -0.12764194515E+04 -0.83208918288E+03 -0.95679073047E+03  0.17991852396E+04  0.25500000920E-02 0. -1.
       -2    1    3    3    0  502  0.12764194515E+04  0.83208918288E+03  0.53538350037E+03  0.16150091384E+04  0.25500000920E-02 0.  1.
</event>
<event>
 5   0  0.1300176E-06  0.3231760E+04  0.7818609E-02  0.8180479E-01
        2   -1    0    0  501    0  0.00000000000E+00  0.00000000000E+00  0.15392513215E+04  0.15392513215E+04  0.25500000920E-02 0. -1.
       -2   -1    0    0    0  501  0.00000000000E+00  0.00000000000E+00 -0.16963238045E+04  0.16963238045E+04  0.25500000920E-02 0.  1.
    10030    2    1    2    0    0  0.00000000000E+00  0.00000000000E+00 -0.15707248297E+03  0.32355751260E+04  0.32317602991E+04 0.  0.
        1    1    3    3  502    0  0.45205968857E+03  0.88251041031E+03  0.11988562239E+04  0.15557759581E+04  0.50400001928E-02 0. -1.
       -1    1    3    3    0  502 -0.45205968857E+03 -0.88251041031E+03 -0.13559287068E+04  0.16797991679E+04  0.50400001928E-02 0.  1.
</event>
<event>
 5   0  0.4289684E-07  0.3211130E+04  0.7818609E-02  0.8185884E-01
       -1   -1    0    0    0  501  0.00000000000E+00  0.00000000000E+00  0.13212521391E+04  0.13212521391E+04  0.50400001928E-02 0.  1.
        1   -1    0    0  501    0  0.00000000000E+00  0.00000000000E+00 -0.19510571904E+04  0.19510571904E+04  0.50400001928E-02 0. -1.
    10030    2    1    2    0    0  0.00000000000E+00  0.00000000000E+00 -0.62980505131E+03  0.32723093295E+04  0.32111296993E+04 0.  0.
        4    1    3    3  502    0 -0.96602666705E+03  0.11688697271E+04 -0.85256532690E+03  0.17396359418E+04  0.12699999809E+01 0.  1.
       -4    1    3    3    0  502  0.96602666705E+03 -0.11688697271E+04  0.22276027559E+03  0.15326733878E+04  0.12699999809E+01 0. -1.
</event>
<event>
 5   0  0.1268230E-06  0.3330697E+04  0.7818609E-02  0.8155128E-01
        2   -1    0    0  501    0  0.00000000000E+00  0.00000000000E+00  0.16987535127E+04  0.16987535127E+04  0.25500000920E-02 0. -1.
       -2   -1    0    0    0  501  0.00000000000E+00  0.00000000000E+00 -0.16326001930E+04  0.16326001930E+04  0.25500000920E-02 0.  1.
    10030    2    1    2    0    0  0.00000000000E+00  0.00000000000E+00  0.66153319689E+02  0.33313537057E+04  0.33306968116E+04 0.  0.
        2    1    3    3  502    0  0.14088043210E+04 -0.57906854650E+03  0.70651125308E+03  0.16790497750E+04  0.25500000920E-02 0. -1.
       -2    1    3    3    0  502 -0.14088043210E+04  0.57906854650E+03 -0.64035793339E+03  0.16523039306E+04  0.25500000920E-02 0.  1.
</event>
<event>
 5   0  0.4109937E-07  0.3366328E+04  0.7818609E-02  0.8146220E-01
        1   -1    0    0  501    0  0.00000000000E+00  0.00000000000E+00  0.16405002185E+04  0.16405002185E+04  0.50400001928E-02 0.  1.
       -1   -1    0    0    0  501  0.00000000000E+00  0.00000000000E+00 -0.17269373166E+04  0.17269373166E+04  0.50400001928E-02 0. -1.
    10030    2    1    2    0    0  0.00000000000E+00  0.00000000000E+00 -0.86437098092E+02  0.33674375351E+04  0.33663279967E+04 0.  0.
        5    1    3    3  502    0 -0.35111257303E+03 -0.25430412406E+03 -0.16701212014E+04  0.17254789317E+04  0.46999998093E+01 0. -1.
       -5    1    3    3    0  502  0.35111257303E+03  0.25430412406E+03  0.15836841033E+04  0.16419586034E+04  0.46999998093E+01 0.  1.
</event>
<event>
 5   0  0.4289684E-07  0.3437190E+04  0.7818609E-02  0.8128839E-01
       -1   -1    0    0    0  501  0.00000000000E+00  0.00000000000E+00  0.15899359636E+04  0.15899359636E+04  0.50400001928E-02 0. -1.
        1   -1    0    0  501    0  0.00000000000E+00  0.00000000000E+00 -0.18576647484E+04  0.18576647484E+04  0.50400001928E-02 0.  1.
    10030    2    1    2    0    0  0.00000000000E+00  0.00000000000E+00 -0.26772878478E+03  0.34476007121E+04  0.34371895449E+04 0.  0.
        4    1    3    3  502    0 -0.97887848768E+03 -0.10818815003E+04  0.77712433021E+03  0.16530561127E+04  0.12699999809E+01 0. -1.
       -4    1    3    3    0  502  0.97887848768E+03  0.10818815003E+04 -0.10448531150E+04  0.17945445994E+04  0.12699999809E+01 0.  1.
</event>
<event>
 5   0  0.4125758E-07  0.3378405E+04  0.7818609E-02  0.8143227E-01
       -1   -1    0    0    0  501  0.00000000000E+00  0.00000000000E+00  0.15576416057E+04  0.15576416057E+04  0.50400001928E-02 0.  1.
        1   -1    0    0  501    0  0.00000000000E+00  0.00000000000E+00 -0.18318750864E+04  0.18318750864E+04  0.50400001928E-02 0. -1.
    10030    2    1    2    0    0  0.00000000000E+00  0.00000000000E+00 -0.27423348068E+03  0.33895166922E+04  0.33784048610E+04 0.  0.
        2    1    3    3  502    0 -0.11881210286E+04 -0.11774251568E+04  0.99121670605E+02  0.16756451546E+04  0.25500000920E-02 0.  1.
       -2    1    3    3    0  502  0.11881210286E+04  0.11774251568E+04 -0.37335515129E+03  0.17138715376E+04  0.25500000920E-02 0. -1.
</event>
<event>
 5   0  0.4109937E-07  0.3386642E+04  0.7818609E-02  0.8141193E-01
       -1   -1    0    0    0  501  0.00000000000E+00  0.00000000000E+00  0.12889978457E+04  0.12889978457E+04  0.50400001928E-02 0.  1.
        1   -1    0    0  501    0  0.00000000000E+00  0.00000000000E+00 -0.22244697181E+04  0.22244697181E+04  0.50400001928E-02 0. -1.
    10030    2    1    2    0    0  0.00000000000E+00  0.00000000000E+00 -0.93547187241E+03  0.35134675638E+04  0.33866423929E+04 0.  0.
        5    1    3    3  502    0 -0.13903833154E+04 -0.64730822266E+03  0.27687535600E+03  0.15584786658E+04  0.46999998093E+01 0. -1.
       -5    1    3    3    0  502  0.13903833154E+04  0.64730822266E+03 -0.12123472284E+04  0.19549888980E+04  0.46999998093E+01 0.  1.
</event>
<event>
 5   0  0.1256208E-06  0.3372596E+04  0.7818609E-02  0.8144665E-01
        2   -1    0    0  501    0  0.00000000000E+00  0.00000000000E+00  0.24628321771E+04  0.24628321771E+04  0.25500000920E-02 0. -1.
       -2   -1    0    0    0  501  0.00000000000E+00  0.00000000000E+00 -0.11546058631E+04  0.11546058631E+04  0.25500000920E-02 0.  1.
    10030    2    1    2    0    0  0.00000000000E+00  0.00000000000E+00  0.13082263141E+04  0.36174380402E+04  0.33725957193E+04 0.  0.
        3    1    3    3  502    0  0.49411177835E+03 -0.60286075607E+03 -0.94977459575E+03  0.12286819498E+04  0.10100000352E+00 0.  1.
       -3    1    3    3    0  502 -0.49411177835E+03  0.60286075607E+03  0.22580009098E+04  0.23887560904E+04  0.10100000352E+00 0. -1.
</event>
<event>
 5   0  0.1277635E-06  0.3396152E+04  0.7818609E-02  0.8138851E-01
        2   -1    0    0  501    0  0.00000000000E+00  0.00000000000E+00  0.20818338789E+04  0.20818338789E+04  0.25500000920E-02 0. -1.
       -2   -1    0    0    0  501  0.00000000000E+00  0.00000000000E+00 -0.13850585141E+04  0.13850585141E+04  0.25500000920E-02 0.  1.
    10030    2    1    2    0    0  0.00000000000E+00  0.00000000000E+00  0.69677536478E+03  0.34668923930E+04  0.33961517864E+04 0.  0.
        4    1    3    3  502    0  0.96384883626E+03  0.30197164976E+03 -0.10450611005E+04  0.14533911288E+04  0.12699999809E+01 0.  1.
       -4    1    3    3    0  502 -0.96384883626E+03 -0.30197164976E+03  0.17418364653E+04  0.20135012643E+04  0.12699999809E+01 0. -1.
</event>
<event>
 5   0  0.1269497E-06  0.3379094E+04  0.7818609E-02  0.8143057E-01
       -2   -1    0    0    0  501  0.00000000000E+00  0.00000000000E+00  0.10527893964E+04  0.10527893964E+04  0.25500000920E-02 0.  1.
        2   -1    0    0  501    0  0.00000000000E+00  0.00000000000E+00 -0.27114337634E+04  0.27114337634E+04  0.25500000920E-02 0. -1.
    10030    2    1    2    0    0  0.00000000000E+00  0.00000000000E+00 -0.16586443671E+04  0.37642231598E+04  0.33790937928E+04 0.  0.
        5    1    3    3  502    0 -0.89683463929E+03 -0.14058239597E+04 -0.52650710434E+03  0.17486809877E+04  0.46999998093E+01 0.  1.
       -5    1    3    3    0  502  0.89683463929E+03  0.14058239597E+04 -0.11321372627E+04  0.20155421721E+04  0.46999998093E+01 0. -1.
</event>
<event>
 5   0  0.4125758E-07  0.3419116E+04  0.7818609E-02  0.8133230E-01
        1   -1    0    0  501    0  0.00000000000E+00  0.00000000000E+00  0.14179059180E+04  0.14179059180E+04  0.50400001928E-02 0.  1.
       -1   -1    0    0    0  501  0.00000000000E+00  0.00000000000E+00 -0.20612008966E+04  0.20612008966E+04  0.50400001928E-02 0. -1.
    10030    2    1    2    0    0  0.00000000000E+00  0.00000000000E+00 -0.64329497865E+03  0.34791068146E+04  0.34191162306E+04 0.  0.
        2    1    3    3  502    0 -0.91969557691E+03  0.85403361024E+03  0.85948396485E+03  0.15211594418E+04  0.25500000920E-02 0.  1.
       -2    1    3    3    0  502  0.91969557691E+03 -0.85403361024E+03 -0.15027789435E+04  0.19579473728E+04  0.25500000920E-02 0. -1.
</event>
<event>
 5   0  0.4125758E-07  0.3403241E+04  0.7818609E-02  0.8137111E-01
       -1   -1    0    0    0  501  0.00000000000E+00  0.00000000000E+00  0.12377083805E+04  0.12377083805E+04  0.50400001928E-02 0.  1.
        1   -1    0    0  501    0  0.00000000000E+00  0.00000000000E+00 -0.23394141282E+04  0.23394141282E+04  0.50400001928E-02 0. -1.
    10030    2    1    2    0    0  0.00000000000E+00  0.00000000000E+00 -0.11017057477E+04  0.35771225087E+04  0.34032410857E+04 0.  0.
        2    1    3    3  502    0  0.10165338372E+03  0.15249529835E+04 -0.13372062692E+04  0.20307475516E+04  0.25500000920E-02 0. -1.
       -2    1    3    3    0  502 -0.10165338372E+03 -0.15249529835E+04  0.23550052149E+03  0.15463749570E+04  0.25500000920E-02 0.  1.
</event>
<event>
 5   0  0.4289684E-07  0.3386015E+04  0.7818609E-02  0.8141347E-01
       -1   -1    0    0    0  501  0.00000000000E+00  0.00000000000E+00  0.16024848527E+04  0.16024848527E+04  0.50400001928E-02 0.  1.
        1   -1    0    0  501    0  0.00000000000E+00  0.00000000000E+00 -0.17886440765E+04  0.17886440765E+04  0.50400001928E-02 0. -1.
    10030    2    1    2    0    0  0.00000000000E+00  0.00000000000E+00 -0.18615922383E+03  0.33911289292E+04  0.33860153807E+04 0.  0.
        4    1    3    3  502    0  0.10980884079E+04  0.63416247370E+03 -0.12165192865E+04  0.17572367461E+04  0.12699999809E+01 0. -1.
       -4    1    3    3    0  502 -0.10980884079E+04 -0.63416247370E+03  0.10303600626E+04  0.16338921831E+04  0.12699999809E+01 0.  1.
</event>
<event>
 5   0  0.4464951E-07  0.3420566E+04  0.7818609E-02  0.8132877E-01
        1   -1    0    0  501    0  0.00000000000E+00  0.00000000000E+00  0.10225989344E+04  0.10225989344E+04  0.50400001928E-02 0.  1.
       -1   -1    0    0    0  501  0.00000000000E+00  0.00000000000E+00 -0.28604254378E+04  0.28604254378E+04  0.50400001928E-02 0. -1.
    10030    2    1    2    0    0  0.00000000000E+00  0.00000000000E+00 -0.18378265033E+04  0.38830243722E+04  0.34205660378E+04 0.  0.
        3    1    3    3  502    0 -0.13263603402E+04 -0.58089854122E+03  0.11430098253E+03  0.14524942657E+04  0.10100000352E+00 0.  1.
       -3    1    3    3    0  502  0.13263603402E+04  0.58089854122E+03 -0.19521274859E+04  0.24305301065E+04  0.10100000352E+00 0. -1.
</event>
<event>
 5   0  0.1277635E-06  0.3315063E+04  0.7818609E-02  0.8159073E-01
       -2   -1    0    0    0  501  0.00000000000E+00  0.00000000000E+00  0.23638463721E+04  0.23638463721E+04  0.25500000920E-02 0. -1.
        2   -1    0    0  501    0  0.00000000000E+00  0.00000000000E+00 -0.11622628318E+04  0.11622628318E+04  0.25500000920E-02 0.  1.
    10030    2    1    2    0    0  0.00000000000E+00  0.00000000000E+00  0.12015835402E+04  0.35261092039E+04  0.33150630633E+04 0.  0.
        4    1    3    3  502    0 -0.16566138721E+04  0.44575968492E+02  0.56628206228E+03  0.17512948139E+04  0.12699999809E+01 0. -1.
       -4    1    3    3    0  502  0.16566138721E+04 -0.44575968492E+02  0.63530147796E+03  0.17748143900E+04  0.12699999809E+01 0.  1.
</event>
<event>
 5   0  0.1269497E-06  0.3419492E+04  0.7818609E-02  0.8133139E-01
        2   -1    0    0  501    0  0.00000000000E+00  0.00000000000E+00  0.15374231535E+04  0.15374231535E+04  0.25500000920E-02 0.  1.
       -2   -1    0    0    0  501  0.00000000000E+00  0.00000000000E+00 -0.19013837634E+04  0.19013837634E+04  0.25500000920E-02 0. -1.
    10030    2    1    2    0    0  0.00000000000E+00  0.00000000000E+00 -0.36396060985E+03  0.34388069169E+04  0.34194920217E+04 0.  0.
        5    1    3    3  502    0  0.16990360313E+04 -0.89400299477E+02 -0.12226717136E+02  0.17014368727E+04  0.46999998093E+01 0.  1.
       -5    1    3    3    0  502 -0.16990360313E+04  0.89400299477E+02 -0.35173389271E+03  0.17373700442E+04  0.46999998093E+01 0. -1.
</event>
<event>
 5   0  0.4109937E-07  0.3445992E+04  0.7818609E-02  0.8126710E-01
       -1   -1    0    0    0  501  0.00000000000E+00  0.00000000000E+00  0.18285422121E+04  0.18285422121E+04  0.50400001928E-02 0.  1.
        1   -1    0    0  501    0  0.00000000000E+00  0.00000000000E+00 -0.16235416617E+04  0.16235416617E+04  0.50400001928E-02 0. -1.
    10030    2    1    2    0    0  0.00000000000E+00  0.00000000000E+00  0.20500055041E+03  0.34520838737E+04  0.34459915620E+04 0.  0.
        5    1    3    3  502    0 -0.81706884936E+03 -0.11703452696E+04  0.10692882503E+04  0.17834542346E+04  0.46999998093E+01 0.  1.
       -5    1    3    3    0  502  0.81706884936E+03  0.11703452696E+04 -0.86428769984E+03  0.16686296392E+04  0.46999998093E+01 0. -1.
</event>
<event>
 5   0  0.1300176E-06  0.3362594E+04  0.7818609E-02  0.8147148E-01
       -2   -1    0    0    0  501  0.00000000000E+00  0.00000000000E+00  0.20341470587E+04  0.20341470587E+04  0.25500000920E-02 0.  1.
        2   -1    0    0  501    0  0.00000000000E+00  0.00000000000E+00 -0.13896537540E+04  0.13896537540E+04  0.25500000920E-02 0. -1.
    10030    2    1    2    0    0  0.00000000000E+00  0.00000000000E+00  0.64449330470E+03  0.34238008127E+04  0.33625942939E+04 0.  0.
        1    1    3    3  502    0  0.26839485426E+03 -0.16472609604E+04  0.11543470997E+03  0.16729703051E+04  0.50400001928E-02 0. -1.
       -1    1    3    3    0  502 -0.26839485426E+03  0.16472609604E+04  0.52905859473E+03  0.17508305076E+04  0.50400001928E-02 0.  1.
</event>
<event>
 5   0  0.1268230E-06  0.3446429E+04  0.7818609E-02  0.8126604E-01
       -2   -1    0    0    0  501  0.00000000000E+00  0.00000000000E+00  0.17222809465E+04  0.17222809465E+04  0.25500000920E-02 0. -1.
        2   -1    0    0  501    0  0.00000000000E+00  0.00000000000E+00 -0.17241485403E+04  0.17241485403E+04  0.25500000920E-02 0.  1.
    10030    2    1    2    0    0  0.00000000000E+00  0.00000000000E+00 -0.18675937908E+01  0.34464294868E+04  0.34464289807E+04 0.  0.
        2    1    3    3  502    0  0.61874901246E+03 -0.16080735833E+04  0.25846612624E+02  0.17232002313E+04  0.25500000920E-02 0.  1.
       -2    1    3    3    0  502 -0.61874901246E+03  0.16080735833E+04 -0.27714206415E+02  0.17232292555E+04  0.25500000920E-02 0. -1.
</event>
<event>
 5   0  0.1268230E-06  0.3410661E+04  0.7818609E-02  0.8135295E-01
       -2   -1    0    0    0  501  0.00000000000E+00  0.00000000000E+00  0.16650519703E+04  0.16650519703E+04  0.25500000920E-02 0. -1.
        2   -1    0    0  501    0  0.00000000000E+00  0.00000000000E+00 -0.17465832936E+04  0.17465832936E+04  0.25500000920E-02 0.  1.
    10030    2    1    2    0    0  0.00000000000E+00  0.00000000000E+00 -0.81531323316E+02  0.34116352639E+04  0.34106609062E+04 0.  0.
        2    1    3    3  502    0  0.34333591889E+03 -0.12779787756E+04 -0.11167321261E+04  0.17315310986E+04  0.25500000920E-02 0.  1.
       -2    1    3    3    0  502 -0.34333591889E+03  0.12779787756E+04  0.10352008028E+04  0.16801041653E+04  0.25500000920E-02 0. -1.
</event>
<event>
 5   0  0.4289684E-07  0.3356578E+04  0.7818609E-02  0.8148646E-01
       -1   -1    0    0    0  501  0.00000000000E+00  0.00000000000E+00  0.21816591943E+04  0.21816591943E+04  0.50400001928E-02 0. -1.
        1   -1    0    0  501    0  0.00000000000E+00  0.00000000000E+00 -0.12910608507E+04  0.12910608507E+04  0.50400001928E-02 0.  1.
    10030    2    1    2    0    0  0.00000000000E+00  0.00000000000E+00  0.89059834359E+03  0.34727200450E+04  0.33565784813E+04 0.  0.
        4    1    3    3  502    0  0.70598191445E+03 -0.95389556982E+03 -0.78249214397E+03  0.14214861202E+04  0.12699999809E+01 0.  1.
       -4    1    3    3    0  502 -0.70598191445E+03  0.95389556982E+03  0.16730904876E+04  0.20512339248E+04  0.12699999809E+01 0. -1.
</event>
<event>
 5   0  0.4272633E-07  0.3411666E+04  0.7818609E-02  0.8135049E-01
       -1   -1    0    0    0  501  0.00000000000E+00  0.00000000000E+00  0.26956131535E+04  0.26956131535E+04  0.50400001928E-02 0.  1.
        1   -1    0    0  501    0  0.00000000000E+00  0.00000000000E+00 -0.10794819011E+04  0.10794819011E+04  0.50400001928E-02 0. -1.
    10030    2    1    2    0    0  0.00000000000E+00  0.00000000000E+00  0.16161312524E+04  0.37750950546E+04  0.34116656410E+04 0.  0.
        1    1    3    3  502    0  0.12043868728E+04  0.10616422958E+04  0.17026763726E+03  0.16145040018E+04  0.50400001928E-02 0. -1.
       -1    1    3    3    0  502 -0.12043868728E+04 -0.10616422958E+04  0.14458636152E+04  0.21605910528E+04  0.50400001928E-02 0.  1.
</event>
<event>
 5   0  0.1269497E-06  0.3396148E+04  0.7818609E-02  0.8138852E-01
        2   -1    0    0  501    0  0.00000000000E+00  0.00000000000E+00  0.29239816967E+04  0.29239816967E+04  0.25500000920E-02 0.  1.
       -2   -1    0    0    0  501  0.00000000000E+00  0.00000000000E+00 -0.98613998319E+03  0.98613998319E+03  0.25500000920E-02 0. -1.
    10030    2    1    2    0    0  0.00000000000E+00  0.00000000000E+00  0.19378417136E+04  0.39101216799E+04  0.33961479716E+04 0.  0.
        5    1    3    3  502    0 -0.13284482989E+04  0.66858901330E+03  0.19124910517E+04  0.24226907075E+04  0.46999998093E+01 0.  1.
       -5    1    3    3    0  502  0.13284482989E+04 -0.66858901330E+03  0.25350661870E+02  0.14874309724E+04  0.46999998093E+01 0. -1.
</event>
<event>
 5   0  0.4109937E-07  0.3169747E+04  0.7818609E-02  0.8196853E-01
        1   -1    0    0  501    0  0.00000000000E+00  0.00000000000E+00  0.17975054025E+04  0.17975054025E+04  0.50400001928E-02 0. -1.
       -1   -1    0    0    0  501  0.00000000000E+00  0.00000000000E+00 -0.13973948458E+04  0.13973948458E+04  0.50400001928E-02 0.  1.
    10030    2    1    2    0    0  0.00000000000E+00  0.00000000000E+00  0.40011055674E+03  0.31949002483E+04  0.31697474882E+04 0.  0.
        5    1    3    3  502    0 -0.14301419293E+04 -0.44124318749E+03 -0.32542730538E+03  0.15316417693E+04  0.46999998093E+01 0.  1.
       -5    1    3    3    0  502  0.14301419293E+04  0.44124318749E+03  0.72553786212E+03  0.16632584790E+04  0.46999998093E+01 0. -1.
</event>
<event>
 5   0  0.1268230E-06  0.3370557E+04  0.7818609E-02  0.8145171E-01
       -2   -1    0    0    0  501  0.00000000000E+00  0.00000000000E+00  0.18209772909E+04  0.18209772909E+04  0.25500000920E-02 0.  1.
        2   -1    0    0  501    0  0.00000000000E+00  0.00000000000E+00 -0.15596921779E+04  0.15596921779E+04  0.25500000920E-02 0. -1.
    10030    2    1    2    0    0  0.00000000000E+00  0.00000000000E+00  0.26128511294E+03  0.33806694688E+04  0.33705572458E+04 0.  0.
        2    1    3    3  502    0 -0.52900761199E+03  0.15009063035E+04 -0.42563407634E+03  0.16473412374E+04  0.25500000920E-02 0.  1.
       -2    1    3    3    0  502  0.52900761199E+03 -0.15009063035E+04  0.68691918928E+03  0.17333282315E+04  0.25500000920E-02 0. -1.
</event>
<event>
 5   0  0.1277635E-06  0.3227208E+04  0.7818609E-02  0.8181668E-01
        2   -1    0    0  501    0  0.00000000000E+00  0.00000000000E+00  0.13532373563E+04  0.13532373563E+04  0.25500000920E-02 0.  1.
       -2   -1    0    0    0  501  0.00000000000E+00  0.00000000000E+00 -0.19240657715E+04  0.19240657715E+04  0.25500000920E-02 0. -1.
    10030    2    1    2    0    0  0.00000000000E+00  0.00000000000E+00 -0.57082841516E+03  0.32773031278E+04  0.32272078817E+04 0.  0.
        4    1    3    3  502    0  0.10126181092E+04 -0.14320583588E+03  0.98208382399E+03  0.14178834920E+04  0.12699999809E+01 0.  1.
       -4    1    3    3    0  502 -0.10126181092E+04  0.14320583588E+03 -0.15529122391E+04  0.18594196358E+04  0.12699999809E+01 0. -1.
</event>
<event>
 5   0  0.4289684E-07  0.3484033E+04  0.7818609E-02  0.8117584E-01
       -1   -1    0    0    0  501  0.00000000000E+00  0.00000000000E+00  0.17812282990E+04  0.17812282990E+04  0.50400001928E-02 0. -1.
        1   -1    0    0  501    0  0.00000000000E+00  0.00000000000E+00 -0.17036683521E+04  0.17036683521E+04  0.50400001928E-02 0.  1.
    10030    2    1    2    0    0  0.00000000000E+00  0.00000000000E+00  0.77559946972E+02  0.34848966511E+04  0.34840334561E+04 0.  0.
        4    1    3    3  502    0 -0.43246205442E+03 -0.63436116506E+03  0.16028755352E+04  0.17772588755E+04  0.12699999809E+01 0. -1.
       -4    1    3    3    0  502  0.43246205442E+03  0.63436116506E+03 -0.15253155882E+04  0.17076377756E+04  0.12699999809E+01 0.  1.
</event>
<event>
 5   0  0.1269497E-06  0.3410357E+04  0.7818609E-02  0.8135369E-01
        2   -1    0    0  501    0  0.00000000000E+00  0.00000000000E+00  0.15748559778E+04  0.15748559779E+04  0.25500000920E-02 0. -1.
       -2   -1    0    0    0  501  0.00000000000E+00  0.00000000000E+00 -0.18462849881E+04  0.18462849881E+04  0.25500000920E-02 0.  1.
    10030    2    1    2    0    0  0.00000000000E+00  0.00000000000E+00 -0.27142901021E+03  0.34211409659E+04  0.34103565504E+04 0.  0.
        5    1    3    3  502    0 -0.35359888980E+03 -0.35042263185E+03  0.15003267785E+04  0.15807690305E+04  0.46999998093E+01 0. -1.
       -5    1    3    3    0  502  0.35359888980E+03  0.35042263185E+03 -0.17717557887E+04  0.18403719354E+04  0.46999998093E+01 0.  1.
</event>
<event>
 5   0  0.1256208E-06  0.3445909E+04  0.7818609E-02  0.8126730E-01
       -2   -1    0    0    0  501  0.00000000000E+00  0.00000000000E+00  0.14909217097E+04  0.14909217097E+04  0.25500000920E-02 0.  1.
        2   -1    0    0  501    0  0.00000000000E+00  0.00000000000E+00 -0.19910987847E+04  0.19910987847E+04  0.25500000920E-02 0. -1.
    10030    2    1    2    0    0  0.00000000000E+00  0.00000000000E+00 -0.50017707493E+03  0.34820204944E+04  0.34459091133E+04 0.  0.
        3    1    3    3  502    0  0.50070997180E+03  0.15576353450E+04  0.29560224636E+03  0.16626241433E+04  0.10100000352E+00 0.  1.
       -3    1    3    3    0  502 -0.50070997180E+03 -0.15576353450E+04 -0.79577932129E+03  0.18193963510E+04  0.10100000352E+00 0. -1.
</event>
<event>
 5   0  0.1277635E-06  0.3410147E+04  0.7818609E-02  0.8135420E-01
       -2   -1    0    0    0  501  0.00000000000E+00  0.00000000000E+00  0.15067895267E+04  0.15067895267E+04  0.25500000920E-02 0. -1.
        2   -1    0    0  501    0  0.00000000000E+00  0.00000000000E+00 -0.19294507589E+04  0.19294507589E+04  0.25500000920E-02 0.  1.
    10030    2    1    2    0    0  0.00000000000E+00  0.00000000000E+00 -0.42266123227E+03  0.34362402856E+04  0.34101473257E+04 0.  0.
        4    1    3    3  502    0  0.14093168783E+04  0.90206416784E+03 -0.54152798838E+03  0.17587347729E+04  0.12699999809E+01 0.  1.
       -4    1    3    3    0  502 -0.14093168783E+04 -0.90206416784E+03  0.11886675611E+03  0.16775055127E+04  0.12699999809E+01 0. -1.
</event>
<event>
 5   0  0.4125758E-07  0.3047999E+04  0.7818609E-02  0.8230156E-01
       -1   -1    0    0    0  501  0.00000000000E+00  0.00000000000E+00  0.17401444394E+04  0.17401444394E+04  0.50400001928E-02 0. -1.
        1   -1    0    0  501    0  0.00000000000E+00  0.00000000000E+00 -0.13347022146E+04  0.13347022146E+04  0.50400001928E-02 0.  1.
    10030    2    1    2    0    0  0.00000000000E+00  0.00000000000E+00  0.40544222474E+03  0.30748466540E+04  0.30479991056E+04 0.  0.
        2    1    3    3  502    0  0.51259666523E+03 -0.78904528225E+03  0.14121247928E+04  0.16968925214E+04  0.25500000920E-02 0. -1.
       -2    1    3    3    0  502 -0.51259666523E+03  0.78904528225E+03 -0.10066825681E+04  0.13779541326E+04  0.25500000920E-02 0.  1.
</event>
<event>
 5   0  0.1269497E-06  0.2899685E+04  0.7818609E-02  0.8272971E-01
       -2   -1    0    0    0  501  0.00000000000E+00  0.00000000000E+00  0.19231059632E+04  0.19231059632E+04  0.25500000920E-02 0. -1.
        2   -1    0    0  501    0  0.00000000000E+00  0.00000000000E+00 -0.10930456879E+04  0.10930456879E+04  0.25500000920E-02 0.  1.
    10030    2    1    2    0    0  0.00000000000E+00  0.00000000000E+00  0.83006027530E+03  0.30161516510E+04  0.28996845900E+04 0.  0.
        5    1    3    3  502    0  0.21576839575E+03 -0.99642789990E+02  0.19026979507E+04  0.19174895743E+04  0.46999998093E+01 0. -1.
       -5    1    3    3    0  502 -0.21576839575E+03  0.99642789990E+02 -0.10726376754E+04  0.10986620767E+04  0.46999998093E+01 0.  1.
</event>
<event>
 5   0  0.4109937E-07  0.3512941E+04  0.7818609E-02  0.8110730E-01
       -1   -1    0    0    0  501  0.00000000000E+00  0.00000000000E+00  0.15947383057E+04  0.15947383058E+04  0.50400001928E-02 0. -1.
        1   -1    0    0  501    0  0.00000000000E+00  0.00000000000E+00 -0.19346047340E+04  0.19346047340E+04  0.50400001928E-02 0.  1.
    10030    2    1    2    0    0  0.00000000000E+00  0.00000000000E+00 -0.33986642822E+03  0.35293430397E+04  0.35129408055E+04 0.  0.
        5    1    3    3  502    0  0.10119784546E+04 -0.24721363856E+00 -0.16122775780E+04  0.19035654788E+04  0.46999998093E+01 0.  1.
       -5    1    3    3    0  502 -0.10119784546E+04  0.24721363856E+00  0.12724111497E+04  0.16257775609E+04  0.46999998093E+01 0. -1.
</event>
<event>
 5   0  0.1277635E-06  0.3395238E+04  0.7818609E-02  0.8139076E-01
        2   -1    0    0  501    0  0.00000000000E+00  0.00000000000E+00  0.18961240426E+04  0.18961240426E+04  0.25500000920E-02 0. -1.
       -2   -1    0    0    0  501  0.00000000000E+00  0.00000000000E+00 -0.15198951106E+04  0.15198951106E+04  0.25500000920E-02 0.  1.
    10030    2    1    2    0    0  0.00000000000E+00  0.00000000000E+00  0.37622893201E+03  0.34160191532E+04  0.33952376420E+04 0.  0.
        4    1    3    3  502    0  0.47767606756E+02  0.14488152651E+04  0.10770155620E+04  0.18059101723E+04  0.12699999809E+01 0. -1.
       -4    1    3    3    0  502 -0.47767606756E+02 -0.14488152651E+04 -0.70078663001E+03  0.16101089809E+04  0.12699999809E+01 0.  1.
</event>
<event>
 5   0  0.4272633E-07  0.3421109E+04  0.7818609E-02  0.8132745E-01
       -1   -1    0    0    0  501  0.00000000000E+00  0.00000000000E+00  0.14634513609E+04  0.14634513609E+04  0.50400001928E-02 0.  1.
        1   -1    0    0  501    0  0.00000000000E+00  0.00000000000E+00 -0.19993811743E+04  0.19993811743E+04  0.50400001928E-02 0. -1.
    10030    2    1    2    0    0  0.00000000000E+00  0.00000000000E+00 -0.53592981340E+03  0.34628325352E+04  0.34211092356E+04 0.  0.
        1    1    3    3  502    0  0.16561386071E+04 -0.14011820268E+03  0.14140406282E+03  0.16680597428E+04  0.50400001928E-02 0.  1.
       -1    1    3    3    0  502 -0.16561386071E+04  0.14011820268E+03 -0.67733387623E+03  0.17947727924E+04  0.50400001928E-02 0. -1.
</event>
<event>
 5   0  0.1269497E-06  0.3372869E+04  0.7818609E-02  0.8144597E-01
        2   -1    0    0  501    0  0.00000000000E+00  0.00000000000E+00  0.21746447450E+04  0.21746447451E+04  0.25500000920E-02 0. -1.
       -2   -1    0    0    0  501  0.00000000000E+00  0.00000000000E+00 -0.13078281701E+04  0.13078281701E+04  0.25500000920E-02 0.  1.
    10030    2    1    2    0    0  0.00000000000E+00  0.00000000000E+00  0.86681657494E+03  0.34824729152E+04  0.33728691985E+04 0.  0.
        5    1    3    3  502    0  0.84941485151E+03 -0.13658129155E+04  0.95692438946E+03  0.18715439849E+04  0.46999998093E+01 0. -1.
       -5    1    3    3    0  502 -0.84941485151E+03  0.13658129155E+04 -0.90107814519E+02  0.16109289303E+04  0.46999998093E+01 0.  1.
</event>
<event>
 5   0  0.4109937E-07  0.3414662E+04  0.7818609E-02  0.8134317E-01
       -1   -1    0    0    0  501  0.00000000000E+00  0.00000000000E+00  0.14240002461E+04  0.14240002461E+04  0.50400001928E-02 0.  1.
        1   -1    0    0  501    0  0.00000000000E+00  0.00000000000E+00 -0.20470353916E+04  0.20470353916E+04  0.50400001928E-02 0. -1.
    10030    2    1    2    0    0  0.00000000000E+00  0.00000000000E+00 -0.62303514547E+03  0.34710356377E+04  0.34146618581E+04 0.  0.
        5    1    3    3  502    0  0.98047534075E+02  0.18744304251E+03 -0.20336561672E+04  0.20446338815E+04  0.46999998093E+01 0. -1.
       -5    1    3    3    0  502 -0.98047534075E+02 -0.18744304251E+03  0.14106210217E+04  0.14264017562E+04  0.46999998093E+01 0.  1.
</event>
<event>
 5   0  0.4109937E-07  0.3329472E+04  0.7818609E-02  0.8155437E-01
        1   -1    0    0  501    0  0.00000000000E+00  0.00000000000E+00  0.13403290168E+04  0.13403290168E+04  0.50400001928E-02 0. -1.
       -1   -1    0    0    0  501  0.00000000000E+00  0.00000000000E+00 -0.20676605276E+04  0.20676605276E+04  0.50400001928E-02 0.  1.
    10030    2    1    2    0    0  0.00000000000E+00  0.00000000000E+00 -0.72733151078E+03  0.34079895444E+04  0.33294716710E+04 0.  0.
        5    1    3    3  502    0  0.77292137278E+03  0.42578742418E+03  0.10812258698E+04  0.13956266874E+04  0.46999998093E+01 0. -1.
       -5    1    3    3    0  502 -0.77292137278E+03 -0.42578742418E+03 -0.18085573806E+04  0.20123628569E+04  0.46999998093E+01 0.  1.
</event>
<event>
 5   0  0.1269497E-06  0.3495182E+04  0.7818609E-02  0.8114933E-01
        2   -1    0    0  501    0  0.00000000000E+00  0.00000000000E+00  0.21784799838E+04  0.21784799838E+04  0.25500000920E-02 0.  1.
       -2   -1    0    0    0  501  0.00000000000E+00  0.00000000000E+00 -0.14019289512E+04  0.14019289512E+04  0.25500000920E-02 0. -1.
    10030    2    1    2    0    0  0.00000000000E+00  0.00000000000E+00  0.77655103257E+03  0.35804089350E+04  0.34951819174E+04 0.  0.
        5    1    3    3  502    0 -0.65984692791E+03 -0.10276343323E+04 -0.89225456187E+03  0.15124716799E+04  0.46999998093E+01 0. -1.
       -5    1    3    3    0  502  0.65984692791E+03  0.10276343323E+04  0.16688055944E+04  0.20679372551E+04  0.46999998093E+01 0.  1.
</event>
<event>
 5   0  0.4272633E-07  0.3410968E+04  0.7818609E-02  0.8135220E-01
        1   -1    0    0  501    0  0.00000000000E+00  0.00000000000E+00  0.22426310472E+04  0.22426310472E+04  0.50400001928E-02 0. -1.
       -1   -1    0    0    0  501  0.00000000000E+00  0.00000000000E+00 -0.12969927609E+04  0.12969927609E+04  0.50400001928E-02 0.  1.
    10030    2    1    2    0    0  0.00000000000E+00  0.00000000000E+00  0.94563828625E+03  0.35396238081E+04  0.34109683280E+04 0.  0.
        1    1    3    3  502    0 -0.39164719879E+03  0.10292286427E+04 -0.87859796797E+03  0.14087702143E+04  0.50400001928E-02 0.  1.
       -1    1    3    3    0  502  0.39164719879E+03 -0.10292286427E+04  0.18242362542E+04  0.21308535939E+04  0.50400001928E-02 0. -1.
</event>
<event>
 5   0  0.4289684E-07  0.3493615E+04  0.7818609E-02  0.8115305E-01
        1   -1    0    0  501    0  0.00000000000E+00  0.00000000000E+00  0.16265443466E+04  0.16265443466E+04  0.50400001928E-02 0.  1.
       -1   -1    0    0    0  501  0.00000000000E+00  0.00000000000E+00 -0.18759621794E+04  0.18759621794E+04  0.50400001928E-02 0. -1.
    10030    2    1    2    0    0  0.00000000000E+00  0.00000000000E+00 -0.24941783276E+03  0.35025065260E+04  0.34936145623E+04 0.  0.
        4    1    3    3  502    0  0.31002855247E+03 -0.69506982588E+03  0.14515823905E+04  0.16390036045E+04  0.12699999809E+01 0.  1.
       -4    1    3    3    0  502 -0.31002855247E+03  0.69506982588E+03 -0.17010002233E+04  0.18635029216E+04  0.12699999809E+01 0. -1.
</event>
<event>
 5   0  0.4109937E-07  0.3568401E+04  0.7818609E-02  0.8097768E-01
       -1   -1    0    0    0  501  0.00000000000E+00  0.00000000000E+00  0.15278603210E+04  0.15278603210E+04  0.50400001928E-02 0.  1.
        1   -1    0    0  501    0  0.00000000000E+00  0.00000000000E+00 -0.20835484857E+04  0.20835484857E+04  0.50400001928E-02 0. -1.
    10030    2    1    2    0    0  0.00000000000E+00  0.00000000000E+00 -0.55568816469E+03  0.36114088066E+04  0.35684007948E+04 0.  0.
        5    1    3    3  502    0 -0.92029948993E+03 -0.95456785800E+03 -0.14860490880E+04  0.19916111389E+04  0.46999998093E+01 0. -1.
       -5    1    3    3    0  502  0.92029948993E+03  0.95456785800E+03  0.93036092333E+03  0.16197976677E+04  0.46999998093E+01 0.  1.
</event>
<event>
 5   0  0.4289684E-07  0.3210580E+04  0.7818609E-02  0.8186029E-01
       -1   -1    0    0    0  501  0.00000000000E+00  0.00000000000E+00  0.29675522245E+04  0.29675522245E+04  0.50400001928E-02 0. -1.
        1   -1    0    0  501    0  0.00000000000E+00  0.00000000000E+00 -0.86837740617E+03  0.86837740619E+03  0.50400001928E-02 0.  1.
    10030    2    1    2    0    0  0.00000000000E+00  0.00000000000E+00  0.20991748183E+04  0.38359296307E+04  0.32105795760E+04 0.  0.
        4    1    3    3  502    0  0.74700031588E+02 -0.11390925252E+04  0.23980687559E+04  0.26559079891E+04  0.12699999809E+01 0. -1.
       -4    1    3    3    0  502 -0.74700031588E+02  0.11390925252E+04 -0.29889393764E+03  0.11800216415E+04  0.12699999809E+01 0.  1.
</event>
<event>
 5   0  0.4289684E-07  0.3344473E+04  0.7818609E-02  0.8151670E-01
       -1   -1    0    0    0  501  0.00000000000E+00  0.00000000000E+00  0.26185945859E+04  0.26185945859E+04  0.50400001928E-02 0.  1.
        1   -1    0    0  501    0  0.00000000000E+00  0.00000000000E+00 -0.10678916562E+04  0.10678916562E+04  0.50400001928E-02 0. -1.
    10030    2    1    2    0    0  0.00000000000E+00  0.00000000000E+00  0.15507029297E+04  0.36864862421E+04  0.33444732376E+04 0.  0.
        4    1    3    3  502    0  0.65463958638E+03  0.23487382377E+03 -0.90090442515E+03  0.11381340419E+04  0.12699999809E+01 0. -1.
       -4    1    3    3    0  502 -0.65463958638E+03 -0.23487382377E+03  0.24516073548E+04  0.25483522002E+04  0.12699999809E+01 0.  1.
</event>
<event>
 5   0  0.4289684E-07  0.3384272E+04  0.7818609E-02  0.8141777E-01
        1   -1    0    0  501    0  0.00000000000E+00  0.00000000000E+00  0.19106918452E+04  0.19106918452E+04  0.50400001928E-02 0. -1.
       -1   -1    0    0    0  501  0.00000000000E+00  0.00000000000E+00 -0.14985796738E+04  0.14985796738E+04  0.50400001928E-02 0.  1.
    10030    2    1    2    0    0  0.00000000000E+00  0.00000000000E+00  0.41211217146E+03  0.34092715190E+04  0.33842718343E+04 0.  0.
        4    1    3    3  502    0  0.75334057511E+03 -0.58103246723E+03 -0.12036385636E+04  0.15342321059E+04  0.12699999809E+01 0.  1.
       -4    1    3    3    0  502 -0.75334057511E+03  0.58103246723E+03  0.16157507350E+04  0.18750394131E+04  0.12699999809E+01 0. -1.
</event>
<event>
 5   0  0.4464951E-07  0.3402625E+04  0.7818609E-02  0.8137262E-01
       -1   -1    0    0    0  501  0.00000000000E+00  0.00000000000E+00  0.10577236420E+04  0.10577236420E+04  0.50400001928E-02 0. -1.
        1   -1    0    0  501    0  0.00000000000E+00  0.00000000000E+00 -0.27365036357E+04  0.27365036357E+04  0.50400001928E-02 0.  1.
    10030    2    1    2    0    0  0.00000000000E+00  0.00000000000E+00 -0.16787799937E+04  0.37942272778E+04  0.34026252171E+04 0.  0.
        3    1    3    3  502    0 -0.15268680939E+04 -0.49778848851E+03 -0.21320563336E+03  0.16200543842E+04  0.10100000352E+00 0. -1.
       -3    1    3    3    0  502  0.15268680939E+04  0.49778848851E+03 -0.14655743603E+04  0.21741728936E+04  0.10100000352E+00 0.  1.
</event>
<event>
 5   0  0.1268230E-06  0.3445936E+04  0.7818609E-02  0.8126723E-01
        2   -1    0    0  501    0  0.00000000000E+00  0.00000000000E+00  0.24827598041E+04  0.24827598041E+04  0.25500000920E-02 0. -1.
       -2   -1    0    0    0  501  0.00000000000E+00  0.00000000000E+00 -0.11956928577E+04  0.11956928577E+04  0.25500000920E-02 0.  1.
    10030    2    1    2    0    0  0.00000000000E+00  0.00000000000E+00  0.12870669464E+04  0.36784526617E+04  0.34459356727E+04 0.  0.
        2    1    3    3  502    0  0.14858836195E+04  0.39978655394E+03  0.14710432023E+04  0.21287666670E+04  0.25500000920E-02 0. -1.
       -2    1    3    3    0  502 -0.14858836195E+04 -0.39978655394E+03 -0.18397625592E+03  0.15496859947E+04  0.25500000920E-02 0.  1.
</event>
<event>
 5   0  0.4272633E-07  0.3418883E+04  0.7818609E-02  0.8133287E-01
        1   -1    0    0  501    0  0.00000000000E+00  0.00000000000E+00  0.24085844131E+04  0.24085844131E+04  0.50400001928E-02 0.  1.
       -1   -1    0    0    0  501  0.00000000000E+00  0.00000000000E+00 -0.12132395017E+04  0.12132395017E+04  0.50400001928E-02 0. -1.
    10030    2    1    2    0    0  0.00000000000E+00  0.00000000000E+00  0.11953449114E+04  0.36218239149E+04  0.34188827141E+04 0.  0.
        1    1    3    3  502    0  0.22813483119E+03  0.24725669245E+03 -0.11778233350E+04  0.12249282353E+04  0.50400001928E-02 0. -1.
       -1    1    3    3    0  502 -0.22813483119E+03 -0.24725669245E+03  0.23731682464E+04  0.23968956796E+04  0.50400001928E-02 0.  1.
</event>
<event>
 5   0  0.4272633E-07  0.3414364E+04  0.7818609E-02  0.8134390E-01
        1   -1    0    0  501    0  0.00000000000E+00  0.00000000000E+00  0.21451571134E+04  0.21451571134E+04  0.50400001928E-02 0.  1.
       -1   -1    0    0    0  501  0.00000000000E+00  0.00000000000E+00 -0.13586283059E+04  0.13586283059E+04  0.50400001928E-02 0. -1.
    10030    2    1    2    0    0  0.00000000000E+00  0.00000000000E+00  0.78652880756E+03  0.35037854193E+04  0.34143644649E+04 0.  0.
        1    1    3    3  502    0  0.72625394176E+01 -0.13475681139E+04  0.14687966239E+04  0.19933278928E+04  0.50400001928E-02 0.  1.
       -1    1    3    3    0  502 -0.72625394176E+01  0.13475681139E+04 -0.68226781633E+03  0.15104575265E+04  0.50400001928E-02 0. -1.
</event>
<event>
 5   0  0.1269497E-06  0.3387552E+04  0.7818609E-02  0.8140968E-01
        2   -1    0    0  501    0  0.00000000000E+00  0.00000000000E+00  0.12196687381E+04  0.12196687381E+04  0.25500000920E-02 0.  1.
       -2   -1    0    0    0  501  0.00000000000E+00  0.00000000000E+00 -0.23521771570E+04  0.23521771570E+04  0.25500000920E-02 0. -1.
    10030    2    1    2    0    0  0.00000000000E+00  0.00000000000E+00 -0.11325084189E+04  0.35718458951E+04  0.33875518859E+04 0.  0.
        5    1    3    3  502    0 -0.58681487271E+03  0.66331588332E+03 -0.20885859078E+04  0.22686015164E+04  0.46999998093E+01 0. -1.
       -5    1    3    3    0  502  0.58681487271E+03 -0.66331588332E+03  0.95607748889E+03  0.13032443787E+04  0.46999998093E+01 0.  1.
</event>
<event>
 5   0  0.4125758E-07  0.3414970E+04  0.7818609E-02  0.8134242E-01
        1   -1    0    0  501    0  0.00000000000E+00  0.00000000000E+00  0.20530287420E+04  0.20530287420E+04  0.50400001928E-02 0. -1.
       -1   -1    0    0    0  501  0.00000000000E+00  0.00000000000E+00 -0.14200992719E+04  0.14200992719E+04  0.50400001928E-02 0.  1.
    10030    2    1    2    0    0  0.00000000000E+00  0.00000000000E+00  0.63292947008E+03  0.34731280140E+04  0.34149697637E+04 0.  0.
        2    1    3    3  502    0  0.10301462206E+03 -0.15672091624E+04  0.99775975724E+03  0.18607205873E+04  0.25500000920E-02 0. -1.
       -2    1    3    3    0  502 -0.10301462206E+03  0.15672091624E+04 -0.36483028716E+03  0.16124074266E+04  0.25500000920E-02 0.  1.
</event>
<event>
 5   0  0.4109937E-07  0.3424154E+04  0.7818609E-02  0.8132003E-01
       -1   -1    0    0    0  501  0.00000000000E+00  0.00000000000E+00  0.26215808041E+04  0.26215808041E+04  0.50400001928E-02 0.  1.
        1   -1    0    0  501    0  0.00000000000E+00  0.00000000000E+00 -0.11181070358E+04  0.11181070358E+04  0.50400001928E-02 0. -1.
    10030    2    1    2    0    0  0.00000000000E+00  0.00000000000E+00  0.15034737683E+04  0.37396878399E+04  0.34241541682E+04 0.  0.
        5    1    3    3  502    0 -0.28848600779E+03  0.10629211389E+04 -0.67983739090E+03  0.12943054092E+04  0.46999998093E+01 0. -1.
       -5    1    3    3    0  502  0.28848600779E+03 -0.10629211389E+04  0.21833111592E+04  0.24453824307E+04  0.46999998093E+01 0.  1.
</event>
<event>
 5   0  0.4289684E-07  0.3404959E+04  0.7818609E-02  0.8136690E-01
       -1   -1    0    0    0  501  0.00000000000E+00  0.00000000000E+00  0.12979019520E+04  0.12979019520E+04  0.50400001928E-02 0. -1.
        1   -1    0    0  501    0  0.00000000000E+00  0.00000000000E+00 -0.22331701678E+04  0.22331701678E+04  0.50400001928E-02 0.  1.
    10030    2    1    2    0    0  0.00000000000E+00  0.00000000000E+00 -0.93526821576E+03  0.35310721198E+04  0.34049586898E+04 0.  0.
        4    1    3    3  502    0  0.59558581557E+03 -0.97208007878E+03  0.84362352612E+03  0.14182257965E+04  0.12699999809E+01 0. -1.
       -4    1    3    3    0  502 -0.59558581557E+03  0.97208007878E+03 -0.17788917419E+04  0.21128463232E+04  0.12699999809E+01 0.  1.
</event>
<event>
 5   0  0.4289684E-07  0.3181149E+04  0.7818609E-02  0.8193813E-01
        1   -1    0    0  501    0  0.00000000000E+00  0.00000000000E+00  0.23863216700E+04  0.23863216700E+04  0.50400001928E-02 0.  1.
       -1   -1    0    0    0  501  0.00000000000E+00  0.00000000000E+00 -0.10601786971E+04  0.10601786971E+04  0.50400001928E-02 0. -1.
    10030    2    1    2    0    0  0.00000000000E+00  0.00000000000E+00  0.13261429729E+04  0.34465003671E+04  0.31811490999E+04 0.  0.
        4    1    3    3  502    0 -0.50810626849E+03  0.13227300917E+04  0.14459373089E+04  0.20244809680E+04  0.12699999809E+01 0.  1.
       -4    1    3    3    0  502  0.50810626849E+03 -0.13227300917E+04 -0.11979433598E+03  0.14220193991E+04  0.12699999809E+01 0. -1.
</event>
<event>
 5   0  0.1277635E-06  0.3360444E+04  0.7818609E-02  0.8147684E-01
       -2   -1    0    0    0  501  0.00000000000E+00  0.00000000000E+00  0.10229202973E+04  0.10229202973E+04  0.25500000920E-02 0.  1.
        2   -1    0    0  501    0  0.00000000000E+00  0.00000000000E+00 -0.27598878846E+04  0.27598878846E+04  0.25500000920E-02 0. -1.
    10030    2    1    2    0    0  0.00000000000E+00  0.00000000000E+00 -0.17369675873E+04  0.37828081819E+04  0.33604436228E+04 0.  0.
        4    1    3    3  502    0 -0.13086079632E+04  0.10299732936E+04 -0.61716563476E+03  0.17760052986E+04  0.12699999809E+01 0.  1.
       -4    1    3    3    0  502  0.13086079632E+04 -0.10299732936E+04 -0.11198019525E+04  0.20068028834E+04  0.12699999809E+01 0. -1.
</event>
<event>
 5   0  0.4464951E-07  0.3419883E+04  0.7818609E-02  0.8133044E-01
        1   -1    0    0  501    0  0.00000000000E+00  0.00000000000E+00  0.19318515381E+04  0.19318515381E+04  0.50400001928E-02 0.  1.
       -1   -1    0    0    0  501  0.00000000000E+00  0.00000000000E+00 -0.15135222153E+04  0.15135222153E+04  0.50400001928E-02 0. -1.
    10030    2    1    2    0    0  0.00000000000E+00  0.00000000000E+00  0.41832932278E+03  0.34453737534E+04  0.34198831673E+04 0.  0.
        3    1    3    3  502    0  0.49267282964E+03 -0.43436106762E+03  0.17996988798E+04  0.19158058676E+04  0.10100000352E+00 0.  1.
       -3    1    3    3    0  502 -0.49267282964E+03  0.43436106762E+03 -0.13813695570E+04  0.15295678858E+04  0.10100000352E+00 0. -1.
</event>
<event>
 5   0  0.1268230E-06  0.3276263E+04  0.7818609E-02  0.8168962E-01
        2   -1    0    0  501    0  0.00000000000E+00  0.00000000000E+00  0.19625423546E+04  0.19625423546E+04  0.25500000920E-02 0. -1.
       -2   -1    0    0    0  501  0.00000000000E+00  0.00000000000E+00 -0.13673458534E+04  0.13673458534E+04  0.25500000920E-02 0.  1.
    10030    2    1    2    0    0  0.00000000000E+00  0.00000000000E+00  0.59519650121E+03  0.33298882080E+04  0.32762625967E+04 0.  0.
        2    1    3    3  502    0  0.44687509032E+02 -0.46045334341E+03  0.18947711720E+04  0.19504286834E+04  0.25500000920E-02 0. -1.
       -2    1    3    3    0  502 -0.44687509032E+02  0.46045334341E+03 -0.12995746708E+04  0.13794595246E+04  0.25500000920E-02 0.  1.
</event>
<event>
 5   0  0.1269497E-06  0.2905783E+04  0.7818609E-02  0.8271159E-01
        2   -1    0    0  501    0  0.00000000000E+00  0.00000000000E+00  0.16197499456E+04  0.16197499456E+04  0.25500000920E-02 0. -1.
       -2   -1    0    0    0  501  0.00000000000E+00  0.00000000000E+00 -0.13032221792E+04  0.13032221792E+04  0.25500000920E-02 0.  1.
    10030    2    1    2    0    0  0.00000000000E+00  0.00000000000E+00  0.31652776643E+03  0.29229721247E+04  0.29057832361E+04 0.  0.
        5    1    3    3  502    0 -0.42229854313E+03  0.57979458979E+03 -0.11126871000E+04  0.13238551652E+04  0.46999998093E+01 0.  1.
       -5    1    3    3    0  502  0.42229854313E+03 -0.57979458979E+03  0.14292148664E+04  0.15991169596E+04  0.46999998093E+01 0. -1.
</event>
<event>
 5   0  0.1256208E-06  0.3411251E+04  0.7818609E-02  0.8135150E-01
        2   -1    0    0  501    0  0.00000000000E+00  0.00000000000E+00  0.16322699741E+04  0.16322699741E+04  0.25500000920E-02 0.  1.
       -2   -1    0    0    0  501  0.00000000000E+00  0.00000000000E+00 -0.17822777418E+04  0.17822777418E+04  0.25500000920E-02 0. -1.
    10030    2    1    2    0    0  0.00000000000E+00  0.00000000000E+00 -0.15000776771E+03  0.34145477159E+04  0.34112510570E+04 0.  0.
        3    1    3    3  502    0  0.64841866679E+03 -0.14779515208E+04  0.47722753947E+03  0.16830132501E+04  0.10100000352E+00 0.  1.
       -3    1    3    3    0  502 -0.64841866679E+03  0.14779515208E+04 -0.62723530718E+03  0.17315344658E+04  0.10100000352E+00 0. -1.
</event>
<event>
 5   0  0.4125758E-07  0.3461946E+04  0.7818609E-02  0.8122868E-01
       -1   -1    0    0    0  501  0.00000000000E+00  0.00000000000E+00  0.12865963071E+04  0.12865963071E+04  0.50400001928E-02 0.  1.
        1   -1    0    0  501    0  0.00000000000E+00  0.00000000000E+00 -0.23288325800E+04  0.23288325800E+04  0.50400001928E-02 0. -1.
    10030    2    1    2    0    0  0.00000000000E+00  0.00000000000E+00 -0.10422362728E+04  0.36154288871E+04  0.34619459252E+04 0.  0.
        2    1    3    3  502    0 -0.14408363459E+04 -0.67363499351E+03  0.19215066171E+03  0.16020971746E+04  0.25500000920E-02 0.  1.
       -2    1    3    3    0  502  0.14408363459E+04  0.67363499351E+03 -0.12343869346E+04  0.20133317125E+04  0.25500000920E-02 0. -1.
</event>
<event>
 5   0  0.1256208E-06  0.3360641E+04  0.7818609E-02  0.8147634E-01
        2   -1    0    0  501    0  0.00000000000E+00  0.00000000000E+00  0.17383181568E+04  0.17383181568E+04  0.25500000920E-02 0.  1.
       -2   -1    0    0    0  501  0.00000000000E+00  0.00000000000E+00 -0.16242583694E+04  0.16242583694E+04  0.25500000920E-02 0. -1.
    10030    2    1    2    0    0  0.00000000000E+00  0.00000000000E+00  0.11405978742E+03  0.33625765262E+04  0.33606414952E+04 0.  0.
        3    1    3    3  502    0 -0.10066967226E+04  0.11081504005E+04  0.82038607986E+03  0.17071815755E+04  0.10100000352E+00 0.  1.
       -3    1    3    3    0  502  0.10066967226E+04 -0.11081504005E+04 -0.70632629244E+03  0.16553949507E+04  0.10100000352E+00 0. -1.
</event>
<event>
 5   0  0.4109937E-07  0.3442520E+04  0.7818609E-02  0.8127549E-01
       -1   -1    0    0    0  501  0.00000000000E+00  0.00000000000E+00  0.14648881144E+04  0.14648881144E+04  0.50400001928E-02 0.  1.
        1   -1    0    0  501    0  0.00000000000E+00  0.00000000000E+00 -0.20224995616E+04  0.20224995616E+04  0.50400001928E-02 0. -1.
    10030    2    1    2    0    0  0.00000000000E+00  0.00000000000E+00 -0.55761144719E+03  0.34873876760E+04  0.34425197569E+04 0.  0.
        5    1    3    3  502    0  0.16536797338E+04  0.23388161211E+03  0.14298156521E+03  0.16762526923E+04  0.46999998093E+01 0.  1.
       -5    1    3    3    0  502 -0.16536797338E+04 -0.23388161211E+03 -0.70059301240E+03  0.18111349838E+04  0.46999998093E+01 0. -1.
</event>
<event>
 5   0  0.4464951E-07  0.3417441E+04  0.7818609E-02  0.8133639E-01
        1   -1    0    0  501    0  0.00000000000E+00  0.00000000000E+00  0.16185595662E+04  0.16185595662E+04  0.50400001928E-02 0.  1.
       -1   -1    0    0    0  501  0.00000000000E+00  0.00000000000E+00 -0.18039039796E+04  0.18039039796E+04  0.50400001928E-02 0. -1.
    10030    2    1    2    0    0  0.00000000000E+00  0.00000000000E+00 -0.18534441336E+03  0.34224635458E+04  0.34174411730E+04 0.  0.
        3    1    3    3  502    0 -0.12221251336E+04 -0.72936053339E+03 -0.10396672064E+04  0.17625165362E+04  0.10100000352E+00 0. -1.
       -3    1    3    3    0  502  0.12221251336E+04  0.72936053339E+03  0.85432279306E+03  0.16599470097E+04  0.10100000352E+00 0.  1.
</event>
<event>
 5   0  0.4272633E-07  0.3363336E+04  0.7818609E-02  0.8146964E-01
       -1   -1    0    0    0  501  0.00000000000E+00  0.00000000000E+00  0.13832795522E+04  0.13832795522E+04  0.50400001928E-02 0. -1.
        1   -1    0    0  501    0  0.00000000000E+00  0.00000000000E+00 -0.20444215004E+04  0.20444215004E+04  0.50400001928E-02 0.  1.
    10030    2    1    2    0    0  0.00000000000E+00  0.00000000000E+00 -0.66114194820E+03  0.34277010527E+04  0.33633355216E+04 0.  0.
        1    1    3    3  502    0  0.13183754589E+04 -0.55537739140E+03  0.57034220782E+03  0.15400805601E+04  0.50400001928E-02 0. -1.
       -1    1    3    3    0  502 -0.13183754589E+04  0.55537739140E+03 -0.12314841560E+04  0.18876204926E+04  0.50400001928E-02 0.  1.
</event>
<event>
 5   0  0.1277635E-06  0.3411533E+04  0.7818609E-02  0.8135081E-01
       -2   -1    0    0    0  501  0.00000000000E+00  0.00000000000E+00  0.20324387711E+04  0.20324387711E+04  0.25500000920E-02 0.  1.
        2   -1    0    0  501    0  0.00000000000E+00  0.00000000000E+00 -0.14316003740E+04  0.14316003740E+04  0.25500000920E-02 0. -1.
    10030    2    1    2    0    0  0.00000000000E+00  0.00000000000E+00  0.60083839715E+03  0.34640391451E+04  0.34115334410E+04 0.  0.
        4    1    3    3  502    0 -0.22237550434E+02  0.11703210547E+04  0.15602782569E+04  0.19505424199E+04  0.12699999809E+01 0.  1.
       -4    1    3    3    0  502  0.22237550434E+02 -0.11703210547E+04 -0.95943985975E+03  0.15134967252E+04  0.12699999809E+01 0. -1.
</event>
<event>
 5   0  0.4289684E-07  0.3390103E+04  0.7818609E-02  0.8140340E-01
        1   -1    0    0  501    0  0.00000000000E+00  0.00000000000E+00  0.33149828524E+04  0.33149828524E+04  0.50400001928E-02 0. -1.
       -1   -1    0    0    0  501  0.00000000000E+00  0.00000000000E+00 -0.86673118112E+03  0.86673118114E+03  0.50400001928E-02 0.  1.
    10030    2    1    2    0    0  0.00000000000E+00  0.00000000000E+00  0.24482516713E+04  0.41817140335E+04  0.33901026551E+04 0.  0.
        4    1    3    3  502    0  0.16606606970E+02  0.21526914562E+03  0.32979512091E+04  0.33050114032E+04  0.12699999809E+01 0. -1.
       -4    1    3    3    0  502 -0.16606606970E+02 -0.21526914562E+03 -0.84969953788E+03  0.87670263033E+03  0.12699999809E+01 0.  1.
</event>
<event>
 5   0  0.1269497E-06  0.3306317E+04  0.7818609E-02  0.8161290E-01
       -2   -1    0    0    0  501  0.00000000000E+00  0.00000000000E+00  0.13808143700E+04  0.13808143700E+04  0.25500000920E-02 0.  1.
        2   -1    0    0  501    0  0.00000000000E+00  0.00000000000E+00 -0.19792188365E+04  0.19792188365E+04  0.25500000920E-02 0. -1.
    10030    2    1    2    0    0  0.00000000000E+00  0.00000000000E+00 -0.59840446654E+03  0.33600332065E+04  0.33063174747E+04 0.  0.
        5    1    3    3  502    0 -0.39026681208E+03 -0.13804456891E+04 -0.11341172901E+04  0.18287106394E+04  0.46999998093E+01 0. -1.
       -5    1    3    3    0  502  0.39026681208E+03  0.13804456891E+04  0.53571282351E+03  0.15313225671E+04  0.46999998093E+01 0.  1.
</event>
<event>
 5   0  0.4109937E-07  0.2933250E+04  0.7818609E-02  0.8263053E-01
        1   -1    0    0  501    0  0.00000000000E+00  0.00000000000E+00  0.25743395001E+04  0.25743395001E+04  0.50400001928E-02 0. -1.
       -1   -1    0    0    0  501  0.00000000000E+00  0.00000000000E+00 -0.83555005878E+03  0.83555005880E+03  0.50400001928E-02 0.  1.
    10030    2    1    2    0    0  0.00000000000E+00  0.00000000000E+00  0.17387894413E+04  0.34098895589E+04  0.29332504296E+04 0.  0.
        5    1    3    3  502    0  0.13288663038E+04 -0.58058037228E+03  0.61468300559E+03  0.15750607955E+04  0.46999998093E+01 0.  1.
       -5    1    3    3    0  502 -0.13288663038E+04  0.58058037228E+03  0.11241064357E+04  0.18348287634E+04  0.46999998093E+01 0. -1.
</event>
<event>
 5   0  0.1268230E-06  0.3385961E+04  0.7818609E-02  0.8141361E-01
       -2   -1    0    0    0  501  0.00000000000E+00  0.00000000000E+00  0.17675452727E+04  0.17675452727E+04  0.25500000920E-02 0.  1.
        2   -1    0    0  501    0  0.00000000000E+00  0.00000000000E+00 -0.16215610889E+04  0.16215610889E+04  0.25500000920E-02 0. -1.
    10030    2    1    2    0    0  0.00000000000E+00  0.00000000000E+00  0.14598418380E+03  0.33891063615E+04  0.33859608013E+04 0.  0.
        2    1    3    3  502    0 -0.12925426753E+04 -0.72330645451E+03  0.89371959763E+03  0.17299056372E+04  0.25500000920E-02 0.  1.
       -2    1    3    3    0  502  0.12925426753E+04  0.72330645451E+03 -0.74773541383E+03  0.16592007243E+04  0.25500000920E-02 0. -1.
</event>
<event>
 5   0  0.1277635E-06  0.3403361E+04  0.7818609E-02  0.8137082E-01
       -2   -1    0    0    0  501  0.00000000000E+00  0.00000000000E+00  0.15089460376E+04  0.15089460376E+04  0.25500000920E-02 0. -1.
        2   -1    0    0  501    0  0.00000000000E+00  0.00000000000E+00 -0.19190327963E+04  0.19190327963E+04  0.25500000920E-02 0.  1.
    10030    2    1    2    0    0  0.00000000000E+00  0.00000000000E+00 -0.41008675869E+03  0.34279788340E+04  0.34033612410E+04 0.  0.
        4    1    3    3  502    0 -0.12552855103E+04  0.18178033606E+03 -0.13476782255E+04  0.18506820406E+04  0.12699999809E+01 0.  1.
       -4    1    3    3    0  502  0.12552855103E+04 -0.18178033606E+03  0.93759146678E+03  0.15772967934E+04  0.12699999809E+01 0. -1.
</event>
<event>
 5   0  0.1268230E-06  0.3289449E+04  0.7818609E-02  0.8165585E-01
       -2   -1    0    0    0  501  0.00000000000E+00  0.00000000000E+00  0.19020139370E+04  0.19020139370E+04  0.25500000920E-02 0. -1.
        2   -1    0    0  501    0  0.00000000000E+00  0.00000000000E+00 -0.14222389522E+04  0.14222389522E+04  0.25500000920E-02 0.  1.
    10030    2    1    2    0    0  0.00000000000E+00  0.00000000000E+00  0.47977498481E+03  0.33242528891E+04  0.32894487737E+04 0.  0.
        2    1    3    3  502    0 -0.12231375020E+04  0.10903802100E+04  0.38324737023E+03  0.16828169532E+04  0.25500000920E-02 0. -1.
       -2    1    3    3    0  502  0.12231375020E+04 -0.10903802100E+04  0.96527614586E+02  0.16414359359E+04  0.25500000920E-02 0.  1.
</event>
<event>
 5   0  0.4289684E-07  0.2931416E+04  0.7818609E-02  0.8263591E-01
        1   -1    0    0  501    0  0.00000000000E+00  0.00000000000E+00  0.24538119422E+04  0.24538119422E+04  0.50400001928E-02 0.  1.
       -1   -1    0    0    0  501  0.00000000000E+00  0.00000000000E+00 -0.87549488439E+03  0.87549488440E+03  0.50400001928E-02 0. -1.
    10030    2    1    2    0    0  0.00000000000E+00  0.00000000000E+00  0.15783170578E+04  0.33293068266E+04  0.29314159055E+04 0.  0.
        4    1    3    3  502    0  0.68569770066E+00 -0.14586415292E+04  0.95241445685E+03  0.17420477868E+04  0.12699999809E+01 0.  1.
       -4    1    3    3    0  502 -0.68569770066E+00  0.14586415292E+04  0.62590260099E+03  0.15872590399E+04  0.12699999809E+01 0. -1.
</event>
<event>
 5   0  0.1269497E-06  0.3410130E+04  0.7818609E-02  0.8135425E-01
        2   -1    0    0  501    0  0.00000000000E+00  0.00000000000E+00  0.89980053435E+03  0.89980053435E+03  0.25500000920E-02 0. -1.
       -2   -1    0    0    0  501  0.00000000000E+00  0.00000000000E+00 -0.32309903492E+04  0.32309903492E+04  0.25500000920E-02 0.  1.
    10030    2    1    2    0    0  0.00000000000E+00  0.00000000000E+00 -0.23311898149E+04  0.41307908836E+04  0.34101301105E+04 0.  0.
        5    1    3    3  502    0 -0.70401073982E+03  0.82863532231E+03 -0.27565261624E+04  0.29632290147E+04  0.46999998093E+01 0.  1.
       -5    1    3    3    0  502  0.70401073982E+03 -0.82863532231E+03  0.42533634757E+03  0.11675618689E+04  0.46999998093E+01 0. -1.
</event>
<event>
 5   0  0.4125758E-07  0.3471148E+04  0.7818609E-02  0.8120662E-01
       -1   -1    0    0    0  501  0.00000000000E+00  0.00000000000E+00  0.10864517379E+04  0.10864517379E+04  0.50400001928E-02 0. -1.
        1   -1    0    0  501    0  0.00000000000E+00  0.00000000000E+00 -0.27725275340E+04  0.27725275341E+04  0.50400001928E-02 0.  1.
    10030    2    1    2    0    0  0.00000000000E+00  0.00000000000E+00 -0.16860757962E+04  0.38589792719E+04  0.34711481430E+04 0.  0.
        2    1    3    3  502    0  0.13182064979E+03  0.25576202761E+03 -0.27458267430E+04  0.27608613513E+04  0.25500000920E-02 0.  1.
       -2    1    3    3    0  502 -0.13182064979E+03 -0.25576202761E+03  0.10597509468E+04  0.10981179207E+04  0.25500000920E-02 0. -1.
</event>
<event>
 5   0  0.4272633E-07  0.3352538E+04  0.7818609E-02  0.8149654E-01
        1   -1    0    0  501    0  0.00000000000E+00  0.00000000000E+00  0.25666543295E+04  0.25666543295E+04  0.50400001928E-02 0. -1.
       -1   -1    0    0    0  501  0.00000000000E+00  0.00000000000E+00 -0.10947625545E+04  0.10947625545E+04  0.50400001928E-02 0.  1.
    10030    2    1    2    0    0  0.00000000000E+00  0.00000000000E+00  0.14718917750E+04  0.36614168840E+04  0.33525375764E+04 0.  0.
        1    1    3    3  502    0  0.10267284548E+04 -0.10311324795E+04 -0.17287121270E+03  0.14653634247E+04  0.50400001928E-02 0.  1.
       -1    1    3    3    0  502 -0.10267284548E+04  0.10311324795E+04  0.16447629877E+04  0.21960534593E+04  0.50400001928E-02 0. -1.
</event>
<event>
 5   0  0.4109937E-07  0.3399760E+04  0.7818609E-02  0.8137965E-01
        1   -1    0    0  501    0  0.00000000000E+00  0.00000000000E+00  0.19046625553E+04  0.19046625553E+04  0.50400001928E-02 0.  1.
       -1   -1    0    0    0  501  0.00000000000E+00  0.00000000000E+00 -0.15171152457E+04  0.15171152457E+04  0.50400001928E-02 0. -1.
    10030    2    1    2    0    0  0.00000000000E+00  0.00000000000E+00  0.38754730961E+03  0.34217778009E+04  0.33997603448E+04 0.  0.
        5    1    3    3  502    0  0.16784647674E+04 -0.19405122694E+03  0.63672052352E+01  0.16896634237E+04  0.46999998093E+01 0. -1.
       -5    1    3    3    0  502 -0.16784647674E+04  0.19405122694E+03  0.38118010437E+03  0.17321143773E+04  0.46999998093E+01 0.  1.
</event>
<event>
 5   0  0.4289684E-07  0.3401970E+04  0.7818609E-02  0.8137423E-01
       -1   -1    0    0    0  501  0.00000000000E+00  0.00000000000E+00  0.10133247900E+04  0.10133247900E+04  0.50400001928E-02 0. -1.
        1   -1    0    0  501    0  0.00000000000E+00  0.00000000000E+00 -0.28553043329E+04  0.28553043329E+04  0.50400001928E-02 0.  1.
    10030    2    1    2    0    0  0.00000000000E+00  0.00000000000E+00 -0.18419795429E+04  0.38686291229E+04  0.34019704076E+04 0.  0.
        4    1    3    3  502    0  0.86975580498E+03  0.11577268821E+04  0.93928339988E+02  0.14510791983E+04  0.12699999809E+01 0. -1.
       -4    1    3    3    0  502 -0.86975580498E+03 -0.11577268821E+04 -0.19359078829E+04  0.24175499246E+04  0.12699999809E+01 0.  1.
</event>
<event>
 5   0  0.1300176E-06  0.3411199E+04  0.7818609E-02  0.8135163E-01
       -2   -1    0    0    0  501  0.00000000000E+00  0.00000000000E+00  0.11665686314E+04  0.11665686314E+04  0.25500000920E-02 0. -1.
        2   -1    0    0  501    0  0.00000000000E+00  0.00000000000E+00 -0.24936978694E+04  0.24936978694E+04  0.25500000920E-02 0.  1.
    10030    2    1    2    0    0  0.00000000000E+00  0.00000000000E+00 -0.13271292380E+04  0.36602665008E+04  0.34111990329E+04 0.  0.
        1    1    3    3  502    0 -0.72829095882E+03  0.15398981185E+04 -0.75571761570E+03  0.18635458274E+04  0.50400001928E-02 0.  1.
       -1    1    3    3    0  502  0.72829095882E+03 -0.15398981185E+04 -0.57141162226E+03  0.17967206734E+04  0.50400001928E-02 0. -1.
</event>
<event>
 5   0  0.4272633E-07  0.3401271E+04  0.7818609E-02  0.8137594E-01
       -1   -1    0    0    0  501  0.00000000000E+00  0.00000000000E+00  0.18546587432E+04  0.18546587432E+04  0.50400001928E-02 0.  1.
        1   -1    0    0  501    0  0.00000000000E+00  0.00000000000E+00 -0.15594035873E+04  0.15594035873E+04  0.50400001928E-02 0. -1.
    10030    2    1    2    0    0  0.00000000000E+00  0.00000000000E+00  0.29525515588E+03  0.34140623305E+04  0.34012712314E+04 0.  0.
        1    1    3    3  502    0  0.36855497454E+03 -0.11847566928E+04 -0.10197941274E+04  0.16060701270E+04  0.50400001928E-02 0. -1.
       -1    1    3    3    0  502 -0.36855497454E+03  0.11847566928E+04  0.13150492833E+04  0.18079922035E+04  0.50400001928E-02 0.  1.
</event>
<event>
 5   0  0.1256208E-06  0.3526906E+04  0.7818609E-02  0.8107443E-01
        2   -1    0    0  501    0  0.00000000000E+00  0.00000000000E+00  0.21787508115E+04  0.21787508115E+04  0.25500000920E-02 0. -1.
       -2   -1    0    0    0  501  0.00000000000E+00  0.00000000000E+00 -0.14273159562E+04  0.14273159562E+04  0.25500000920E-02 0.  1.
    10030    2    1    2    0    0  0.00000000000E+00  0.00000000000E+00  0.75143485534E+03  0.36060667677E+04  0.35269056114E+04 0.  0.
        3    1    3    3  502    0 -0.16561321290E+04 -0.24200790633E+03  0.94354207929E+03  0.19213571040E+04  0.10100000352E+00 0. -1.
       -3    1    3    3    0  502  0.16561321290E+04  0.24200790633E+03 -0.19210722395E+03  0.16847096637E+04  0.10100000352E+00 0.  1.
</event>
<event>
 5   0  0.1300176E-06  0.3397401E+04  0.7818609E-02  0.8138544E-01
       -2   -1    0    0    0  501  0.00000000000E+00  0.00000000000E+00  0.15739162312E+04  0.15739162312E+04  0.25500000920E-02 0.  1.
        2   -1    0    0  501    0  0.00000000000E+00  0.00000000000E+00 -0.18333783055E+04  0.18333783055E+04  0.25500000920E-02 0. -1.
    10030    2    1    2    0    0  0.00000000000E+00  0.00000000000E+00 -0.25946207427E+03  0.34072945367E+04  0.33974012851E+04 0.  0.
        1    1    3    3  502    0 -0.30912864732E+03 -0.40434919074E+03  0.14956440790E+04  0.15798765774E+04  0.50400001928E-02 0.  1.
       -1    1    3    3    0  502  0.30912864732E+03  0.40434919074E+03 -0.17551061533E+04  0.18274179593E+04  0.50400001928E-02 0. -1.
</event>
<event>
 5   0  0.1300176E-06  0.3407859E+04  0.7818609E-02  0.8135980E-01
        2   -1    0    0  501    0  0.00000000000E+00  0.00000000000E+00  0.18379318464E+04  0.18379318464E+04  0.25500000920E-02 0. -1.
       -2   -1    0    0    0  501  0.00000000000E+00  0.00000000000E+00 -0.15796975733E+04  0.15796975733E+04  0.25500000920E-02 0.  1.
    10030    2    1    2    0    0  0.00000000000E+00  0.00000000000E+00  0.25823427312E+03  0.34176294197E+04  0.34078594324E+04 0.  0.
        1    1    3    3  502    0 -0.45813616350E+03 -0.64145856665E+03 -0.13858488792E+04  0.15943446782E+04  0.50400001928E-02 0.  1.
       -1    1    3    3    0  502  0.45813616350E+03  0.64145856665E+03  0.16440831523E+04  0.18232847415E+04  0.50400001928E-02 0. -1.
</event>
<event>
 5   0  0.1269497E-06  0.3354301E+04  0.7818609E-02  0.8149214E-01
       -2   -1    0    0    0  501  0.00000000000E+00  0.00000000000E+00  0.17233610439E+04  0.17233610439E+04  0.25500000920E-02 0. -1.
        2   -1    0    0  501    0  0.00000000000E+00  0.00000000000E+00 -0.16321786107E+04  0.16321786107E+04  0.25500000920E-02 0.  1.
    10030    2    1    2    0    0  0.00000000000E+00  0.00000000000E+00  0.91182433233E+02  0.33555396546E+04  0.33543005437E+04 0.  0.
        5    1    3    3  502    0 -0.13656601142E+04 -0.56321245519E+03 -0.74878973367E+03  0.16561835564E+04  0.46999998093E+01 0.  1.
       -5    1    3    3    0  502  0.13656601142E+04  0.56321245519E+03  0.83997216691E+03  0.16993560982E+04  0.46999998093E+01 0. -1.
</event>
<event>
 5   0  0.4109937E-07  0.3416599E+04  0.7818609E-02  0.8133844E-01
        1   -1    0    0  501    0  0.00000000000E+00  0.00000000000E+00  0.29330363676E+04  0.29330363676E+04  0.50400001928E-02 0.  1.
       -1   -1    0    0    0  501  0.00000000000E+00  0.00000000000E+00 -0.99497115350E+03  0.99497115352E+03  0.50400001928E-02 0. -1.
    10030    2    1    2    0    0  0.00000000000E+00  0.00000000000E+00  0.19380652141E+04  0.39280075211E+04  0.34165986466E+04 0.  0.
        5    1    3    3  502    0 -0.12531415727E+04  0.79666236380E+03  0.19399741330E+04  0.24430629238E+04  0.46999998093E+01 0.  1.
       -5    1    3    3    0  502  0.12531415727E+04 -0.79666236380E+03 -0.19089189169E+01  0.14849445973E+04  0.46999998093E+01 0. -1.
</event>
<event>
 5   0  0.1256208E-06  0.3384175E+04  0.7818609E-02  0.8141801E-01
       -2   -1    0    0    0  501  0.00000000000E+00  0.00000000000E+00  0.25938785276E+04  0.25938785276E+04  0.25500000920E-02 0. -1.
        2   -1    0    0  501    0  0.00000000000E+00  0.00000000000E+00 -0.11038142460E+04  0.11038142460E+04  0.25500000920E-02 0.  1.
    10030    2    1    2    0    0  0.00000000000E+00  0.00000000000E+00  0.14900642816E+04  0.36976927736E+04  0.33841749785E+04 0.  0.
        3    1    3    3  502    0  0.23312773781E+03 -0.16750855410E+04  0.80387221362E+03  0.18725572509E+04  0.10100000352E+00 0. -1.
       -3    1    3    3    0  502 -0.23312773781E+03  0.16750855410E+04  0.68619206803E+03  0.18251355227E+04  0.10100000352E+00 0.  1.
</event>
<event>
 5   0  0.4125758E-07  0.3184930E+04  0.7818609E-02  0.8192809E-01
        1   -1    0    0  501    0  0.00000000000E+00  0.00000000000E+00  0.19642561275E+04  0.19642561275E+04  0.50400001928E-02 0.  1.
       -1   -1    0    0    0  501  0.00000000000E+00  0.00000000000E+00 -0.12910458260E+04  0.12910458260E+04  0.50400001928E-02 0. -1.
    10030    2    1    2    0    0  0.00000000000E+00  0.00000000000E+00  0.67321030150E+03  0.32553019535E+04  0.31849299362E+04 0.  0.
        2    1    3    3  502    0  0.15131928589E+04  0.12735380528E+03  0.82675612801E+03  0.17290162854E+04  0.25500000920E-02 0.  1.
       -2    1    3    3    0  502 -0.15131928589E+04 -0.12735380528E+03 -0.15354582651E+03  0.15262856681E+04  0.25500000920E-02 0. -1.
</event>
<event>
 5   0  0.4272633E-07  0.3348845E+04  0.7818609E-02  0.8150577E-01
        1   -1    0    0  501    0  0.00000000000E+00  0.00000000000E+00  0.19584769813E+04  0.19584769813E+04  0.50400001928E-02 0.  1.
       -1   -1    0    0    0  501  0.00000000000E+00  0.00000000000E+00 -0.14315667913E+04  0.14315667914E+04  0.50400001928E-02 0. -1.
    10030    2    1    2    0    0  0.00000000000E+00  0.00000000000E+00  0.52691018997E+03  0.33900437727E+04  0.33488449400E+04 0.  0.
        1    1    3    3  502    0  0.14309208517E+04 -0.35814976083E+03 -0.53868509572E+03  0.15703462572E+04  0.50400001928E-02 0.  1.
       -1    1    3    3    0  502 -0.14309208517E+04  0.35814976083E+03  0.10655952857E+04  0.18196975155E+04  0.50400001928E-02 0. -1.
</event>
<event>
 5   0  0.4464951E-07  0.3383139E+04  0.7818609E-02  0.8142057E-01
        1   -1    0    0  501    0  0.00000000000E+00  0.00000000000E+00  0.24811266772E+04  0.24811266772E+04  0.50400001928E-02 0. -1.
       -1   -1    0    0    0  501  0.00000000000E+00  0.00000000000E+00 -0.11532696803E+04  0.11532696803E+04  0.50400001928E-02 0.  1.
    10030    2    1    2    0    0  0.00000000000E+00  0.00000000000E+00  0.13278569969E+04  0.36343963575E+04  0.33831394709E+04 0.  0.
        3    1    3    3  502    0  0.14193835707E+04  0.80533062768E+03  0.11421898953E+04  0.19919349658E+04  0.10100000352E+00 0. -1.
       -3    1    3    3    0  502 -0.14193835707E+04 -0.80533062768E+03  0.18566710156E+03  0.16424613918E+04  0.10100000352E+00 0.  1.
</event>
<event>
 5   0  0.4464951E-07  0.3399528E+04  0.7818609E-02  0.8138022E-01
       -1   -1    0    0    0  501  0.00000000000E+00  0.00000000000E+00  0.17818518689E+04  0.17818518689E+04  0.50400001928E-02 0.  1.
        1   -1    0    0  501    0  0.00000000000E+00  0.00000000000E+00 -0.16214582372E+04  0.16214582372E+04  0.50400001928E-02 0. -1.
    10030    2    1    2    0    0  0.00000000000E+00  0.00000000000E+00  0.16039363177E+03  0.34033101061E+04  0.33995284322E+04 0.  0.
        3    1    3    3  502    0 -0.10400351364E+04 -0.13152342178E+04  0.35922580596E+03  0.17148053308E+04  0.10100000352E+00 0.  1.
       -3    1    3    3    0  502  0.10400351364E+04  0.13152342178E+04 -0.19883217419E+03  0.16885047753E+04  0.10100000352E+00 0. -1.
</event>
<event>
 5   0  0.1268230E-06  0.3331915E+04  0.7818609E-02  0.8154822E-01
       -2   -1    0    0    0  501  0.00000000000E+00  0.00000000000E+00  0.19701486520E+04  0.19701486520E+04  0.25500000920E-02 0.  1.
        2   -1    0    0  501    0  0.00000000000E+00  0.00000000000E+00 -0.14087332009E+04  0.14087332009E+04  0.25500000920E-02 0. -1.
    10030    2    1    2    0    0  0.00000000000E+00  0.00000000000E+00  0.56141545110E+03  0.33788818530E+04  0.33319146549E+04 0.  0.
        2    1    3    3  502    0  0.30618047778E+03 -0.11186144399E+04 -0.93213138270E+03  0.14879226004E+04  0.25500000920E-02 0. -1.
       -2    1    3    3    0  502 -0.30618047778E+03  0.11186144399E+04  0.14935468338E+04  0.18909592526E+04  0.25500000920E-02 0.  1.
</event>
<event>
 5   0  0.4109937E-07  0.3575883E+04  0.7818609E-02  0.8096038E-01
        1   -1    0    0  501    0  0.00000000000E+00  0.00000000000E+00  0.30242214151E+04  0.30242214151E+04  0.50400001928E-02 0.  1.
       -1   -1    0    0    0  501  0.00000000000E+00  0.00000000000E+00 -0.10570439907E+04  0.10570439907E+04  0.50400001928E-02 0. -1.
    10030    2    1    2    0    0  0.00000000000E+00  0.00000000000E+00  0.19671774244E+04  0.40812654058E+04  0.35758831488E+04 0.  0.
        5    1    3    3  502    0  0.11262193802E+04 -0.13467113788E+04  0.13701467614E+04  0.22269543929E+04  0.46999998093E+01 0.  1.
       -5    1    3    3    0  502 -0.11262193802E+04  0.13467113788E+04  0.59703066294E+03  0.18543110129E+04  0.46999998093E+01 0. -1.
</event>
<event>
 5   0  0.1269497E-06  0.3447170E+04  0.7818609E-02  0.8126425E-01
       -2   -1    0    0    0  501  0.00000000000E+00  0.00000000000E+00  0.11915454171E+04  0.11915454171E+04  0.25500000920E-02 0. -1.
        2   -1    0    0  501    0  0.00000000000E+00  0.00000000000E+00 -0.24931866878E+04  0.24931866878E+04  0.25500000920E-02 0.  1.
    10030    2    1    2    0    0  0.00000000000E+00  0.00000000000E+00 -0.13016412708E+04  0.36847321049E+04  0.34471699533E+04 0.  0.
        5    1    3    3  502    0 -0.14805261385E+04 -0.88183602744E+03 -0.68676314473E+03  0.18550628381E+04  0.46999998093E+01 0.  1.
       -5    1    3    3    0  502  0.14805261385E+04  0.88183602744E+03 -0.61487812605E+03  0.18296692669E+04  0.46999998093E+01 0. -1.
</event>
<event>
 5   0  0.4125758E-07  0.3389695E+04  0.7818609E-02  0.8140440E-01
        1   -1    0    0  501    0  0.00000000000E+00  0.00000000000E+00  0.24387132600E+04  0.24387132600E+04  0.50400001928E-02 0.  1.
       -1   -1    0    0    0  501  0.00000000000E+00  0.00000000000E+00 -0.11778783550E+04  0.11778783550E+04  0.50400001928E-02 0. -1.
    10030    2    1    2    0    0  0.00000000000E+00  0.00000000000E+00  0.12608349050E+04  0.36165916150E+04  0.33896947136E+04 0.  0.
        2    1    3    3  502    0  0.14408711564E+04 -0.31022187802E+03  0.15231833935E+04  0.21195364949E+04  0.25500000920E-02 0.  1.
       -2    1    3    3    0  502 -0.14408711564E+04  0.31022187802E+03 -0.26234848852E+03  0.14970551200E+04  0.25500000920E-02 0. -1.
</event>
<event>
 5   0  0.4125758E-07  0.3405255E+04  0.7818609E-02  0.8136618E-01
       -1   -1    0    0    0  501  0.00000000000E+00  0.00000000000E+00  0.10460244917E+04  0.10460244917E+04  0.50400001928E-02 0. -1.
        1   -1    0    0  501    0  0.00000000000E+00  0.00000000000E+00 -0.27713885385E+04  0.27713885385E+04  0.50400001928E-02 0.  1.
    10030    2    1    2    0    0  0.00000000000E+00  0.00000000000E+00 -0.17253640468E+04  0.38174130302E+04  0.34052549316E+04 0.  0.
        2    1    3    3  502    0 -0.15023849540E+04  0.71649432767E+03 -0.46095741108E+03  0.17271382129E+04  0.25500000920E-02 0. -1.
       -2    1    3    3    0  502  0.15023849540E+04 -0.71649432767E+03 -0.12644066357E+04  0.20902748173E+04  0.25500000920E-02 0.  1.
</event>
<event>
 5   0  0.4272633E-07  0.3499949E+04  0.7818609E-02  0.8113802E-01
        1   -1    0    0  501    0  0.00000000000E+00  0.00000000000E+00  0.21538016275E+04  0.21538016275E+04  0.50400001928E-02 0. -1.
       -1   -1    0    0    0  501  0.00000000000E+00  0.00000000000E+00 -0.14218632240E+04  0.14218632240E+04  0.50400001928E-02 0.  1.
    10030    2    1    2    0    0  0.00000000000E+00  0.00000000000E+00  0.73193840349E+03  0.35756648515E+04  0.34999493287E+04 0.  0.
        1    1    3    3  502    0 -0.42603217261E+03 -0.15909160571E+04 -0.23834570113E+03  0.16641291975E+04  0.50400001928E-02 0. -1.
       -1    1    3    3    0  502  0.42603217261E+03  0.15909160571E+04  0.97028410462E+03  0.19115356540E+04  0.50400001928E-02 0.  1.
</event>
<event>
 5   0  0.4125758E-07  0.3379712E+04  0.7818609E-02  0.8142904E-01
        1   -1    0    0  501    0  0.00000000000E+00  0.00000000000E+00  0.17305944380E+04  0.17305944380E+04  0.50400001928E-02 0. -1.
       -1   -1    0    0    0  501  0.00000000000E+00  0.00000000000E+00 -0.16500765313E+04  0.16500765313E+04  0.50400001928E-02 0.  1.
    10030    2    1    2    0    0  0.00000000000E+00  0.00000000000E+00  0.80517906687E+02  0.33806709693E+04  0.33797119802E+04 0.  0.
        2    1    3    3  502    0  0.14806770877E+03  0.16815368573E+04 -0.38012967752E+02  0.16884712715E+04  0.25500000920E-02 0.  1.
       -2    1    3    3    0  502 -0.14806770877E+03 -0.16815368573E+04  0.11853087444E+03  0.16921996978E+04  0.25500000920E-02 0. -1.
</event>
<event>
 5   0  0.1300176E-06  0.3381298E+04  0.7818609E-02  0.8142512E-01
       -2   -1    0    0    0  501  0.00000000000E+00  0.00000000000E+00  0.18434471142E+04  0.18434471142E+04  0.25500000920E-02 0.  1.
        2   -1    0    0  501    0  0.00000000000E+00  0.00000000000E+00 -0.15505160917E+04  0.15505160917E+04  0.25500000920E-02 0. -1.
    10030    2    1    2    0    0  0.00000000000E+00  0.00000000000E+00  0.29293102242E+03  0.33939632059E+04  0.33812982210E+04 0.  0.
        1    1    3    3  502    0  0.12897197845E+04 -0.83889601307E+03 -0.55699530453E+03  0.16362663024E+04  0.50400001928E-02 0. -1.
       -1    1    3    3    0  502 -0.12897197845E+04  0.83889601307E+03  0.84992632694E+03  0.17576969035E+04  0.50400001928E-02 0.  1.
</event>
<event>
 5   0  0.1300176E-06  0.3402262E+04  0.7818609E-02  0.8137351E-01
       -2   -1    0    0    0  501  0.00000000000E+00  0.00000000000E+00  0.17844031925E+04  0.17844031925E+04  0.25500000920E-02 0.  1.
        2   -1    0    0  501    0  0.00000000000E+00  0.00000000000E+00 -0.16217451764E+04  0.16217451764E+04  0.25500000920E-02 0. -1.
    10030    2    1    2    0    0  0.00000000000E+00  0.00000000000E+00  0.16265801608E+03  0.34061483689E+04  0.34022623475E+04 0.  0.
        1    1    3    3  502    0  0.13478589037E+04 -0.29359664982E+03  0.10779179851E+04  0.17506655306E+04  0.50400001928E-02 0.  1.
       -1    1    3    3    0  502 -0.13478589037E+04  0.29359664982E+03 -0.91525996904E+03  0.16554828384E+04  0.50400001928E-02 0. -1.
</event>
<event>
 5   0  0.4289684E-07  0.3351882E+04  0.7818609E-02  0.8149818E-01
        1   -1    0    0  501    0  0.00000000000E+00  0.00000000000E+00  0.21434567515E+04  0.21434567515E+04  0.50400001928E-02 0. -1.
       -1   -1    0    0    0  501  0.00000000000E+00  0.00000000000E+00 -0.13103967944E+04  0.13103967945E+04  0.50400001928E-02 0.  1.
    10030    2    1    2    0    0  0.00000000000E+00  0.00000000000E+00  0.83305995701E+03  0.34538535459E+04  0.33518823703E+04 0.  0.
        4    1    3    3  502    0 -0.18923119597E+03 -0.11885618949E+04 -0.78526617318E+03  0.14370568531E+04  0.12699999809E+01 0.  1.
       -4    1    3    3    0  502  0.18923119597E+03  0.11885618949E+04  0.16183261302E+04  0.20167966928E+04  0.12699999809E+01 0. -1.
</event>
<event>
 5   0  0.1269497E-06  0.3389611E+04  0.7818609E-02  0.8140461E-01
       -2   -1    0    0    0  501  0.00000000000E+00  0.00000000000E+00  0.11277886795E+04  0.11277886795E+04  0.25500000920E-02 0. -1.
        2   -1    0    0  501    0  0.00000000000E+00  0.00000000000E+00 -0.25469000044E+04  0.25469000044E+04  0.25500000920E-02 0.  1.
    10030    2    1    2    0    0  0.00000000000E+00  0.00000000000E+00 -0.14191113249E+04  0.36746886839E+04  0.33896105929E+04 0.  0.
        5    1    3    3  502    0  0.16374822395E+03  0.52618810232E+02 -0.25374070968E+04  0.25432339816E+04  0.46999998093E+01 0.  1.
       -5    1    3    3    0  502 -0.16374822395E+03 -0.52618810232E+02  0.11182957719E+04  0.11314547024E+04  0.46999998093E+01 0. -1.
</event>
<event>
 5   0  0.4109937E-07  0.3433491E+04  0.7818609E-02  0.8129735E-01
       -1   -1    0    0    0  501  0.00000000000E+00  0.00000000000E+00  0.20940588135E+04  0.20940588135E+04  0.50400001928E-02 0.  1.
        1   -1    0    0  501    0  0.00000000000E+00  0.00000000000E+00 -0.14074173595E+04  0.14074173596E+04  0.50400001928E-02 0. -1.
    10030    2    1    2    0    0  0.00000000000E+00  0.00000000000E+00  0.68664145392E+03  0.35014761730E+04  0.34334907753E+04 0.  0.
        5    1    3    3  502    0  0.16351243189E+04  0.22374070625E+03 -0.13879934691E+03  0.16561940679E+04  0.46999998093E+01 0.  1.
       -5    1    3    3    0  502 -0.16351243189E+04 -0.22374070625E+03  0.82544080083E+03  0.18452821051E+04  0.46999998093E+01 0. -1.
</event>
<event>
 5   0  0.4125758E-07  0.3420592E+04  0.7818609E-02  0.8132871E-01
        1   -1    0    0  501    0  0.00000000000E+00  0.00000000000E+00  0.24866154440E+04  0.24866154440E+04  0.50400001928E-02 0. -1.
       -1   -1    0    0    0  501  0.00000000000E+00  0.00000000000E+00 -0.11763429147E+04  0.11763429147E+04  0.50400001928E-02 0.  1.
    10030    2    1    2    0    0  0.00000000000E+00  0.00000000000E+00  0.13102725293E+04  0.36629583588E+04  0.34205920302E+04 0.  0.
        2    1    3    3  502    0  0.13833187363E+04  0.97322614577E+03  0.92683100754E+03  0.19286667865E+04  0.25500000920E-02 0. -1.
       -2    1    3    3    0  502 -0.13833187363E+04 -0.97322614577E+03  0.38344152178E+03  0.17342915722E+04  0.25500000920E-02 0.  1.
</event>
<event>
 5   0  0.1269497E-06  0.3425129E+04  0.7818609E-02  0.8131766E-01
        2   -1    0    0  501    0  0.00000000000E+00  0.00000000000E+00  0.17296067401E+04  0.17296067401E+04  0.25500000920E-02 0.  1.
       -2   -1    0    0    0  501  0.00000000000E+00  0.00000000000E+00 -0.16956899081E+04  0.16956899081E+04  0.25500000920E-02 0. -1.
    10030    2    1    2    0    0  0.00000000000E+00  0.00000000000E+00  0.33916831941E+02  0.34252966482E+04  0.34251287241E+04 0.  0.
        5    1    3    3  502    0 -0.72957876230E+03  0.14225647306E+04 -0.59697641479E+03  0.17065692230E+04  0.46999998093E+01 0.  1.
       -5    1    3    3    0  502  0.72957876230E+03 -0.14225647306E+04  0.63089324673E+03  0.17187274251E+04  0.46999998093E+01 0. -1.
</event>
<event>
 5   0  0.1300176E-06  0.3387142E+04  0.7818609E-02  0.8141069E-01
        2   -1    0    0  501    0  0.00000000000E+00  0.00000000000E+00  0.17380562961E+04  0.17380562961E+04  0.25500000920E-02 0. -1.
       -2   -1    0    0    0  501  0.00000000000E+00  0.00000000000E+00 -0.16502241540E+04  0.16502241540E+04  0.25500000920E-02 0.  1.
    10030    2    1    2    0    0  0.00000000000E+00  0.00000000000E+00  0.87832142006E+02  0.33882804501E+04  0.33871418517E+04 0.  0.
        1    1    3    3  502    0 -0.10130240981E+04 -0.49148852792E+03 -0.12215798108E+04  0.16613356164E+04  0.50400001928E-02 0.  1.
       -1    1    3    3    0  502  0.10130240981E+04  0.49148852792E+03  0.13094119528E+04  0.17269448337E+04  0.50400001928E-02 0. -1.
</event>
<event>
 5   0  0.4125758E-07  0.3361305E+04  0.7818609E-02  0.8147469E-01
        1   -1    0    0  501    0  0.00000000000E+00  0.00000000000E+00  0.22193726216E+04  0.22193726216E+04  0.50400001928E-02 0. -1.
       -1   -1    0    0    0  501  0.00000000000E+00  0.00000000000E+00 -0.12726990743E+04  0.12726990743E+04  0.50400001928E-02 0.  1.
    10030    2    1    2    0    0  0.00000000000E+00  0.00000000000E+00  0.94667354728E+03  0.34920716960E+04  0.33613053900E+04 0.  0.
        2    1    3    3  502    0  0.10901864356E+04  0.58499557273E+03  0.16550715900E+04  0.20663949895E+04  0.25500000920E-02 0. -1.
       -2    1    3    3    0  502 -0.10901864356E+04 -0.58499557273E+03 -0.70839804270E+03  0.14256767065E+04  0.25500000920E-02 0.  1.
</event>
<event>
 5   0  0.4060750E-07  0.3361037E+04  0.7818609E-02  0.8147536E-01
        3   -1    0    0  501    0  0.00000000000E+00  0.00000000000E+00  0.15675914823E+04  0.15675914856E+04  0.10100000352E+00 0.  1.
       -3   -1    0    0    0  501  0.00000000000E+00  0.00000000000E+00 -0.18015804782E+04  0.18015804810E+04  0.10100000352E+00 0. -1.
    10030    2    1    2    0    0  0.00000000000E+00  0.00000000000E+00 -0.23398899587E+03  0.33691719665E+04  0.33610368772E+04 0.  0.
        4    1    3    3  502    0  0.15825137151E+04 -0.36910226556E+03  0.31247505668E+03  0.16547593224E+04  0.12699999809E+01 0.  1.
       -4    1    3    3    0  502 -0.15825137151E+04  0.36910226556E+03 -0.54646405255E+03  0.17144126442E+04  0.12699999809E+01 0. -1.
</event>
<event>
 5   0  0.4109937E-07  0.3362765E+04  0.7818609E-02  0.8147106E-01
        1   -1    0    0  501    0  0.00000000000E+00  0.00000000000E+00  0.17402062429E+04  0.17402062429E+04  0.50400001928E-02 0.  1.
       -1   -1    0    0    0  501  0.00000000000E+00  0.00000000000E+00 -0.16245469172E+04  0.16245469172E+04  0.50400001928E-02 0. -1.
    10030    2    1    2    0    0  0.00000000000E+00  0.00000000000E+00  0.11565932574E+03  0.33647531601E+04  0.33627647477E+04 0.  0.
        5    1    3    3  502    0 -0.14837761309E+04 -0.68975803257E+03  0.44492641605E+03  0.16956825634E+04  0.46999998093E+01 0. -1.
       -5    1    3    3    0  502  0.14837761309E+04  0.68975803257E+03 -0.32926709031E+03  0.16690705967E+04  0.46999998093E+01 0.  1.
</event>
<event>
 5   0  0.4464951E-07  0.3373663E+04  0.7818609E-02  0.8144401E-01
       -1   -1    0    0    0  501  0.00000000000E+00  0.00000000000E+00  0.14404751242E+04  0.14404751242E+04  0.50400001928E-02 0. -1.
        1   -1    0    0  501    0  0.00000000000E+00  0.00000000000E+00 -0.19753202947E+04  0.19753202947E+04  0.50400001928E-02 0.  1.
    10030    2    1    2    0    0  0.00000000000E+00  0.00000000000E+00 -0.53484517054E+03  0.34157954189E+04  0.33736625479E+04 0.  0.
        3    1    3    3  502    0 -0.14025190608E+04 -0.75307062503E+03  0.29741970919E+03  0.16194547156E+04  0.10100000352E+00 0.  1.
       -3    1    3    3    0  502  0.14025190608E+04  0.75307062503E+03 -0.83226487973E+03  0.17963407033E+04  0.10100000352E+00 0. -1.
</event>
<event>
 5   0  0.4109937E-07  0.3383763E+04  0.7818609E-02  0.8141903E-01
        1   -1    0    0  501    0  0.00000000000E+00  0.00000000000E+00  0.26135673179E+04  0.26135673179E+04  0.50400001928E-02 0.  1.
       -1   -1    0    0    0  501  0.00000000000E+00  0.00000000000E+00 -0.10952324126E+04  0.10952324126E+04  0.50400001928E-02 0. -1.
    10030    2    1    2    0    0  0.00000000000E+00  0.00000000000E+00  0.15183349053E+04  0.37087997305E+04  0.33837633718E+04 0.  0.
        5    1    3    3  502    0 -0.87975402801E+03 -0.11093874350E+04  0.17742694676E+04  0.22699695734E+04  0.46999998093E+01 0.  1.
       -5    1    3    3    0  502  0.87975402801E+03  0.11093874350E+04 -0.25593456230E+03  0.14388301571E+04  0.46999998093E+01 0. -1.
</event>
<event>
 5   0  0.4289684E-07  0.3334362E+04  0.7818609E-02  0.8154207E-01
        1   -1    0    0  501    0  0.00000000000E+00  0.00000000000E+00  0.19991521576E+04  0.19991521576E+04  0.50400001928E-02 0.  1.
       -1   -1    0    0    0  501  0.00000000000E+00  0.00000000000E+00 -0.13903359638E+04  0.13903359638E+04  0.50400001928E-02 0. -1.
    10030    2    1    2    0    0  0.00000000000E+00  0.00000000000E+00  0.60881619380E+03  0.33894881215E+04  0.33343623930E+04 0.  0.
        4    1    3    3  502    0 -0.10295521950E+04  0.38736475180E+03 -0.96908550947E+03  0.14660005153E+04  0.12699999809E+01 0. -1.
       -4    1    3    3    0  502  0.10295521950E+04 -0.38736475180E+03  0.15779017033E+04  0.19234876062E+04  0.12699999809E+01 0.  1.
</event>
<event>
 5   0  0.4109937E-07  0.3367671E+04  0.7818609E-02  0.8145887E-01
        1   -1    0    0  501    0  0.00000000000E+00  0.00000000000E+00  0.13255908749E+04  0.13255908749E+04  0.50400001928E-02 0. -1.
       -1   -1    0    0    0  501  0.00000000000E+00  0.00000000000E+00 -0.21388961589E+04  0.21388961589E+04  0.50400001928E-02 0.  1.
    10030    2    1    2    0    0  0.00000000000E+00  0.00000000000E+00 -0.81330528408E+03  0.34644870338E+04  0.33676705484E+04 0.  0.
        5    1    3    3  502    0  0.11450189246E+03  0.14161905478E+04  0.52297021499E+03  0.15140100023E+04  0.46999998093E+01 0. -1.
       -5    1    3    3    0  502 -0.11450189246E+03 -0.14161905478E+04 -0.13362754991E+04  0.19504770316E+04  0.46999998093E+01 0.  1.
</event>
<event>
 5   0  0.1277635E-06  0.3426376E+04  0.7818609E-02  0.8131463E-01
       -2   -1    0    0    0  501  0.00000000000E+00  0.00000000000E+00  0.12284964663E+04  0.12284964663E+04  0.25500000920E-02 0.  1.
        2   -1    0    0  501    0  0.00000000000E+00  0.00000000000E+00 -0.23891104668E+04  0.23891104668E+04  0.25500000920E-02 0. -1.
    10030    2    1    2    0    0  0.00000000000E+00  0.00000000000E+00 -0.11606140006E+04  0.36176069331E+04  0.34263763752E+04 0.  0.
        4    1    3    3  502    0 -0.78648597184E+03 -0.15216858959E+04 -0.54821305166E+03  0.17985069676E+04  0.12699999809E+01 0.  1.
       -4    1    3    3    0  502  0.78648597184E+03  0.15216858959E+04 -0.61240094890E+03  0.18190999655E+04  0.12699999809E+01 0. -1.
</event>
<event>
 5   0  0.4109937E-07  0.3345856E+04  0.7818609E-02  0.8151324E-01
        1   -1    0    0  501    0  0.00000000000E+00  0.00000000000E+00  0.21376855907E+04  0.21376855908E+04  0.50400001928E-02 0.  1.
       -1   -1    0    0    0  501  0.00000000000E+00  0.00000000000E+00 -0.13092138367E+04  0.13092138367E+04  0.50400001928E-02 0. -1.
    10030    2    1    2    0    0  0.00000000000E+00  0.00000000000E+00  0.82847175406E+03  0.34468994275E+04  0.33458556777E+04 0.  0.
        5    1    3    3  502    0 -0.40495336045E+03  0.76436962585E+02 -0.12560973648E+04  0.13219805268E+04  0.46999998093E+01 0. -1.
       -5    1    3    3    0  502  0.40495336045E+03 -0.76436962585E+02  0.20845691188E+04  0.21249189007E+04  0.46999998093E+01 0.  1.
</event>
<event>
 5   0  0.1256208E-06  0.3387285E+04  0.7818609E-02  0.8141034E-01
       -2   -1    0    0    0  501  0.00000000000E+00  0.00000000000E+00  0.12826122339E+04  0.12826122339E+04  0.25500000920E-02 0. -1.
        2   -1    0    0  501    0  0.00000000000E+00  0.00000000000E+00 -0.22363927779E+04  0.22363927779E+04  0.25500000920E-02 0.  1.
    10030    2    1    2    0    0  0.00000000000E+00  0.00000000000E+00 -0.95378054399E+03  0.35190050118E+04  0.33872848930E+04 0.  0.
        3    1    3    3  502    0 -0.65420093111E+03 -0.14032162066E+04  0.23641730165E+03  0.15661697646E+04  0.10100000352E+00 0. -1.
       -3    1    3    3    0  502  0.65420093111E+03  0.14032162066E+04 -0.11901978456E+04  0.19528352472E+04  0.10100000352E+00 0.  1.
</event>
<event>
 5   0  0.1256208E-06  0.3200104E+04  0.7818609E-02  0.8188790E-01
        2   -1    0    0  501    0  0.00000000000E+00  0.00000000000E+00  0.10430977088E+04  0.10430977088E+04  0.25500000920E-02 0.  1.
       -2   -1    0    0    0  501  0.00000000000E+00  0.00000000000E+00 -0.24543886304E+04  0.24543886304E+04  0.25500000920E-02 0. -1.
    10030    2    1    2    0    0  0.00000000000E+00  0.00000000000E+00 -0.14112909216E+04  0.34974863392E+04  0.32001044714E+04 0.  0.
        3    1    3    3  502    0 -0.11615351321E+03  0.15504464574E+04 -0.11186384984E+04  0.19153923765E+04  0.10100000352E+00 0. -1.
       -3    1    3    3    0  502  0.11615351321E+03 -0.15504464574E+04 -0.29265242330E+03  0.15820939627E+04  0.10100000352E+00 0.  1.
</event>
<event>
 5   0  0.4125758E-07  0.3330043E+04  0.7818609E-02  0.8155293E-01
       -1   -1    0    0    0  501  0.00000000000E+00  0.00000000000E+00  0.12537952072E+04  0.12537952072E+04  0.50400001928E-02 0.  1.
        1   -1    0    0  501    0  0.00000000000E+00  0.00000000000E+00 -0.22111243413E+04  0.22111243413E+04  0.50400001928E-02 0. -1.
    10030    2    1    2    0    0  0.00000000000E+00  0.00000000000E+00 -0.95732913406E+03  0.34649195485E+04  0.33300433040E+04 0.  0.
        2    1    3    3  502    0 -0.14832877254E+04 -0.73976567403E+03 -0.64285767332E+03  0.17778249962E+04  0.25500000920E-02 0.  1.
       -2    1    3    3    0  502  0.14832877254E+04  0.73976567403E+03 -0.31447146074E+03  0.16870945523E+04  0.25500000920E-02 0. -1.
</event>
<event>
 5   0  0.1269497E-06  0.3394934E+04  0.7818609E-02  0.8139151E-01
        2   -1    0    0  501    0  0.00000000000E+00  0.00000000000E+00  0.13459642841E+04  0.13459642841E+04  0.25500000920E-02 0.  1.
       -2   -1    0    0    0  501  0.00000000000E+00  0.00000000000E+00 -0.21407662406E+04  0.21407662406E+04  0.25500000920E-02 0. -1.
    10030    2    1    2    0    0  0.00000000000E+00  0.00000000000E+00 -0.79480195649E+03  0.34867305246E+04  0.33949344031E+04 0.  0.
        5    1    3    3  502    0  0.48210312229E+03 -0.14996601930E+04  0.25213019218E+03  0.15953043091E+04  0.46999998093E+01 0.  1.
       -5    1    3    3    0  502 -0.48210312229E+03  0.14996601930E+04 -0.10469321487E+04  0.18914262155E+04  0.46999998093E+01 0. -1.
</event>
<event>
 5   0  0.4109937E-07  0.3394749E+04  0.7818609E-02  0.8139196E-01
        1   -1    0    0  501    0  0.00000000000E+00  0.00000000000E+00  0.98801049937E+03  0.98801049939E+03  0.50400001928E-02 0. -1.
       -1   -1    0    0    0  501  0.00000000000E+00  0.00000000000E+00 -0.29160426090E+04  0.29160426090E+04  0.50400001928E-02 0.  1.
    10030    2    1    2    0    0  0.00000000000E+00  0.00000000000E+00 -0.19280321096E+04  0.39040531084E+04  0.33947493070E+04 0.  0.
        5    1    3    3  502    0  0.12678442746E+04 -0.70761811778E+03  0.47031030159E+02  0.14527169418E+04  0.46999998093E+01 0. -1.
       -5    1    3    3    0  502 -0.12678442746E+04  0.70761811778E+03 -0.19750631398E+04  0.24513361666E+04  0.46999998093E+01 0.  1.
</event>
<event>
 5   0  0.4125758E-07  0.3376493E+04  0.7818609E-02  0.8143700E-01
        1   -1    0    0  501    0  0.00000000000E+00  0.00000000000E+00  0.16292628400E+04  0.16292628400E+04  0.50400001928E-02 0. -1.
       -1   -1    0    0    0  501  0.00000000000E+00  0.00000000000E+00 -0.17493652063E+04  0.17493652063E+04  0.50400001928E-02 0.  1.
    10030    2    1    2    0    0  0.00000000000E+00  0.00000000000E+00 -0.12010236633E+03  0.33786280463E+04  0.33764926917E+04 0.  0.
        2    1    3    3  502    0  0.18176580955E+03  0.85711602383E+03  0.13839446189E+04  0.16379833320E+04  0.25500000920E-02 0. -1.
       -2    1    3    3    0  502 -0.18176580955E+03 -0.85711602383E+03 -0.15040469852E+04  0.17406447143E+04  0.25500000920E-02 0.  1.
</event>
<event>
 5   0  0.1269497E-06  0.3398504E+04  0.7818609E-02  0.8138274E-01
        2   -1    0    0  501    0  0.00000000000E+00  0.00000000000E+00  0.17548794223E+04  0.17548794223E+04  0.25500000920E-02 0. -1.
       -2   -1    0    0    0  501  0.00000000000E+00  0.00000000000E+00 -0.16453874762E+04  0.16453874762E+04  0.25500000920E-02 0.  1.
    10030    2    1    2    0    0  0.00000000000E+00  0.00000000000E+00  0.10949194607E+03  0.34002668985E+04  0.33985035670E+04 0.  0.
        5    1    3    3  502    0 -0.15476999508E+03 -0.43567760281E+03 -0.15812372236E+04  0.16474531776E+04  0.46999998093E+01 0.  1.
       -5    1    3    3    0  502  0.15476999508E+03  0.43567760281E+03  0.16907291697E+04  0.17528137209E+04  0.46999998093E+01 0. -1.
</event>
<event>
 5   0  0.1300176E-06  0.3324911E+04  0.7818609E-02  0.8156586E-01
        2   -1    0    0  501    0  0.00000000000E+00  0.00000000000E+00  0.27849539596E+04  0.27849539596E+04  0.25500000920E-02 0. -1.
       -2   -1    0    0    0  501  0.00000000000E+00  0.00000000000E+00 -0.99238896006E+03  0.99238896007E+03  0.25500000920E-02 0.  1.
    10030    2    1    2    0    0  0.00000000000E+00  0.00000000000E+00  0.17925649995E+04  0.37773429196E+04  0.33249105635E+04 0.  0.
        1    1    3    3  502    0  0.61279041115E+03  0.49826786472E+03  0.25582049553E+04  0.26773486038E+04  0.50400001928E-02 0. -1.
       -1    1    3    3    0  502 -0.61279041115E+03 -0.49826786472E+03 -0.76563995577E+03  0.10999943158E+04  0.50400001928E-02 0.  1.
</event>
<event>
 5   0  0.4125758E-07  0.3378459E+04  0.7818609E-02  0.8143214E-01
       -1   -1    0    0    0  501  0.00000000000E+00  0.00000000000E+00  0.16585089016E+04  0.16585089016E+04  0.50400001928E-02 0.  1.
        1   -1    0    0  501    0  0.00000000000E+00  0.00000000000E+00 -0.17205188587E+04  0.17205188588E+04  0.50400001928E-02 0. -1.
    10030    2    1    2    0    0  0.00000000000E+00  0.00000000000E+00 -0.62009957139E+02  0.33790277604E+04  0.33784587271E+04 0.  0.
        2    1    3    3  502    0 -0.71260242705E+03 -0.14586466096E+03 -0.15558656911E+04  0.17174972393E+04  0.25500000920E-02 0. -1.
       -2    1    3    3    0  502  0.71260242705E+03  0.14586466096E+03  0.14938557340E+04  0.16615305210E+04  0.25500000920E-02 0.  1.
</event>
<event>
 5   0  0.1300176E-06  0.3344721E+04  0.7818609E-02  0.8151609E-01
       -2   -1    0    0    0  501  0.00000000000E+00  0.00000000000E+00  0.15076050618E+04  0.15076050618E+04  0.25500000920E-02 0.  1.
        2   -1    0    0  501    0  0.00000000000E+00  0.00000000000E+00 -0.18551204929E+04  0.18551204929E+04  0.25500000920E-02 0. -1.
    10030    2    1    2    0    0  0.00000000000E+00  0.00000000000E+00 -0.34751543111E+03  0.33627255547E+04  0.33447206433E+04 0.  0.
        1    1    3    3  502    0 -0.15250189243E+04  0.41293051556E+03 -0.72497425983E+03  0.17383273592E+04  0.50400001928E-02 0. -1.
       -1    1    3    3    0  502  0.15250189243E+04 -0.41293051556E+03  0.37745882872E+03  0.16243981955E+04  0.50400001928E-02 0.  1.
</event>
<event>
 5   0  0.4289684E-07  0.3418482E+04  0.7818609E-02  0.8133385E-01
        1   -1    0    0  501    0  0.00000000000E+00  0.00000000000E+00  0.25133469080E+04  0.25133469081E+04  0.50400001928E-02 0.  1.
       -1   -1    0    0    0  501  0.00000000000E+00  0.00000000000E+00 -0.11623961441E+04  0.11623961441E+04  0.50400001928E-02 0. -1.
    10030    2    1    2    0    0  0.00000000000E+00  0.00000000000E+00  0.13509507640E+04  0.36757430521E+04  0.34184819757E+04 0.  0.
        4    1    3    3  502    0 -0.77873135422E+03  0.33201061611E+03  0.22720945278E+04  0.24246790978E+04  0.12699999809E+01 0.  1.
       -4    1    3    3    0  502  0.77873135422E+03 -0.33201061611E+03 -0.92114376381E+03  0.12510639543E+04  0.12699999809E+01 0. -1.
</event>
<event>
 5   0  0.1256208E-06  0.3340958E+04  0.7818609E-02  0.8152551E-01
        2   -1    0    0  501    0  0.00000000000E+00  0.00000000000E+00  0.14631259650E+04  0.14631259650E+04  0.25500000920E-02 0. -1.
       -2   -1    0    0    0  501  0.00000000000E+00  0.00000000000E+00 -0.19072177600E+04  0.19072177600E+04  0.25500000920E-02 0.  1.
    10030    2    1    2    0    0  0.00000000000E+00  0.00000000000E+00 -0.44409179497E+03  0.33703437250E+04  0.33409578421E+04 0.  0.
        3    1    3    3  502    0  0.15184247861E+04 -0.69031021071E+03 -0.12982080048E+03  0.16730198649E+04  0.10100000352E+00 0. -1.
       -3    1    3    3    0  502 -0.15184247861E+04  0.69031021071E+03 -0.31427099449E+03  0.16973238601E+04  0.10100000352E+00 0.  1.
</event>
<event>
 5   0  0.4289684E-07  0.2894641E+04  0.7818609E-02  0.8274474E-01
       -1   -1    0    0    0  501  0.00000000000E+00  0.00000000000E+00  0.10639688417E+04  0.10639688417E+04  0.50400001928E-02 0.  1.
        1   -1    0    0  501    0  0.00000000000E+00  0.00000000000E+00 -0.19687952741E+04  0.19687952741E+04  0.50400001928E-02 0. -1.
    10030    2    1    2    0    0  0.00000000000E+00  0.00000000000E+00 -0.90482643241E+03  0.30327641158E+04  0.28946411365E+04 0.  0.
        4    1    3    3  502    0  0.85336640871E+03  0.11653554736E+04 -0.35611666028E+03  0.14876519405E+04  0.12699999809E+01 0. -1.
       -4    1    3    3    0  502 -0.85336640871E+03 -0.11653554736E+04 -0.54870977213E+03  0.15451121753E+04  0.12699999809E+01 0.  1.
</event>
<event>
 5   0  0.1256208E-06  0.3372004E+04  0.7818609E-02  0.8144812E-01
        2   -1    0    0  501    0  0.00000000000E+00  0.00000000000E+00  0.20356515169E+04  0.20356515169E+04  0.25500000920E-02 0. -1.
       -2   -1    0    0    0  501  0.00000000000E+00  0.00000000000E+00 -0.13964091047E+04  0.13964091047E+04  0.25500000920E-02 0.  1.
    10030    2    1    2    0    0  0.00000000000E+00  0.00000000000E+00  0.63924241221E+03  0.34320606216E+04  0.33720037439E+04 0.  0.
        3    1    3    3  502    0  0.13697748739E+04  0.23810487688E+03  0.12903504995E+04  0.18968346157E+04  0.10100000352E+00 0. -1.
       -3    1    3    3    0  502 -0.13697748739E+04 -0.23810487688E+03 -0.65110808729E+03  0.15352260059E+04  0.10100000352E+00 0.  1.
</event>
<event>
 5   0  0.1277635E-06  0.3394475E+04  0.7818609E-02  0.8139264E-01
       -2   -1    0    0    0  501  0.00000000000E+00  0.00000000000E+00  0.12797422358E+04  0.12797422358E+04  0.25500000920E-02 0. -1.
        2   -1    0    0  501    0  0.00000000000E+00  0.00000000000E+00 -0.22509336727E+04  0.22509336727E+04  0.25500000920E-02 0.  1.
    10030    2    1    2    0    0  0.00000000000E+00  0.00000000000E+00 -0.97119143691E+03  0.35306759086E+04  0.33944748584E+04 0.  0.
        4    1    3    3  502    0  0.13450722570E+04 -0.33747934386E+03  0.53218685515E+03  0.14853740761E+04  0.12699999809E+01 0. -1.
       -4    1    3    3    0  502 -0.13450722570E+04  0.33747934386E+03 -0.15033782921E+04  0.20453018325E+04  0.12699999809E+01 0.  1.
</event>
<event>
 5   0  0.1268230E-06  0.3408197E+04  0.7818609E-02  0.8135897E-01
       -2   -1    0    0    0  501  0.00000000000E+00  0.00000000000E+00  0.13350105290E+04  0.13350105290E+04  0.25500000920E-02 0.  1.
        2   -1    0    0  501    0  0.00000000000E+00  0.00000000000E+00 -0.21752277595E+04  0.21752277595E+04  0.25500000920E-02 0. -1.
    10030    2    1    2    0    0  0.00000000000E+00  0.00000000000E+00 -0.84021723056E+03  0.35102382885E+04  0.34081971550E+04 0.  0.
        2    1    3    3  502    0  0.14377860849E+03 -0.51584933197E+03  0.12460970798E+04  0.13562930192E+04  0.25500000920E-02 0.  1.
       -2    1    3    3    0  502 -0.14377860849E+03  0.51584933197E+03 -0.20863143104E+04  0.21539452693E+04  0.25500000920E-02 0. -1.
</event>
<event>
 5   0  0.1268230E-06  0.3215238E+04  0.7818609E-02  0.8184804E-01
       -2   -1    0    0    0  501  0.00000000000E+00  0.00000000000E+00  0.13976946337E+04  0.13976946337E+04  0.25500000920E-02 0. -1.
        2   -1    0    0  501    0  0.00000000000E+00  0.00000000000E+00 -0.18490729860E+04  0.18490729860E+04  0.25500000920E-02 0.  1.
    10030    2    1    2    0    0  0.00000000000E+00  0.00000000000E+00 -0.45137835232E+03  0.32467676197E+04  0.32152383363E+04 0.  0.
        2    1    3    3  502    0  0.21469254765E+03 -0.17100961831E+03  0.13738585807E+04  0.14010084151E+04  0.25500000920E-02 0. -1.
       -2    1    3    3    0  502 -0.21469254765E+03  0.17100961831E+03 -0.18252369330E+04  0.18457592045E+04  0.25500000920E-02 0.  1.
</event>
<event>
 5   0  0.4289684E-07  0.3425957E+04  0.7818609E-02  0.8131565E-01
        1   -1    0    0  501    0  0.00000000000E+00  0.00000000000E+00  0.18469707797E+04  0.18469707797E+04  0.50400001928E-02 0. -1.
       -1   -1    0    0    0  501  0.00000000000E+00  0.00000000000E+00 -0.15887073075E+04  0.15887073075E+04  0.50400001928E-02 0.  1.
    10030    2    1    2    0    0  0.00000000000E+00  0.00000000000E+00  0.25826347221E+03  0.34356780873E+04  0.34259573696E+04 0.  0.
        4    1    3    3  502    0  0.82344677614E+03 -0.99826467122E+03  0.12546787223E+04  0.18024475737E+04  0.12699999809E+01 0. -1.
       -4    1    3    3    0  502 -0.82344677614E+03  0.99826467122E+03 -0.99641525006E+03  0.16332305136E+04  0.12699999809E+01 0.  1.
</event>
<event>
 5   0  0.1268230E-06  0.3387542E+04  0.7818609E-02  0.8140971E-01
       -2   -1    0    0    0  501  0.00000000000E+00  0.00000000000E+00  0.15538201568E+04  0.15538201568E+04  0.25500000920E-02 0. -1.
        2   -1    0    0  501    0  0.00000000000E+00  0.00000000000E+00 -0.18463265981E+04  0.18463265981E+04  0.25500000920E-02 0.  1.
    10030    2    1    2    0    0  0.00000000000E+00  0.00000000000E+00 -0.29250644136E+03  0.34001467549E+04  0.33875415771E+04 0.  0.
        2    1    3    3  502    0 -0.13984850121E+04 -0.57754842394E+03 -0.91035920680E+03  0.17658075763E+04  0.25500000920E-02 0.  1.
       -2    1    3    3    0  502  0.13984850121E+04  0.57754842394E+03  0.61785276545E+03  0.16343391786E+04  0.25500000920E-02 0. -1.
</event>
<event>
 5   0  0.1269497E-06  0.3350592E+04  0.7818609E-02  0.8150140E-01
        2   -1    0    0  501    0  0.00000000000E+00  0.00000000000E+00  0.12469256006E+04  0.12469256006E+04  0.25500000920E-02 0.  1.
       -2   -1    0    0    0  501  0.00000000000E+00  0.00000000000E+00 -0.22508293293E+04  0.22508293293E+04  0.25500000920E-02 0. -1.
    10030    2    1    2    0    0  0.00000000000E+00  0.00000000000E+00 -0.10039037286E+04  0.34977549299E+04  0.33505920153E+04 0.  0.
        5    1    3    3  502    0  0.13678786884E+04  0.94847152476E+03 -0.30414518031E+03  0.16921042285E+04  0.46999998093E+01 0.  1.
       -5    1    3    3    0  502 -0.13678786884E+04 -0.94847152476E+03 -0.69975854832E+03  0.18056507014E+04  0.46999998093E+01 0. -1.
</event>
<event>
 5   0  0.1269497E-06  0.3411270E+04  0.7818609E-02  0.8135146E-01
       -2   -1    0    0    0  501  0.00000000000E+00  0.00000000000E+00  0.13660775168E+04  0.13660775168E+04  0.25500000920E-02 0.  1.
        2   -1    0    0  501    0  0.00000000000E+00  0.00000000000E+00 -0.21295935778E+04  0.21295935778E+04  0.25500000920E-02 0. -1.
    10030    2    1    2    0    0  0.00000000000E+00  0.00000000000E+00 -0.76351606098E+03  0.34956710946E+04  0.34112695036E+04 0.  0.
        5    1    3    3  502    0 -0.15378460935E+04  0.59134641214E+03 -0.83369902466E+03  0.18465474107E+04  0.46999998093E+01 0. -1.
       -5    1    3    3    0  502  0.15378460935E+04 -0.59134641214E+03  0.70182963677E+02  0.16491236839E+04  0.46999998093E+01 0.  1.
</event>
<event>
 5   0  0.1256208E-06  0.3377664E+04  0.7818609E-02  0.8143410E-01
       -2   -1    0    0    0  501  0.00000000000E+00  0.00000000000E+00  0.17379710043E+04  0.17379710043E+04  0.25500000920E-02 0. -1.
        2   -1    0    0  501    0  0.00000000000E+00  0.00000000000E+00 -0.16410819465E+04  0.16410819465E+04  0.25500000920E-02 0.  1.
    10030    2    1    2    0    0  0.00000000000E+00  0.00000000000E+00  0.96889057765E+02  0.33790529508E+04  0.33776635941E+04 0.  0.
        3    1    3    3  502    0  0.14467057237E+04  0.20426232219E+03 -0.79894124385E+03  0.16652290139E+04  0.10100000352E+00 0.  1.
       -3    1    3    3    0  502 -0.14467057237E+04 -0.20426232219E+03  0.89583030162E+03  0.17138239370E+04  0.10100000352E+00 0. -1.
</event>
<event>
 5   0  0.4109937E-07  0.3156370E+04  0.7818609E-02  0.8200436E-01
       -1   -1    0    0    0  501  0.00000000000E+00  0.00000000000E+00  0.15517306750E+04  0.15517306750E+04  0.50400001928E-02 0.  1.
        1   -1    0    0  501    0  0.00000000000E+00  0.00000000000E+00 -0.16050907791E+04  0.16050907791E+04  0.50400001928E-02 0. -1.
    10030    2    1    2    0    0  0.00000000000E+00  0.00000000000E+00 -0.53360104135E+02  0.31568214541E+04  0.31563704460E+04 0.  0.
        5    1    3    3  502    0  0.70018451467E+03  0.12459337499E+04  0.64277143385E+03  0.15670949141E+04  0.46999998093E+01 0. -1.
       -5    1    3    3    0  502 -0.70018451467E+03 -0.12459337499E+04 -0.69613153798E+03  0.15897265400E+04  0.46999998093E+01 0.  1.
</event>
<event>
 5   0  0.4272633E-07  0.2923733E+04  0.7818609E-02  0.8265851E-01
       -1   -1    0    0    0  501  0.00000000000E+00  0.00000000000E+00  0.10506995399E+04  0.10506995399E+04  0.50400001928E-02 0. -1.
        1   -1    0    0  501    0  0.00000000000E+00  0.00000000000E+00 -0.20339337384E+04  0.20339337384E+04  0.50400001928E-02 0.  1.
    10030    2    1    2    0    0  0.00000000000E+00  0.00000000000E+00 -0.98323419846E+03  0.30846332783E+04  0.29237327122E+04 0.  0.
        1    1    3    3  502    0  0.74880167090E+03  0.32023343152E+03  0.78919413072E+03  0.11340550114E+04  0.50400001928E-02 0. -1.
       -1    1    3    3    0  502 -0.74880167090E+03 -0.32023343152E+03 -0.17724283292E+04  0.19505782668E+04  0.50400001928E-02 0.  1.
</event>
<event>
 5   0  0.1256208E-06  0.3423060E+04  0.7818609E-02  0.8132270E-01
        2   -1    0    0  501    0  0.00000000000E+00  0.00000000000E+00  0.19521730476E+04  0.19521730476E+04  0.25500000920E-02 0.  1.
       -2   -1    0    0    0  501  0.00000000000E+00  0.00000000000E+00 -0.15005505336E+04  0.15005505336E+04  0.25500000920E-02 0. -1.
    10030    2    1    2    0    0  0.00000000000E+00  0.00000000000E+00  0.45162251406E+03  0.34527235812E+04  0.34230596304E+04 0.  0.
        3    1    3    3  502    0 -0.83394186287E+03  0.92227479497E+03  0.14121346569E+04  0.18815350455E+04  0.10100000352E+00 0.  1.
       -3    1    3    3    0  502  0.83394186287E+03 -0.92227479497E+03 -0.96051214282E+03  0.15711885357E+04  0.10100000352E+00 0. -1.
</event>
<event>
 5   0  0.4125758E-07  0.3407812E+04  0.7818609E-02  0.8135992E-01
        1   -1    0    0  501    0  0.00000000000E+00  0.00000000000E+00  0.24513040464E+04  0.24513040464E+04  0.50400001928E-02 0. -1.
       -1   -1    0    0    0  501  0.00000000000E+00  0.00000000000E+00 -0.11843885153E+04  0.11843885153E+04  0.50400001928E-02 0.  1.
    10030    2    1    2    0    0  0.00000000000E+00  0.00000000000E+00  0.12669155311E+04  0.36356925618E+04  0.34078124128E+04 0.  0.
        2    1    3    3  502    0 -0.58903961807E+03  0.14637796319E+04 -0.52729445578E+02  0.15787333140E+04  0.25500000920E-02 0.  1.
       -2    1    3    3    0  502  0.58903961807E+03 -0.14637796319E+04  0.13196449767E+04  0.20569592478E+04  0.25500000920E-02 0. -1.
</event>
<event>
 5   0  0.1277635E-06  0.3466100E+04  0.7818609E-02  0.8121871E-01
        2   -1    0    0  501    0  0.00000000000E+00  0.00000000000E+00  0.20175743214E+04  0.20175743214E+04  0.25500000920E-02 0. -1.
       -2   -1    0    0    0  501  0.00000000000E+00  0.00000000000E+00 -0.14886497863E+04  0.14886497863E+04  0.25500000920E-02 0.  1.
    10030    2    1    2    0    0  0.00000000000E+00  0.00000000000E+00  0.52892453511E+03  0.35062241077E+04  0.34660995845E+04 0.  0.
        4    1    3    3  502    0 -0.35493573094E+02 -0.87566331921E+03 -0.12479758402E+04  0.15249561806E+04  0.12699999809E+01 0.  1.
       -4    1    3    3    0  502  0.35493573094E+02  0.87566331921E+03  0.17769003753E+04  0.19812679271E+04  0.12699999809E+01 0. -1.
</event>
<event>
 5   0  0.4289684E-07  0.3200755E+04  0.7818609E-02  0.8188618E-01
        1   -1    0    0  501    0  0.00000000000E+00  0.00000000000E+00  0.16455881428E+04  0.16455881428E+04  0.50400001928E-02 0. -1.
       -1   -1    0    0    0  501  0.00000000000E+00  0.00000000000E+00 -0.15564088442E+04  0.15564088442E+04  0.50400001928E-02 0.  1.
    10030    2    1    2    0    0  0.00000000000E+00  0.00000000000E+00  0.89179298539E+02  0.32019969870E+04  0.32007548731E+04 0.  0.
        4    1    3    3  502    0  0.53358970320E+03 -0.11618095354E+04 -0.91842973543E+03  0.15741772961E+04  0.12699999809E+01 0.  1.
       -4    1    3    3    0  502 -0.53358970320E+03  0.11618095354E+04  0.10076090340E+04  0.16278196909E+04  0.12699999809E+01 0. -1.
</event>
<event>
 5   0  0.1277635E-06  0.3382798E+04  0.7818609E-02  0.8142141E-01
        2   -1    0    0  501    0  0.00000000000E+00  0.00000000000E+00  0.18706727702E+04  0.18706727702E+04  0.25500000920E-02 0.  1.
       -2   -1    0    0    0  501  0.00000000000E+00  0.00000000000E+00 -0.15293059129E+04  0.15293059129E+04  0.25500000920E-02 0. -1.
    10030    2    1    2    0    0  0.00000000000E+00  0.00000000000E+00  0.34136685734E+03  0.33999786832E+04  0.33827982078E+04 0.  0.
        4    1    3    3  502    0  0.53353838291E+03 -0.30050987340E+03  0.17553519425E+04  0.18590942540E+04  0.12699999809E+01 0.  1.
       -4    1    3    3    0  502 -0.53353838291E+03  0.30050987340E+03 -0.14139850852E+04  0.15408844292E+04  0.12699999809E+01 0. -1.
</event>
<event>
 5   0  0.1300176E-06  0.3393471E+04  0.7818609E-02  0.8139511E-01
       -2   -1    0    0    0  501  0.00000000000E+00  0.00000000000E+00  0.11493195196E+04  0.11493195196E+04  0.25500000920E-02 0. -1.
        2   -1    0    0  501    0  0.00000000000E+00  0.00000000000E+00 -0.25048827580E+04  0.25048827580E+04  0.25500000920E-02 0.  1.
    10030    2    1    2    0    0  0.00000000000E+00  0.00000000000E+00 -0.13555632384E+04  0.36542022776E+04  0.33934705821E+04 0.  0.
        1    1    3    3  502    0  0.79480137693E+03  0.18284292253E+02 -0.22919067091E+04  0.24258771418E+04  0.50400001928E-02 0.  1.
       -1    1    3    3    0  502 -0.79480137693E+03 -0.18284292253E+02  0.93634347061E+03  0.12283251357E+04  0.50400001928E-02 0. -1.
</event>
<event>
 5   0  0.1268230E-06  0.2875886E+04  0.7818609E-02  0.8280088E-01
       -2   -1    0    0    0  501  0.00000000000E+00  0.00000000000E+00  0.18504184511E+04  0.18504184511E+04  0.25500000920E-02 0. -1.
        2   -1    0    0  501    0  0.00000000000E+00  0.00000000000E+00 -0.11174124967E+04  0.11174124967E+04  0.25500000920E-02 0.  1.
    10030    2    1    2    0    0  0.00000000000E+00  0.00000000000E+00  0.73300595440E+03  0.29678309478E+04  0.28758864382E+04 0.  0.
        2    1    3    3  502    0 -0.87000313734E+03 -0.75148924371E+03  0.12578529146E+04  0.17040644052E+04  0.25500000920E-02 0. -1.
       -2    1    3    3    0  502  0.87000313734E+03  0.75148924371E+03 -0.52484696023E+03  0.12637665425E+04  0.25500000920E-02 0.  1.
</event>
<event>
 5   0  0.4464951E-07  0.3404681E+04  0.7818609E-02  0.8136758E-01
        1   -1    0    0  501    0  0.00000000000E+00  0.00000000000E+00  0.15386893477E+04  0.15386893477E+04  0.50400001928E-02 0.  1.
       -1   -1    0    0    0  501  0.00000000000E+00  0.00000000000E+00 -0.18833972779E+04  0.18833972779E+04  0.50400001928E-02 0. -1.
    10030    2    1    2    0    0  0.00000000000E+00  0.00000000000E+00 -0.34470793020E+03  0.34220866255E+04  0.34046810887E+04 0.  0.
        3    1    3    3  502    0 -0.12713348869E+03 -0.15449671853E+04 -0.87942509284E+03  0.17822668239E+04  0.10100000352E+00 0. -1.
       -3    1    3    3    0  502  0.12713348869E+03  0.15449671853E+04  0.53471716264E+03  0.16398198016E+04  0.10100000352E+00 0.  1.
</event>
<event>
 5   0  0.4272633E-07  0.3125493E+04  0.7818609E-02  0.8208776E-01
       -1   -1    0    0    0  501  0.00000000000E+00  0.00000000000E+00  0.24762161996E+04  0.24762161996E+04  0.50400001928E-02 0. -1.
        1   -1    0    0  501    0  0.00000000000E+00  0.00000000000E+00 -0.98625358213E+03  0.98625358215E+03  0.50400001928E-02 0.  1.
    10030    2    1    2    0    0  0.00000000000E+00  0.00000000000E+00  0.14899626174E+04  0.34624697817E+04  0.31254933031E+04 0.  0.
        1    1    3    3  502    0  0.11769735170E+04 -0.64135375094E+03 -0.14512328288E+03  0.13482069799E+04  0.50400001928E-02 0.  1.
       -1    1    3    3    0  502 -0.11769735170E+04  0.64135375094E+03  0.16350859003E+04  0.21142628018E+04  0.50400001928E-02 0. -1.
</event>
<event>
 5   0  0.4125758E-07  0.3387190E+04  0.7818609E-02  0.8141058E-01
       -1   -1    0    0    0  501  0.00000000000E+00  0.00000000000E+00  0.13104236659E+04  0.13104236659E+04  0.50400001928E-02 0. -1.
        1   -1    0    0  501    0  0.00000000000E+00  0.00000000000E+00 -0.21888062448E+04  0.21888062449E+04  0.50400001928E-02 0.  1.
    10030    2    1    2    0    0  0.00000000000E+00  0.00000000000E+00 -0.87838257891E+03  0.34992299108E+04  0.33871896926E+04 0.  0.
        2    1    3    3  502    0 -0.14989620331E+04 -0.41240642779E+03 -0.11331990225E+04  0.19238259441E+04  0.25500000920E-02 0.  1.
       -2    1    3    3    0  502  0.14989620331E+04  0.41240642779E+03  0.25481644356E+03  0.15754039667E+04  0.25500000920E-02 0. -1.
</event>
<event>
 5   0  0.1268230E-06  0.3295915E+04  0.7818609E-02  0.8163936E-01
       -2   -1    0    0    0  501  0.00000000000E+00  0.00000000000E+00  0.19650247602E+04  0.19650247602E+04  0.25500000920E-02 0. -1.
        2   -1    0    0  501    0  0.00000000000E+00  0.00000000000E+00 -0.13820509346E+04  0.13820509346E+04  0.25500000920E-02 0.  1.
    10030    2    1    2    0    0  0.00000000000E+00  0.00000000000E+00  0.58297382560E+03  0.33470756949E+04  0.32959152334E+04 0.  0.
        2    1    3    3  502    0 -0.69616024760E+03 -0.60605468818E+03 -0.10949235455E+04  0.14320610831E+04  0.25500000920E-02 0.  1.
       -2    1    3    3    0  502  0.69616024760E+03  0.60605468818E+03  0.16778973711E+04  0.19150146118E+04  0.25500000920E-02 0. -1.
</event>
<event>
 5   0  0.1269497E-06  0.3361800E+04  0.7818609E-02  0.8147346E-01
       -2   -1    0    0    0  501  0.00000000000E+00  0.00000000000E+00  0.11707966774E+04  0.11707966774E+04  0.25500000920E-02 0. -1.
        2   -1    0    0  501    0  0.00000000000E+00  0.00000000000E+00 -0.24132495080E+04  0.24132495080E+04  0.25500000920E-02 0.  1.
    10030    2    1    2    0    0  0.00000000000E+00  0.00000000000E+00 -0.12424528305E+04  0.35840461854E+04  0.33617998190E+04 0.  0.
        5    1    3    3  502    0 -0.77277825160E+03  0.11666253999E+03 -0.22077626239E+04  0.23420150016E+04  0.46999998093E+01 0.  1.
       -5    1    3    3    0  502  0.77277825160E+03 -0.11666253999E+03  0.96530979335E+03  0.12420311838E+04  0.46999998093E+01 0. -1.
</event>
<event>
 5   0  0.4272633E-07  0.3418590E+04  0.7818609E-02  0.8133359E-01
        1   -1    0    0  501    0  0.00000000000E+00  0.00000000000E+00  0.21511326957E+04  0.21511326957E+04  0.50400001928E-02 0. -1.
       -1   -1    0    0    0  501  0.00000000000E+00  0.00000000000E+00 -0.13582095619E+04  0.13582095619E+04  0.50400001928E-02 0.  1.
    10030    2    1    2    0    0  0.00000000000E+00  0.00000000000E+00  0.79292313386E+03  0.35093422576E+04  0.34185897655E+04 0.  0.
        1    1    3    3  502    0  0.87915727317E+03  0.46939749210E+03 -0.10290853645E+04  0.14325739786E+04  0.50400001928E-02 0.  1.
       -1    1    3    3    0  502 -0.87915727317E+03 -0.46939749210E+03  0.18220084984E+04  0.20767682790E+04  0.50400001928E-02 0. -1.
</event>
<event>
 5   0  0.1300176E-06  0.3418382E+04  0.7818609E-02  0.8133409E-01
        2   -1    0    0  501    0  0.00000000000E+00  0.00000000000E+00  0.20630251373E+04  0.20630251373E+04  0.25500000920E-02 0.  1.
       -2   -1    0    0    0  501  0.00000000000E+00  0.00000000000E+00 -0.14160440402E+04  0.14160440402E+04  0.25500000920E-02 0. -1.
    10030    2    1    2    0    0  0.00000000000E+00  0.00000000000E+00  0.64698109713E+03  0.34790691775E+04  0.34183823370E+04 0.  0.
        1    1    3    3  502    0 -0.13205361791E+04  0.20823899957E+03  0.14073642197E+04  0.19410959091E+04  0.50400001928E-02 0.  1.
       -1    1    3    3    0  502  0.13205361791E+04 -0.20823899957E+03 -0.76038312256E+03  0.15379732684E+04  0.50400001928E-02 0. -1.
</event>
<event>
 5   0  0.4272633E-07  0.3395972E+04  0.7818609E-02  0.8138896E-01
        1   -1    0    0  501    0  0.00000000000E+00  0.00000000000E+00  0.23783513306E+04  0.23783513306E+04  0.50400001928E-02 0.  1.
       -1   -1    0    0    0  501  0.00000000000E+00  0.00000000000E+00 -0.12122502664E+04  0.12122502664E+04  0.50400001928E-02 0. -1.
    10030    2    1    2    0    0  0.00000000000E+00  0.00000000000E+00  0.11661010643E+04  0.35906015970E+04  0.33959723403E+04 0.  0.
        1    1    3    3  502    0 -0.38093507227E+02 -0.29624994257E+03  0.23503565651E+04  0.23692596158E+04  0.50400001928E-02 0.  1.
       -1    1    3    3    0  502  0.38093507227E+02  0.29624994257E+03 -0.11842555009E+04  0.12213419812E+04  0.50400001928E-02 0. -1.
</event>
<event>
 5   0  0.1269497E-06  0.3410134E+04  0.7818609E-02  0.8135424E-01
        2   -1    0    0  501    0  0.00000000000E+00  0.00000000000E+00  0.26524420138E+04  0.26524420138E+04  0.25500000920E-02 0. -1.
       -2   -1    0    0    0  501  0.00000000000E+00  0.00000000000E+00 -0.10960665641E+04  0.10960665641E+04  0.25500000920E-02 0.  1.
    10030    2    1    2    0    0  0.00000000000E+00  0.00000000000E+00  0.15563754497E+04  0.37485085779E+04  0.34101337244E+04 0.  0.
        5    1    3    3  502    0  0.33091420502E+03  0.63587598765E+03  0.24787545131E+04  0.25803272097E+04  0.46999998093E+01 0. -1.
       -5    1    3    3    0  502 -0.33091420502E+03 -0.63587598765E+03 -0.92237906333E+03  0.11681813683E+04  0.46999998093E+01 0.  1.
</event>
<event>
 5   0  0.1300176E-06  0.3364655E+04  0.7818609E-02  0.8146636E-01
        2   -1    0    0  501    0  0.00000000000E+00  0.00000000000E+00  0.21407751645E+04  0.21407751645E+04  0.25500000920E-02 0. -1.
       -2   -1    0    0    0  501  0.00000000000E+00  0.00000000000E+00 -0.13220562501E+04  0.13220562501E+04  0.25500000920E-02 0.  1.
    10030    2    1    2    0    0  0.00000000000E+00  0.00000000000E+00  0.81871891433E+03  0.34628314146E+04  0.33646546250E+04 0.  0.
        1    1    3    3  502    0  0.11987406396E+04 -0.10668407516E+04 -0.11044910323E+03  0.16085171167E+04  0.50400001928E-02 0.  1.
       -1    1    3    3    0  502 -0.11987406396E+04  0.10668407516E+04  0.92916801756E+03  0.18543142979E+04  0.50400001928E-02 0. -1.
</event>
<event>
 5   0  0.1269497E-06  0.3449202E+04  0.7818609E-02  0.8125935E-01
        2   -1    0    0  501    0  0.00000000000E+00  0.00000000000E+00  0.22274780877E+04  0.22274780877E+04  0.25500000920E-02 0. -1.
       -2   -1    0    0    0  501  0.00000000000E+00  0.00000000000E+00 -0.13352537638E+04  0.13352537638E+04  0.25500000920E-02 0.  1.
    10030    2    1    2    0    0  0.00000000000E+00  0.00000000000E+00  0.89222432382E+03  0.35627318515E+04  0.34492019369E+04 0.  0.
        5    1    3    3  502    0  0.58585340002E+03 -0.51421851950E+03  0.20351171095E+04  0.21793046211E+04  0.46999998093E+01 0. -1.
       -5    1    3    3    0  502 -0.58585340002E+03  0.51421851950E+03 -0.11428927857E+04  0.13834272304E+04  0.46999998093E+01 0.  1.
</event>
<event>
 5   0  0.1269497E-06  0.3383068E+04  0.7818609E-02  0.8142075E-01
        2   -1    0    0  501    0  0.00000000000E+00  0.00000000000E+00  0.15886308990E+04  0.15886308990E+04  0.25500000920E-02 0. -1.
       -2   -1    0    0    0  501  0.00000000000E+00  0.00000000000E+00 -0.18011023794E+04  0.18011023794E+04  0.25500000920E-02 0.  1.
    10030    2    1    2    0    0  0.00000000000E+00  0.00000000000E+00 -0.21247148038E+03  0.33897332784E+04  0.33830677748E+04 0.  0.
        5    1    3    3  502    0 -0.10855384568E+04 -0.11947726269E+04 -0.61259212328E+03  0.17266055052E+04  0.46999998093E+01 0. -1.
       -5    1    3    3    0  502  0.10855384568E+04  0.11947726269E+04  0.40012064290E+03  0.16631277732E+04  0.46999998093E+01 0.  1.
</event>
<event>
 5   0  0.4125758E-07  0.3389208E+04  0.7818609E-02  0.8140560E-01
       -1   -1    0    0    0  501  0.00000000000E+00  0.00000000000E+00  0.18895271928E+04  0.18895271928E+04  0.50400001928E-02 0.  1.
        1   -1    0    0  501    0  0.00000000000E+00  0.00000000000E+00 -0.15197889378E+04  0.15197889378E+04  0.50400001928E-02 0. -1.
    10030    2    1    2    0    0  0.00000000000E+00  0.00000000000E+00  0.36973825497E+03  0.34093161307E+04  0.33892078870E+04 0.  0.
        2    1    3    3  502    0  0.13717142392E+04  0.95226444194E+03  0.47515533129E+03  0.17361394271E+04  0.25500000920E-02 0.  1.
       -2    1    3    3    0  502 -0.13717142392E+04 -0.95226444194E+03 -0.10541707632E+03  0.16731767036E+04  0.25500000920E-02 0. -1.
</event>
<event>
 5   0  0.1256208E-06  0.3355720E+04  0.7818609E-02  0.8148860E-01
        2   -1    0    0  501    0  0.00000000000E+00  0.00000000000E+00  0.15569573024E+04  0.15569573024E+04  0.25500000920E-02 0. -1.
       -2   -1    0    0    0  501  0.00000000000E+00  0.00000000000E+00 -0.18081517056E+04  0.18081517056E+04  0.25500000920E-02 0.  1.
    10030    2    1    2    0    0  0.00000000000E+00  0.00000000000E+00 -0.25119440325E+03  0.33651090080E+04  0.33557204900E+04 0.  0.
        3    1    3    3  502    0  0.18718143297E+03  0.13818926791E+04  0.81004628460E+03  0.16127117718E+04  0.10100000352E+00 0. -1.
       -3    1    3    3    0  502 -0.18718143297E+03 -0.13818926791E+04 -0.10612406878E+04  0.17523972362E+04  0.10100000352E+00 0.  1.
</event>
<event>
 5   0  0.4125758E-07  0.3389165E+04  0.7818609E-02  0.8140571E-01
        1   -1    0    0  501    0  0.00000000000E+00  0.00000000000E+00  0.17071694947E+04  0.17071694947E+04  0.50400001928E-02 0. -1.
       -1   -1    0    0    0  501  0.00000000000E+00  0.00000000000E+00 -0.16820885121E+04  0.16820885121E+04  0.50400001928E-02 0.  1.
    10030    2    1    2    0    0  0.00000000000E+00  0.00000000000E+00  0.25080982613E+02  0.33892580068E+04  0.33891652042E+04 0.  0.
        2    1    3    3  502    0 -0.38003698109E+03  0.76732593393E+02  0.16622202267E+04  0.17068368639E+04  0.25500000920E-02 0. -1.
       -2    1    3    3    0  502  0.38003698109E+03 -0.76732593393E+02 -0.16371392440E+04  0.16824211430E+04  0.25500000920E-02 0.  1.
</event>
<event>
 5   0  0.1277635E-06  0.3492658E+04  0.7818609E-02  0.8115532E-01
       -2   -1    0    0    0  501  0.00000000000E+00  0.00000000000E+00  0.15351810714E+04  0.15351810714E+04  0.25500000920E-02 0. -1.
        2   -1    0    0  501    0  0.00000000000E+00  0.00000000000E+00 -0.19865185073E+04  0.19865185073E+04  0.25500000920E-02 0.  1.
    10030    2    1    2    0    0  0.00000000000E+00  0.00000000000E+00 -0.45133743589E+03  0.35216995787E+04  0.34926583631E+04 0.  0.
        4    1    3    3  502    0 -0.47285091596E+03  0.11672467356E+04 -0.14455260498E+04  0.19171854642E+04  0.12699999809E+01 0.  1.
       -4    1    3    3    0  502  0.47285091596E+03 -0.11672467356E+04  0.99418861394E+03  0.16045141145E+04  0.12699999809E+01 0. -1.
</event>
<event>
 5   0  0.4464951E-07  0.3064921E+04  0.7818609E-02  0.8225432E-01
       -1   -1    0    0    0  501  0.00000000000E+00  0.00000000000E+00  0.10336190000E+04  0.10336190000E+04  0.50400001928E-02 0. -1.
        1   -1    0    0  501    0  0.00000000000E+00  0.00000000000E+00 -0.22720507955E+04  0.22720507955E+04  0.50400001928E-02 0.  1.
    10030    2    1    2    0    0  0.00000000000E+00  0.00000000000E+00 -0.12384317955E+04  0.33056697955E+04  0.30649207959E+04 0.  0.
        3    1    3    3  502    0 -0.15249142498E+04  0.13912681894E+03 -0.68495543352E+03  0.16774634712E+04  0.10100000352E+00 0.  1.
       -3    1    3    3    0  502  0.15249142498E+04 -0.13912681894E+03 -0.55347636201E+03  0.16282063243E+04  0.10100000352E+00 0. -1.
</event>
<event>
 5   0  0.1256208E-06  0.3179916E+04  0.7818609E-02  0.8194142E-01
       -2   -1    0    0    0  501  0.00000000000E+00  0.00000000000E+00  0.15465281472E+04  0.15465281472E+04  0.25500000920E-02 0. -1.
        2   -1    0    0  501    0  0.00000000000E+00  0.00000000000E+00 -0.16346073949E+04  0.16346073949E+04  0.25500000920E-02 0.  1.
    10030    2    1    2    0    0  0.00000000000E+00  0.00000000000E+00 -0.88079247646E+02  0.31811355421E+04  0.31799159397E+04 0.  0.
        3    1    3    3  502    0  0.13272482189E+04  0.86568675991E+03  0.86259841362E+02  0.15869600408E+04  0.10100000352E+00 0.  1.
       -3    1    3    3    0  502 -0.13272482189E+04 -0.86568675991E+03 -0.17433908901E+03  0.15941755013E+04  0.10100000352E+00 0. -1.
</event>
<event>
 5   0  0.4289684E-07  0.3390114E+04  0.7818609E-02  0.8140337E-01
       -1   -1    0    0    0  501  0.00000000000E+00  0.00000000000E+00  0.18581732731E+04  0.18581732731E+04  0.50400001928E-02 0.  1.
        1   -1    0    0  501    0  0.00000000000E+00  0.00000000000E+00 -0.15462592915E+04  0.15462592915E+04  0.50400001928E-02 0. -1.
    10030    2    1    2    0    0  0.00000000000E+00  0.00000000000E+00  0.31191398163E+03  0.34044325646E+04  0.33901136787E+04 0.  0.
        4    1    3    3  502    0 -0.94592210041E+03  0.13825094081E+04  0.41611721274E+03  0.17260521519E+04  0.12699999809E+01 0.  1.
       -4    1    3    3    0  502  0.94592210041E+03 -0.13825094081E+04 -0.10420323111E+03  0.16783804127E+04  0.12699999809E+01 0. -1.
</event>
<event>
 5   0  0.1300176E-06  0.3400075E+04  0.7818609E-02  0.8137888E-01
       -2   -1    0    0    0  501  0.00000000000E+00  0.00000000000E+00  0.15854782625E+04  0.15854782625E+04  0.25500000920E-02 0.  1.
        2   -1    0    0  501    0  0.00000000000E+00  0.00000000000E+00 -0.18228741271E+04  0.18228741271E+04  0.25500000920E-02 0. -1.
    10030    2    1    2    0    0  0.00000000000E+00  0.00000000000E+00 -0.23739586460E+03  0.34083523896E+04  0.34000748837E+04 0.  0.
        1    1    3    3  502    0  0.13445505932E+04  0.84909373369E+03  0.48389015377E+03  0.16622052061E+04  0.50400001928E-02 0.  1.
       -1    1    3    3    0  502 -0.13445505932E+04 -0.84909373369E+03 -0.72128601837E+03  0.17461471835E+04  0.50400001928E-02 0. -1.
</event>
<event>
 5   0  0.4109937E-07  0.3401905E+04  0.7818609E-02  0.8137439E-01
       -1   -1    0    0    0  501  0.00000000000E+00  0.00000000000E+00  0.10136614428E+04  0.10136614428E+04  0.50400001928E-02 0.  1.
        1   -1    0    0  501    0  0.00000000000E+00  0.00000000000E+00 -0.28542471204E+04  0.28542471204E+04  0.50400001928E-02 0. -1.
    10030    2    1    2    0    0  0.00000000000E+00  0.00000000000E+00 -0.18405856776E+04  0.38679085633E+04  0.34019054980E+04 0.  0.
        5    1    3    3  502    0  0.87526645110E+03 -0.89271303251E+02 -0.25754360049E+04  0.27215718678E+04  0.46999998093E+01 0. -1.
       -5    1    3    3    0  502 -0.87526645110E+03  0.89271303251E+02  0.73485032727E+03  0.11463366955E+04  0.46999998093E+01 0.  1.
</event>
<event>
 5   0  0.4289684E-07  0.3486872E+04  0.7818609E-02  0.8116908E-01
        1   -1    0    0  501    0  0.00000000000E+00  0.00000000000E+00  0.97339002154E+03  0.97339002156E+03  0.50400001928E-02 0.  1.
       -1   -1    0    0    0  501  0.00000000000E+00  0.00000000000E+00 -0.31226631581E+04  0.31226631581E+04  0.50400001928E-02 0. -1.
    10030    2    1    2    0    0  0.00000000000E+00  0.00000000000E+00 -0.21492731365E+04  0.40960531796E+04  0.34868720417E+04 0.  0.
        4    1    3    3  502    0 -0.15609078681E+04 -0.55625458865E+03 -0.17112746945E+04  0.23820821214E+04  0.12699999809E+01 0.  1.
       -4    1    3    3    0  502  0.15609078681E+04  0.55625458865E+03 -0.43799844201E+03  0.17139710582E+04  0.12699999809E+01 0. -1.
</event>
<event>
 5   0  0.1256208E-06  0.3358844E+04  0.7818609E-02  0.8148082E-01
       -2   -1    0    0    0  501  0.00000000000E+00  0.00000000000E+00  0.17337394660E+04  0.17337394660E+04  0.25500000920E-02 0.  1.
        2   -1    0    0  501    0  0.00000000000E+00  0.00000000000E+00 -0.16268062639E+04  0.16268062639E+04  0.25500000920E-02 0. -1.
    10030    2    1    2    0    0  0.00000000000E+00  0.00000000000E+00  0.10693320208E+03  0.33605457299E+04  0.33588439816E+04 0.  0.
        3    1    3    3  502    0 -0.28925984987E+03  0.98313545837E+03 -0.12777080089E+04  0.16379146365E+04  0.10100000352E+00 0. -1.
       -3    1    3    3    0  502  0.28925984987E+03 -0.98313545837E+03  0.13846412110E+04  0.17226310933E+04  0.10100000352E+00 0.  1.
</event>
<event>
 5   0  0.4060750E-07  0.3409179E+04  0.7818609E-02  0.8135657E-01
        3   -1    0    0  501    0  0.00000000000E+00  0.00000000000E+00  0.20927708764E+04  0.20927708788E+04  0.10100000352E+00 0. -1.
       -3   -1    0    0    0  501  0.00000000000E+00  0.00000000000E+00 -0.13884108858E+04  0.13884108894E+04  0.10100000352E+00 0.  1.
    10030    2    1    2    0    0  0.00000000000E+00  0.00000000000E+00  0.70435999063E+03  0.34811817683E+04  0.34091793011E+04 0.  0.
        2    1    3    3  502    0  0.77690411412E+03  0.98206673063E+03  0.15331489898E+04  0.19795405757E+04  0.25500000920E-02 0. -1.
       -2    1    3    3    0  502 -0.77690411412E+03 -0.98206673063E+03 -0.82878899919E+03  0.15016411925E+04  0.25500000920E-02 0.  1.
</event>
<event>
 5   0  0.4464951E-07  0.3507509E+04  0.7818609E-02  0.8112013E-01
        1   -1    0    0  501    0  0.00000000000E+00  0.00000000000E+00  0.14529782919E+04  0.14529782919E+04  0.50400001928E-02 0.  1.
       -1   -1    0    0    0  501  0.00000000000E+00  0.00000000000E+00 -0.21167932412E+04  0.21167932412E+04  0.50400001928E-02 0. -1.
    10030    2    1    2    0    0  0.00000000000E+00  0.00000000000E+00 -0.66381494932E+03  0.35697715331E+04  0.35075088755E+04 0.  0.
        3    1    3    3  502    0  0.22619406954E+03  0.17388504675E+04 -0.30154652884E+03  0.17792400132E+04  0.10100000352E+00 0. -1.
       -3    1    3    3    0  502 -0.22619406954E+03 -0.17388504675E+04 -0.36226842049E+03  0.17905315200E+04  0.10100000352E+00 0.  1.
</event>
<event>
 5   0  0.4125758E-07  0.3400837E+04  0.7818609E-02  0.8137701E-01
       -1   -1    0    0    0  501  0.00000000000E+00  0.00000000000E+00  0.19538953239E+04  0.19538953239E+04  0.50400001928E-02 0. -1.
        1   -1    0    0  501    0  0.00000000000E+00  0.00000000000E+00 -0.14798251455E+04  0.14798251455E+04  0.50400001928E-02 0.  1.
    10030    2    1    2    0    0  0.00000000000E+00  0.00000000000E+00  0.47407017838E+03  0.34337204694E+04  0.34008372099E+04 0.  0.
        2    1    3    3  502    0 -0.67688120142E+03  0.85523469351E+03 -0.10801203804E+04  0.15350096345E+04  0.25500000920E-02 0.  1.
       -2    1    3    3    0  502  0.67688120142E+03 -0.85523469351E+03  0.15541905587E+04  0.18987108349E+04  0.25500000920E-02 0. -1.
</event>
<event>
 5   0  0.1268230E-06  0.3441062E+04  0.7818609E-02  0.8127901E-01
       -2   -1    0    0    0  501  0.00000000000E+00  0.00000000000E+00  0.12725747576E+04  0.12725747576E+04  0.25500000920E-02 0. -1.
        2   -1    0    0  501    0  0.00000000000E+00  0.00000000000E+00 -0.23261709125E+04  0.23261709125E+04  0.25500000920E-02 0.  1.
    10030    2    1    2    0    0  0.00000000000E+00  0.00000000000E+00 -0.10535961549E+04  0.35987456702E+04  0.34410616881E+04 0.  0.
        2    1    3    3  502    0 -0.40091762519E+03  0.36394271441E+03 -0.22347405129E+04  0.22994030533E+04  0.25500000920E-02 0.  1.
       -2    1    3    3    0  502  0.40091762519E+03 -0.36394271441E+03  0.11811443580E+04  0.12993426169E+04  0.25500000920E-02 0. -1.
</event>
<event>
 5   0  0.4289684E-07  0.3049039E+04  0.7818609E-02  0.8229865E-01
        1   -1    0    0  501    0  0.00000000000E+00  0.00000000000E+00  0.25667530345E+04  0.25667530345E+04  0.50400001928E-02 0.  1.
       -1   -1    0    0    0  501  0.00000000000E+00  0.00000000000E+00 -0.90548614182E+03  0.90548614184E+03  0.50400001928E-02 0. -1.
    10030    2    1    2    0    0  0.00000000000E+00  0.00000000000E+00  0.16612668926E+04  0.34722391763E+04  0.30490387352E+04 0.  0.
        4    1    3    3  502    0 -0.65191450517E+03 -0.71067583844E+03  0.21752375631E+04  0.23794353822E+04  0.12699999809E+01 0.  1.
       -4    1    3    3    0  502  0.65191450517E+03  0.71067583844E+03 -0.51397067045E+03  0.10928037941E+04  0.12699999809E+01 0. -1.
</event>
<event>
 5   0  0.4125758E-07  0.3412749E+04  0.7818609E-02  0.8134784E-01
        1   -1    0    0  501    0  0.00000000000E+00  0.00000000000E+00  0.15011260465E+04  0.15011260465E+04  0.50400001928E-02 0. -1.
       -1   -1    0    0    0  501  0.00000000000E+00  0.00000000000E+00 -0.19396859719E+04  0.19396859719E+04  0.50400001928E-02 0.  1.
    10030    2    1    2    0    0  0.00000000000E+00  0.00000000000E+00 -0.43855992537E+03  0.34408120184E+04  0.34127485313E+04 0.  0.
        2    1    3    3  502    0 -0.11928139637E+04  0.64927495555E+03 -0.12609018288E+04  0.18531693236E+04  0.25500000920E-02 0.  1.
       -2    1    3    3    0  502  0.11928139637E+04 -0.64927495555E+03  0.82234190346E+03  0.15876426948E+04  0.25500000920E-02 0. -1.
</event>
<event>
 5   0  0.4464951E-07  0.3410398E+04  0.7818609E-02  0.8135359E-01
       -1   -1    0    0    0  501  0.00000000000E+00  0.00000000000E+00  0.12090241032E+04  0.12090241033E+04  0.50400001928E-02 0.  1.
        1   -1    0    0  501    0  0.00000000000E+00  0.00000000000E+00 -0.24050001629E+04  0.24050001629E+04  0.50400001928E-02 0. -1.
    10030    2    1    2    0    0  0.00000000000E+00  0.00000000000E+00 -0.11959760596E+04  0.36140242661E+04  0.34103977277E+04 0.  0.
        3    1    3    3  502    0  0.10000701396E+03  0.45267050627E+03 -0.23369391347E+04  0.23824769715E+04  0.10100000352E+00 0. -1.
       -3    1    3    3    0  502 -0.10000701396E+03 -0.45267050627E+03  0.11409630751E+04  0.12315472947E+04  0.10100000352E+00 0.  1.
</event>
<event>
 5   0  0.1300176E-06  0.3425899E+04  0.7818609E-02  0.8131579E-01
       -2   -1    0    0    0  501  0.00000000000E+00  0.00000000000E+00  0.21022426854E+04  0.21022426854E+04  0.25500000920E-02 0. -1.
        2   -1    0    0  501    0  0.00000000000E+00  0.00000000000E+00 -0.13957455248E+04  0.13957455248E+04  0.25500000920E-02 0.  1.
    10030    2    1    2    0    0  0.00000000000E+00  0.00000000000E+00  0.70649716058E+03  0.34979882103E+04  0.34258989012E+04 0.  0.
        1    1    3    3  502    0 -0.26562756372E+03  0.16634436307E+04  0.35914392787E+02  0.16849013498E+04  0.50400001928E-02 0. -1.
       -1    1    3    3    0  502  0.26562756372E+03 -0.16634436307E+04  0.67058276779E+03  0.18130868604E+04  0.50400001928E-02 0.  1.
</event>
<event>
 5   0  0.1277635E-06  0.3386386E+04  0.7818609E-02  0.8141256E-01
        2   -1    0    0  501    0  0.00000000000E+00  0.00000000000E+00  0.16009449380E+04  0.16009449380E+04  0.25500000920E-02 0.  1.
       -2   -1    0    0    0  501  0.00000000000E+00  0.00000000000E+00 -0.17907569074E+04  0.17907569074E+04  0.25500000920E-02 0. -1.
    10030    2    1    2    0    0  0.00000000000E+00  0.00000000000E+00 -0.18981196941E+03  0.33917018455E+04  0.33863863963E+04 0.  0.
        4    1    3    3  502    0 -0.10454294780E+04 -0.10477382555E+04  0.72871278942E+03  0.16497582210E+04  0.12699999809E+01 0.  1.
       -4    1    3    3    0  502  0.10454294780E+04  0.10477382555E+04 -0.91852475883E+03  0.17419436245E+04  0.12699999809E+01 0. -1.
</event>
<event>
 5   0  0.4272633E-07  0.3354854E+04  0.7818609E-02  0.8149076E-01
       -1   -1    0    0    0  501  0.00000000000E+00  0.00000000000E+00  0.12078686997E+04  0.12078686997E+04  0.50400001928E-02 0.  1.
        1   -1    0    0  501    0  0.00000000000E+00  0.00000000000E+00 -0.23295252519E+04  0.23295252520E+04  0.50400001928E-02 0. -1.
    10030    2    1    2    0    0  0.00000000000E+00  0.00000000000E+00 -0.11216565523E+04  0.35373939516E+04  0.33548535807E+04 0.  0.
        1    1    3    3  502    0  0.15712954713E+03 -0.49665635566E+03  0.11204209183E+04  0.12355971287E+04  0.50400001928E-02 0.  1.
       -1    1    3    3    0  502 -0.15712954713E+03  0.49665635566E+03 -0.22420774706E+04  0.23017968230E+04  0.50400001928E-02 0. -1.
</event>
<event>
 5   0  0.1300176E-06  0.3415702E+04  0.7818609E-02  0.8134063E-01
        2   -1    0    0  501    0  0.00000000000E+00  0.00000000000E+00  0.16011767012E+04  0.16011767012E+04  0.25500000920E-02 0. -1.
       -2   -1    0    0    0  501  0.00000000000E+00  0.00000000000E+00 -0.18216318309E+04  0.18216318309E+04  0.25500000920E-02 0.  1.
    10030    2    1    2    0    0  0.00000000000E+00  0.00000000000E+00 -0.22045512966E+03  0.34228085322E+04  0.34157016532E+04 0.  0.
        1    1    3    3  502    0 -0.79480917335E+03 -0.21025999852E+03  0.13898250995E+04  0.16147893659E+04  0.50400001928E-02 0. -1.
       -1    1    3    3    0  502  0.79480917335E+03  0.21025999852E+03 -0.16102802292E+04  0.18080191662E+04  0.50400001928E-02 0.  1.
</event>
<event>
 5   0  0.1277635E-06  0.3358607E+04  0.7818609E-02  0.8148141E-01
       -2   -1    0    0    0  501  0.00000000000E+00  0.00000000000E+00  0.18831725996E+04  0.18831725996E+04  0.25500000920E-02 0.  1.
        2   -1    0    0  501    0  0.00000000000E+00  0.00000000000E+00 -0.14975053044E+04  0.14975053044E+04  0.25500000920E-02 0. -1.
    10030    2    1    2    0    0  0.00000000000E+00  0.00000000000E+00  0.38566729521E+03  0.33806779040E+04  0.33586074239E+04 0.  0.
        4    1    3    3  502    0  0.97870184614E+02 -0.16762860790E+04  0.21634850422E+03  0.16930215238E+04  0.12699999809E+01 0.  1.
       -4    1    3    3    0  502 -0.97870184614E+02  0.16762860790E+04  0.16931879099E+03  0.16876563802E+04  0.12699999809E+01 0. -1.
</event>
<event>
 5   0  0.1269497E-06  0.3344627E+04  0.7818609E-02  0.8151632E-01
       -2   -1    0    0    0  501  0.00000000000E+00  0.00000000000E+00  0.15652598593E+04  0.15652598593E+04  0.25500000920E-02 0.  1.
        2   -1    0    0  501    0  0.00000000000E+00  0.00000000000E+00 -0.17866891799E+04  0.17866891799E+04  0.25500000920E-02 0. -1.
    10030    2    1    2    0    0  0.00000000000E+00  0.00000000000E+00 -0.22142932059E+03  0.33519490392E+04  0.33446272464E+04 0.  0.
        5    1    3    3  502    0  0.35217479527E+03 -0.15012456217E+04 -0.75931397734E+03  0.17188209067E+04  0.46999998093E+01 0.  1.
       -5    1    3    3    0  502 -0.35217479527E+03  0.15012456217E+04  0.53788465676E+03  0.16331281325E+04  0.46999998093E+01 0. -1.
</event>
<event>
 5   0  0.1300176E-06  0.3357588E+04  0.7818609E-02  0.8148395E-01
        2   -1    0    0  501    0  0.00000000000E+00  0.00000000000E+00  0.26958415437E+04  0.26958415437E+04  0.25500000920E-02 0.  1.
       -2   -1    0    0    0  501  0.00000000000E+00  0.00000000000E+00 -0.10454429441E+04  0.10454429441E+04  0.25500000920E-02 0. -1.
    10030    2    1    2    0    0  0.00000000000E+00  0.00000000000E+00  0.16503985996E+04  0.37412844878E+04  0.33575875389E+04 0.  0.
        1    1    3    3  502    0  0.14959006342E+04 -0.26120765514E+03  0.16228231063E+04  0.22224992645E+04  0.50400001928E-02 0.  1.
       -1    1    3    3    0  502 -0.14959006342E+04  0.26120765514E+03  0.27575493298E+02  0.15187852233E+04  0.50400001928E-02 0. -1.
</event>
<event>
 5   0  0.1269497E-06  0.3307516E+04  0.7818609E-02  0.8160986E-01
       -2   -1    0    0    0  501  0.00000000000E+00  0.00000000000E+00  0.19951611912E+04  0.19951611912E+04  0.25500000920E-02 0.  1.
        2   -1    0    0  501    0  0.00000000000E+00  0.00000000000E+00 -0.13707742512E+04  0.13707742512E+04  0.25500000920E-02 0. -1.
    10030    2    1    2    0    0  0.00000000000E+00  0.00000000000E+00  0.62438694001E+03  0.33659354424E+04  0.33075160396E+04 0.  0.
        5    1    3    3  502    0 -0.15835177573E+04  0.21111815696E+02 -0.17258077885E+03  0.15930412461E+04  0.46999998093E+01 0.  1.
       -5    1    3    3    0  502  0.15835177573E+04 -0.21111815696E+02  0.79696771886E+03  0.17728941964E+04  0.46999998093E+01 0. -1.
</event>
<event>
 5   0  0.1300176E-06  0.3392943E+04  0.7818609E-02  0.8139640E-01
        2   -1    0    0  501    0  0.00000000000E+00  0.00000000000E+00  0.14688134586E+04  0.14688134587E+04  0.25500000920E-02 0.  1.
       -2   -1    0    0    0  501  0.00000000000E+00  0.00000000000E+00 -0.19594153962E+04  0.19594153962E+04  0.25500000920E-02 0. -1.
    10030    2    1    2    0    0  0.00000000000E+00  0.00000000000E+00 -0.49060193751E+03  0.34282288548E+04  0.33929430912E+04 0.  0.
        1    1    3    3  502    0  0.30602934694E+03 -0.74453065848E+03 -0.17541616869E+04  0.19300422499E+04  0.50400001928E-02 0. -1.
       -1    1    3    3    0  502 -0.30602934694E+03  0.74453065848E+03  0.12635597494E+04  0.14981866049E+04  0.50400001928E-02 0.  1.
</event>
<event>
 5   0  0.4289684E-07  0.3479945E+04  0.7818609E-02  0.8118559E-01
        1   -1    0    0  501    0  0.00000000000E+00  0.00000000000E+00  0.17640152433E+04  0.17640152433E+04  0.50400001928E-02 0.  1.
       -1   -1    0    0    0  501  0.00000000000E+00  0.00000000000E+00 -0.17162574482E+04  0.17162574482E+04  0.50400001928E-02 0. -1.
    10030    2    1    2    0    0  0.00000000000E+00  0.00000000000E+00  0.47757795064E+02  0.34802726915E+04  0.34799449996E+04 0.  0.
        4    1    3    3  502    0  0.16827693360E+03 -0.15204104938E+04 -0.80537798816E+03  0.17287569270E+04  0.12699999809E+01 0. -1.
       -4    1    3    3    0  502 -0.16827693360E+03  0.15204104938E+04  0.85313578322E+03  0.17515157645E+04  0.12699999809E+01 0.  1.
</event>
<event>
 5   0  0.4464951E-07  0.3416189E+04  0.7818609E-02  0.8133944E-01
       -1   -1    0    0    0  501  0.00000000000E+00  0.00000000000E+00  0.14448532087E+04  0.14448532087E+04  0.50400001928E-02 0. -1.
        1   -1    0    0  501    0  0.00000000000E+00  0.00000000000E+00 -0.20192959390E+04  0.20192959390E+04  0.50400001928E-02 0.  1.
    10030    2    1    2    0    0  0.00000000000E+00  0.00000000000E+00 -0.57444273032E+03  0.34641491477E+04  0.34161886463E+04 0.  0.
        3    1    3    3  502    0 -0.10796964403E+04 -0.12966315769E+04 -0.55663605652E+03  0.17767502804E+04  0.10100000352E+00 0.  1.
       -3    1    3    3    0  502  0.10796964403E+04  0.12966315769E+04 -0.17806673801E+02  0.16873988673E+04  0.10100000352E+00 0. -1.
</event>
<event>
 5   0  0.1300176E-06  0.3433739E+04  0.7818609E-02  0.8129675E-01
        2   -1    0    0  501    0  0.00000000000E+00  0.00000000000E+00  0.12713683572E+04  0.12713683572E+04  0.25500000920E-02 0. -1.
       -2   -1    0    0    0  501  0.00000000000E+00  0.00000000000E+00 -0.23184795025E+04  0.23184795025E+04  0.25500000920E-02 0.  1.
    10030    2    1    2    0    0  0.00000000000E+00  0.00000000000E+00 -0.10471111454E+04  0.35898478597E+04  0.34337393473E+04 0.  0.
        1    1    3    3  502    0  0.10313514779E+04  0.27431443039E+03  0.88246880875E+03  0.13848052123E+04  0.50400001928E-02 0. -1.
       -1    1    3    3    0  502 -0.10313514779E+04 -0.27431443039E+03 -0.19295799541E+04  0.22050426474E+04  0.50400001928E-02 0.  1.
</event>
<event>
 5   0  0.4125758E-07  0.3400613E+04  0.7818609E-02  0.8137756E-01
        1   -1    0    0  501    0  0.00000000000E+00  0.00000000000E+00  0.23370678004E+04  0.23370678005E+04  0.50400001928E-02 0.  1.
       -1   -1    0    0    0  501  0.00000000000E+00  0.00000000000E+00 -0.12370384965E+04  0.12370384965E+04  0.50400001928E-02 0. -1.
    10030    2    1    2    0    0  0.00000000000E+00  0.00000000000E+00  0.11000293039E+04  0.35741062970E+04  0.34006133789E+04 0.  0.
        2    1    3    3  502    0 -0.13295919371E+04  0.57244314647E+03  0.14874479743E+04  0.20755739812E+04  0.25500000920E-02 0.  1.
       -2    1    3    3    0  502  0.13295919371E+04 -0.57244314647E+03 -0.38741867032E+03  0.14985323158E+04  0.25500000920E-02 0. -1.
</event>
<event>
 5   0  0.1268230E-06  0.3403297E+04  0.7818609E-02  0.8137098E-01
       -2   -1    0    0    0  501  0.00000000000E+00  0.00000000000E+00  0.16117342443E+04  0.16117342443E+04  0.25500000920E-02 0.  1.
        2   -1    0    0  501    0  0.00000000000E+00  0.00000000000E+00 -0.17965791594E+04  0.17965791594E+04  0.25500000920E-02 0. -1.
    10030    2    1    2    0    0  0.00000000000E+00  0.00000000000E+00 -0.18484491505E+03  0.34083134037E+04  0.34032973152E+04 0.  0.
        2    1    3    3  502    0  0.87317211103E+03 -0.13864375927E+04  0.36756859680E+03  0.16792097568E+04  0.25500000920E-02 0.  1.
       -2    1    3    3    0  502 -0.87317211103E+03  0.13864375927E+04 -0.55241351184E+03  0.17291036470E+04  0.25500000920E-02 0. -1.
</event>
<event>
 5   0  0.4289684E-07  0.3403312E+04  0.7818609E-02  0.8137094E-01
       -1   -1    0    0    0  501  0.00000000000E+00  0.00000000000E+00  0.18408497991E+04  0.18408497991E+04  0.50400001928E-02 0.  1.
        1   -1    0    0  501    0  0.00000000000E+00  0.00000000000E+00 -0.15729874340E+04  0.15729874340E+04  0.50400001928E-02 0. -1.
    10030    2    1    2    0    0  0.00000000000E+00  0.00000000000E+00  0.26786236508E+03  0.34138372330E+04  0.34033122700E+04 0.  0.
        4    1    3    3  502    0 -0.94215069022E+02  0.16977575344E+04  0.20027848811E+03  0.17121244729E+04  0.12699999809E+01 0.  1.
       -4    1    3    3    0  502  0.94215069022E+02 -0.16977575344E+04  0.67583876971E+02  0.17017127602E+04  0.12699999809E+01 0. -1.
</event>
<event>
 5   0  0.1269497E-06  0.3404781E+04  0.7818609E-02  0.8136734E-01
        2   -1    0    0  501    0  0.00000000000E+00  0.00000000000E+00  0.19774787931E+04  0.19774787931E+04  0.25500000920E-02 0. -1.
       -2   -1    0    0    0  501  0.00000000000E+00  0.00000000000E+00 -0.14655698948E+04  0.14655698948E+04  0.25500000920E-02 0.  1.
    10030    2    1    2    0    0  0.00000000000E+00  0.00000000000E+00  0.51190889832E+03  0.34430486879E+04  0.34047809837E+04 0.  0.
        5    1    3    3  502    0 -0.29594019721E+02  0.16805875887E+04 -0.17006860174E+02  0.16809407403E+04  0.46999998093E+01 0. -1.
       -5    1    3    3    0  502  0.29594019721E+02 -0.16805875887E+04  0.52891575849E+03  0.17621079475E+04  0.46999998093E+01 0.  1.
</event>
<event>
 5   0  0.4272633E-07  0.3381531E+04  0.7818609E-02  0.8142454E-01
        1   -1    0    0  501    0  0.00000000000E+00  0.00000000000E+00  0.20367991207E+04  0.20367991207E+04  0.50400001928E-02 0. -1.
       -1   -1    0    0    0  501  0.00000000000E+00  0.00000000000E+00 -0.14035199431E+04  0.14035199431E+04  0.50400001928E-02 0.  1.
    10030    2    1    2    0    0  0.00000000000E+00  0.00000000000E+00  0.63327917763E+03  0.34403190638E+04  0.33815311242E+04 0.  0.
        1    1    3    3  502    0  0.25480187248E+03 -0.33966720483E+03 -0.13483912100E+04  0.14136678038E+04  0.50400001928E-02 0.  1.
       -1    1    3    3    0  502 -0.25480187248E+03  0.33966720483E+03  0.19816703877E+04  0.20266512600E+04  0.50400001928E-02 0. -1.
</event>
<event>
 5   0  0.1300176E-06  0.3428032E+04  0.7818609E-02  0.8131060E-01
       -2   -1    0    0    0  501  0.00000000000E+00  0.00000000000E+00  0.12837460951E+04  0.12837460951E+04  0.25500000920E-02 0. -1.
        2   -1    0    0  501    0  0.00000000000E+00  0.00000000000E+00 -0.22884982331E+04  0.22884982331E+04  0.25500000920E-02 0.  1.
    10030    2    1    2    0    0  0.00000000000E+00  0.00000000000E+00 -0.10047521380E+04  0.35722443282E+04  0.34280318962E+04 0.  0.
        1    1    3    3  502    0  0.13771063632E+04 -0.12950575858E+03  0.55246141800E+03  0.14894318700E+04  0.50400001928E-02 0.  1.
       -1    1    3    3    0  502 -0.13771063632E+04  0.12950575858E+03 -0.15572135560E+04  0.20828124582E+04  0.50400001928E-02 0. -1.
</event>
<event>
 5   0  0.4125758E-07  0.3393464E+04  0.7818609E-02  0.8139512E-01
       -1   -1    0    0    0  501  0.00000000000E+00  0.00000000000E+00  0.15743140728E+04  0.15743140728E+04  0.50400001928E-02 0.  1.
        1   -1    0    0  501    0  0.00000000000E+00  0.00000000000E+00 -0.18286694986E+04  0.18286694987E+04  0.50400001928E-02 0. -1.
    10030    2    1    2    0    0  0.00000000000E+00  0.00000000000E+00 -0.25435542582E+03  0.34029835715E+04  0.33934643810E+04 0.  0.
        2    1    3    3  502    0 -0.15981575851E+04  0.22882077993E+03 -0.65059350338E+03  0.17406144096E+04  0.25500000920E-02 0.  1.
       -2    1    3    3    0  502  0.15981575851E+04 -0.22882077993E+03  0.39623807755E+03  0.16623691619E+04  0.25500000920E-02 0. -1.
</event>
<event>
 5   0  0.4125758E-07  0.3431892E+04  0.7818609E-02  0.8130123E-01
       -1   -1    0    0    0  501  0.00000000000E+00  0.00000000000E+00  0.18368092057E+04  0.18368092057E+04  0.50400001928E-02 0.  1.
        1   -1    0    0  501    0  0.00000000000E+00  0.00000000000E+00 -0.16030357342E+04  0.16030357342E+04  0.50400001928E-02 0. -1.
    10030    2    1    2    0    0  0.00000000000E+00  0.00000000000E+00  0.23377347151E+03  0.34398449399E+04  0.34318920692E+04 0.  0.
        2    1    3    3  502    0 -0.86514073570E+03 -0.14817307165E+04  0.13876355756E+03  0.17214092290E+04  0.25500000920E-02 0.  1.
       -2    1    3    3    0  502  0.86514073570E+03  0.14817307165E+04  0.95009913955E+02  0.17184357109E+04  0.25500000920E-02 0. -1.
</event>
<event>
 5   0  0.4109937E-07  0.3415532E+04  0.7818609E-02  0.8134105E-01
        1   -1    0    0  501    0  0.00000000000E+00  0.00000000000E+00  0.23773759764E+04  0.23773759764E+04  0.50400001928E-02 0. -1.
       -1   -1    0    0    0  501  0.00000000000E+00  0.00000000000E+00 -0.12267580601E+04  0.12267580601E+04  0.50400001928E-02 0.  1.
    10030    2    1    2    0    0  0.00000000000E+00  0.00000000000E+00  0.11506179164E+04  0.36041340365E+04  0.34155322519E+04 0.  0.
        5    1    3    3  502    0 -0.38578424120E+02  0.40045105936E+03  0.23266523927E+04  0.23611824987E+04  0.46999998093E+01 0. -1.
       -5    1    3    3    0  502  0.38578424120E+02 -0.40045105936E+03 -0.11760344763E+04  0.12429515378E+04  0.46999998093E+01 0.  1.
</event>
<event>
 5   0  0.4109937E-07  0.3394225E+04  0.7818609E-02  0.8139325E-01
        1   -1    0    0  501    0  0.00000000000E+00  0.00000000000E+00  0.24820656387E+04  0.24820656387E+04  0.50400001928E-02 0. -1.
       -1   -1    0    0    0  501  0.00000000000E+00  0.00000000000E+00 -0.11604010875E+04  0.11604010875E+04  0.50400001928E-02 0.  1.
    10030    2    1    2    0    0  0.00000000000E+00  0.00000000000E+00  0.13216645512E+04  0.36424667261E+04  0.33942254883E+04 0.  0.
        5    1    3    3  502    0 -0.13938164372E+04  0.91001374141E+03  0.10156500132E+04  0.19499785408E+04  0.46999998093E+01 0.  1.
       -5    1    3    3    0  502  0.13938164372E+04 -0.91001374141E+03  0.30601453803E+03  0.16924881854E+04  0.46999998093E+01 0. -1.
</event>
<event>
 5   0  0.4289684E-07  0.3364784E+04  0.7818609E-02  0.8146604E-01
        1   -1    0    0  501    0  0.00000000000E+00  0.00000000000E+00  0.15013326014E+04  0.15013326014E+04  0.50400001928E-02 0.  1.
       -1   -1    0    0    0  501  0.00000000000E+00  0.00000000000E+00 -0.18852871710E+04  0.18852871710E+04  0.50400001928E-02 0. -1.
    10030    2    1    2    0    0  0.00000000000E+00  0.00000000000E+00 -0.38395456966E+03  0.33866197724E+04  0.33647841493E+04 0.  0.
        4    1    3    3  502    0 -0.93199740938E+03  0.14544980379E+03 -0.15940957313E+04  0.18522736380E+04  0.12699999809E+01 0. -1.
       -4    1    3    3    0  502  0.93199740938E+03 -0.14544980379E+03  0.12101411616E+04  0.15343461345E+04  0.12699999809E+01 0.  1.
</event>
<event>
 5   0  0.1277635E-06  0.3379580E+04  0.7818609E-02  0.8142936E-01
        2   -1    0    0  501    0  0.00000000000E+00  0.00000000000E+00  0.19294484945E+04  0.19294484945E+04  0.25500000920E-02 0. -1.
       -2   -1    0    0    0  501  0.00000000000E+00  0.00000000000E+00 -0.14798999531E+04  0.14798999531E+04  0.25500000920E-02 0.  1.
    10030    2    1    2    0    0  0.00000000000E+00  0.00000000000E+00  0.44954854143E+03  0.34093484476E+04  0.33795802914E+04 0.  0.
        4    1    3    3  502    0 -0.77979328886E+03  0.14991014652E+04  0.22731582473E+03  0.17050093470E+04  0.12699999809E+01 0.  1.
       -4    1    3    3    0  502  0.77979328886E+03 -0.14991014652E+04  0.22223271671E+03  0.17043391006E+04  0.12699999809E+01 0. -1.
</event>
<event>
 5   0  0.1300176E-06  0.3375689E+04  0.7818609E-02  0.8143899E-01
       -2   -1    0    0    0  501  0.00000000000E+00  0.00000000000E+00  0.22263732906E+04  0.22263732906E+04  0.25500000920E-02 0. -1.
        2   -1    0    0  501    0  0.00000000000E+00  0.00000000000E+00 -0.12795783661E+04  0.12795783661E+04  0.25500000920E-02 0.  1.
    10030    2    1    2    0    0  0.00000000000E+00  0.00000000000E+00  0.94679492445E+03  0.35059516567E+04  0.33756890245E+04 0.  0.
        1    1    3    3  502    0  0.93844252495E+03  0.72557415466E+03 -0.77363845835E+03  0.14162092680E+04  0.50400001928E-02 0.  1.
       -1    1    3    3    0  502 -0.93844252495E+03 -0.72557415466E+03  0.17204333828E+04  0.20897423887E+04  0.50400001928E-02 0. -1.
</event>
<event>
 5   0  0.1269497E-06  0.3386254E+04  0.7818609E-02  0.8141288E-01
       -2   -1    0    0    0  501  0.00000000000E+00  0.00000000000E+00  0.15038322737E+04  0.15038322737E+04  0.25500000920E-02 0.  1.
        2   -1    0    0  501    0  0.00000000000E+00  0.00000000000E+00 -0.19062496423E+04  0.19062496423E+04  0.25500000920E-02 0. -1.
    10030    2    1    2    0    0  0.00000000000E+00  0.00000000000E+00 -0.40241736858E+03  0.34100819160E+04  0.33862544109E+04 0.  0.
        5    1    3    3  502    0  0.11211146051E+04 -0.94029861228E+03  0.65660570699E+03  0.16038118912E+04  0.46999998093E+01 0.  1.
       -5    1    3    3    0  502 -0.11211146051E+04  0.94029861228E+03 -0.10590230756E+04  0.18062700248E+04  0.46999998093E+01 0. -1.
</event>
<event>
 5   0  0.1268230E-06  0.3382369E+04  0.7818609E-02  0.8142247E-01
       -2   -1    0    0    0  501  0.00000000000E+00  0.00000000000E+00  0.19325862181E+04  0.19325862181E+04  0.25500000920E-02 0. -1.
        2   -1    0    0  501    0  0.00000000000E+00  0.00000000000E+00 -0.14799365919E+04  0.14799365919E+04  0.25500000920E-02 0.  1.
    10030    2    1    2    0    0  0.00000000000E+00  0.00000000000E+00  0.45264962619E+03  0.34125228100E+04  0.33823690285E+04 0.  0.
        2    1    3    3  502    0 -0.78915025469E+03 -0.14957672926E+04  0.22106847278E+03  0.17055641846E+04  0.25500000920E-02 0. -1.
       -2    1    3    3    0  502  0.78915025469E+03  0.14957672926E+04  0.23158115342E+03  0.17069586254E+04  0.25500000920E-02 0.  1.
</event>
<event>
 5   0  0.4125758E-07  0.3385415E+04  0.7818609E-02  0.8141495E-01
       -1   -1    0    0    0  501  0.00000000000E+00  0.00000000000E+00  0.11186566250E+04  0.11186566250E+04  0.50400001928E-02 0.  1.
        1   -1    0    0  501    0  0.00000000000E+00  0.00000000000E+00 -0.25613381245E+04  0.25613381245E+04  0.50400001928E-02 0. -1.
    10030    2    1    2    0    0  0.00000000000E+00  0.00000000000E+00 -0.14426814994E+04  0.36799947495E+04  0.33854145163E+04 0.  0.
        2    1    3    3  502    0  0.79767580961E+03  0.82071054904E+03  0.63433910481E+03  0.13085253541E+04  0.25500000920E-02 0.  1.
       -2    1    3    3    0  502 -0.79767580961E+03 -0.82071054904E+03 -0.20770206043E+04  0.23714693953E+04  0.25500000920E-02 0. -1.
</event>
<event>
 5   0  0.4272633E-07  0.3359931E+04  0.7818609E-02  0.8147811E-01
       -1   -1    0    0    0  501  0.00000000000E+00  0.00000000000E+00  0.10534813435E+04  0.10534813436E+04  0.50400001928E-02 0. -1.
        1   -1    0    0  501    0  0.00000000000E+00  0.00000000000E+00 -0.26790073550E+04  0.26790073550E+04  0.50400001928E-02 0.  1.
    10030    2    1    2    0    0  0.00000000000E+00  0.00000000000E+00 -0.16255260114E+04  0.37324886985E+04  0.33599311110E+04 0.  0.
        1    1    3    3  502    0 -0.16354876025E+04  0.36794189421E+03 -0.93487588945E+03  0.19194253995E+04  0.50400001928E-02 0. -1.
       -1    1    3    3    0  502  0.16354876025E+04 -0.36794189421E+03 -0.69065012197E+03  0.18130632991E+04  0.50400001928E-02 0.  1.
</event>
<event>
 5   0  0.1269497E-06  0.3355786E+04  0.7818609E-02  0.8148844E-01
        2   -1    0    0  501    0  0.00000000000E+00  0.00000000000E+00  0.23099552921E+04  0.23099552921E+04  0.25500000920E-02 0. -1.
       -2   -1    0    0    0  501  0.00000000000E+00  0.00000000000E+00 -0.12187793047E+04  0.12187793047E+04  0.25500000920E-02 0.  1.
    10030    2    1    2    0    0  0.00000000000E+00  0.00000000000E+00  0.10911759875E+04  0.35287345968E+04  0.33557864680E+04 0.  0.
        5    1    3    3  502    0 -0.63793332285E+03 -0.41382465183E+03  0.21183636510E+04  0.22507102023E+04  0.46999998093E+01 0. -1.
       -5    1    3    3    0  502  0.63793332285E+03  0.41382465183E+03 -0.10271876635E+04  0.12780243945E+04  0.46999998093E+01 0.  1.
</event>
<event>
 5   0  0.1300176E-06  0.3393378E+04  0.7818609E-02  0.8139533E-01
       -2   -1    0    0    0  501  0.00000000000E+00  0.00000000000E+00  0.11867977566E+04  0.11867977566E+04  0.25500000920E-02 0. -1.
        2   -1    0    0  501    0  0.00000000000E+00  0.00000000000E+00 -0.24256478652E+04  0.24256478652E+04  0.25500000920E-02 0.  1.
    10030    2    1    2    0    0  0.00000000000E+00  0.00000000000E+00 -0.12388501086E+04  0.36124456219E+04  0.33933779305E+04 0.  0.
        1    1    3    3  502    0 -0.43116258584E+03  0.12313217190E+04 -0.17742118168E+04  0.22022447462E+04  0.50400001928E-02 0.  1.
       -1    1    3    3    0  502  0.43116258584E+03 -0.12313217190E+04  0.53536170824E+03  0.14102008757E+04  0.50400001928E-02 0. -1.
</event>
<event>
 5   0  0.4060750E-07  0.3470230E+04  0.7818609E-02  0.8120882E-01
       -3   -1    0    0    0  501  0.00000000000E+00  0.00000000000E+00  0.11408118090E+04  0.11408118135E+04  0.10100000352E+00 0. -1.
        3   -1    0    0  501    0  0.00000000000E+00  0.00000000000E+00 -0.26390185198E+04  0.26390185218E+04  0.10100000352E+00 0.  1.
    10030    2    1    2    0    0  0.00000000000E+00  0.00000000000E+00 -0.14982067108E+04  0.37798303353E+04  0.34702296776E+04 0.  0.
        2    1    3    3  502    0 -0.93236677693E+03  0.12431793569E+04 -0.15898631023E+04  0.22231660766E+04  0.25500000920E-02 0.  1.
       -2    1    3    3    0  502  0.93236677693E+03 -0.12431793569E+04  0.91656391496E+02  0.15566642587E+04  0.25500000920E-02 0. -1.
</event>
<event>
 5   0  0.4464951E-07  0.3416247E+04  0.7818609E-02  0.8133930E-01
        1   -1    0    0  501    0  0.00000000000E+00  0.00000000000E+00  0.22630214910E+04  0.22630214910E+04  0.50400001928E-02 0. -1.
       -1   -1    0    0    0  501  0.00000000000E+00  0.00000000000E+00 -0.12892874761E+04  0.12892874761E+04  0.50400001928E-02 0.  1.
    10030    2    1    2    0    0  0.00000000000E+00  0.00000000000E+00  0.97373401492E+03  0.35523089671E+04  0.34162466342E+04 0.  0.
        3    1    3    3  502    0  0.31401994287E+03  0.11453616336E+04  0.17634537736E+04  0.21260834927E+04  0.10100000352E+00 0. -1.
       -3    1    3    3    0  502 -0.31401994287E+03 -0.11453616336E+04 -0.78971975871E+03  0.14262254744E+04  0.10100000352E+00 0.  1.
</event>
<event>
 5   0  0.1269497E-06  0.3420117E+04  0.7818609E-02  0.8132987E-01
        2   -1    0    0  501    0  0.00000000000E+00  0.00000000000E+00  0.19333047860E+04  0.19333047860E+04  0.25500000920E-02 0.  1.
       -2   -1    0    0    0  501  0.00000000000E+00  0.00000000000E+00 -0.15125912342E+04  0.15125912342E+04  0.25500000920E-02 0. -1.
    10030    2    1    2    0    0  0.00000000000E+00  0.00000000000E+00  0.42071355173E+03  0.34458960202E+04  0.34201168824E+04 0.  0.
        5    1    3    3  502    0  0.16346028890E+03 -0.16787001967E+04 -0.73769095987E+02  0.16882587438E+04  0.46999998093E+01 0. -1.
       -5    1    3    3    0  502 -0.16346028890E+03  0.16787001967E+04  0.49448264771E+03  0.17576372764E+04  0.46999998093E+01 0.  1.
</event>
<event>
 5   0  0.4464951E-07  0.3332656E+04  0.7818609E-02  0.8154635E-01
        1   -1    0    0  501    0  0.00000000000E+00  0.00000000000E+00  0.23773260583E+04  0.23773260583E+04  0.50400001928E-02 0. -1.
       -1   -1    0    0    0  501  0.00000000000E+00  0.00000000000E+00 -0.11679712975E+04  0.11679712975E+04  0.50400001928E-02 0.  1.
    10030    2    1    2    0    0  0.00000000000E+00  0.00000000000E+00  0.12093547608E+04  0.35452973558E+04  0.33326557584E+04 0.  0.
        3    1    3    3  502    0 -0.26460458736E+03 -0.15689444467E+04  0.78070767530E+02  0.15930151661E+04  0.10100000352E+00 0.  1.
       -3    1    3    3    0  502  0.26460458736E+03  0.15689444467E+04  0.11312839933E+04  0.19522821897E+04  0.10100000352E+00 0. -1.
</event>
<event>
 5   0  0.1269497E-06  0.3378365E+04  0.7818609E-02  0.8143237E-01
       -2   -1    0    0    0  501  0.00000000000E+00  0.00000000000E+00  0.24030258145E+04  0.24030258145E+04  0.25500000920E-02 0. -1.
        2   -1    0    0  501    0  0.00000000000E+00  0.00000000000E+00 -0.11873933203E+04  0.11873933203E+04  0.25500000920E-02 0.  1.
    10030    2    1    2    0    0  0.00000000000E+00  0.00000000000E+00  0.12156324942E+04  0.35904191348E+04  0.33783645751E+04 0.  0.
        5    1    3    3  502    0 -0.16274375146E+04 -0.41910697492E+03  0.78914581105E+03  0.18566035445E+04  0.46999998093E+01 0. -1.
       -5    1    3    3    0  502  0.16274375146E+04  0.41910697492E+03  0.42648668313E+03  0.17338155903E+04  0.46999998093E+01 0.  1.
</event>
<event>
 5   0  0.4125758E-07  0.3400011E+04  0.7818609E-02  0.8137904E-01
        1   -1    0    0  501    0  0.00000000000E+00  0.00000000000E+00  0.89996403192E+03  0.89996403193E+03  0.50400001928E-02 0.  1.
       -1   -1    0    0    0  501  0.00000000000E+00  0.00000000000E+00 -0.32112609388E+04  0.32112609388E+04  0.50400001928E-02 0. -1.
    10030    2    1    2    0    0  0.00000000000E+00  0.00000000000E+00 -0.23112969069E+04  0.41112249707E+04  0.34000113777E+04 0.  0.
        2    1    3    3  502    0 -0.68901107069E+03 -0.10526328033E+04 -0.25381631083E+04  0.28328508676E+04  0.25500000920E-02 0. -1.
       -2    1    3    3    0  502  0.68901107069E+03  0.10526328033E+04  0.22686620140E+03  0.12783741031E+04  0.25500000920E-02 0.  1.
</event>
<event>
 5   0  0.1300176E-06  0.3419985E+04  0.7818609E-02  0.8133019E-01
        2   -1    0    0  501    0  0.00000000000E+00  0.00000000000E+00  0.25386402954E+04  0.25386402954E+04  0.25500000920E-02 0. -1.
       -2   -1    0    0    0  501  0.00000000000E+00  0.00000000000E+00 -0.11518269451E+04  0.11518269451E+04  0.25500000920E-02 0.  1.
    10030    2    1    2    0    0  0.00000000000E+00  0.00000000000E+00  0.13868133503E+04  0.36904672406E+04  0.34199849685E+04 0.  0.
        1    1    3    3  502    0  0.10081160900E+04  0.18971532740E+03  0.21697421720E+04  0.24000148019E+04  0.50400001928E-02 0. -1.
       -1    1    3    3    0  502 -0.10081160900E+04 -0.18971532740E+03 -0.78292882171E+03  0.12904524386E+04  0.50400001928E-02 0.  1.
</event>
<event>
 5   0  0.4125758E-07  0.3388235E+04  0.7818609E-02  0.8140800E-01
        1   -1    0    0  501    0  0.00000000000E+00  0.00000000000E+00  0.16562855721E+04  0.16562855721E+04  0.50400001928E-02 0.  1.
       -1   -1    0    0    0  501  0.00000000000E+00  0.00000000000E+00 -0.17328140391E+04  0.17328140391E+04  0.50400001928E-02 0. -1.
    10030    2    1    2    0    0  0.00000000000E+00  0.00000000000E+00 -0.76528466974E+02  0.33890996112E+04  0.33882354653E+04 0.  0.
        2    1    3    3  502    0 -0.17731390319E+03 -0.15888947723E+04  0.52224291703E+03  0.16818931245E+04  0.25500000920E-02 0.  1.
       -2    1    3    3    0  502  0.17731390319E+03  0.15888947723E+04 -0.59877138400E+03  0.17072064867E+04  0.25500000920E-02 0. -1.
</event>
<event>
 5   0  0.1277635E-06  0.3344315E+04  0.7818609E-02  0.8151710E-01
       -2   -1    0    0    0  501  0.00000000000E+00  0.00000000000E+00  0.34512092825E+04  0.34512092825E+04  0.25500000920E-02 0. -1.
        2   -1    0    0  501    0  0.00000000000E+00  0.00000000000E+00 -0.81018305504E+03  0.81018305504E+03  0.25500000920E-02 0.  1.
    10030    2    1    2    0    0  0.00000000000E+00  0.00000000000E+00  0.26410262274E+04  0.42613923375E+04  0.33443153440E+04 0.  0.
        4    1    3    3  502    0  0.10493549006E+04  0.99476369080E+02  0.29745800021E+04  0.31558151177E+04  0.12699999809E+01 0. -1.
       -4    1    3    3    0  502 -0.10493549006E+04 -0.99476369080E+02 -0.33355377466E+03  0.11055772198E+04  0.12699999809E+01 0.  1.
</event>
<event>
 5   0  0.4289684E-07  0.3390042E+04  0.7818609E-02  0.8140355E-01
       -1   -1    0    0    0  501  0.00000000000E+00  0.00000000000E+00  0.16017746998E+04  0.16017746998E+04  0.50400001928E-02 0.  1.
        1   -1    0    0  501    0  0.00000000000E+00  0.00000000000E+00 -0.17936960051E+04  0.17936960051E+04  0.50400001928E-02 0. -1.
    10030    2    1    2    0    0  0.00000000000E+00  0.00000000000E+00 -0.19192130526E+03  0.33954707049E+04  0.33900424069E+04 0.  0.
        4    1    3    3  502    0  0.45265143471E+02 -0.90217051039E+03  0.13406074605E+04  0.16165365876E+04  0.12699999809E+01 0.  1.
       -4    1    3    3    0  502 -0.45265143471E+02  0.90217051039E+03 -0.15325287657E+04  0.17789341173E+04  0.12699999809E+01 0. -1.
</event>
<event>
 5   0  0.4125758E-07  0.3355687E+04  0.7818609E-02  0.8148869E-01
       -1   -1    0    0    0  501  0.00000000000E+00  0.00000000000E+00  0.28720173646E+04  0.28720173646E+04  0.50400001928E-02 0.  1.
        1   -1    0    0  501    0  0.00000000000E+00  0.00000000000E+00 -0.98020271169E+03  0.98020271170E+03  0.50400001928E-02 0. -1.
    10030    2    1    2    0    0  0.00000000000E+00  0.00000000000E+00  0.18918146529E+04  0.38522200763E+04  0.33556872374E+04 0.  0.
        2    1    3    3  502    0  0.12941922791E+04 -0.36550742095E+03 -0.20585938566E+03  0.13604805830E+04  0.25500000920E-02 0. -1.
       -2    1    3    3    0  502 -0.12941922791E+04  0.36550742095E+03  0.20976740385E+04  0.24917394932E+04  0.25500000920E-02 0.  1.
</event>
<event>
 5   0  0.4109937E-07  0.3357740E+04  0.7818609E-02  0.8148357E-01
        1   -1    0    0  501    0  0.00000000000E+00  0.00000000000E+00  0.19717253167E+04  0.19717253168E+04  0.50400001928E-02 0. -1.
       -1   -1    0    0    0  501  0.00000000000E+00  0.00000000000E+00 -0.14295120336E+04  0.14295120336E+04  0.50400001928E-02 0.  1.
    10030    2    1    2    0    0  0.00000000000E+00  0.00000000000E+00  0.54221328319E+03  0.34012373503E+04  0.33577403516E+04 0.  0.
        5    1    3    3  502    0 -0.15759012347E+04  0.10339531169E+03  0.84807073146E+03  0.17925962590E+04  0.46999998093E+01 0. -1.
       -5    1    3    3    0  502  0.15759012347E+04 -0.10339531169E+03 -0.30585744827E+03  0.16086410914E+04  0.46999998093E+01 0.  1.
</event>
<event>
 5   0  0.4125758E-07  0.3424641E+04  0.7818609E-02  0.8131885E-01
       -1   -1    0    0    0  501  0.00000000000E+00  0.00000000000E+00  0.16383149688E+04  0.16383149688E+04  0.50400001928E-02 0. -1.
        1   -1    0    0  501    0  0.00000000000E+00  0.00000000000E+00 -0.17896684814E+04  0.17896684814E+04  0.50400001928E-02 0.  1.
    10030    2    1    2    0    0  0.00000000000E+00  0.00000000000E+00 -0.15135351264E+03  0.34279834502E+04  0.34246405139E+04 0.  0.
        2    1    3    3  502    0 -0.85969548100E+03  0.13254493506E+04 -0.73673671024E+03  0.17431790732E+04  0.25500000920E-02 0. -1.
       -2    1    3    3    0  502  0.85969548100E+03 -0.13254493506E+04  0.58538319760E+03  0.16848043771E+04  0.25500000920E-02 0.  1.
</event>
<event>
 5   0  0.4464951E-07  0.3373187E+04  0.7818609E-02  0.8144519E-01
        1   -1    0    0  501    0  0.00000000000E+00  0.00000000000E+00  0.19585878242E+04  0.19585878242E+04  0.50400001928E-02 0. -1.
       -1   -1    0    0    0  501  0.00000000000E+00  0.00000000000E+00 -0.14523720820E+04  0.14523720821E+04  0.50400001928E-02 0.  1.
    10030    2    1    2    0    0  0.00000000000E+00  0.00000000000E+00  0.50621574219E+03  0.34109599063E+04  0.33731873806E+04 0.  0.
        3    1    3    3  502    0  0.12163332791E+04  0.75317441789E+03 -0.65012445277E+03  0.15714325196E+04  0.10100000352E+00 0.  1.
       -3    1    3    3    0  502 -0.12163332791E+04 -0.75317441789E+03  0.11563401950E+04  0.18395273866E+04  0.10100000352E+00 0. -1.
</event>
<event>
 5   0  0.4109937E-07  0.3066331E+04  0.7818609E-02  0.8225039E-01
       -1   -1    0    0    0  501  0.00000000000E+00  0.00000000000E+00  0.14230135235E+04  0.14230135235E+04  0.50400001928E-02 0.  1.
        1   -1    0    0  501    0  0.00000000000E+00  0.00000000000E+00 -0.16518436359E+04  0.16518436359E+04  0.50400001928E-02 0. -1.
    10030    2    1    2    0    0  0.00000000000E+00  0.00000000000E+00 -0.22883011242E+03  0.30748571594E+04  0.30663305971E+04 0.  0.
        5    1    3    3  502    0 -0.13429303353E+03 -0.27423718067E+03 -0.16210352818E+04  0.16495508858E+04  0.46999998093E+01 0. -1.
       -5    1    3    3    0  502  0.13429303353E+03  0.27423718067E+03  0.13922051693E+04  0.14253062736E+04  0.46999998093E+01 0.  1.
</event>
<event>
 5   0  0.4109937E-07  0.3360057E+04  0.7818609E-02  0.8147780E-01
       -1   -1    0    0    0  501  0.00000000000E+00  0.00000000000E+00  0.15748582408E+04  0.15748582408E+04  0.50400001928E-02 0. -1.
        1   -1    0    0  501    0  0.00000000000E+00  0.00000000000E+00 -0.17922218810E+04  0.17922218810E+04  0.50400001928E-02 0.  1.
    10030    2    1    2    0    0  0.00000000000E+00  0.00000000000E+00 -0.21736364020E+03  0.33670801218E+04  0.33600567844E+04 0.  0.
        5    1    3    3  502    0  0.10338870797E+04 -0.18845911628E+03  0.12047958927E+04  0.15987478116E+04  0.46999998093E+01 0. -1.
       -5    1    3    3    0  502 -0.10338870797E+04  0.18845911628E+03 -0.14221595329E+04  0.17683323101E+04  0.46999998093E+01 0.  1.
</event>
<event>
 5   0  0.4109937E-07  0.3425094E+04  0.7818609E-02  0.8131775E-01
        1   -1    0    0  501    0  0.00000000000E+00  0.00000000000E+00  0.23358018493E+04  0.23358018493E+04  0.50400001928E-02 0. -1.
       -1   -1    0    0    0  501  0.00000000000E+00  0.00000000000E+00 -0.12555932869E+04  0.12555932869E+04  0.50400001928E-02 0.  1.
    10030    2    1    2    0    0  0.00000000000E+00  0.00000000000E+00  0.10802085624E+04  0.35913951362E+04  0.34250939383E+04 0.  0.
        5    1    3    3  502    0 -0.16070090503E+03 -0.73962941367E+03  0.21508953497E+04  0.22801862524E+04  0.46999998093E+01 0. -1.
       -5    1    3    3    0  502  0.16070090503E+03  0.73962941367E+03 -0.10706867873E+04  0.13112088838E+04  0.46999998093E+01 0.  1.
</event>
<event>
 5   0  0.1277635E-06  0.3069511E+04  0.7818609E-02  0.8224156E-01
        2   -1    0    0  501    0  0.00000000000E+00  0.00000000000E+00  0.20600635957E+04  0.20600635958E+04  0.25500000920E-02 0.  1.
       -2   -1    0    0    0  501  0.00000000000E+00  0.00000000000E+00 -0.11433988272E+04  0.11433988272E+04  0.25500000920E-02 0. -1.
    10030    2    1    2    0    0  0.00000000000E+00  0.00000000000E+00  0.91666476854E+03  0.32034624230E+04  0.30695109053E+04 0.  0.
        4    1    3    3  502    0 -0.15120160235E+04  0.10664985882E+03  0.70947035543E+03  0.16735938713E+04  0.12699999809E+01 0.  1.
       -4    1    3    3    0  502  0.15120160235E+04 -0.10664985882E+03  0.20719441310E+03  0.15298685517E+04  0.12699999809E+01 0. -1.
</event>
<event>
 5   0  0.4289684E-07  0.3241550E+04  0.7818609E-02  0.8177929E-01
        1   -1    0    0  501    0  0.00000000000E+00  0.00000000000E+00  0.18099785020E+04  0.18099785020E+04  0.50400001928E-02 0.  1.
       -1   -1    0    0    0  501  0.00000000000E+00  0.00000000000E+00 -0.14513496330E+04  0.14513496330E+04  0.50400001928E-02 0. -1.
    10030    2    1    2    0    0  0.00000000000E+00  0.00000000000E+00  0.35862886900E+03  0.32613281349E+04  0.32415500209E+04 0.  0.
        4    1    3    3  502    0 -0.11537993441E+04 -0.63587881633E+03  0.11291696948E+04  0.17351140043E+04  0.12699999809E+01 0.  1.
       -4    1    3    3    0  502  0.11537993441E+04  0.63587881633E+03 -0.77054082576E+03  0.15262141306E+04  0.12699999809E+01 0. -1.
</event>
<event>
 5   0  0.1256208E-06  0.3425943E+04  0.7818609E-02  0.8131568E-01
       -2   -1    0    0    0  501  0.00000000000E+00  0.00000000000E+00  0.19680576617E+04  0.19680576617E+04  0.25500000920E-02 0. -1.
        2   -1    0    0  501    0  0.00000000000E+00  0.00000000000E+00 -0.14909482340E+04  0.14909482340E+04  0.25500000920E-02 0.  1.
    10030    2    1    2    0    0  0.00000000000E+00  0.00000000000E+00  0.47710942774E+03  0.34590058958E+04  0.34259434293E+04 0.  0.
        3    1    3    3  502    0  0.83658451627E+03 -0.81340017477E+03 -0.10276528654E+04  0.15548517354E+04  0.10100000352E+00 0.  1.
       -3    1    3    3    0  502 -0.83658451627E+03  0.81340017477E+03  0.15047622932E+04  0.19041541603E+04  0.10100000352E+00 0. -1.
</event>
<event>
 5   0  0.1300176E-06  0.3387077E+04  0.7818609E-02  0.8141085E-01
       -2   -1    0    0    0  501  0.00000000000E+00  0.00000000000E+00  0.13306702885E+04  0.13306702885E+04  0.25500000920E-02 0.  1.
        2   -1    0    0  501    0  0.00000000000E+00  0.00000000000E+00 -0.21553593563E+04  0.21553593563E+04  0.25500000920E-02 0. -1.
    10030    2    1    2    0    0  0.00000000000E+00  0.00000000000E+00 -0.82468906780E+03  0.34860296448E+04  0.33870770032E+04 0.  0.
        1    1    3    3  502    0 -0.22301661896E+03  0.79880128986E+03 -0.19320500037E+04  0.21025311246E+04  0.50400001928E-02 0. -1.
       -1    1    3    3    0  502  0.22301661896E+03 -0.79880128986E+03  0.11073609359E+04  0.13834985202E+04  0.50400001928E-02 0.  1.
</event>
<event>
 5   0  0.4289684E-07  0.2813927E+04  0.7818609E-02  0.8298958E-01
        1   -1    0    0  501    0  0.00000000000E+00  0.00000000000E+00  0.14105997187E+04  0.14105997187E+04  0.50400001928E-02 0. -1.
       -1   -1    0    0    0  501  0.00000000000E+00  0.00000000000E+00 -0.14033362630E+04  0.14033362631E+04  0.50400001928E-02 0.  1.
    10030    2    1    2    0    0  0.00000000000E+00  0.00000000000E+00  0.72634556691E+01  0.28139359818E+04  0.28139266074E+04 0.  0.
        4    1    3    3  502    0 -0.70866817526E+03  0.12146349825E+04  0.48301797117E+02  0.14070832952E+04  0.12699999809E+01 0. -1.
       -4    1    3    3    0  502  0.70866817526E+03 -0.12146349825E+04 -0.41038341448E+02  0.14068526865E+04  0.12699999809E+01 0.  1.
</event>
<event>
 5   0  0.1300176E-06  0.3445792E+04  0.7818609E-02  0.8126758E-01
       -2   -1    0    0    0  501  0.00000000000E+00  0.00000000000E+00  0.10175937006E+04  0.10175937006E+04  0.25500000920E-02 0.  1.
        2   -1    0    0  501    0  0.00000000000E+00  0.00000000000E+00 -0.29170492776E+04  0.29170492776E+04  0.25500000920E-02 0. -1.
    10030    2    1    2    0    0  0.00000000000E+00  0.00000000000E+00 -0.18994555770E+04  0.39346429781E+04  0.34457921987E+04 0.  0.
        1    1    3    3  502    0 -0.77159024771E+03  0.10246713144E+04 -0.22631590730E+04  0.26013826713E+04  0.50400001928E-02 0. -1.
       -1    1    3    3    0  502  0.77159024771E+03 -0.10246713144E+04  0.36370349597E+03  0.13332603068E+04  0.50400001928E-02 0.  1.
</event>
<event>
 5   0  0.1256208E-06  0.3423612E+04  0.7818609E-02  0.8132135E-01
        2   -1    0    0  501    0  0.00000000000E+00  0.00000000000E+00  0.18619168835E+04  0.18619168835E+04  0.25500000920E-02 0.  1.
       -2   -1    0    0    0  501  0.00000000000E+00  0.00000000000E+00 -0.15737973127E+04  0.15737973127E+04  0.25500000920E-02 0. -1.
    10030    2    1    2    0    0  0.00000000000E+00  0.00000000000E+00  0.28811957081E+03  0.34357141963E+04  0.34236120036E+04 0.  0.
        3    1    3    3  502    0 -0.13011934947E+04 -0.87477206296E+03  0.83347374401E+03  0.17756714688E+04  0.10100000352E+00 0.  1.
       -3    1    3    3    0  502  0.13011934947E+04  0.87477206296E+03 -0.54535417320E+03  0.16600427275E+04  0.10100000352E+00 0. -1.
</event>
<event>
 5   0  0.4125758E-07  0.3411344E+04  0.7818609E-02  0.8135128E-01
        1   -1    0    0  501    0  0.00000000000E+00  0.00000000000E+00  0.23887465088E+04  0.23887465088E+04  0.50400001928E-02 0.  1.
       -1   -1    0    0    0  501  0.00000000000E+00  0.00000000000E+00 -0.12179264254E+04  0.12179264254E+04  0.50400001928E-02 0. -1.
    10030    2    1    2    0    0  0.00000000000E+00  0.00000000000E+00  0.11708200834E+04  0.36066729342E+04  0.34113443079E+04 0.  0.
        2    1    3    3  502    0  0.98517835403E+03 -0.82294215445E+03  0.17728894647E+04  0.21888232530E+04  0.25500000920E-02 0.  1.
       -2    1    3    3    0  502 -0.98517835403E+03  0.82294215445E+03 -0.60206938124E+03  0.14178496813E+04  0.25500000920E-02 0. -1.
</event>
<event>
 5   0  0.1256208E-06  0.3401557E+04  0.7818609E-02  0.8137524E-01
        2   -1    0    0  501    0  0.00000000000E+00  0.00000000000E+00  0.23758932213E+04  0.23758932213E+04  0.25500000920E-02 0. -1.
       -2   -1    0    0    0  501  0.00000000000E+00  0.00000000000E+00 -0.12174990289E+04  0.12174990289E+04  0.25500000920E-02 0.  1.
    10030    2    1    2    0    0  0.00000000000E+00  0.00000000000E+00  0.11583941924E+04  0.35933922503E+04  0.34015571080E+04 0.  0.
        3    1    3    3  502    0  0.10168505982E+03 -0.16913485897E+04  0.73462661650E+03  0.18468016079E+04  0.10100000352E+00 0. -1.
       -3    1    3    3    0  502 -0.10168505982E+03  0.16913485897E+04  0.42376757586E+03  0.17465906423E+04  0.10100000352E+00 0.  1.
</event>
<event>
 5   0  0.4272633E-07  0.3397176E+04  0.7818609E-02  0.8138600E-01
       -1   -1    0    0    0  501  0.00000000000E+00  0.00000000000E+00  0.16900478366E+04  0.16900478366E+04  0.50400001928E-02 0.  1.
        1   -1    0    0  501    0  0.00000000000E+00  0.00000000000E+00 -0.17071712716E+04  0.17071712716E+04  0.50400001928E-02 0. -1.
    10030    2    1    2    0    0  0.00000000000E+00  0.00000000000E+00 -0.17123434943E+02  0.33972191082E+04  0.33971759532E+04 0.  0.
        1    1    3    3  502    0 -0.86356061090E+03 -0.14366642219E+04 -0.28326522376E+03  0.16999941771E+04  0.50400001928E-02 0. -1.
       -1    1    3    3    0  502  0.86356061090E+03  0.14366642219E+04  0.26614178882E+03  0.16972249311E+04  0.50400001928E-02 0.  1.
</event>
<event>
 5   0  0.4125758E-07  0.3418452E+04  0.7818609E-02  0.8133392E-01
        1   -1    0    0  501    0  0.00000000000E+00  0.00000000000E+00  0.22652584526E+04  0.22652584526E+04  0.50400001928E-02 0. -1.
       -1   -1    0    0    0  501  0.00000000000E+00  0.00000000000E+00 -0.12896777790E+04  0.12896777790E+04  0.50400001928E-02 0.  1.
    10030    2    1    2    0    0  0.00000000000E+00  0.00000000000E+00  0.97558067364E+03  0.35549362316E+04  0.34184519829E+04 0.  0.
        2    1    3    3  502    0 -0.15686651569E+04  0.61457299120E+03  0.18811276000E+03  0.16952276385E+04  0.25500000920E-02 0.  1.
       -2    1    3    3    0  502  0.15686651569E+04 -0.61457299120E+03  0.78746791365E+03  0.18597085930E+04  0.25500000920E-02 0. -1.
</event>
<event>
 5   0  0.4272633E-07  0.3360112E+04  0.7818609E-02  0.8147766E-01
        1   -1    0    0  501    0  0.00000000000E+00  0.00000000000E+00  0.22181379582E+04  0.22181379582E+04  0.50400001928E-02 0. -1.
       -1   -1    0    0    0  501  0.00000000000E+00  0.00000000000E+00 -0.12725032689E+04  0.12725032689E+04  0.50400001928E-02 0.  1.
    10030    2    1    2    0    0  0.00000000000E+00  0.00000000000E+00  0.94563468932E+03  0.34906412272E+04  0.33601117855E+04 0.  0.
        1    1    3    3  502    0 -0.16366685670E+03  0.10751241437E+04 -0.85751872877E+03  0.13849249563E+04  0.50400001928E-02 0.  1.
       -1    1    3    3    0  502  0.16366685670E+03 -0.10751241437E+04  0.18031534181E+04  0.21057162709E+04  0.50400001928E-02 0. -1.
</event>
<event>
 5   0  0.1300176E-06  0.3221033E+04  0.7818609E-02  0.8183284E-01
       -2   -1    0    0    0  501  0.00000000000E+00  0.00000000000E+00  0.24222466261E+04  0.24222466261E+04  0.25500000920E-02 0.  1.
        2   -1    0    0  501    0  0.00000000000E+00  0.00000000000E+00 -0.10708091331E+04  0.10708091331E+04  0.25500000920E-02 0. -1.
    10030    2    1    2    0    0  0.00000000000E+00  0.00000000000E+00  0.13514374930E+04  0.34930557592E+04  0.32210332565E+04 0.  0.
        1    1    3    3  502    0  0.17972757042E+03  0.15222849400E+04  0.12115196299E+04  0.19538252869E+04  0.50400001928E-02 0.  1.
       -1    1    3    3    0  502 -0.17972757042E+03 -0.15222849400E+04  0.13991786309E+03  0.15392304722E+04  0.50400001928E-02 0. -1.
</event>
<event>
 5   0  0.4272633E-07  0.3587981E+04  0.7818609E-02  0.8093250E-01
       -1   -1    0    0    0  501  0.00000000000E+00  0.00000000000E+00  0.13268144193E+04  0.13268144194E+04  0.50400001928E-02 0. -1.
        1   -1    0    0  501    0  0.00000000000E+00  0.00000000000E+00 -0.24256610316E+04  0.24256610316E+04  0.50400001928E-02 0.  1.
    10030    2    1    2    0    0  0.00000000000E+00  0.00000000000E+00 -0.10988466123E+04  0.37524754510E+04  0.35879810664E+04 0.  0.
        1    1    3    3  502    0  0.65695816439E+02 -0.12130134831E+04  0.83120599665E+03  0.14719446523E+04  0.50400001928E-02 0. -1.
       -1    1    3    3    0  502 -0.65695816439E+02  0.12130134831E+04 -0.19300526089E+04  0.22805307987E+04  0.50400001928E-02 0.  1.
</event>
<event>
 5   0  0.4289684E-07  0.3389787E+04  0.7818609E-02  0.8140417E-01
       -1   -1    0    0    0  501  0.00000000000E+00  0.00000000000E+00  0.15886529690E+04  0.15886529691E+04  0.50400001928E-02 0.  1.
        1   -1    0    0  501    0  0.00000000000E+00  0.00000000000E+00 -0.18082392925E+04  0.18082392925E+04  0.50400001928E-02 0. -1.
    10030    2    1    2    0    0  0.00000000000E+00  0.00000000000E+00 -0.21958632346E+03  0.33968922616E+04  0.33897874392E+04 0.  0.
        4    1    3    3  502    0 -0.11432196260E+04 -0.11126793933E+04  0.46381951655E+03  0.16613659147E+04  0.12699999809E+01 0. -1.
       -4    1    3    3    0  502  0.11432196260E+04  0.11126793933E+04 -0.68340584001E+03  0.17355263469E+04  0.12699999809E+01 0.  1.
</event>
<event>
 5   0  0.1268230E-06  0.3542452E+04  0.7818609E-02  0.8103802E-01
       -2   -1    0    0    0  501  0.00000000000E+00  0.00000000000E+00  0.14177351031E+04  0.14177351031E+04  0.25500000920E-02 0. -1.
        2   -1    0    0  501    0  0.00000000000E+00  0.00000000000E+00 -0.22128546220E+04  0.22128546220E+04  0.25500000920E-02 0.  1.
    10030    2    1    2    0    0  0.00000000000E+00  0.00000000000E+00 -0.79511951881E+03  0.36305897251E+04  0.35424520749E+04 0.  0.
        2    1    3    3  502    0 -0.95412771783E+03 -0.70534437324E+03  0.95021498198E+03  0.15201246326E+04  0.25500000920E-02 0. -1.
       -2    1    3    3    0  502  0.95412771783E+03  0.70534437324E+03 -0.17453345008E+04  0.21104650924E+04  0.25500000920E-02 0.  1.
</event>
<event>
 5   0  0.1268230E-06  0.3401113E+04  0.7818609E-02  0.8137633E-01
       -2   -1    0    0    0  501  0.00000000000E+00  0.00000000000E+00  0.12458485948E+04  0.12458485948E+04  0.25500000920E-02 0.  1.
        2   -1    0    0  501    0  0.00000000000E+00  0.00000000000E+00 -0.23212227505E+04  0.23212227505E+04  0.25500000920E-02 0. -1.
    10030    2    1    2    0    0  0.00000000000E+00  0.00000000000E+00 -0.10753741557E+04  0.35670713452E+04  0.34011128190E+04 0.  0.
        2    1    3    3  502    0  0.48880916461E+03 -0.96127406903E+03 -0.19167273019E+04  0.21992784692E+04  0.25500000920E-02 0. -1.
       -2    1    3    3    0  502 -0.48880916461E+03  0.96127406903E+03  0.84135314619E+03  0.13677928761E+04  0.25500000920E-02 0.  1.
</event>
<event>
 5   0  0.4060750E-07  0.3360694E+04  0.7818609E-02  0.8147621E-01
        4   -1    0    0  501    0  0.00000000000E+00  0.00000000000E+00  0.20440909544E+04  0.20440913489E+04  0.12699999809E+01 0. -1.
       -4   -1    0    0    0  501  0.00000000000E+00  0.00000000000E+00 -0.13813304101E+04  0.13813309939E+04  0.12699999809E+01 0.  1.
    10030    2    1    2    0    0  0.00000000000E+00  0.00000000000E+00  0.66276054431E+03  0.34254223428E+04  0.33606943758E+04 0.  0.
        4    1    3    3  502    0  0.12248516327E+04 -0.86199342631E+03 -0.44504648140E+03  0.15624858951E+04  0.12699999809E+01 0. -1.
       -4    1    3    3    0  502 -0.12248516327E+04  0.86199342631E+03  0.11078070257E+04  0.18629364477E+04  0.12699999809E+01 0.  1.
</event>
<event>
 5   0  0.1300176E-06  0.3419948E+04  0.7818609E-02  0.8133028E-01
       -2   -1    0    0    0  501  0.00000000000E+00  0.00000000000E+00  0.14027196585E+04  0.14027196585E+04  0.25500000920E-02 0.  1.
        2   -1    0    0  501    0  0.00000000000E+00  0.00000000000E+00 -0.20845294939E+04  0.20845294939E+04  0.25500000920E-02 0. -1.
    10030    2    1    2    0    0  0.00000000000E+00  0.00000000000E+00 -0.68180983540E+03  0.34872491523E+04  0.34199476602E+04 0.  0.
        1    1    3    3  502    0  0.10715926180E+04 -0.13013781687E+04 -0.48709252796E+02  0.16864959141E+04  0.50400001928E-02 0.  1.
       -1    1    3    3    0  502 -0.10715926180E+04  0.13013781687E+04 -0.63310058260E+03  0.18007532382E+04  0.50400001928E-02 0. -1.
</event>
<event>
 5   0  0.4464951E-07  0.3375198E+04  0.7818609E-02  0.8144020E-01
        1   -1    0    0  501    0  0.00000000000E+00  0.00000000000E+00  0.31597469729E+04  0.31597469729E+04  0.50400001928E-02 0.  1.
       -1   -1    0    0    0  501  0.00000000000E+00  0.00000000000E+00 -0.90133494554E+03  0.90133494555E+03  0.50400001928E-02 0. -1.
    10030    2    1    2    0    0  0.00000000000E+00  0.00000000000E+00  0.22584120273E+04  0.40610819184E+04  0.33751979887E+04 0.  0.
        3    1    3    3  502    0 -0.18025065010E+02 -0.16293582521E+04  0.60080899780E+03  0.17366936053E+04  0.10100000352E+00 0.  1.
       -3    1    3    3    0  502  0.18025065010E+02  0.16293582521E+04  0.16576030295E+04  0.23243883131E+04  0.10100000352E+00 0. -1.
</event>
<event>
 5   0  0.1277635E-06  0.3387272E+04  0.7818609E-02  0.8141037E-01
        2   -1    0    0  501    0  0.00000000000E+00  0.00000000000E+00  0.24297064195E+04  0.24297064195E+04  0.25500000920E-02 0.  1.
       -2   -1    0    0    0  501  0.00000000000E+00  0.00000000000E+00 -0.11805550364E+04  0.11805550364E+04  0.25500000920E-02 0. -1.
    10030    2    1    2    0    0  0.00000000000E+00  0.00000000000E+00  0.12491513831E+04  0.36102614559E+04  0.33872715571E+04 0.  0.
        4    1    3    3  502    0  0.16397214440E+03 -0.10061060208E+04  0.20661162781E+04  0.23039041380E+04  0.12699999809E+01 0.  1.
       -4    1    3    3    0  502 -0.16397214440E+03  0.10061060208E+04 -0.81696489506E+03  0.13063573179E+04  0.12699999809E+01 0. -1.
</event>
<event>
 5   0  0.1269497E-06  0.3388512E+04  0.7818609E-02  0.8140732E-01
       -2   -1    0    0    0  501  0.00000000000E+00  0.00000000000E+00  0.16644817899E+04  0.16644817899E+04  0.25500000920E-02 0. -1.
        2   -1    0    0  501    0  0.00000000000E+00  0.00000000000E+00 -0.17245623134E+04  0.17245623134E+04  0.25500000920E-02 0.  1.
    10030    2    1    2    0    0  0.00000000000E+00  0.00000000000E+00 -0.60080523588E+02  0.33890441033E+04  0.33885115117E+04 0.  0.
        5    1    3    3  502    0 -0.46861770359E+03  0.11627759450E+04 -0.11698816309E+04  0.17147290080E+04  0.46999998093E+01 0.  1.
       -5    1    3    3    0  502  0.46861770359E+03 -0.11627759450E+04  0.11098011073E+04  0.16743150953E+04  0.46999998093E+01 0. -1.
</event>
<event>
 5   0  0.1256208E-06  0.3214475E+04  0.7818609E-02  0.8185005E-01
       -2   -1    0    0    0  501  0.00000000000E+00  0.00000000000E+00  0.12757171161E+04  0.12757171161E+04  0.25500000920E-02 0.  1.
        2   -1    0    0  501    0  0.00000000000E+00  0.00000000000E+00 -0.20249099726E+04  0.20249099726E+04  0.25500000920E-02 0. -1.
    10030    2    1    2    0    0  0.00000000000E+00  0.00000000000E+00 -0.74919285650E+03  0.33006270887E+04  0.32144749559E+04 0.  0.
        3    1    3    3  502    0 -0.89658222391E+03  0.12053609808E+04  0.21208150463E+03  0.15171464507E+04  0.10100000352E+00 0. -1.
       -3    1    3    3    0  502  0.89658222391E+03 -0.12053609808E+04 -0.96127436113E+03  0.17834806379E+04  0.10100000352E+00 0.  1.
</event>
<event>
 5   0  0.4272633E-07  0.3347091E+04  0.7818609E-02  0.8151015E-01
       -1   -1    0    0    0  501  0.00000000000E+00  0.00000000000E+00  0.16422031447E+04  0.16422031447E+04  0.50400001928E-02 0.  1.
        1   -1    0    0  501    0  0.00000000000E+00  0.00000000000E+00 -0.17054856354E+04  0.17054856354E+04  0.50400001928E-02 0. -1.
    10030    2    1    2    0    0  0.00000000000E+00  0.00000000000E+00 -0.63282490671E+02  0.33476887801E+04  0.33470906015E+04 0.  0.
        1    1    3    3  502    0  0.15405274528E+04  0.63718974920E+03  0.11507602144E+03  0.16710709440E+04  0.50400001928E-02 0.  1.
       -1    1    3    3    0  502 -0.15405274528E+04 -0.63718974920E+03 -0.17835851211E+03  0.16766178360E+04  0.50400001928E-02 0. -1.
</event>
<event>
 5   0  0.4125758E-07  0.3414401E+04  0.7818609E-02  0.8134381E-01
        1   -1    0    0  501    0  0.00000000000E+00  0.00000000000E+00  0.22431318407E+04  0.22431318407E+04  0.50400001928E-02 0. -1.
       -1   -1    0    0    0  501  0.00000000000E+00  0.00000000000E+00 -0.12993142614E+04  0.12993142614E+04  0.50400001928E-02 0.  1.
    10030    2    1    2    0    0  0.00000000000E+00  0.00000000000E+00  0.94381757923E+03  0.35424461021E+04  0.34144007913E+04 0.  0.
        2    1    3    3  502    0  0.50670597553E+03  0.26138756107E+03  0.21414350501E+04  0.22160366596E+04  0.25500000920E-02 0. -1.
       -2    1    3    3    0  502 -0.50670597553E+03 -0.26138756107E+03 -0.11976174709E+04  0.13264094425E+04  0.25500000920E-02 0.  1.
</event>
<event>
 5   0  0.4125758E-07  0.3426579E+04  0.7818609E-02  0.8131414E-01
        1   -1    0    0  501    0  0.00000000000E+00  0.00000000000E+00  0.11056055005E+04  0.11056055005E+04  0.50400001928E-02 0. -1.
       -1   -1    0    0    0  501  0.00000000000E+00  0.00000000000E+00 -0.26549801957E+04  0.26549801957E+04  0.50400001928E-02 0.  1.
    10030    2    1    2    0    0  0.00000000000E+00  0.00000000000E+00 -0.15493746952E+04  0.37605856962E+04  0.34265788817E+04 0.  0.
        2    1    3    3  502    0 -0.15108531659E+03  0.39058438336E+03 -0.25979429146E+04  0.26314806328E+04  0.25500000920E-02 0.  1.
       -2    1    3    3    0  502  0.15108531659E+03 -0.39058438336E+03  0.10485682194E+04  0.11291050634E+04  0.25500000920E-02 0. -1.
</event>
<event>
 5   0  0.1268230E-06  0.3410946E+04  0.7818609E-02  0.8135225E-01
        2   -1    0    0  501    0  0.00000000000E+00  0.00000000000E+00  0.11395447574E+04  0.11395447574E+04  0.25500000920E-02 0.  1.
       -2   -1    0    0    0  501  0.00000000000E+00  0.00000000000E+00 -0.25524564912E+04  0.25524564912E+04  0.25500000920E-02 0. -1.
    10030    2    1    2    0    0  0.00000000000E+00  0.00000000000E+00 -0.14129117338E+04  0.36920012486E+04  0.34109461521E+04 0.  0.
        2    1    3    3  502    0 -0.77767912984E+03  0.63233068624E+03  0.78710098306E+03  0.12744233532E+04  0.25500000920E-02 0.  1.
       -2    1    3    3    0  502  0.77767912984E+03 -0.63233068624E+03 -0.22000127169E+04  0.24175778954E+04  0.25500000920E-02 0. -1.
</event>
<event>
 5   0  0.1277635E-06  0.3393990E+04  0.7818609E-02  0.8139383E-01
       -2   -1    0    0    0  501  0.00000000000E+00  0.00000000000E+00  0.24791737227E+04  0.24791737227E+04  0.25500000920E-02 0.  1.
        2   -1    0    0  501    0  0.00000000000E+00  0.00000000000E+00 -0.11615935886E+04  0.11615935886E+04  0.25500000920E-02 0. -1.
    10030    2    1    2    0    0  0.00000000000E+00  0.00000000000E+00  0.13175801341E+04  0.36407673113E+04  0.33939901599E+04 0.  0.
        4    1    3    3  502    0  0.46471795135E+02  0.10625821133E+04 -0.75968403496E+03  0.13070431596E+04  0.12699999809E+01 0. -1.
       -4    1    3    3    0  502 -0.46471795135E+02 -0.10625821133E+04  0.20772641691E+04  0.23337241517E+04  0.12699999809E+01 0.  1.
</event>
<event>
 5   0  0.1269497E-06  0.3403632E+04  0.7818609E-02  0.8137015E-01
       -2   -1    0    0    0  501  0.00000000000E+00  0.00000000000E+00  0.15502033590E+04  0.15502033590E+04  0.25500000920E-02 0.  1.
        2   -1    0    0  501    0  0.00000000000E+00  0.00000000000E+00 -0.18682566851E+04  0.18682566851E+04  0.25500000920E-02 0. -1.
    10030    2    1    2    0    0  0.00000000000E+00  0.00000000000E+00 -0.31805332617E+03  0.34184600441E+04  0.34036320534E+04 0.  0.
        5    1    3    3  502    0  0.22249094850E+03 -0.70378507279E+03 -0.16991149703E+04  0.18525197497E+04  0.46999998093E+01 0. -1.
       -5    1    3    3    0  502 -0.22249094850E+03  0.70378507279E+03  0.13810616441E+04  0.15659402944E+04  0.46999998093E+01 0.  1.
</event>
<event>
 5   0  0.4272633E-07  0.3265006E+04  0.7818609E-02  0.8171857E-01
       -1   -1    0    0    0  501  0.00000000000E+00  0.00000000000E+00  0.11805277086E+04  0.11805277086E+04  0.50400001928E-02 0.  1.
        1   -1    0    0  501    0  0.00000000000E+00  0.00000000000E+00 -0.22575210181E+04  0.22575210181E+04  0.50400001928E-02 0. -1.
    10030    2    1    2    0    0  0.00000000000E+00  0.00000000000E+00 -0.10769933095E+04  0.34380487267E+04  0.32650060426E+04 0.  0.
        1    1    3    3  502    0  0.47581093054E+03  0.86478706756E+03  0.83073168300E+03  0.12901038109E+04  0.50400001928E-02 0.  1.
       -1    1    3    3    0  502 -0.47581093054E+03 -0.86478706756E+03 -0.19077249925E+04  0.21479449157E+04  0.50400001928E-02 0. -1.
</event>
<event>
 5   0  0.4289684E-07  0.3390180E+04  0.7818609E-02  0.8140321E-01
       -1   -1    0    0    0  501  0.00000000000E+00  0.00000000000E+00  0.32771560882E+04  0.32771560882E+04  0.50400001928E-02 0. -1.
        1   -1    0    0  501    0  0.00000000000E+00  0.00000000000E+00 -0.87677572104E+03  0.87677572105E+03  0.50400001928E-02 0.  1.
    10030    2    1    2    0    0  0.00000000000E+00  0.00000000000E+00  0.24003803671E+04  0.41539318092E+04  0.33901804626E+04 0.  0.
        4    1    3    3  502    0 -0.13538903251E+04 -0.10144545700E+03 -0.43348163796E+02  0.13583780289E+04  0.12699999809E+01 0.  1.
       -4    1    3    3    0  502  0.13538903251E+04  0.10144545700E+03  0.24437285309E+04  0.27955537803E+04  0.12699999809E+01 0. -1.
</event>
<event>
 5   0  0.1268230E-06  0.3427569E+04  0.7818609E-02  0.8131173E-01
       -2   -1    0    0    0  501  0.00000000000E+00  0.00000000000E+00  0.21940810385E+04  0.21940810385E+04  0.25500000920E-02 0. -1.
        2   -1    0    0  501    0  0.00000000000E+00  0.00000000000E+00 -0.13386275550E+04  0.13386275550E+04  0.25500000920E-02 0.  1.
    10030    2    1    2    0    0  0.00000000000E+00  0.00000000000E+00  0.85545348346E+03  0.35327085935E+04  0.34275690138E+04 0.  0.
        2    1    3    3  502    0  0.94230497984E+03 -0.12102710986E+04 -0.36015817545E+03  0.15755661581E+04  0.25500000920E-02 0.  1.
       -2    1    3    3    0  502 -0.94230497984E+03  0.12102710986E+04  0.12156116589E+04  0.19571424354E+04  0.25500000920E-02 0. -1.
</event>
<event>
 5   0  0.1300176E-06  0.3411609E+04  0.7818609E-02  0.8135063E-01
        2   -1    0    0  501    0  0.00000000000E+00  0.00000000000E+00  0.21094090640E+04  0.21094090640E+04  0.25500000920E-02 0. -1.
       -2   -1    0    0    0  501  0.00000000000E+00  0.00000000000E+00 -0.13794238362E+04  0.13794238362E+04  0.25500000920E-02 0.  1.
    10030    2    1    2    0    0  0.00000000000E+00  0.00000000000E+00  0.72998522777E+03  0.34888329001E+04  0.34116090884E+04 0.  0.
        1    1    3    3  502    0  0.18480028803E+03 -0.40470288620E+03  0.20490326913E+04  0.20967762262E+04  0.50400001928E-02 0. -1.
       -1    1    3    3    0  502 -0.18480028803E+03  0.40470288620E+03 -0.13190474635E+04  0.13920566740E+04  0.50400001928E-02 0.  1.
</event>
<event>
 5   0  0.1300176E-06  0.3405991E+04  0.7818609E-02  0.8136437E-01
        2   -1    0    0  501    0  0.00000000000E+00  0.00000000000E+00  0.15013934047E+04  0.15013934047E+04  0.25500000920E-02 0.  1.
       -2   -1    0    0    0  501  0.00000000000E+00  0.00000000000E+00 -0.19316682598E+04  0.19316682598E+04  0.25500000920E-02 0. -1.
    10030    2    1    2    0    0  0.00000000000E+00  0.00000000000E+00 -0.43027485512E+03  0.34330616646E+04  0.34059911834E+04 0.  0.
        1    1    3    3  502    0 -0.16867905644E+04  0.22896041987E+03 -0.26562247051E+03  0.17228582585E+04  0.50400001928E-02 0. -1.
       -1    1    3    3    0  502  0.16867905644E+04 -0.22896041987E+03 -0.16465238461E+03  0.17102034060E+04  0.50400001928E-02 0.  1.
</event>
<event>
 5   0  0.4125758E-07  0.3484297E+04  0.7818609E-02  0.8117521E-01
       -1   -1    0    0    0  501  0.00000000000E+00  0.00000000000E+00  0.12944087856E+04  0.12944087856E+04  0.50400001928E-02 0.  1.
        1   -1    0    0  501    0  0.00000000000E+00  0.00000000000E+00 -0.23447631944E+04  0.23447631944E+04  0.50400001928E-02 0. -1.
    10030    2    1    2    0    0  0.00000000000E+00  0.00000000000E+00 -0.10503544088E+04  0.36391719799E+04  0.34842973920E+04 0.  0.
        2    1    3    3  502    0 -0.10423837328E+04  0.12019068016E+04 -0.12666172447E+04  0.20335837948E+04  0.25500000920E-02 0. -1.
       -2    1    3    3    0  502  0.10423837328E+04 -0.12019068016E+04  0.21626283588E+03  0.16055881851E+04  0.25500000920E-02 0.  1.
</event>
<event>
 5   0  0.1269497E-06  0.3410538E+04  0.7818609E-02  0.8135325E-01
       -2   -1    0    0    0  501  0.00000000000E+00  0.00000000000E+00  0.13209873816E+04  0.13209873816E+04  0.25500000920E-02 0.  1.
        2   -1    0    0  501    0  0.00000000000E+00  0.00000000000E+00 -0.22013393966E+04  0.22013393966E+04  0.25500000920E-02 0. -1.
    10030    2    1    2    0    0  0.00000000000E+00  0.00000000000E+00 -0.88035201496E+03  0.35223267782E+04  0.34105375328E+04 0.  0.
        5    1    3    3  502    0  0.32587073401E+03 -0.14454825100E+03 -0.21624185302E+04  0.21916117179E+04  0.46999998093E+01 0. -1.
       -5    1    3    3    0  502 -0.32587073401E+03  0.14454825100E+03  0.12820665153E+04  0.13307150603E+04  0.46999998093E+01 0.  1.
</event>
<event>
 5   0  0.4289684E-07  0.3378122E+04  0.7818609E-02  0.8143297E-01
        1   -1    0    0  501    0  0.00000000000E+00  0.00000000000E+00  0.12626845285E+04  0.12626845285E+04  0.50400001928E-02 0.  1.
       -1   -1    0    0    0  501  0.00000000000E+00  0.00000000000E+00 -0.22594145450E+04  0.22594145450E+04  0.50400001928E-02 0. -1.
    10030    2    1    2    0    0  0.00000000000E+00  0.00000000000E+00 -0.99673001653E+03  0.35220990735E+04  0.33781224308E+04 0.  0.
        4    1    3    3  502    0  0.88958757364E+03 -0.11135979166E+04  0.44660786522E+03  0.14936286584E+04  0.12699999809E+01 0.  1.
       -4    1    3    3    0  502 -0.88958757364E+03  0.11135979166E+04 -0.14433378817E+04  0.20284704151E+04  0.12699999809E+01 0. -1.
</event>
<event>
 5   0  0.4272633E-07  0.3420846E+04  0.7818609E-02  0.8132809E-01
       -1   -1    0    0    0  501  0.00000000000E+00  0.00000000000E+00  0.14783383446E+04  0.14783383446E+04  0.50400001928E-02 0. -1.
        1   -1    0    0  501    0  0.00000000000E+00  0.00000000000E+00 -0.19789422924E+04  0.19789422924E+04  0.50400001928E-02 0.  1.
    10030    2    1    2    0    0  0.00000000000E+00  0.00000000000E+00 -0.50060394787E+03  0.34572806370E+04  0.34208456689E+04 0.  0.
        1    1    3    3  502    0 -0.99226618603E+03  0.12075916480E+04  0.45184694243E+03  0.16269712449E+04  0.50400001928E-02 0. -1.
       -1    1    3    3    0  502  0.99226618603E+03 -0.12075916480E+04 -0.95245089030E+03  0.18303093921E+04  0.50400001928E-02 0.  1.
</event>
<event>
 5   0  0.4272633E-07  0.3397535E+04  0.7818609E-02  0.8138512E-01
        1   -1    0    0  501    0  0.00000000000E+00  0.00000000000E+00  0.11512626645E+04  0.11512626645E+04  0.50400001928E-02 0. -1.
       -1   -1    0    0    0  501  0.00000000000E+00  0.00000000000E+00 -0.25066487030E+04  0.25066487030E+04  0.50400001928E-02 0.  1.
    10030    2    1    2    0    0  0.00000000000E+00  0.00000000000E+00 -0.13553860384E+04  0.36579113675E+04  0.33975350269E+04 0.  0.
        1    1    3    3  502    0  0.12052276894E+04 -0.79910985062E+03  0.28206137851E+03  0.14733326026E+04  0.50400001928E-02 0. -1.
       -1    1    3    3    0  502 -0.12052276894E+04  0.79910985062E+03 -0.16374474170E+04  0.21845787649E+04  0.50400001928E-02 0.  1.
</event>
<event>
 5   0  0.4125758E-07  0.3335091E+04  0.7818609E-02  0.8154023E-01
       -1   -1    0    0    0  501  0.00000000000E+00  0.00000000000E+00  0.98702877591E+03  0.98702877593E+03  0.50400001928E-02 0. -1.
        1   -1    0    0  501    0  0.00000000000E+00  0.00000000000E+00 -0.28172517856E+04  0.28172517856E+04  0.50400001928E-02 0.  1.
    10030    2    1    2    0    0  0.00000000000E+00  0.00000000000E+00 -0.18302230097E+04  0.38042805615E+04  0.33350913519E+04 0.  0.
        2    1    3    3  502    0 -0.93546475763E+03  0.10992512556E+04 -0.18676059997E+04  0.23603812840E+04  0.25500000920E-02 0.  1.
       -2    1    3    3    0  502  0.93546475763E+03 -0.10992512556E+04  0.37382990015E+02  0.14438992775E+04  0.25500000920E-02 0. -1.
</event>
<event>
 5   0  0.4464951E-07  0.3424654E+04  0.7818609E-02  0.8131882E-01
        1   -1    0    0  501    0  0.00000000000E+00  0.00000000000E+00  0.16069883458E+04  0.16069883458E+04  0.50400001928E-02 0.  1.
       -1   -1    0    0    0  501  0.00000000000E+00  0.00000000000E+00 -0.18245701466E+04  0.18245701466E+04  0.50400001928E-02 0. -1.
    10030    2    1    2    0    0  0.00000000000E+00  0.00000000000E+00 -0.21758180074E+03  0.34315584924E+04  0.34246535368E+04 0.  0.
        3    1    3    3  502    0 -0.67088967072E+02 -0.16654797381E+04 -0.50167745192E+03  0.17406906570E+04  0.10100000352E+00 0. -1.
       -3    1    3    3    0  502  0.67088967072E+02  0.16654797381E+04  0.28409565118E+03  0.16908678354E+04  0.10100000352E+00 0.  1.
</event>
<event>
 5   0  0.1256208E-06  0.3514549E+04  0.7818609E-02  0.8110351E-01
       -2   -1    0    0    0  501  0.00000000000E+00  0.00000000000E+00  0.17238217257E+04  0.17238217257E+04  0.25500000920E-02 0. -1.
        2   -1    0    0  501    0  0.00000000000E+00  0.00000000000E+00 -0.17913759970E+04  0.17913759970E+04  0.25500000920E-02 0.  1.
    10030    2    1    2    0    0  0.00000000000E+00  0.00000000000E+00 -0.67554271249E+02  0.35151977227E+04  0.35145485414E+04 0.  0.
        3    1    3    3  502    0 -0.61291820685E+03 -0.13834293135E+04 -0.92751225277E+03  0.17747744598E+04  0.10100000352E+00 0.  1.
       -3    1    3    3    0  502  0.61291820685E+03  0.13834293135E+04  0.85995798152E+03  0.17404232629E+04  0.10100000352E+00 0. -1.
</event>
<event>
 5   0  0.4464951E-07  0.3392093E+04  0.7818609E-02  0.8139850E-01
       -1   -1    0    0    0  501  0.00000000000E+00  0.00000000000E+00  0.14730511662E+04  0.14730511662E+04  0.50400001928E-02 0. -1.
        1   -1    0    0  501    0  0.00000000000E+00  0.00000000000E+00 -0.19527991828E+04  0.19527991828E+04  0.50400001928E-02 0.  1.
    10030    2    1    2    0    0  0.00000000000E+00  0.00000000000E+00 -0.47974801660E+03  0.34258503491E+04  0.33920926365E+04 0.  0.
        3    1    3    3  502    0 -0.95480879566E+03 -0.13780780867E+04 -0.49896958943E+03  0.17492083097E+04  0.10100000352E+00 0.  1.
       -3    1    3    3    0  502  0.95480879566E+03  0.13780780867E+04  0.19221572829E+02  0.16766420394E+04  0.10100000352E+00 0. -1.
</event>
<event>
 5   0  0.1277635E-06  0.3422757E+04  0.7818609E-02  0.8132344E-01
       -2   -1    0    0    0  501  0.00000000000E+00  0.00000000000E+00  0.26198561802E+04  0.26198561802E+04  0.25500000920E-02 0. -1.
        2   -1    0    0  501    0  0.00000000000E+00  0.00000000000E+00 -0.11179300443E+04  0.11179300443E+04  0.25500000920E-02 0.  1.
    10030    2    1    2    0    0  0.00000000000E+00  0.00000000000E+00  0.15019261360E+04  0.37377862245E+04  0.34227567460E+04 0.  0.
        4    1    3    3  502    0 -0.50884554358E+03  0.15921246451E+04  0.11522481315E+04  0.20301384293E+04  0.12699999809E+01 0.  1.
       -4    1    3    3    0  502  0.50884554358E+03 -0.15921246451E+04  0.34967800445E+03  0.17076477952E+04  0.12699999809E+01 0. -1.
</event>
<event>
 5   0  0.1256208E-06  0.2983867E+04  0.7818609E-02  0.8248353E-01
        2   -1    0    0  501    0  0.00000000000E+00  0.00000000000E+00  0.23324843375E+04  0.23324843375E+04  0.25500000920E-02 0.  1.
       -2   -1    0    0    0  501  0.00000000000E+00  0.00000000000E+00 -0.95428934388E+03  0.95428934388E+03  0.25500000920E-02 0. -1.
    10030    2    1    2    0    0  0.00000000000E+00  0.00000000000E+00  0.13781949937E+04  0.32867736814E+04  0.29838665842E+04 0.  0.
        3    1    3    3  502    0  0.51604168641E+03  0.26327745295E+02  0.22307749252E+04  0.22898360093E+04  0.10100000352E+00 0.  1.
       -3    1    3    3    0  502 -0.51604168641E+03 -0.26327745295E+02 -0.85257993154E+03  0.99693767215E+03  0.10100000352E+00 0. -1.
</event>
<event>
 5   0  0.1268230E-06  0.3391693E+04  0.7818609E-02  0.8139948E-01
        2   -1    0    0  501    0  0.00000000000E+00  0.00000000000E+00  0.26217606774E+04  0.26217606774E+04  0.25500000920E-02 0. -1.
       -2   -1    0    0    0  501  0.00000000000E+00  0.00000000000E+00 -0.10969325390E+04  0.10969325390E+04  0.25500000920E-02 0.  1.
    10030    2    1    2    0    0  0.00000000000E+00  0.00000000000E+00  0.15248281384E+04  0.37186932163E+04  0.33916925547E+04 0.  0.
        2    1    3    3  502    0  0.10447707104E+04 -0.12567293107E+04  0.26601629197E+03  0.16558016383E+04  0.25500000920E-02 0.  1.
       -2    1    3    3    0  502 -0.10447707104E+04  0.12567293107E+04  0.12588118464E+04  0.20628915780E+04  0.25500000920E-02 0. -1.
</event>
<event>
 5   0  0.4109937E-07  0.3419095E+04  0.7818609E-02  0.8133236E-01
        1   -1    0    0  501    0  0.00000000000E+00  0.00000000000E+00  0.22772612092E+04  0.22772612092E+04  0.50400001928E-02 0.  1.
       -1   -1    0    0    0  501  0.00000000000E+00  0.00000000000E+00 -0.12833632237E+04  0.12833632237E+04  0.50400001928E-02 0. -1.
    10030    2    1    2    0    0  0.00000000000E+00  0.00000000000E+00  0.99389798556E+03  0.35606244329E+04  0.34190953696E+04 0.  0.
        5    1    3    3  502    0  0.19620032450E+03  0.11469843552E+04  0.18011729204E+04  0.21443678923E+04  0.46999998093E+01 0.  1.
       -5    1    3    3    0  502 -0.19620032450E+03 -0.11469843552E+04 -0.80727493484E+03  0.14162565406E+04  0.46999998093E+01 0. -1.
</event>
<event>
 5   0  0.4272633E-07  0.3393696E+04  0.7818609E-02  0.8139455E-01
       -1   -1    0    0    0  501  0.00000000000E+00  0.00000000000E+00  0.13272733745E+04  0.13272733745E+04  0.50400001928E-02 0.  1.
        1   -1    0    0  501    0  0.00000000000E+00  0.00000000000E+00 -0.21693295324E+04  0.21693295324E+04  0.50400001928E-02 0. -1.
    10030    2    1    2    0    0  0.00000000000E+00  0.00000000000E+00 -0.84205615795E+03  0.34966029069E+04  0.33936961142E+04 0.  0.
        1    1    3    3  502    0 -0.13525669375E+04 -0.59188273674E+03  0.44071299638E+03  0.15407759213E+04  0.50400001928E-02 0.  1.
       -1    1    3    3    0  502  0.13525669375E+04  0.59188273674E+03 -0.12827691543E+04  0.19558269856E+04  0.50400001928E-02 0. -1.
</event>
<event>
 5   0  0.1277635E-06  0.3385666E+04  0.7818609E-02  0.8141433E-01
       -2   -1    0    0    0  501  0.00000000000E+00  0.00000000000E+00  0.14253755438E+04  0.14253755438E+04  0.25500000920E-02 0. -1.
        2   -1    0    0  501    0  0.00000000000E+00  0.00000000000E+00 -0.20104760532E+04  0.20104760532E+04  0.25500000920E-02 0.  1.
    10030    2    1    2    0    0  0.00000000000E+00  0.00000000000E+00 -0.58510050936E+03  0.34358515969E+04  0.33856659006E+04 0.  0.
        4    1    3    3  502    0  0.91303897115E+03 -0.12999284883E+04  0.30112340446E+03  0.16168274971E+04  0.12699999809E+01 0. -1.
       -4    1    3    3    0  502 -0.91303897115E+03  0.12999284883E+04 -0.88622391382E+03  0.18190240999E+04  0.12699999809E+01 0.  1.
</event>
<event>
 5   0  0.1277635E-06  0.3374318E+04  0.7818609E-02  0.8144238E-01
        2   -1    0    0  501    0  0.00000000000E+00  0.00000000000E+00  0.22507541447E+04  0.22507541447E+04  0.25500000920E-02 0.  1.
       -2   -1    0    0    0  501  0.00000000000E+00  0.00000000000E+00 -0.12646899110E+04  0.12646899110E+04  0.25500000920E-02 0. -1.
    10030    2    1    2    0    0  0.00000000000E+00  0.00000000000E+00  0.98606423369E+03  0.35154440557E+04  0.33743183365E+04 0.  0.
        4    1    3    3  502    0 -0.11586411471E+04  0.11828655408E+04  0.15562885292E+03  0.16630821230E+04  0.12699999809E+01 0. -1.
       -4    1    3    3    0  502  0.11586411471E+04 -0.11828655408E+04  0.83043538077E+03  0.18523619327E+04  0.12699999809E+01 0.  1.
</event>
<event>
 5   0  0.1269497E-06  0.3374041E+04  0.7818609E-02  0.8144307E-01
       -2   -1    0    0    0  501  0.00000000000E+00  0.00000000000E+00  0.11041832102E+04  0.11041832102E+04  0.25500000920E-02 0. -1.
        2   -1    0    0  501    0  0.00000000000E+00  0.00000000000E+00 -0.25775055293E+04  0.25775055293E+04  0.25500000920E-02 0.  1.
    10030    2    1    2    0    0  0.00000000000E+00  0.00000000000E+00 -0.14733223191E+04  0.36816887395E+04  0.33740410962E+04 0.  0.
        5    1    3    3  502    0  0.63261311239E+03 -0.12793652359E+04 -0.17181426106E+04  0.22336093833E+04  0.46999998093E+01 0.  1.
       -5    1    3    3    0  502 -0.63261311239E+03  0.12793652359E+04  0.24482029155E+03  0.14480793562E+04  0.46999998093E+01 0. -1.
</event>
<event>
 5   0  0.1256208E-06  0.3448562E+04  0.7818609E-02  0.8126089E-01
        2   -1    0    0  501    0  0.00000000000E+00  0.00000000000E+00  0.27346323229E+04  0.27346323229E+04  0.25500000920E-02 0. -1.
       -2   -1    0    0    0  501  0.00000000000E+00  0.00000000000E+00 -0.10872192571E+04  0.10872192571E+04  0.25500000920E-02 0.  1.
    10030    2    1    2    0    0  0.00000000000E+00  0.00000000000E+00  0.16474130658E+04  0.38218515800E+04  0.34485619743E+04 0.  0.
        3    1    3    3  502    0 -0.16356002231E+04 -0.51676382827E+03  0.62885711476E+03  0.18269357473E+04  0.10100000352E+00 0. -1.
       -3    1    3    3    0  502  0.16356002231E+04  0.51676382827E+03  0.10185559511E+04  0.19949158327E+04  0.10100000352E+00 0.  1.
</event>
<event>
 5   0  0.1277635E-06  0.3413162E+04  0.7818609E-02  0.8134683E-01
        2   -1    0    0  501    0  0.00000000000E+00  0.00000000000E+00  0.27408513549E+04  0.27408513549E+04  0.25500000920E-02 0.  1.
       -2   -1    0    0    0  501  0.00000000000E+00  0.00000000000E+00 -0.10625965773E+04  0.10625965773E+04  0.25500000920E-02 0. -1.
    10030    2    1    2    0    0  0.00000000000E+00  0.00000000000E+00  0.16782547776E+04  0.38034479322E+04  0.34131623276E+04 0.  0.
        4    1    3    3  502    0 -0.11932484132E+04 -0.37673896028E+03 -0.45401656422E+03  0.13311298484E+04  0.12699999809E+01 0. -1.
       -4    1    3    3    0  502  0.11932484132E+04  0.37673896028E+03  0.21322713418E+04  0.24723180838E+04  0.12699999809E+01 0.  1.
</event>
<event>
 5   0  0.4109937E-07  0.3376999E+04  0.7818609E-02  0.8143575E-01
       -1   -1    0    0    0  501  0.00000000000E+00  0.00000000000E+00  0.13826529769E+04  0.13826529769E+04  0.50400001928E-02 0.  1.
        1   -1    0    0  501    0  0.00000000000E+00  0.00000000000E+00 -0.20619996013E+04  0.20619996013E+04  0.50400001928E-02 0. -1.
    10030    2    1    2    0    0  0.00000000000E+00  0.00000000000E+00 -0.67934662444E+03  0.34446525782E+04  0.33769986006E+04 0.  0.
        5    1    3    3  502    0 -0.30363925102E+03  0.58558101018E+03  0.12457839925E+04  0.14096459698E+04  0.46999998093E+01 0.  1.
       -5    1    3    3    0  502  0.30363925102E+03 -0.58558101018E+03 -0.19251306169E+04  0.20350066084E+04  0.46999998093E+01 0. -1.
</event>
<event>
 5   0  0.4125758E-07  0.3409081E+04  0.7818609E-02  0.8135681E-01
       -1   -1    0    0    0  501  0.00000000000E+00  0.00000000000E+00  0.12609525227E+04  0.12609525227E+04  0.50400001928E-02 0. -1.
        1   -1    0    0  501    0  0.00000000000E+00  0.00000000000E+00 -0.23041777381E+04  0.23041777381E+04  0.50400001928E-02 0.  1.
    10030    2    1    2    0    0  0.00000000000E+00  0.00000000000E+00 -0.10432252154E+04  0.35651302608E+04  0.34090812437E+04 0.  0.
        2    1    3    3  502    0 -0.13681288220E+04 -0.59780718937E+03  0.33841140554E+03  0.15309056759E+04  0.25500000920E-02 0. -1.
       -2    1    3    3    0  502  0.13681288220E+04  0.59780718937E+03 -0.13816366209E+04  0.20342245848E+04  0.25500000920E-02 0.  1.
</event>
<event>
 5   0  0.1277635E-06  0.3407402E+04  0.7818609E-02  0.8136092E-01
       -2   -1    0    0    0  501  0.00000000000E+00  0.00000000000E+00  0.98850556407E+03  0.98850556407E+03  0.25500000920E-02 0.  1.
        2   -1    0    0  501    0  0.00000000000E+00  0.00000000000E+00 -0.29363488224E+04  0.29363488224E+04  0.25500000920E-02 0. -1.
    10030    2    1    2    0    0  0.00000000000E+00  0.00000000000E+00 -0.19478432583E+04  0.39248543865E+04  0.34074020303E+04 0.  0.
        4    1    3    3  502    0  0.19942997023E+03  0.12579029850E+04  0.32951680465E+03  0.13155512799E+04  0.12699999809E+01 0.  1.
       -4    1    3    3    0  502 -0.19942997023E+03 -0.12579029850E+04 -0.22773600630E+04  0.26093031066E+04  0.12699999809E+01 0. -1.
</event>
<event>
 5   0  0.1256208E-06  0.2998834E+04  0.7818609E-02  0.8244064E-01
        2   -1    0    0  501    0  0.00000000000E+00  0.00000000000E+00  0.27593060720E+04  0.27593060720E+04  0.25500000920E-02 0.  1.
       -2   -1    0    0    0  501  0.00000000000E+00  0.00000000000E+00 -0.81478885438E+03  0.81478885438E+03  0.25500000920E-02 0. -1.
    10030    2    1    2    0    0  0.00000000000E+00  0.00000000000E+00  0.19445172176E+04  0.35740949264E+04  0.29988343291E+04 0.  0.
        3    1    3    3  502    0  0.39948562865E+03 -0.89126420008E+03 -0.38365793817E+03  0.10493493534E+04  0.10100000352E+00 0. -1.
       -3    1    3    3    0  502 -0.39948562865E+03  0.89126420008E+03  0.23281751558E+04  0.25247455729E+04  0.10100000352E+00 0.  1.
</event>
<event>
 5   0  0.1268230E-06  0.3398705E+04  0.7818609E-02  0.8138224E-01
        2   -1    0    0  501    0  0.00000000000E+00  0.00000000000E+00  0.14750812210E+04  0.14750812210E+04  0.25500000920E-02 0. -1.
       -2   -1    0    0    0  501  0.00000000000E+00  0.00000000000E+00 -0.19577224921E+04  0.19577224921E+04  0.25500000920E-02 0.  1.
    10030    2    1    2    0    0  0.00000000000E+00  0.00000000000E+00 -0.48264127107E+03  0.34328037131E+04  0.33987054500E+04 0.  0.
        2    1    3    3  502    0 -0.11639250214E+04 -0.46925147194E+03 -0.13986265486E+04  0.18791153827E+04  0.25500000920E-02 0.  1.
       -2    1    3    3    0  502  0.11639250214E+04  0.46925147194E+03  0.91598527752E+03  0.15536883304E+04  0.25500000920E-02 0. -1.
</event>
<event>
 5   0  0.1277635E-06  0.3393027E+04  0.7818609E-02  0.8139620E-01
       -2   -1    0    0    0  501  0.00000000000E+00  0.00000000000E+00  0.14002950577E+04  0.14002950577E+04  0.25500000920E-02 0.  1.
        2   -1    0    0  501    0  0.00000000000E+00  0.00000000000E+00 -0.20553936636E+04  0.20553936636E+04  0.25500000920E-02 0. -1.
    10030    2    1    2    0    0  0.00000000000E+00  0.00000000000E+00 -0.65509860590E+03  0.34556887213E+04  0.33930267248E+04 0.  0.
        4    1    3    3  502    0  0.98882319097E+03 -0.13767565779E+04 -0.25606767161E+03  0.17142935114E+04  0.12699999809E+01 0. -1.
       -4    1    3    3    0  502 -0.98882319097E+03  0.13767565779E+04 -0.39903093430E+03  0.17413952099E+04  0.12699999809E+01 0.  1.
</event>
<event>
 5   0  0.4272633E-07  0.3417932E+04  0.7818609E-02  0.8133519E-01
        1   -1    0    0  501    0  0.00000000000E+00  0.00000000000E+00  0.26537736136E+04  0.26537736136E+04  0.50400001928E-02 0. -1.
       -1   -1    0    0    0  501  0.00000000000E+00  0.00000000000E+00 -0.11005329703E+04  0.11005329703E+04  0.50400001928E-02 0.  1.
    10030    2    1    2    0    0  0.00000000000E+00  0.00000000000E+00  0.15532406434E+04  0.37543065839E+04  0.34179323326E+04 0.  0.
        1    1    3    3  502    0  0.15923121556E+04 -0.23990616662E+03  0.14797359356E+03  0.16170680734E+04  0.50400001928E-02 0.  1.
       -1    1    3    3    0  502 -0.15923121556E+04  0.23990616662E+03  0.14052670498E+04  0.21372385105E+04  0.50400001928E-02 0. -1.
</event>
<event>
 5   0  0.1268230E-06  0.3389609E+04  0.7818609E-02  0.8140461E-01
        2   -1    0    0  501    0  0.00000000000E+00  0.00000000000E+00  0.25698351211E+04  0.25698351211E+04  0.25500000920E-02 0. -1.
       -2   -1    0    0    0  501  0.00000000000E+00  0.00000000000E+00 -0.11177221152E+04  0.11177221152E+04  0.25500000920E-02 0.  1.
    10030    2    1    2    0    0  0.00000000000E+00  0.00000000000E+00  0.14521130059E+04  0.36875572364E+04  0.33896085599E+04 0.  0.
        2    1    3    3  502    0  0.10876701634E+03  0.13080891867E+04  0.18924127906E+04  0.23030748477E+04  0.25500000920E-02 0. -1.
       -2    1    3    3    0  502 -0.10876701634E+03 -0.13080891867E+04 -0.44029978470E+03  0.13844823887E+04  0.25500000920E-02 0.  1.
</event>
<event>
 5   0  0.4109937E-07  0.3371360E+04  0.7818609E-02  0.8144972E-01
        1   -1    0    0  501    0  0.00000000000E+00  0.00000000000E+00  0.27212718044E+04  0.27212718044E+04  0.50400001928E-02 0. -1.
       -1   -1    0    0    0  501  0.00000000000E+00  0.00000000000E+00 -0.10441868751E+04  0.10441868751E+04  0.50400001928E-02 0.  1.
    10030    2    1    2    0    0  0.00000000000E+00  0.00000000000E+00  0.16770849293E+04  0.37654586795E+04  0.33713595487E+04 0.  0.
        5    1    3    3  502    0  0.15946768008E+04  0.53405452533E+03  0.70980411950E+03  0.18253910028E+04  0.46999998093E+01 0.  1.
       -5    1    3    3    0  502 -0.15946768008E+04 -0.53405452533E+03  0.96728080984E+03  0.19400676767E+04  0.46999998093E+01 0. -1.
</event>
<event>
 5   0  0.4464951E-07  0.3406412E+04  0.7818609E-02  0.8136334E-01
        1   -1    0    0  501    0  0.00000000000E+00  0.00000000000E+00  0.11294262287E+04  0.11294262287E+04  0.50400001928E-02 0. -1.
       -1   -1    0    0    0  501  0.00000000000E+00  0.00000000000E+00 -0.25684817443E+04  0.25684817443E+04  0.50400001928E-02 0.  1.
    10030    2    1    2    0    0  0.00000000000E+00  0.00000000000E+00 -0.14390555156E+04  0.36979079730E+04  0.34064119833E+04 0.  0.
        3    1    3    3  502    0  0.95997945008E+03  0.86441959557E+02 -0.22439277401E+04  0.24421802697E+04  0.10100000352E+00 0.  1.
       -3    1    3    3    0  502 -0.95997945008E+03 -0.86441959557E+02  0.80487222442E+03  0.12557277033E+04  0.10100000352E+00 0. -1.
</event>
<event>
 5   0  0.1269497E-06  0.3393947E+04  0.7818609E-02  0.8139393E-01
        2   -1    0    0  501    0  0.00000000000E+00  0.00000000000E+00  0.32552029960E+04  0.32552029960E+04  0.25500000920E-02 0. -1.
       -2   -1    0    0    0  501  0.00000000000E+00  0.00000000000E+00 -0.88465133101E+03  0.88465133101E+03  0.25500000920E-02 0.  1.
    10030    2    1    2    0    0  0.00000000000E+00  0.00000000000E+00  0.23705516650E+04  0.41398543270E+04  0.33939473556E+04 0.  0.
        5    1    3    3  502    0  0.73044532055E+03 -0.10904432680E+04  0.24973602569E+04  0.28212492322E+04  0.46999998093E+01 0. -1.
       -5    1    3    3    0  502 -0.73044532055E+03  0.10904432680E+04 -0.12680859195E+03  0.13186050948E+04  0.46999998093E+01 0.  1.
</event>
<event>
 5   0  0.4109937E-07  0.3417732E+04  0.7818609E-02  0.8133568E-01
       -1   -1    0    0    0  501  0.00000000000E+00  0.00000000000E+00  0.12650508033E+04  0.12650508033E+04  0.50400001928E-02 0.  1.
        1   -1    0    0  501    0  0.00000000000E+00  0.00000000000E+00 -0.23083834906E+04  0.23083834906E+04  0.50400001928E-02 0. -1.
    10030    2    1    2    0    0  0.00000000000E+00  0.00000000000E+00 -0.10433326873E+04  0.35734342938E+04  0.34177316390E+04 0.  0.
        5    1    3    3  502    0  0.67434574806E+03  0.14738700064E+04  0.44447970024E+02  0.16214292139E+04  0.46999998093E+01 0.  1.
       -5    1    3    3    0  502 -0.67434574806E+03 -0.14738700064E+04 -0.10877806573E+04  0.19520050799E+04  0.46999998093E+01 0. -1.
</event>
<event>
 5   0  0.1256208E-06  0.3388066E+04  0.7818609E-02  0.8140842E-01
       -2   -1    0    0    0  501  0.00000000000E+00  0.00000000000E+00  0.13706283729E+04  0.13706283729E+04  0.25500000920E-02 0. -1.
        2   -1    0    0  501    0  0.00000000000E+00  0.00000000000E+00 -0.20937455829E+04  0.20937455829E+04  0.25500000920E-02 0.  1.
    10030    2    1    2    0    0  0.00000000000E+00  0.00000000000E+00 -0.72311720995E+03  0.34643739558E+04  0.33880655848E+04 0.  0.
        3    1    3    3  502    0 -0.75461707289E+03  0.11943939575E+04 -0.13173429216E+04  0.19316874063E+04  0.10100000352E+00 0.  1.
       -3    1    3    3    0  502  0.75461707289E+03 -0.11943939575E+04  0.59422571163E+03  0.15326865495E+04  0.10100000352E+00 0. -1.
</event>
<event>
 5   0  0.4272633E-07  0.3403892E+04  0.7818609E-02  0.8136952E-01
       -1   -1    0    0    0  501  0.00000000000E+00  0.00000000000E+00  0.11579353240E+04  0.11579353240E+04  0.50400001928E-02 0.  1.
        1   -1    0    0  501    0  0.00000000000E+00  0.00000000000E+00 -0.25015388942E+04  0.25015388942E+04  0.50400001928E-02 0. -1.
    10030    2    1    2    0    0  0.00000000000E+00  0.00000000000E+00 -0.13436035702E+04  0.36594742182E+04  0.34038920371E+04 0.  0.
        1    1    3    3  502    0 -0.81400044235E+03  0.13057796215E+04  0.11010612650E+03  0.15426537198E+04  0.50400001928E-02 0. -1.
       -1    1    3    3    0  502  0.81400044235E+03 -0.13057796215E+04 -0.14537096967E+04  0.21168204984E+04  0.50400001928E-02 0.  1.
</event>
<event>
 5   0  0.4109937E-07  0.3378837E+04  0.7818609E-02  0.8143120E-01
       -1   -1    0    0    0  501  0.00000000000E+00  0.00000000000E+00  0.18768178819E+04  0.18768178819E+04  0.50400001928E-02 0.  1.
        1   -1    0    0  501    0  0.00000000000E+00  0.00000000000E+00 -0.15207306669E+04  0.15207306669E+04  0.50400001928E-02 0. -1.
    10030    2    1    2    0    0  0.00000000000E+00  0.00000000000E+00  0.35608721492E+03  0.33975485488E+04  0.33788367875E+04 0.  0.
        5    1    3    3  502    0 -0.10934536471E+03 -0.58556913547E+03  0.17677048775E+04  0.18653820642E+04  0.46999998093E+01 0.  1.
       -5    1    3    3    0  502  0.10934536471E+03  0.58556913547E+03 -0.14116176626E+04  0.15321664846E+04  0.46999998093E+01 0. -1.
</event>
<event>
 5   0  0.1256208E-06  0.3238077E+04  0.7818609E-02  0.8178833E-01
       -2   -1    0    0    0  501  0.00000000000E+00  0.00000000000E+00  0.19994355586E+04  0.19994355586E+04  0.25500000920E-02 0. -1.
        2   -1    0    0  501    0  0.00000000000E+00  0.00000000000E+00 -0.13110124697E+04  0.13110124697E+04  0.25500000920E-02 0.  1.
    10030    2    1    2    0    0  0.00000000000E+00  0.00000000000E+00  0.68842308888E+03  0.33104480284E+04  0.32380765586E+04 0.  0.
        3    1    3    3  502    0 -0.14124857018E+04  0.30856426830E+03 -0.40074237272E+03  0.15003073768E+04  0.10100000352E+00 0.  1.
       -3    1    3    3    0  502  0.14124857018E+04 -0.30856426830E+03  0.10891654616E+04  0.18101406515E+04  0.10100000352E+00 0. -1.
</event>
<event>
 5   0  0.1269497E-06  0.3348677E+04  0.7818609E-02  0.8150619E-01
        2   -1    0    0  501    0  0.00000000000E+00  0.00000000000E+00  0.23745918316E+04  0.23745918316E+04  0.25500000920E-02 0.  1.
       -2   -1    0    0    0  501  0.00000000000E+00  0.00000000000E+00 -0.11805857971E+04  0.11805857971E+04  0.25500000920E-02 0. -1.
    10030    2    1    2    0    0  0.00000000000E+00  0.00000000000E+00  0.11940060345E+04  0.35551776288E+04  0.33486769868E+04 0.  0.
        5    1    3    3  502    0  0.53744927428E+03 -0.12449533441E+04 -0.44571696746E+03  0.14273914167E+04  0.46999998093E+01 0. -1.
       -5    1    3    3    0  502 -0.53744927428E+03  0.12449533441E+04  0.16397230020E+04  0.21277862121E+04  0.46999998093E+01 0.  1.
</event>
<event>
 5   0  0.1269497E-06  0.3396007E+04  0.7818609E-02  0.8138887E-01
        2   -1    0    0  501    0  0.00000000000E+00  0.00000000000E+00  0.11084064680E+04  0.11084064680E+04  0.25500000920E-02 0. -1.
       -2   -1    0    0    0  501  0.00000000000E+00  0.00000000000E+00 -0.26012261337E+04  0.26012261337E+04  0.25500000920E-02 0.  1.
    10030    2    1    2    0    0  0.00000000000E+00  0.00000000000E+00 -0.14928196657E+04  0.37096326016E+04  0.33960069913E+04 0.  0.
        5    1    3    3  502    0 -0.41319081614E+03  0.12162901174E+04  0.46659473992E+03  0.13666824948E+04  0.46999998093E+01 0. -1.
       -5    1    3    3    0  502  0.41319081614E+03 -0.12162901174E+04 -0.19594144056E+04  0.23429501068E+04  0.46999998093E+01 0.  1.
</event>
<event>
 5   0  0.4289684E-07  0.3502118E+04  0.7818609E-02  0.8113288E-01
       -1   -1    0    0    0  501  0.00000000000E+00  0.00000000000E+00  0.13829886434E+04  0.13829886434E+04  0.50400001928E-02 0.  1.
        1   -1    0    0  501    0  0.00000000000E+00  0.00000000000E+00 -0.22170879530E+04  0.22170879530E+04  0.50400001928E-02 0. -1.
    10030    2    1    2    0    0  0.00000000000E+00  0.00000000000E+00 -0.83409930961E+03  0.36000765963E+04  0.35021179080E+04 0.  0.
        4    1    3    3  502    0  0.15181420805E+04  0.52702710868E+03 -0.11319834594E+04  0.19656808274E+04  0.12699999809E+01 0. -1.
       -4    1    3    3    0  502 -0.15181420805E+04 -0.52702710868E+03  0.29788414984E+03  0.16343957689E+04  0.12699999809E+01 0.  1.
</event>
<event>
 5   0  0.4060750E-07  0.3455258E+04  0.7818609E-02  0.8124476E-01
        3   -1    0    0  501    0  0.00000000000E+00  0.00000000000E+00  0.17480959536E+04  0.17480959565E+04  0.10100000352E+00 0.  1.
       -3   -1    0    0    0  501  0.00000000000E+00  0.00000000000E+00 -0.17074020559E+04  0.17074020589E+04  0.10100000352E+00 0. -1.
    10030    2    1    2    0    0  0.00000000000E+00  0.00000000000E+00  0.40693897622E+02  0.34554980154E+04  0.34552583899E+04 0.  0.
        3    1    3    3  502    0  0.65919212044E+03 -0.15423276302E+04  0.43437306884E+03  0.17326248133E+04  0.10100000352E+00 0. -1.
       -3    1    3    3    0  502 -0.65919212044E+03  0.15423276302E+04 -0.39367917122E+03  0.17228732021E+04  0.10100000352E+00 0.  1.
</event>
<event>
 5   0  0.4289684E-07  0.3372156E+04  0.7818609E-02  0.8144774E-01
        1   -1    0    0  501    0  0.00000000000E+00  0.00000000000E+00  0.20022794230E+04  0.20022794230E+04  0.50400001928E-02 0.  1.
       -1   -1    0    0    0  501  0.00000000000E+00  0.00000000000E+00 -0.14198109625E+04  0.14198109625E+04  0.50400001928E-02 0. -1.
    10030    2    1    2    0    0  0.00000000000E+00  0.00000000000E+00  0.58246846051E+03  0.34220903854E+04  0.33721555567E+04 0.  0.
        4    1    3    3  502    0 -0.15071998466E+03  0.34646152436E+01  0.19954253470E+04  0.20011128018E+04  0.12699999809E+01 0.  1.
       -4    1    3    3    0  502  0.15071998466E+03 -0.34646152436E+01 -0.14129568865E+04  0.14209775836E+04  0.12699999809E+01 0. -1.
</event>
<event>
 5   0  0.4464951E-07  0.3456312E+04  0.7818609E-02  0.8124222E-01
        1   -1    0    0  501    0  0.00000000000E+00  0.00000000000E+00  0.19388519246E+04  0.19388519246E+04  0.50400001928E-02 0.  1.
       -1   -1    0    0    0  501  0.00000000000E+00  0.00000000000E+00 -0.15403567745E+04  0.15403567745E+04  0.50400001928E-02 0. -1.
    10030    2    1    2    0    0  0.00000000000E+00  0.00000000000E+00  0.39849515013E+03  0.34792086991E+04  0.34563123105E+04 0.  0.
        3    1    3    3  502    0  0.13650595447E+04  0.60274097147E+03  0.10767097830E+04  0.18401054878E+04  0.10100000352E+00 0.  1.
       -3    1    3    3    0  502 -0.13650595447E+04 -0.60274097147E+03 -0.67821463285E+03  0.16391032114E+04  0.10100000352E+00 0. -1.
</event>
<event>
 5   0  0.4272633E-07  0.3411143E+04  0.7818609E-02  0.8135177E-01
        1   -1    0    0  501    0  0.00000000000E+00  0.00000000000E+00  0.13944530572E+04  0.13944530572E+04  0.50400001928E-02 0.  1.
       -1   -1    0    0    0  501  0.00000000000E+00  0.00000000000E+00 -0.20861045236E+04  0.20861045237E+04  0.50400001928E-02 0. -1.
    10030    2    1    2    0    0  0.00000000000E+00  0.00000000000E+00 -0.69165146646E+03  0.34805575809E+04  0.34111434040E+04 0.  0.
        1    1    3    3  502    0 -0.40405408815E+03 -0.86583925610E+03  0.10957358309E+04  0.14538137208E+04  0.50400001928E-02 0.  1.
       -1    1    3    3    0  502  0.40405408815E+03  0.86583925610E+03 -0.17873872974E+04  0.20267438601E+04  0.50400001928E-02 0. -1.
</event>
<event>
 5   0  0.1256208E-06  0.3409222E+04  0.7818609E-02  0.8135647E-01
        2   -1    0    0  501    0  0.00000000000E+00  0.00000000000E+00  0.11750728788E+04  0.11750728788E+04  0.25500000920E-02 0.  1.
       -2   -1    0    0    0  501  0.00000000000E+00  0.00000000000E+00 -0.24727821780E+04  0.24727821780E+04  0.25500000920E-02 0. -1.
    10030    2    1    2    0    0  0.00000000000E+00  0.00000000000E+00 -0.12977092992E+04  0.36478550568E+04  0.34092223586E+04 0.  0.
        3    1    3    3  502    0 -0.16717242230E+04  0.20043621797E+03 -0.93368818176E+03  0.19252558755E+04  0.10100000352E+00 0. -1.
       -3    1    3    3    0  502  0.16717242230E+04 -0.20043621797E+03 -0.36402111744E+03  0.17225991813E+04  0.10100000352E+00 0.  1.
</event>
<event>
 5   0  0.1269497E-06  0.3358298E+04  0.7818609E-02  0.8148218E-01
        2   -1    0    0  501    0  0.00000000000E+00  0.00000000000E+00  0.28595201941E+04  0.28595201941E+04  0.25500000920E-02 0. -1.
       -2   -1    0    0    0  501  0.00000000000E+00  0.00000000000E+00 -0.98601891495E+03  0.98601891495E+03  0.25500000920E-02 0.  1.
    10030    2    1    2    0    0  0.00000000000E+00  0.00000000000E+00  0.18735012792E+04  0.38455391091E+04  0.33582977826E+04 0.  0.
        5    1    3    3  502    0  0.10414864404E+04 -0.88374805424E+03 -0.18157926921E+03  0.13779324185E+04  0.46999998093E+01 0.  1.
       -5    1    3    3    0  502 -0.10414864404E+04  0.88374805424E+03  0.20550805484E+04  0.24676066906E+04  0.46999998093E+01 0. -1.
</event>
<event>
 5   0  0.1269497E-06  0.3324109E+04  0.7818609E-02  0.8156788E-01
        2   -1    0    0  501    0  0.00000000000E+00  0.00000000000E+00  0.14531776295E+04  0.14531776295E+04  0.25500000920E-02 0. -1.
       -2   -1    0    0    0  501  0.00000000000E+00  0.00000000000E+00 -0.19009552168E+04  0.19009552168E+04  0.25500000920E-02 0.  1.
    10030    2    1    2    0    0  0.00000000000E+00  0.00000000000E+00 -0.44777758732E+03  0.33541328462E+04  0.33241092615E+04 0.  0.
        5    1    3    3  502    0  0.20842755044E+03 -0.14445498352E+04 -0.10262039643E+04  0.17841757023E+04  0.46999998093E+01 0.  1.
       -5    1    3    3    0  502 -0.20842755044E+03  0.14445498352E+04  0.57842637701E+03  0.15699571440E+04  0.46999998093E+01 0. -1.
</event>
<event>
 5   0  0.4272633E-07  0.3462497E+04  0.7818609E-02  0.8122736E-01
       -1   -1    0    0    0  501  0.00000000000E+00  0.00000000000E+00  0.16406756369E+04  0.16406756369E+04  0.50400001928E-02 0.  1.
        1   -1    0    0  501    0  0.00000000000E+00  0.00000000000E+00 -0.18268211895E+04  0.18268211895E+04  0.50400001928E-02 0. -1.
    10030    2    1    2    0    0  0.00000000000E+00  0.00000000000E+00 -0.18614555260E+03  0.34674968265E+04  0.34624967978E+04 0.  0.
        1    1    3    3  502    0  0.63101126661E+03  0.94278745008E+03  0.12165609214E+04  0.16634433775E+04  0.50400001928E-02 0.  1.
       -1    1    3    3    0  502 -0.63101126661E+03 -0.94278745008E+03 -0.14027064740E+04  0.18040534490E+04  0.50400001928E-02 0. -1.
</event>
<event>
 5   0  0.1300176E-06  0.3088043E+04  0.7818609E-02  0.8219027E-01
        2   -1    0    0  501    0  0.00000000000E+00  0.00000000000E+00  0.23541179931E+04  0.23541179931E+04  0.25500000920E-02 0.  1.
       -2   -1    0    0    0  501  0.00000000000E+00  0.00000000000E+00 -0.10126944440E+04  0.10126944440E+04  0.25500000920E-02 0. -1.
    10030    2    1    2    0    0  0.00000000000E+00  0.00000000000E+00  0.13414235491E+04  0.33668124370E+04  0.30880428831E+04 0.  0.
        1    1    3    3  502    0 -0.32951356656E+03  0.10349048681E+04  0.18672320448E+04  0.21601302706E+04  0.50400001928E-02 0.  1.
       -1    1    3    3    0  502  0.32951356656E+03 -0.10349048681E+04 -0.52580849570E+03  0.12066821665E+04  0.50400001928E-02 0. -1.
</event>
<event>
 5   0  0.1300176E-06  0.3326995E+04  0.7818609E-02  0.8156060E-01
       -2   -1    0    0    0  501  0.00000000000E+00  0.00000000000E+00  0.13698204179E+04  0.13698204179E+04  0.25500000920E-02 0. -1.
        2   -1    0    0  501    0  0.00000000000E+00  0.00000000000E+00 -0.20201359036E+04  0.20201359036E+04  0.25500000920E-02 0.  1.
    10030    2    1    2    0    0  0.00000000000E+00  0.00000000000E+00 -0.65031548570E+03  0.33899563215E+04  0.33269946845E+04 0.  0.
        1    1    3    3  502    0  0.13618427684E+04  0.63267849316E+03  0.40415705720E+03  0.15550693645E+04  0.50400001928E-02 0. -1.
       -1    1    3    3    0  502 -0.13618427684E+04 -0.63267849316E+03 -0.10544725429E+04  0.18348869571E+04  0.50400001928E-02 0.  1.
</event>
<event>
 5   0  0.4464951E-07  0.3384162E+04  0.7818609E-02  0.8141805E-01
        1   -1    0    0  501    0  0.00000000000E+00  0.00000000000E+00  0.27059254229E+04  0.27059254229E+04  0.50400001928E-02 0.  1.
       -1   -1    0    0    0  501  0.00000000000E+00  0.00000000000E+00 -0.10580991608E+04  0.10580991609E+04  0.50400001928E-02 0. -1.
    10030    2    1    2    0    0  0.00000000000E+00  0.00000000000E+00  0.16478262620E+04  0.37640245837E+04  0.33841615914E+04 0.  0.
        3    1    3    3  502    0 -0.14905712243E+04 -0.20976289153E+03  0.16835402521E+04  0.22583424975E+04  0.10100000352E+00 0.  1.
       -3    1    3    3    0  502  0.14905712243E+04  0.20976289153E+03 -0.35713990040E+02  0.15056820862E+04  0.10100000352E+00 0. -1.
</event>
<event>
 5   0  0.1277635E-06  0.3078152E+04  0.7818609E-02  0.8221760E-01
        2   -1    0    0  501    0  0.00000000000E+00  0.00000000000E+00  0.16949940508E+04  0.16949940508E+04  0.25500000920E-02 0.  1.
       -2   -1    0    0    0  501  0.00000000000E+00  0.00000000000E+00 -0.13975005323E+04  0.13975005323E+04  0.25500000920E-02 0. -1.
    10030    2    1    2    0    0  0.00000000000E+00  0.00000000000E+00  0.29749351845E+03  0.30924945831E+04  0.30781521004E+04 0.  0.
        4    1    3    3  502    0  0.44183938684E+03 -0.51213546547E+03  0.15376675309E+04  0.16798594665E+04  0.12699999809E+01 0.  1.
       -4    1    3    3    0  502 -0.44183938684E+03  0.51213546547E+03 -0.12401740124E+04  0.14126351166E+04  0.12699999809E+01 0. -1.
</event>
<event>
 5   0  0.4125758E-07  0.2780673E+04  0.7818609E-02  0.8309294E-01
       -1   -1    0    0    0  501  0.00000000000E+00  0.00000000000E+00  0.10473885929E+04  0.10473885929E+04  0.50400001928E-02 0.  1.
        1   -1    0    0  501    0  0.00000000000E+00  0.00000000000E+00 -0.18455759698E+04  0.18455759698E+04  0.50400001928E-02 0. -1.
    10030    2    1    2    0    0  0.00000000000E+00  0.00000000000E+00 -0.79818737690E+03  0.28929645627E+04  0.27806727374E+04 0.  0.
        2    1    3    3  502    0 -0.23677643051E+02  0.13836681349E+04 -0.25975583784E+03  0.14080380796E+04  0.25500000920E-02 0.  1.
       -2    1    3    3    0  502  0.23677643051E+02 -0.13836681349E+04 -0.53843153906E+03  0.14849264832E+04  0.25500000920E-02 0. -1.
</event>
<event>
 5   0  0.1268230E-06  0.3475960E+04  0.7818609E-02  0.8119511E-01
        2   -1    0    0  501    0  0.00000000000E+00  0.00000000000E+00  0.23946290560E+04  0.23946290560E+04  0.25500000920E-02 0.  1.
       -2   -1    0    0    0  501  0.00000000000E+00  0.00000000000E+00 -0.12613958825E+04  0.12613958825E+04  0.25500000920E-02 0. -1.
    10030    2    1    2    0    0  0.00000000000E+00  0.00000000000E+00  0.11332331735E+04  0.36560249385E+04  0.34759604321E+04 0.  0.
        2    1    3    3  502    0  0.16344613060E+04  0.25513361798E+03  0.11271577275E+04  0.20017595926E+04  0.25500000920E-02 0. -1.
       -2    1    3    3    0  502 -0.16344613060E+04 -0.25513361798E+03  0.60754460474E+01  0.16542653460E+04  0.25500000920E-02 0.  1.
</event>
<event>
 5   0  0.4272633E-07  0.3409228E+04  0.7818609E-02  0.8135645E-01
        1   -1    0    0  501    0  0.00000000000E+00  0.00000000000E+00  0.17714149554E+04  0.17714149554E+04  0.50400001928E-02 0. -1.
       -1   -1    0    0    0  501  0.00000000000E+00  0.00000000000E+00 -0.16403321373E+04  0.16403321373E+04  0.50400001928E-02 0.  1.
    10030    2    1    2    0    0  0.00000000000E+00  0.00000000000E+00  0.13108281812E+03  0.34117470926E+04  0.34092279946E+04 0.  0.
        1    1    3    3  502    0  0.95286211289E+03  0.23873097352E+03 -0.13286032563E+04  0.16523090802E+04  0.50400001928E-02 0.  1.
       -1    1    3    3    0  502 -0.95286211289E+03 -0.23873097352E+03  0.14596860744E+04  0.17594380125E+04  0.50400001928E-02 0. -1.
</event>
<event>
 5   0  0.1268230E-06  0.3396840E+04  0.7818609E-02  0.8138682E-01
        2   -1    0    0  501    0  0.00000000000E+00  0.00000000000E+00  0.27395223882E+04  0.27395223883E+04  0.25500000920E-02 0.  1.
       -2   -1    0    0    0  501  0.00000000000E+00  0.00000000000E+00 -0.10529683421E+04  0.10529683421E+04  0.25500000920E-02 0. -1.
    10030    2    1    2    0    0  0.00000000000E+00  0.00000000000E+00  0.16865540461E+04  0.37924907304E+04  0.33968399123E+04 0.  0.
        2    1    3    3  502    0 -0.99205917656E+02  0.12706502315E+04  0.20966360089E+04  0.24536251504E+04  0.25500000920E-02 0.  1.
       -2    1    3    3    0  502  0.99205917656E+02 -0.12706502315E+04 -0.41008196278E+03  0.13388655800E+04  0.25500000920E-02 0. -1.
</event>
<event>
 5   0  0.1269497E-06  0.3322958E+04  0.7818609E-02  0.8157078E-01
        2   -1    0    0  501    0  0.00000000000E+00  0.00000000000E+00  0.17519021641E+04  0.17519021641E+04  0.25500000920E-02 0. -1.
       -2   -1    0    0    0  501  0.00000000000E+00  0.00000000000E+00 -0.15757233713E+04  0.15757233713E+04  0.25500000920E-02 0.  1.
    10030    2    1    2    0    0  0.00000000000E+00  0.00000000000E+00  0.17617879277E+03  0.33276255354E+04  0.33229584314E+04 0.  0.
        5    1    3    3  502    0  0.52979102810E+02  0.54674564886E+03 -0.14821542173E+04  0.15806773243E+04  0.46999998093E+01 0.  1.
       -5    1    3    3    0  502 -0.52979102810E+02 -0.54674564886E+03  0.16583330100E+04  0.17469482110E+04  0.46999998093E+01 0. -1.
</event>
<event>
 5   0  0.1269497E-06  0.3396077E+04  0.7818609E-02  0.8138870E-01
       -2   -1    0    0    0  501  0.00000000000E+00  0.00000000000E+00  0.13334214635E+04  0.13334214635E+04  0.25500000920E-02 0. -1.
        2   -1    0    0  501    0  0.00000000000E+00  0.00000000000E+00 -0.21623578079E+04  0.21623578079E+04  0.25500000920E-02 0.  1.
    10030    2    1    2    0    0  0.00000000000E+00  0.00000000000E+00 -0.82893634442E+03  0.34957792714E+04  0.33960767440E+04 0.  0.
        5    1    3    3  502    0  0.11977206562E+04 -0.11712299027E+04 -0.70009969660E+03  0.18156199851E+04  0.46999998093E+01 0. -1.
       -5    1    3    3    0  502 -0.11977206562E+04  0.11712299027E+04 -0.12883664782E+03  0.16801592862E+04  0.46999998093E+01 0.  1.
</event>
<event>
 5   0  0.4060750E-07  0.3446920E+04  0.7818609E-02  0.8126486E-01
        4   -1    0    0  501    0  0.00000000000E+00  0.00000000000E+00  0.18995496460E+04  0.18995500705E+04  0.12699999809E+01 0.  1.
       -4   -1    0    0    0  501  0.00000000000E+00  0.00000000000E+00 -0.15636928612E+04  0.15636933769E+04  0.12699999809E+01 0. -1.
    10030    2    1    2    0    0  0.00000000000E+00  0.00000000000E+00  0.33585678482E+03  0.34632434474E+04  0.34469196968E+04 0.  0.
        2    1    3    3  502    0 -0.76454991750E+02 -0.11422378482E+04 -0.11264899458E+04  0.16060922344E+04  0.25500000920E-02 0. -1.
       -2    1    3    3    0  502  0.76454991750E+02  0.11422378482E+04  0.14623467306E+04  0.18571512130E+04  0.25500000920E-02 0.  1.
</event>
<event>
 5   0  0.4464951E-07  0.3351945E+04  0.7818609E-02  0.8149802E-01
       -1   -1    0    0    0  501  0.00000000000E+00  0.00000000000E+00  0.82870663552E+03  0.82870663554E+03  0.50400001928E-02 0.  1.
        1   -1    0    0  501    0  0.00000000000E+00  0.00000000000E+00 -0.33894785479E+04  0.33894785479E+04  0.50400001928E-02 0. -1.
    10030    2    1    2    0    0  0.00000000000E+00  0.00000000000E+00 -0.25607719123E+04  0.42181851834E+04  0.33519447272E+04 0.  0.
        3    1    3    3  502    0  0.58928977337E+03 -0.13424523670E+04 -0.23023068513E+04  0.27294793721E+04  0.10100000352E+00 0. -1.
       -3    1    3    3    0  502 -0.58928977337E+03  0.13424523670E+04 -0.25846506104E+03  0.14887058113E+04  0.10100000352E+00 0.  1.
</event>
<event>
 5   0  0.4464951E-07  0.2953605E+04  0.7818609E-02  0.8257105E-01
       -1   -1    0    0    0  501  0.00000000000E+00  0.00000000000E+00  0.15320410439E+04  0.15320410439E+04  0.50400001928E-02 0. -1.
        1   -1    0    0  501    0  0.00000000000E+00  0.00000000000E+00 -0.14235559663E+04  0.14235559663E+04  0.50400001928E-02 0.  1.
    10030    2    1    2    0    0  0.00000000000E+00  0.00000000000E+00  0.10848507760E+03  0.29555970101E+04  0.29536053687E+04 0.  0.
        3    1    3    3  502    0 -0.99378541565E+03  0.38757240756E+03 -0.96778074104E+03  0.14402851788E+04  0.10100000352E+00 0.  1.
       -3    1    3    3    0  502  0.99378541565E+03 -0.38757240756E+03  0.10762658186E+04  0.15153118313E+04  0.10100000352E+00 0. -1.
</event>
<event>
 5   0  0.4109937E-07  0.3430365E+04  0.7818609E-02  0.8130494E-01
        1   -1    0    0  501    0  0.00000000000E+00  0.00000000000E+00  0.20474320823E+04  0.20474320823E+04  0.50400001928E-02 0.  1.
       -1   -1    0    0    0  501  0.00000000000E+00  0.00000000000E+00 -0.14368489868E+04  0.14368489869E+04  0.50400001928E-02 0. -1.
    10030    2    1    2    0    0  0.00000000000E+00  0.00000000000E+00  0.61058309543E+03  0.34842810691E+04  0.34303648279E+04 0.  0.
        5    1    3    3  502    0  0.10780071090E+03 -0.80106487153E+03  0.18418482285E+04  0.20114057046E+04  0.46999998093E+01 0.  1.
       -5    1    3    3    0  502 -0.10780071090E+03  0.80106487153E+03 -0.12312651330E+04  0.14728753646E+04  0.46999998093E+01 0. -1.
</event>
<event>
 5   0  0.1300176E-06  0.3424843E+04  0.7818609E-02  0.8131836E-01
        2   -1    0    0  501    0  0.00000000000E+00  0.00000000000E+00  0.19706666143E+04  0.19706666143E+04  0.25500000920E-02 0. -1.
       -2   -1    0    0    0  501  0.00000000000E+00  0.00000000000E+00 -0.14880182694E+04  0.14880182694E+04  0.25500000920E-02 0.  1.
    10030    2    1    2    0    0  0.00000000000E+00  0.00000000000E+00  0.48264834492E+03  0.34586848838E+04  0.34248433103E+04 0.  0.
        1    1    3    3  502    0  0.11073327358E+04  0.74274598354E+03  0.13264322637E+04  0.18807657840E+04  0.50400001928E-02 0. -1.
       -1    1    3    3    0  502 -0.11073327358E+04 -0.74274598354E+03 -0.84378391878E+03  0.15779190998E+04  0.50400001928E-02 0.  1.
</event>
<event>
 5   0  0.4109937E-07  0.3330588E+04  0.7818609E-02  0.8155156E-01
        1   -1    0    0  501    0  0.00000000000E+00  0.00000000000E+00  0.21353554101E+04  0.21353554101E+04  0.50400001928E-02 0. -1.
       -1   -1    0    0    0  501  0.00000000000E+00  0.00000000000E+00 -0.12987084506E+04  0.12987084506E+04  0.50400001928E-02 0.  1.
    10030    2    1    2    0    0  0.00000000000E+00  0.00000000000E+00  0.83664695944E+03  0.34340638607E+04  0.33305880058E+04 0.  0.
        5    1    3    3  502    0  0.13838618010E+04 -0.78412619655E+03  0.92685517758E+03  0.18409263936E+04  0.46999998093E+01 0.  1.
       -5    1    3    3    0  502 -0.13838618010E+04  0.78412619655E+03 -0.90208218140E+02  0.15931374671E+04  0.46999998093E+01 0. -1.
</event>
<event>
 5   0  0.1300176E-06  0.3437462E+04  0.7818609E-02  0.8128773E-01
        2   -1    0    0  501    0  0.00000000000E+00  0.00000000000E+00  0.27263339635E+04  0.27263339635E+04  0.25500000920E-02 0.  1.
       -2   -1    0    0    0  501  0.00000000000E+00  0.00000000000E+00 -0.10835194452E+04  0.10835194452E+04  0.25500000920E-02 0. -1.
    10030    2    1    2    0    0  0.00000000000E+00  0.00000000000E+00  0.16428145183E+04  0.38098534087E+04  0.34374617750E+04 0.  0.
        1    1    3    3  502    0  0.10715030744E+04  0.50431028187E+02  0.23097853157E+04  0.25467175602E+04  0.50400001928E-02 0.  1.
       -1    1    3    3    0  502 -0.10715030744E+04 -0.50431028187E+02 -0.66697079741E+03  0.12631358485E+04  0.50400001928E-02 0. -1.
</event>
<event>
 5   0  0.1256208E-06  0.3481822E+04  0.7818609E-02  0.8118111E-01
        2   -1    0    0  501    0  0.00000000000E+00  0.00000000000E+00  0.20244151266E+04  0.20244151266E+04  0.25500000920E-02 0. -1.
       -2   -1    0    0    0  501  0.00000000000E+00  0.00000000000E+00 -0.14971097253E+04  0.14971097253E+04  0.25500000920E-02 0.  1.
    10030    2    1    2    0    0  0.00000000000E+00  0.00000000000E+00  0.52730540128E+03  0.35215248520E+04  0.34818222667E+04 0.  0.
        3    1    3    3  502    0  0.15245128864E+02 -0.36068765489E+03 -0.14588359505E+04  0.15028407564E+04  0.10100000352E+00 0.  1.
       -3    1    3    3    0  502 -0.15245128864E+02  0.36068765489E+03  0.19861413518E+04  0.20186840956E+04  0.10100000352E+00 0. -1.
</event>
<event>
 5   0  0.1268230E-06  0.3018530E+04  0.7818609E-02  0.8238459E-01
        2   -1    0    0  501    0  0.00000000000E+00  0.00000000000E+00  0.18840468397E+04  0.18840468397E+04  0.25500000920E-02 0. -1.
       -2   -1    0    0    0  501  0.00000000000E+00  0.00000000000E+00 -0.12090361249E+04  0.12090361249E+04  0.25500000920E-02 0.  1.
    10030    2    1    2    0    0  0.00000000000E+00  0.00000000000E+00  0.67501071481E+03  0.30930829646E+04  0.30185299006E+04 0.  0.
        2    1    3    3  502    0  0.11042972075E+04  0.38510327441E+03  0.13150611629E+04  0.17598757674E+04  0.25500000920E-02 0. -1.
       -2    1    3    3    0  502 -0.11042972075E+04 -0.38510327441E+03 -0.64005044809E+03  0.13332071972E+04  0.25500000920E-02 0.  1.
</event>
<event>
 5   0  0.4125758E-07  0.3411113E+04  0.7818609E-02  0.8135184E-01
        1   -1    0    0  501    0  0.00000000000E+00  0.00000000000E+00  0.22333524640E+04  0.22333524640E+04  0.50400001928E-02 0.  1.
       -1   -1    0    0    0  501  0.00000000000E+00  0.00000000000E+00 -0.13024920222E+04  0.13024920222E+04  0.50400001928E-02 0. -1.
    10030    2    1    2    0    0  0.00000000000E+00  0.00000000000E+00  0.93086044175E+03  0.35358444862E+04  0.34111134646E+04 0.  0.
        2    1    3    3  502    0 -0.15903002423E+04 -0.54855047538E+03  0.75670580800E+03  0.18446046093E+04  0.25500000920E-02 0.  1.
       -2    1    3    3    0  502  0.15903002423E+04  0.54855047538E+03  0.17415463375E+03  0.16912398769E+04  0.25500000920E-02 0. -1.
</event>
<event>
 5   0  0.1269497E-06  0.3427239E+04  0.7818609E-02  0.8131253E-01
       -2   -1    0    0    0  501  0.00000000000E+00  0.00000000000E+00  0.14881448337E+04  0.14881448337E+04  0.25500000920E-02 0. -1.
        2   -1    0    0  501    0  0.00000000000E+00  0.00000000000E+00 -0.19732564939E+04  0.19732564939E+04  0.25500000920E-02 0.  1.
    10030    2    1    2    0    0  0.00000000000E+00  0.00000000000E+00 -0.48511166023E+03  0.34614013276E+04  0.34272388052E+04 0.  0.
        5    1    3    3  502    0  0.69154961654E+03  0.11221945693E+04 -0.13484166975E+04  0.18856858708E+04  0.46999998093E+01 0.  1.
       -5    1    3    3    0  502 -0.69154961654E+03 -0.11221945693E+04  0.86330503723E+03  0.15757154568E+04  0.46999998093E+01 0. -1.
</event>
<event>
 5   0  0.1269497E-06  0.3379207E+04  0.7818609E-02  0.8143029E-01
        2   -1    0    0  501    0  0.00000000000E+00  0.00000000000E+00  0.22632671225E+04  0.22632671225E+04  0.25500000920E-02 0. -1.
       -2   -1    0    0    0  501  0.00000000000E+00  0.00000000000E+00 -0.12613445364E+04  0.12613445364E+04  0.25500000920E-02 0.  1.
    10030    2    1    2    0    0  0.00000000000E+00  0.00000000000E+00  0.10019225861E+04  0.35246116589E+04  0.33792067823E+04 0.  0.
        5    1    3    3  502    0  0.48853921828E+03 -0.12666475441E+04 -0.54813692006E+03  0.14640842673E+04  0.46999998093E+01 0.  1.
       -5    1    3    3    0  502 -0.48853921828E+03  0.12666475441E+04  0.15500595062E+04  0.20605273915E+04  0.46999998093E+01 0. -1.
</event>
<event>
 5   0  0.1300176E-06  0.3338261E+04  0.7818609E-02  0.8153227E-01
       -2   -1    0    0    0  501  0.00000000000E+00  0.00000000000E+00  0.17899249918E+04  0.17899249918E+04  0.25500000920E-02 0. -1.
        2   -1    0    0  501    0  0.00000000000E+00  0.00000000000E+00 -0.15564882988E+04  0.15564882988E+04  0.25500000920E-02 0.  1.
    10030    2    1    2    0    0  0.00000000000E+00  0.00000000000E+00  0.23343669302E+03  0.33464132906E+04  0.33382614070E+04 0.  0.
        1    1    3    3  502    0  0.10628683504E+04 -0.12824603079E+04  0.22470202431E+03  0.16807392931E+04  0.50400001928E-02 0.  1.
       -1    1    3    3    0  502 -0.10628683504E+04  0.12824603079E+04  0.87346687110E+01  0.16656739975E+04  0.50400001928E-02 0. -1.
</event>
<event>
 5   0  0.1277635E-06  0.3404631E+04  0.7818609E-02  0.8136771E-01
       -2   -1    0    0    0  501  0.00000000000E+00  0.00000000000E+00  0.16749148635E+04  0.16749148635E+04  0.25500000920E-02 0.  1.
        2   -1    0    0  501    0  0.00000000000E+00  0.00000000000E+00 -0.17301643467E+04  0.17301643467E+04  0.25500000920E-02 0. -1.
    10030    2    1    2    0    0  0.00000000000E+00  0.00000000000E+00 -0.55249483271E+02  0.34050792102E+04  0.34046309525E+04 0.  0.
        4    1    3    3  502    0 -0.62761221779E+03 -0.11135617796E+04 -0.11520322681E+04  0.17207838018E+04  0.12699999809E+01 0. -1.
       -4    1    3    3    0  502  0.62761221779E+03  0.11135617796E+04  0.10967827849E+04  0.16842954084E+04  0.12699999809E+01 0.  1.
</event>
<event>
 5   0  0.4125758E-07  0.3418093E+04  0.7818609E-02  0.8133480E-01
        1   -1    0    0  501    0  0.00000000000E+00  0.00000000000E+00  0.95730105833E+03  0.95730105835E+03  0.50400001928E-02 0.  1.
       -1   -1    0    0    0  501  0.00000000000E+00  0.00000000000E+00 -0.30511199432E+04  0.30511199432E+04  0.50400001928E-02 0. -1.
    10030    2    1    2    0    0  0.00000000000E+00  0.00000000000E+00 -0.20938188848E+04  0.40084210015E+04  0.34180932408E+04 0.  0.
        2    1    3    3  502    0  0.12914503990E+04 -0.26205953842E+03 -0.23231253139E+04  0.26708482845E+04  0.25500000920E-02 0. -1.
       -2    1    3    3    0  502 -0.12914503990E+04  0.26205953842E+03  0.22930642911E+03  0.13375727170E+04  0.25500000920E-02 0.  1.
</event>
<event>
 5   0  0.4125758E-07  0.3351936E+04  0.7818609E-02  0.8149805E-01
       -1   -1    0    0    0  501  0.00000000000E+00  0.00000000000E+00  0.14704546350E+04  0.14704546350E+04  0.50400001928E-02 0.  1.
        1   -1    0    0  501    0  0.00000000000E+00  0.00000000000E+00 -0.19102044636E+04  0.19102044636E+04  0.50400001928E-02 0. -1.
    10030    2    1    2    0    0  0.00000000000E+00  0.00000000000E+00 -0.43974982861E+03  0.33806590986E+04  0.33519361612E+04 0.  0.
        2    1    3    3  502    0  0.37953131383E+03 -0.64424305665E+03 -0.17326531511E+04  0.18871089201E+04  0.25500000920E-02 0. -1.
       -2    1    3    3    0  502 -0.37953131383E+03  0.64424305665E+03  0.12929033225E+04  0.14935501785E+04  0.25500000920E-02 0.  1.
</event>
<event>
 5   0  0.1269497E-06  0.3218386E+04  0.7818609E-02  0.8183978E-01
        2   -1    0    0  501    0  0.00000000000E+00  0.00000000000E+00  0.16327204255E+04  0.16327204255E+04  0.25500000920E-02 0.  1.
       -2   -1    0    0    0  501  0.00000000000E+00  0.00000000000E+00 -0.15860045214E+04  0.15860045214E+04  0.25500000920E-02 0. -1.
    10030    2    1    2    0    0  0.00000000000E+00  0.00000000000E+00  0.46715904147E+02  0.32187249469E+04  0.32183859166E+04 0.  0.
        5    1    3    3  502    0 -0.12365183136E+04 -0.90148671860E+03 -0.47451377700E+03  0.16021364668E+04  0.46999998093E+01 0.  1.
       -5    1    3    3    0  502  0.12365183136E+04  0.90148671860E+03  0.52122968114E+03  0.16165884801E+04  0.46999998093E+01 0. -1.
</event>
<event>
 5   0  0.1256208E-06  0.3389610E+04  0.7818609E-02  0.8140461E-01
       -2   -1    0    0    0  501  0.00000000000E+00  0.00000000000E+00  0.25044504906E+04  0.25044504906E+04  0.25500000920E-02 0.  1.
        2   -1    0    0  501    0  0.00000000000E+00  0.00000000000E+00 -0.11469040277E+04  0.11469040277E+04  0.25500000920E-02 0. -1.
    10030    2    1    2    0    0  0.00000000000E+00  0.00000000000E+00  0.13575464629E+04  0.36513545183E+04  0.33896102165E+04 0.  0.
        3    1    3    3  502    0 -0.97477173778E+03 -0.13680389354E+04  0.92121675053E+03  0.19158159570E+04  0.10100000352E+00 0. -1.
       -3    1    3    3    0  502  0.97477173778E+03  0.13680389354E+04  0.43632971239E+03  0.17355385613E+04  0.10100000352E+00 0.  1.
</event>
<event>
 5   0  0.4125758E-07  0.3390500E+04  0.7818609E-02  0.8140242E-01
       -1   -1    0    0    0  501  0.00000000000E+00  0.00000000000E+00  0.15797868013E+04  0.15797868013E+04  0.50400001928E-02 0. -1.
        1   -1    0    0  501    0  0.00000000000E+00  0.00000000000E+00 -0.18191520271E+04  0.18191520271E+04  0.50400001928E-02 0.  1.
    10030    2    1    2    0    0  0.00000000000E+00  0.00000000000E+00 -0.23936522580E+03  0.33989388285E+04  0.33904998818E+04 0.  0.
        2    1    3    3  502    0 -0.14170778320E+04 -0.58120088773E+03  0.60874020585E+03  0.16481713176E+04  0.25500000920E-02 0. -1.
       -2    1    3    3    0  502  0.14170778320E+04  0.58120088773E+03 -0.84810543165E+03  0.17507675109E+04  0.25500000920E-02 0.  1.
</event>
<event>
 5   0  0.1277635E-06  0.3411488E+04  0.7818609E-02  0.8135092E-01
        2   -1    0    0  501    0  0.00000000000E+00  0.00000000000E+00  0.18000959463E+04  0.18000959463E+04  0.25500000920E-02 0. -1.
       -2   -1    0    0    0  501  0.00000000000E+00  0.00000000000E+00 -0.16163378796E+04  0.16163378796E+04  0.25500000920E-02 0.  1.
    10030    2    1    2    0    0  0.00000000000E+00  0.00000000000E+00  0.18375806665E+03  0.34164338259E+04  0.34114883936E+04 0.  0.
        4    1    3    3  502    0 -0.50905597173E+03 -0.16048852989E+04  0.36571068673E+03  0.17229453631E+04  0.12699999809E+01 0. -1.
       -4    1    3    3    0  502  0.50905597173E+03  0.16048852989E+04 -0.18195262008E+03  0.16934884628E+04  0.12699999809E+01 0.  1.
</event>
<event>
 5   0  0.4289684E-07  0.3415572E+04  0.7818609E-02  0.8134095E-01
        1   -1    0    0  501    0  0.00000000000E+00  0.00000000000E+00  0.15556166367E+04  0.15556166367E+04  0.50400001928E-02 0.  1.
       -1   -1    0    0    0  501  0.00000000000E+00  0.00000000000E+00 -0.18748409038E+04  0.18748409038E+04  0.50400001928E-02 0. -1.
    10030    2    1    2    0    0  0.00000000000E+00  0.00000000000E+00 -0.31922426709E+03  0.34304575404E+04  0.34155723977E+04 0.  0.
        4    1    3    3  502    0 -0.11422085152E+04  0.75098837531E+03 -0.11877472291E+04  0.18109027928E+04  0.12699999809E+01 0. -1.
       -4    1    3    3    0  502  0.11422085152E+04 -0.75098837531E+03  0.86852296202E+03  0.16195547476E+04  0.12699999809E+01 0.  1.
</event>
<event>
 5   0  0.4464951E-07  0.3394083E+04  0.7818609E-02  0.8139360E-01
        1   -1    0    0  501    0  0.00000000000E+00  0.00000000000E+00  0.11454662651E+04  0.11454662651E+04  0.50400001928E-02 0.  1.
       -1   -1    0    0    0  501  0.00000000000E+00  0.00000000000E+00 -0.25142155763E+04  0.25142155763E+04  0.50400001928E-02 0. -1.
    10030    2    1    2    0    0  0.00000000000E+00  0.00000000000E+00 -0.13687493111E+04  0.36596818414E+04  0.33940825717E+04 0.  0.
        3    1    3    3  502    0  0.12906896555E+04  0.32368577005E+03  0.45127616105E+03  0.14050987326E+04  0.10100000352E+00 0.  1.
       -3    1    3    3    0  502 -0.12906896555E+04 -0.32368577005E+03 -0.18200254722E+04  0.22545831088E+04  0.10100000352E+00 0. -1.
</event>
<event>
 5   0  0.1300176E-06  0.3377832E+04  0.7818609E-02  0.8143369E-01
       -2   -1    0    0    0  501  0.00000000000E+00  0.00000000000E+00  0.10717121281E+04  0.10717121281E+04  0.25500000920E-02 0.  1.
        2   -1    0    0  501    0  0.00000000000E+00  0.00000000000E+00 -0.26615708556E+04  0.26615708557E+04  0.25500000920E-02 0. -1.
    10030    2    1    2    0    0  0.00000000000E+00  0.00000000000E+00 -0.15898587275E+04  0.37332829838E+04  0.33778323025E+04 0.  0.
        1    1    3    3  502    0  0.60106568402E+03  0.15763995155E+03 -0.25306364402E+04  0.26058110260E+04  0.50400001928E-02 0. -1.
       -1    1    3    3    0  502 -0.60106568402E+03 -0.15763995155E+03  0.94077771269E+03  0.11274719578E+04  0.50400001928E-02 0.  1.
</event>
<event>
 5   0  0.4125758E-07  0.3354781E+04  0.7818609E-02  0.8149095E-01
        1   -1    0    0  501    0  0.00000000000E+00  0.00000000000E+00  0.16860424101E+04  0.16860424101E+04  0.50400001928E-02 0. -1.
       -1   -1    0    0    0  501  0.00000000000E+00  0.00000000000E+00 -0.16687832395E+04  0.16687832395E+04  0.50400001928E-02 0.  1.
    10030    2    1    2    0    0  0.00000000000E+00  0.00000000000E+00  0.17259170565E+02  0.33548256496E+04  0.33547812537E+04 0.  0.
        2    1    3    3  502    0 -0.12692980987E+04  0.16525523991E+03 -0.10754568791E+04  0.16718356547E+04  0.25500000920E-02 0.  1.
       -2    1    3    3    0  502  0.12692980987E+04 -0.16525523991E+03  0.10927160496E+04  0.16829899949E+04  0.25500000920E-02 0. -1.
</event>
<event>
 5   0  0.1300176E-06  0.3430478E+04  0.7818609E-02  0.8130466E-01
        2   -1    0    0  501    0  0.00000000000E+00  0.00000000000E+00  0.24951362040E+04  0.24951362040E+04  0.25500000920E-02 0.  1.
       -2   -1    0    0    0  501  0.00000000000E+00  0.00000000000E+00 -0.11791121756E+04  0.11791121756E+04  0.25500000920E-02 0. -1.
    10030    2    1    2    0    0  0.00000000000E+00  0.00000000000E+00  0.13160240283E+04  0.36742483796E+04  0.34304783794E+04 0.  0.
        1    1    3    3  502    0  0.10589727980E+04  0.13410628582E+04  0.81749750125E+03  0.18942479091E+04  0.50400001928E-02 0.  1.
       -1    1    3    3    0  502 -0.10589727980E+04 -0.13410628582E+04  0.49852652710E+03  0.17800004705E+04  0.50400001928E-02 0. -1.
</event>
<event>
 5   0  0.1256208E-06  0.3162643E+04  0.7818609E-02  0.8198753E-01
        2   -1    0    0  501    0  0.00000000000E+00  0.00000000000E+00  0.29073533578E+04  0.29073533578E+04  0.25500000920E-02 0.  1.
       -2   -1    0    0    0  501  0.00000000000E+00  0.00000000000E+00 -0.86008708136E+03  0.86008708137E+03  0.25500000920E-02 0. -1.
    10030    2    1    2    0    0  0.00000000000E+00  0.00000000000E+00  0.20472662764E+04  0.37674404392E+04  0.31626426064E+04 0.  0.
        3    1    3    3  502    0  0.53110371900E+03 -0.20992913524E+03  0.27802197073E+04  0.28382676112E+04  0.10100000352E+00 0.  1.
       -3    1    3    3    0  502 -0.53110371900E+03  0.20992913524E+03 -0.73295343084E+03  0.92917282792E+03  0.10100000352E+00 0. -1.
</event>
<event>
 5   0  0.4272633E-07  0.3396486E+04  0.7818609E-02  0.8138769E-01
       -1   -1    0    0    0  501  0.00000000000E+00  0.00000000000E+00  0.12480202638E+04  0.12480202638E+04  0.50400001928E-02 0.  1.
        1   -1    0    0  501    0  0.00000000000E+00  0.00000000000E+00 -0.23108827415E+04  0.23108827415E+04  0.50400001928E-02 0. -1.
    10030    2    1    2    0    0  0.00000000000E+00  0.00000000000E+00 -0.10628624777E+04  0.35589030053E+04  0.33964855299E+04 0.  0.
        1    1    3    3  502    0 -0.71385920812E+03  0.12353834624E+04  0.43362181567E+03  0.14912394668E+04  0.50400001928E-02 0.  1.
       -1    1    3    3    0  502  0.71385920812E+03 -0.12353834624E+04 -0.14964842933E+04  0.20676635385E+04  0.50400001928E-02 0. -1.
</event>
<event>
 5   0  0.4272633E-07  0.3387654E+04  0.7818609E-02  0.8140943E-01
        1   -1    0    0  501    0  0.00000000000E+00  0.00000000000E+00  0.14003471765E+04  0.14003471765E+04  0.50400001928E-02 0.  1.
       -1   -1    0    0    0  501  0.00000000000E+00  0.00000000000E+00 -0.20488130226E+04  0.20488130227E+04  0.50400001928E-02 0. -1.
    10030    2    1    2    0    0  0.00000000000E+00  0.00000000000E+00 -0.64846584617E+03  0.34491601991E+04  0.33876537789E+04 0.  0.
        1    1    3    3  502    0  0.22396849235E+03  0.74887164103E+03 -0.18542064092E+04  0.20122256405E+04  0.50400001928E-02 0. -1.
       -1    1    3    3    0  502 -0.22396849235E+03 -0.74887164103E+03  0.12057405631E+04  0.14369345586E+04  0.50400001928E-02 0.  1.
</event>
<event>
 5   0  0.1300176E-06  0.2769478E+04  0.7818609E-02  0.8312807E-01
       -2   -1    0    0    0  501  0.00000000000E+00  0.00000000000E+00  0.11770768940E+04  0.11770768940E+04  0.25500000920E-02 0. -1.
        2   -1    0    0  501    0  0.00000000000E+00  0.00000000000E+00 -0.16290370685E+04  0.16290370685E+04  0.25500000920E-02 0.  1.
    10030    2    1    2    0    0  0.00000000000E+00  0.00000000000E+00 -0.45196017445E+03  0.28061139625E+04  0.27694778517E+04 0.  0.
        1    1    3    3  502    0 -0.10922850353E+04  0.84432250544E+03 -0.33480102511E+03  0.14205839708E+04  0.50400001928E-02 0.  1.
       -1    1    3    3    0  502  0.10922850353E+04 -0.84432250544E+03 -0.11715914934E+03  0.13855299917E+04  0.50400001928E-02 0. -1.
</event>
<event>
 5   0  0.4125758E-07  0.3396183E+04  0.7818609E-02  0.8138844E-01
       -1   -1    0    0    0  501  0.00000000000E+00  0.00000000000E+00  0.10888056167E+04  0.10888056167E+04  0.50400001928E-02 0.  1.
        1   -1    0    0  501    0  0.00000000000E+00  0.00000000000E+00 -0.26483276017E+04  0.26483276017E+04  0.50400001928E-02 0. -1.
    10030    2    1    2    0    0  0.00000000000E+00  0.00000000000E+00 -0.15595219850E+04  0.37371332184E+04  0.33961825437E+04 0.  0.
        2    1    3    3  502    0  0.17149790606E+03 -0.55296784919E+03 -0.25363707946E+04  0.26016075380E+04  0.25500000920E-02 0. -1.
       -2    1    3    3    0  502 -0.17149790606E+03  0.55296784919E+03  0.97684880960E+03  0.11355256804E+04  0.25500000920E-02 0.  1.
</event>
<event>
 5   0  0.4272633E-07  0.3298874E+04  0.7818609E-02  0.8163182E-01
        1   -1    0    0  501    0  0.00000000000E+00  0.00000000000E+00  0.29101709100E+04  0.29101709100E+04  0.50400001928E-02 0.  1.
       -1   -1    0    0    0  501  0.00000000000E+00  0.00000000000E+00 -0.93487403816E+03  0.93487403817E+03  0.50400001928E-02 0. -1.
    10030    2    1    2    0    0  0.00000000000E+00  0.00000000000E+00  0.19752968719E+04  0.38450449482E+04  0.32988744932E+04 0.  0.
        1    1    3    3  502    0 -0.78624078816E+03 -0.39942535687E+03  0.26123140389E+04  0.27571542994E+04  0.50400001928E-02 0.  1.
       -1    1    3    3    0  502  0.78624078816E+03  0.39942535687E+03 -0.63701716704E+03  0.10878906488E+04  0.50400001928E-02 0. -1.
</event>
<event>
 5   0  0.1256208E-06  0.3403383E+04  0.7818609E-02  0.8137077E-01
       -2   -1    0    0    0  501  0.00000000000E+00  0.00000000000E+00  0.20845885960E+04  0.20845885960E+04  0.25500000920E-02 0.  1.
        2   -1    0    0  501    0  0.00000000000E+00  0.00000000000E+00 -0.13891249408E+04  0.13891249408E+04  0.25500000920E-02 0. -1.
    10030    2    1    2    0    0  0.00000000000E+00  0.00000000000E+00  0.69546365529E+03  0.34737135368E+04  0.34033830287E+04 0.  0.
        3    1    3    3  502    0  0.98647857629E+03  0.69731406086E+03  0.15709837293E+04  0.19817610272E+04  0.10100000352E+00 0.  1.
       -3    1    3    3    0  502 -0.98647857629E+03 -0.69731406086E+03 -0.87552007396E+03  0.14919525097E+04  0.10100000352E+00 0. -1.
</event>
<event>
 5   0  0.4289684E-07  0.3415461E+04  0.7818609E-02  0.8134122E-01
       -1   -1    0    0    0  501  0.00000000000E+00  0.00000000000E+00  0.12266567586E+04  0.12266567587E+04  0.50400001928E-02 0.  1.
        1   -1    0    0  501    0  0.00000000000E+00  0.00000000000E+00 -0.23774731548E+04  0.23774731548E+04  0.50400001928E-02 0. -1.
    10030    2    1    2    0    0  0.00000000000E+00  0.00000000000E+00 -0.11508163962E+04  0.36041299135E+04  0.34154610312E+04 0.  0.
        4    1    3    3  502    0 -0.38318330281E+03 -0.16636455943E+04 -0.62012588725E+03  0.18163435347E+04  0.12699999809E+01 0.  1.
       -4    1    3    3    0  502  0.38318330281E+03  0.16636455943E+04 -0.53069050893E+03  0.17877863788E+04  0.12699999809E+01 0. -1.
</event>
<event>
 5   0  0.4272633E-07  0.3384669E+04  0.7818609E-02  0.8141679E-01
        1   -1    0    0  501    0  0.00000000000E+00  0.00000000000E+00  0.16573860558E+04  0.16573860558E+04  0.50400001928E-02 0. -1.
       -1   -1    0    0    0  501  0.00000000000E+00  0.00000000000E+00 -0.17280197792E+04  0.17280197792E+04  0.50400001928E-02 0.  1.
    10030    2    1    2    0    0  0.00000000000E+00  0.00000000000E+00 -0.70633723357E+02  0.33854058350E+04  0.33846688974E+04 0.  0.
        1    1    3    3  502    0 -0.77811197130E+03 -0.84718368962E+03  0.12062500813E+04  0.16667986389E+04  0.50400001928E-02 0. -1.
       -1    1    3    3    0  502  0.77811197130E+03  0.84718368962E+03 -0.12768838047E+04  0.17186071961E+04  0.50400001928E-02 0.  1.
</event>
<event>
 5   0  0.4272633E-07  0.3407865E+04  0.7818609E-02  0.8135979E-01
       -1   -1    0    0    0  501  0.00000000000E+00  0.00000000000E+00  0.19159632208E+04  0.19159632208E+04  0.50400001928E-02 0.  1.
        1   -1    0    0  501    0  0.00000000000E+00  0.00000000000E+00 -0.15153663625E+04  0.15153663625E+04  0.50400001928E-02 0. -1.
    10030    2    1    2    0    0  0.00000000000E+00  0.00000000000E+00  0.40059685829E+03  0.34313295833E+04  0.34078651479E+04 0.  0.
        1    1    3    3  502    0 -0.99918508341E+03  0.71372401026E+03 -0.98919652038E+03  0.15767950246E+04  0.50400001928E-02 0. -1.
       -1    1    3    3    0  502  0.99918508341E+03 -0.71372401026E+03  0.13897933787E+04  0.18545345586E+04  0.50400001928E-02 0.  1.
</event>
<event>
 5   0  0.1268230E-06  0.3314136E+04  0.7818609E-02  0.8159308E-01
       -2   -1    0    0    0  501  0.00000000000E+00  0.00000000000E+00  0.16571515990E+04  0.16571515990E+04  0.25500000920E-02 0. -1.
        2   -1    0    0  501    0  0.00000000000E+00  0.00000000000E+00 -0.16569841371E+04  0.16569841371E+04  0.25500000920E-02 0.  1.
    10030    2    1    2    0    0  0.00000000000E+00  0.00000000000E+00  0.16746184693E+00  0.33141357361E+04  0.33141357319E+04 0.  0.
        2    1    3    3  502    0 -0.20865099559E+02  0.57383853595E+03  0.15544800448E+04  0.16571464110E+04  0.25500000920E-02 0. -1.
       -2    1    3    3    0  502  0.20865099559E+02 -0.57383853595E+03 -0.15543125830E+04  0.16569893251E+04  0.25500000920E-02 0.  1.
</event>
<event>
 5   0  0.1277635E-06  0.3627948E+04  0.7818609E-02  0.8084120E-01
       -2   -1    0    0    0  501  0.00000000000E+00  0.00000000000E+00  0.13998651287E+04  0.13998651287E+04  0.25500000920E-02 0.  1.
        2   -1    0    0  501    0  0.00000000000E+00  0.00000000000E+00 -0.23505847690E+04  0.23505847690E+04  0.25500000920E-02 0. -1.
    10030    2    1    2    0    0  0.00000000000E+00  0.00000000000E+00 -0.95071964035E+03  0.37504498977E+04  0.36279479875E+04 0.  0.
        4    1    3    3  502    0 -0.14961022270E+04  0.99872379070E+03 -0.71720135330E+03  0.19365305259E+04  0.12699999809E+01 0. -1.
       -4    1    3    3    0  502  0.14961022270E+04 -0.99872379070E+03 -0.23351828705E+03  0.18139193717E+04  0.12699999809E+01 0.  1.
</event>
<event>
 5   0  0.1256208E-06  0.3402443E+04  0.7818609E-02  0.8137307E-01
        2   -1    0    0  501    0  0.00000000000E+00  0.00000000000E+00  0.17786637108E+04  0.17786637108E+04  0.25500000920E-02 0. -1.
       -2   -1    0    0    0  501  0.00000000000E+00  0.00000000000E+00 -0.16271510149E+04  0.16271510149E+04  0.25500000920E-02 0.  1.
    10030    2    1    2    0    0  0.00000000000E+00  0.00000000000E+00  0.15151269592E+03  0.34058147258E+04  0.34024429237E+04 0.  0.
        3    1    3    3  502    0  0.15881846284E+04  0.53727904491E+03 -0.21289597003E+03  0.16900662384E+04  0.10100000352E+00 0.  1.
       -3    1    3    3    0  502 -0.15881846284E+04 -0.53727904491E+03  0.36440866595E+03  0.17157484874E+04  0.10100000352E+00 0. -1.
</event>
<event>
 5   0  0.4464951E-07  0.3392613E+04  0.7818609E-02  0.8139722E-01
       -1   -1    0    0    0  501  0.00000000000E+00  0.00000000000E+00  0.99626115658E+03  0.99626115659E+03  0.50400001928E-02 0. -1.
        1   -1    0    0  501    0  0.00000000000E+00  0.00000000000E+00 -0.28882539622E+04  0.28882539622E+04  0.50400001928E-02 0.  1.
    10030    2    1    2    0    0  0.00000000000E+00  0.00000000000E+00 -0.18919928056E+04  0.38845151188E+04  0.33926126999E+04 0.  0.
        3    1    3    3  502    0 -0.11967359864E+04  0.37577975478E+01  0.43050334821E+03  0.12718192817E+04  0.10100000352E+00 0. -1.
       -3    1    3    3    0  502  0.11967359864E+04 -0.37577975478E+01 -0.23224961538E+04  0.26126958371E+04  0.10100000352E+00 0.  1.
</event>
<event>
 5   0  0.1269497E-06  0.3235413E+04  0.7818609E-02  0.8179527E-01
        2   -1    0    0  501    0  0.00000000000E+00  0.00000000000E+00  0.16572946549E+04  0.16572946550E+04  0.25500000920E-02 0.  1.
       -2   -1    0    0    0  501  0.00000000000E+00  0.00000000000E+00 -0.15790641285E+04  0.15790641285E+04  0.25500000920E-02 0. -1.
    10030    2    1    2    0    0  0.00000000000E+00  0.00000000000E+00  0.78230526419E+02  0.32363587835E+04  0.32354131359E+04 0.  0.
        5    1    3    3  502    0 -0.27494320370E+03 -0.73126105934E+03  0.14560800150E+04  0.16524308162E+04  0.46999998093E+01 0.  1.
       -5    1    3    3    0  502  0.27494320370E+03  0.73126105934E+03 -0.13778494886E+04  0.15839279673E+04  0.46999998093E+01 0. -1.
</event>
<event>
 5   0  0.1268230E-06  0.3380759E+04  0.7818609E-02  0.8142645E-01
        2   -1    0    0  501    0  0.00000000000E+00  0.00000000000E+00  0.15280251992E+04  0.15280251992E+04  0.25500000920E-02 0.  1.
       -2   -1    0    0    0  501  0.00000000000E+00  0.00000000000E+00 -0.18699838060E+04  0.18699838060E+04  0.25500000920E-02 0. -1.
    10030    2    1    2    0    0  0.00000000000E+00  0.00000000000E+00 -0.34195860680E+03  0.33980090052E+04  0.33807587182E+04 0.  0.
        2    1    3    3  502    0  0.85677222343E+03 -0.56922119565E+03 -0.15192076753E+04  0.18346834531E+04  0.25500000920E-02 0. -1.
       -2    1    3    3    0  502 -0.85677222343E+03  0.56922119565E+03  0.11772490685E+04  0.15633255521E+04  0.25500000920E-02 0.  1.
</event>
<event>
 5   0  0.4464951E-07  0.3407757E+04  0.7818609E-02  0.8136005E-01
       -1   -1    0    0    0  501  0.00000000000E+00  0.00000000000E+00  0.13059570544E+04  0.13059570544E+04  0.50400001928E-02 0. -1.
        1   -1    0    0  501    0  0.00000000000E+00  0.00000000000E+00 -0.22230457755E+04  0.22230457755E+04  0.50400001928E-02 0.  1.
    10030    2    1    2    0    0  0.00000000000E+00  0.00000000000E+00 -0.91708872112E+03  0.35290028300E+04  0.34077572172E+04 0.  0.
        3    1    3    3  502    0 -0.29612551527E+03  0.73675168314E+03 -0.20197325979E+04  0.21702103909E+04  0.10100000352E+00 0.  1.
       -3    1    3    3    0  502  0.29612551527E+03 -0.73675168314E+03  0.11026438768E+04  0.13587924391E+04  0.10100000352E+00 0. -1.
</event>
<event>
 5   0  0.1269497E-06  0.3520289E+04  0.7818609E-02  0.8108998E-01
       -2   -1    0    0    0  501  0.00000000000E+00  0.00000000000E+00  0.12183079564E+04  0.12183079564E+04  0.25500000920E-02 0. -1.
        2   -1    0    0  501    0  0.00000000000E+00  0.00000000000E+00 -0.25429606131E+04  0.25429606131E+04  0.25500000920E-02 0.  1.
    10030    2    1    2    0    0  0.00000000000E+00  0.00000000000E+00 -0.13246526566E+04  0.37612685695E+04  0.35202892766E+04 0.  0.
        5    1    3    3  502    0  0.17462520305E+03  0.15845520031E+03 -0.25260014950E+04  0.25369879099E+04  0.46999998093E+01 0.  1.
       -5    1    3    3    0  502 -0.17462520305E+03 -0.15845520031E+03  0.12013488384E+04  0.12242806596E+04  0.46999998093E+01 0. -1.
</event>
<event>
 5   0  0.4060750E-07  0.3395613E+04  0.7818609E-02  0.8138984E-01
        3   -1    0    0  501    0  0.00000000000E+00  0.00000000000E+00  0.21476318943E+04  0.21476318967E+04  0.10100000352E+00 0.  1.
       -3   -1    0    0    0  501  0.00000000000E+00  0.00000000000E+00 -0.13421982333E+04  0.13421982371E+04  0.10100000352E+00 0. -1.
    10030    2    1    2    0    0  0.00000000000E+00  0.00000000000E+00  0.80543366102E+03  0.34898301338E+04  0.33956134910E+04 0.  0.
        5    1    3    3  502    0  0.17884681116E+03 -0.23471459013E+03 -0.13156338075E+04  0.13483291609E+04  0.46999998093E+01 0. -1.
       -5    1    3    3    0  502 -0.17884681116E+03  0.23471459013E+03  0.21210674685E+04  0.21415009729E+04  0.46999998093E+01 0.  1.
</event>
<event>
 5   0  0.1269497E-06  0.3418800E+04  0.7818609E-02  0.8133308E-01
        2   -1    0    0  501    0  0.00000000000E+00  0.00000000000E+00  0.17849836115E+04  0.17849836115E+04  0.25500000920E-02 0. -1.
       -2   -1    0    0    0  501  0.00000000000E+00  0.00000000000E+00 -0.16370170867E+04  0.16370170867E+04  0.25500000920E-02 0.  1.
    10030    2    1    2    0    0  0.00000000000E+00  0.00000000000E+00  0.14796652477E+03  0.34220006981E+04  0.34188001822E+04 0.  0.
        5    1    3    3  502    0  0.83214520266E+03  0.70237027691E+03 -0.12449137091E+04  0.16539715467E+04  0.46999998093E+01 0.  1.
       -5    1    3    3    0  502 -0.83214520266E+03 -0.70237027691E+03  0.13928802339E+04  0.17680291514E+04  0.46999998093E+01 0. -1.
</event>
<event>
 5   0  0.1300176E-06  0.3418523E+04  0.7818609E-02  0.8133375E-01
       -2   -1    0    0    0  501  0.00000000000E+00  0.00000000000E+00  0.14770024310E+04  0.14770024310E+04  0.25500000920E-02 0.  1.
        2   -1    0    0  501    0  0.00000000000E+00  0.00000000000E+00 -0.19780432424E+04  0.19780432424E+04  0.25500000920E-02 0. -1.
    10030    2    1    2    0    0  0.00000000000E+00  0.00000000000E+00 -0.50104081140E+03  0.34550456734E+04  0.34185228843E+04 0.  0.
        1    1    3    3  502    0 -0.88015313606E+02  0.75270923022E+03  0.12979239523E+04  0.15029718782E+04  0.50400001928E-02 0.  1.
       -1    1    3    3    0  502  0.88015313606E+02 -0.75270923022E+03 -0.17989647637E+04  0.19520737952E+04  0.50400001928E-02 0. -1.
</event>
<event>
 5   0  0.1277635E-06  0.3414441E+04  0.7818609E-02  0.8134371E-01
        2   -1    0    0  501    0  0.00000000000E+00  0.00000000000E+00  0.19167271161E+04  0.19167271161E+04  0.25500000920E-02 0. -1.
       -2   -1    0    0    0  501  0.00000000000E+00  0.00000000000E+00 -0.15206138937E+04  0.15206138937E+04  0.25500000920E-02 0.  1.
    10030    2    1    2    0    0  0.00000000000E+00  0.00000000000E+00  0.39611322245E+03  0.34373410098E+04  0.34144410279E+04 0.  0.
        4    1    3    3  502    0 -0.62918402047E+03  0.80832129776E+03 -0.11768795027E+04  0.15602252494E+04  0.12699999809E+01 0.  1.
       -4    1    3    3    0  502  0.62918402047E+03 -0.80832129776E+03  0.15729927251E+04  0.18771157605E+04  0.12699999809E+01 0. -1.
</event>
<event>
 5   0  0.4464951E-07  0.3446843E+04  0.7818609E-02  0.8126504E-01
       -1   -1    0    0    0  501  0.00000000000E+00  0.00000000000E+00  0.15927305451E+04  0.15927305451E+04  0.50400001928E-02 0.  1.
        1   -1    0    0  501    0  0.00000000000E+00  0.00000000000E+00 -0.18648363810E+04  0.18648363810E+04  0.50400001928E-02 0. -1.
    10030    2    1    2    0    0  0.00000000000E+00  0.00000000000E+00 -0.27210583587E+03  0.34575669261E+04  0.34468431155E+04 0.  0.
        3    1    3    3  502    0 -0.76044654105E+03 -0.11172440466E+04  0.93669872289E+03  0.16443593613E+04  0.10100000352E+00 0.  1.
       -3    1    3    3    0  502  0.76044654105E+03  0.11172440466E+04 -0.12088045588E+04  0.18132075648E+04  0.10100000352E+00 0. -1.
</event>
<event>
 5   0  0.4289684E-07  0.3172586E+04  0.7818609E-02  0.8196095E-01
       -1   -1    0    0    0  501  0.00000000000E+00  0.00000000000E+00  0.12905367303E+04  0.12905367303E+04  0.50400001928E-02 0.  1.
        1   -1    0    0  501    0  0.00000000000E+00  0.00000000000E+00 -0.19498283276E+04  0.19498283276E+04  0.50400001928E-02 0. -1.
    10030    2    1    2    0    0  0.00000000000E+00  0.00000000000E+00 -0.65929159733E+03  0.32403650579E+04  0.31725857433E+04 0.  0.
        4    1    3    3  502    0 -0.11246941060E+04  0.10883232512E+04 -0.59389921202E+03  0.16739480930E+04  0.12699999809E+01 0. -1.
       -4    1    3    3    0  502  0.11246941060E+04 -0.10883232512E+04 -0.65392385316E+02  0.15664169649E+04  0.12699999809E+01 0.  1.
</event>
<event>
 5   0  0.1300176E-06  0.3369837E+04  0.7818609E-02  0.8145349E-01
       -2   -1    0    0    0  501  0.00000000000E+00  0.00000000000E+00  0.12969638727E+04  0.12969638727E+04  0.25500000920E-02 0. -1.
        2   -1    0    0  501    0  0.00000000000E+00  0.00000000000E+00 -0.21889206495E+04  0.21889206495E+04  0.25500000920E-02 0.  1.
    10030    2    1    2    0    0  0.00000000000E+00  0.00000000000E+00 -0.89195677682E+03  0.34858845221E+04  0.33698373863E+04 0.  0.
        1    1    3    3  502    0 -0.10138250499E+04 -0.93135533221E+03 -0.14508672713E+04  0.20000699552E+04  0.50400001928E-02 0.  1.
       -1    1    3    3    0  502  0.10138250499E+04  0.93135533221E+03  0.55891049448E+03  0.14858145670E+04  0.50400001928E-02 0. -1.
</event>
<event>
 5   0  0.4272633E-07  0.3502876E+04  0.7818609E-02  0.8113109E-01
        1   -1    0    0  501    0  0.00000000000E+00  0.00000000000E+00  0.21058976347E+04  0.21058976347E+04  0.50400001928E-02 0.  1.
       -1   -1    0    0    0  501  0.00000000000E+00  0.00000000000E+00 -0.14566399431E+04  0.14566399431E+04  0.50400001928E-02 0. -1.
    10030    2    1    2    0    0  0.00000000000E+00  0.00000000000E+00  0.64925769156E+03  0.35625375778E+04  0.35028757391E+04 0.  0.
        1    1    3    3  502    0  0.42242719570E+03  0.50348864976E+03 -0.13264718873E+04  0.14803625312E+04  0.50400001928E-02 0. -1.
       -1    1    3    3    0  502 -0.42242719570E+03 -0.50348864976E+03  0.19757295788E+04  0.20821750466E+04  0.50400001928E-02 0.  1.
</event>
<event>
 5   0  0.1277635E-06  0.2844888E+04  0.7818609E-02  0.8289466E-01
       -2   -1    0    0    0  501  0.00000000000E+00  0.00000000000E+00  0.11141050910E+04  0.11141050910E+04  0.25500000920E-02 0.  1.
        2   -1    0    0  501    0  0.00000000000E+00  0.00000000000E+00 -0.18161190395E+04  0.18161190395E+04  0.25500000920E-02 0. -1.
    10030    2    1    2    0    0  0.00000000000E+00  0.00000000000E+00 -0.70201394857E+03  0.29302241305E+04  0.28448883758E+04 0.  0.
        4    1    3    3  502    0  0.32919971699E+03 -0.12883436014E+04 -0.87127655099E+03  0.15897566261E+04  0.12699999809E+01 0. -1.
       -4    1    3    3    0  502 -0.32919971699E+03  0.12883436014E+04  0.16926260243E+03  0.13404675044E+04  0.12699999809E+01 0.  1.
</event>
<event>
 5   0  0.1269497E-06  0.3394344E+04  0.7818609E-02  0.8139296E-01
        2   -1    0    0  501    0  0.00000000000E+00  0.00000000000E+00  0.13471973858E+04  0.13471973858E+04  0.25500000920E-02 0.  1.
       -2   -1    0    0    0  501  0.00000000000E+00  0.00000000000E+00 -0.21380631923E+04  0.21380631923E+04  0.25500000920E-02 0. -1.
    10030    2    1    2    0    0  0.00000000000E+00  0.00000000000E+00 -0.79086580647E+03  0.34852605781E+04  0.33943442037E+04 0.  0.
        5    1    3    3  502    0  0.80821351175E+03  0.38414594213E+03 -0.18761382281E+04  0.20786278951E+04  0.46999998093E+01 0. -1.
       -5    1    3    3    0  502 -0.80821351175E+03 -0.38414594213E+03  0.10852724217E+04  0.14066326829E+04  0.46999998093E+01 0.  1.
</event>
<event>
 5   0  0.1269497E-06  0.3474080E+04  0.7818609E-02  0.8119960E-01
        2   -1    0    0  501    0  0.00000000000E+00  0.00000000000E+00  0.16741555754E+04  0.16741555754E+04  0.25500000920E-02 0. -1.
       -2   -1    0    0    0  501  0.00000000000E+00  0.00000000000E+00 -0.18022866803E+04  0.18022866803E+04  0.25500000920E-02 0.  1.
    10030    2    1    2    0    0  0.00000000000E+00  0.00000000000E+00 -0.12813110487E+03  0.34764422558E+04  0.34740801916E+04 0.  0.
        5    1    3    3  502    0  0.17972802068E+03  0.34067956183E+03 -0.17590062670E+04  0.18006914957E+04  0.46999998093E+01 0.  1.
       -5    1    3    3    0  502 -0.17972802068E+03 -0.34067956183E+03  0.16308751622E+04  0.16757507601E+04  0.46999998093E+01 0. -1.
</event>
<event>
 5   0  0.4289684E-07  0.3424945E+04  0.7818609E-02  0.8131811E-01
        1   -1    0    0  501    0  0.00000000000E+00  0.00000000000E+00  0.22821160344E+04  0.22821160344E+04  0.50400001928E-02 0. -1.
       -1   -1    0    0    0  501  0.00000000000E+00  0.00000000000E+00 -0.12850191410E+04  0.12850191410E+04  0.50400001928E-02 0.  1.
    10030    2    1    2    0    0  0.00000000000E+00  0.00000000000E+00  0.99709689339E+03  0.35671351754E+04  0.34249454222E+04 0.  0.
        4    1    3    3  502    0  0.12783982261E+04 -0.17108209811E+03 -0.67471360181E+03  0.14556136734E+04  0.12699999809E+01 0.  1.
       -4    1    3    3    0  502 -0.12783982261E+04  0.17108209811E+03  0.16718104952E+04  0.21115215020E+04  0.12699999809E+01 0. -1.
</event>
<event>
 5   0  0.4289684E-07  0.3411538E+04  0.7818609E-02  0.8135080E-01
        1   -1    0    0  501    0  0.00000000000E+00  0.00000000000E+00  0.22077644976E+04  0.22077644976E+04  0.50400001928E-02 0.  1.
       -1   -1    0    0    0  501  0.00000000000E+00  0.00000000000E+00 -0.13179162588E+04  0.13179162588E+04  0.50400001928E-02 0. -1.
    10030    2    1    2    0    0  0.00000000000E+00  0.00000000000E+00  0.88984823880E+03  0.35256807564E+04  0.34115384957E+04 0.  0.
        4    1    3    3  502    0 -0.31842497188E+03  0.90390867846E+02 -0.12844067540E+04  0.13263737386E+04  0.12699999809E+01 0. -1.
       -4    1    3    3    0  502  0.31842497188E+03 -0.90390867846E+02  0.21742549928E+04  0.21993070178E+04  0.12699999809E+01 0.  1.
</event>
<event>
 5   0  0.4272633E-07  0.3407370E+04  0.7818609E-02  0.8136100E-01
        1   -1    0    0  501    0  0.00000000000E+00  0.00000000000E+00  0.18188345596E+04  0.18188345596E+04  0.50400001928E-02 0.  1.
       -1   -1    0    0    0  501  0.00000000000E+00  0.00000000000E+00 -0.15958250793E+04  0.15958250793E+04  0.50400001928E-02 0. -1.
    10030    2    1    2    0    0  0.00000000000E+00  0.00000000000E+00  0.22300948033E+03  0.34146596389E+04  0.34073695457E+04 0.  0.
        1    1    3    3  502    0  0.58862596225E+03  0.15666556045E+04  0.43101519773E+03  0.17281968658E+04  0.50400001928E-02 0.  1.
       -1    1    3    3    0  502 -0.58862596225E+03 -0.15666556045E+04 -0.20800571740E+03  0.16864627731E+04  0.50400001928E-02 0. -1.
</event>
<event>
 5   0  0.1269497E-06  0.3385431E+04  0.7818609E-02  0.8141491E-01
        2   -1    0    0  501    0  0.00000000000E+00  0.00000000000E+00  0.15114387682E+04  0.15114387682E+04  0.25500000920E-02 0.  1.
       -2   -1    0    0    0  501  0.00000000000E+00  0.00000000000E+00 -0.18957341558E+04  0.18957341558E+04  0.25500000920E-02 0. -1.
    10030    2    1    2    0    0  0.00000000000E+00  0.00000000000E+00 -0.38429538761E+03  0.34071729240E+04  0.33854311969E+04 0.  0.
        5    1    3    3  502    0  0.59034941246E+03 -0.15449262132E+04 -0.55495495401E+03  0.17445075305E+04  0.46999998093E+01 0. -1.
       -5    1    3    3    0  502 -0.59034941246E+03  0.15449262132E+04  0.17065956639E+03  0.16626653935E+04  0.46999998093E+01 0.  1.
</event>
<event>
 5   0  0.1277635E-06  0.3393738E+04  0.7818609E-02  0.8139445E-01
       -2   -1    0    0    0  501  0.00000000000E+00  0.00000000000E+00  0.23865749069E+04  0.23865749069E+04  0.25500000920E-02 0.  1.
        2   -1    0    0  501    0  0.00000000000E+00  0.00000000000E+00 -0.12064837664E+04  0.12064837664E+04  0.25500000920E-02 0. -1.
    10030    2    1    2    0    0  0.00000000000E+00  0.00000000000E+00  0.11800911405E+04  0.35930586733E+04  0.33937376932E+04 0.  0.
        4    1    3    3  502    0  0.75786200498E+03 -0.15121486186E+04  0.73371361496E+03  0.18437151475E+04  0.12699999809E+01 0.  1.
       -4    1    3    3    0  502 -0.75786200498E+03  0.15121486186E+04  0.44637752553E+03  0.17493435259E+04  0.12699999809E+01 0. -1.
</event>
<event>
 5   0  0.1300176E-06  0.3398617E+04  0.7818609E-02  0.8138246E-01
       -2   -1    0    0    0  501  0.00000000000E+00  0.00000000000E+00  0.12437881894E+04  0.12437881894E+04  0.25500000920E-02 0. -1.
        2   -1    0    0  501    0  0.00000000000E+00  0.00000000000E+00 -0.23216569141E+04  0.23216569141E+04  0.25500000920E-02 0.  1.
    10030    2    1    2    0    0  0.00000000000E+00  0.00000000000E+00 -0.10778687247E+04  0.35654451034E+04  0.33986170420E+04 0.  0.
        1    1    3    3  502    0  0.68158550059E+02  0.15428506152E+04 -0.12826888671E+04  0.20075667707E+04  0.50400001928E-02 0.  1.
       -1    1    3    3    0  502 -0.68158550059E+02 -0.15428506152E+04  0.20482014241E+03  0.15578783328E+04  0.50400001928E-02 0. -1.
</event>
<event>
 5   0  0.1300176E-06  0.3475394E+04  0.7818609E-02  0.8119646E-01
        2   -1    0    0  501    0  0.00000000000E+00  0.00000000000E+00  0.12433747070E+04  0.12433747070E+04  0.25500000920E-02 0.  1.
       -2   -1    0    0    0  501  0.00000000000E+00  0.00000000000E+00 -0.24285442144E+04  0.24285442144E+04  0.25500000920E-02 0. -1.
    10030    2    1    2    0    0  0.00000000000E+00  0.00000000000E+00 -0.11851695074E+04  0.36719189213E+04  0.34753937624E+04 0.  0.
        1    1    3    3  502    0  0.13796459235E+04 -0.65321589067E+02 -0.17066793329E+04  0.21955509854E+04  0.50400001928E-02 0. -1.
       -1    1    3    3    0  502 -0.13796459235E+04  0.65321589067E+02  0.52150982546E+03  0.14763679359E+04  0.50400001928E-02 0.  1.
</event>
<event>
 5   0  0.4125758E-07  0.3367455E+04  0.7818609E-02  0.8145940E-01
        1   -1    0    0  501    0  0.00000000000E+00  0.00000000000E+00  0.15701542211E+04  0.15701542211E+04  0.50400001928E-02 0. -1.
       -1   -1    0    0    0  501  0.00000000000E+00  0.00000000000E+00 -0.18055160774E+04  0.18055160774E+04  0.50400001928E-02 0.  1.
    10030    2    1    2    0    0  0.00000000000E+00  0.00000000000E+00 -0.23536185630E+03  0.33756702984E+04  0.33674552351E+04 0.  0.
        2    1    3    3  502    0  0.11511529791E+04 -0.11732109507E+04 -0.48375885841E+03  0.17133592003E+04  0.25500000920E-02 0.  1.
       -2    1    3    3    0  502 -0.11511529791E+04  0.11732109507E+04  0.24839700211E+03  0.16623110981E+04  0.25500000920E-02 0. -1.
</event>
<event>
 5   0  0.4109937E-07  0.3418440E+04  0.7818609E-02  0.8133395E-01
       -1   -1    0    0    0  501  0.00000000000E+00  0.00000000000E+00  0.17059277538E+04  0.17059277538E+04  0.50400001928E-02 0.  1.
        1   -1    0    0  501    0  0.00000000000E+00  0.00000000000E+00 -0.17125183088E+04  0.17125183088E+04  0.50400001928E-02 0. -1.
    10030    2    1    2    0    0  0.00000000000E+00  0.00000000000E+00 -0.65905549878E+01  0.34184460625E+04  0.34184397094E+04 0.  0.
        5    1    3    3  502    0  0.10914498090E+04  0.96987345469E+03 -0.89183123767E+03  0.17109360743E+04  0.46999998093E+01 0. -1.
       -5    1    3    3    0  502 -0.10914498090E+04 -0.96987345469E+03  0.88524068269E+03  0.17075099883E+04  0.46999998093E+01 0.  1.
</event>
<event>
 5   0  0.1269497E-06  0.3411516E+04  0.7818609E-02  0.8135086E-01
       -2   -1    0    0    0  501  0.00000000000E+00  0.00000000000E+00  0.12192345857E+04  0.12192345857E+04  0.25500000920E-02 0. -1.
        2   -1    0    0  501    0  0.00000000000E+00  0.00000000000E+00 -0.23864237782E+04  0.23864237782E+04  0.25500000920E-02 0.  1.
    10030    2    1    2    0    0  0.00000000000E+00  0.00000000000E+00 -0.11671891925E+04  0.36056583639E+04  0.34115160304E+04 0.  0.
        5    1    3    3  502    0  0.51355663662E+03  0.10077751569E+04  0.76587327410E+03  0.13659923674E+04  0.46999998093E+01 0. -1.
       -5    1    3    3    0  502 -0.51355663662E+03 -0.10077751569E+04 -0.19330624666E+04  0.22396659965E+04  0.46999998093E+01 0.  1.
</event>
<event>
 5   0  0.4289684E-07  0.3387759E+04  0.7818609E-02  0.8140917E-01
        1   -1    0    0  501    0  0.00000000000E+00  0.00000000000E+00  0.12870642642E+04  0.12870642642E+04  0.50400001928E-02 0. -1.
       -1   -1    0    0    0  501  0.00000000000E+00  0.00000000000E+00 -0.22292810742E+04  0.22292810742E+04  0.50400001928E-02 0.  1.
    10030    2    1    2    0    0  0.00000000000E+00  0.00000000000E+00 -0.94221680998E+03  0.35163453385E+04  0.33877591447E+04 0.  0.
        4    1    3    3  502    0  0.11926699548E+04  0.11065860977E+04 -0.96041635478E+03  0.18892844149E+04  0.12699999809E+01 0. -1.
       -4    1    3    3    0  502 -0.11926699548E+04 -0.11065860977E+04  0.18199544806E+02  0.16270609236E+04  0.12699999809E+01 0.  1.
</event>
<event>
 5   0  0.1268230E-06  0.3137523E+04  0.7818609E-02  0.8205515E-01
        2   -1    0    0  501    0  0.00000000000E+00  0.00000000000E+00  0.13412458240E+04  0.13412458240E+04  0.25500000920E-02 0. -1.
       -2   -1    0    0    0  501  0.00000000000E+00  0.00000000000E+00 -0.18348711969E+04  0.18348711969E+04  0.25500000920E-02 0.  1.
    10030    2    1    2    0    0  0.00000000000E+00  0.00000000000E+00 -0.49362537286E+03  0.31761170209E+04  0.31375234376E+04 0.  0.
        2    1    3    3  502    0 -0.27000929051E+03  0.13490701650E+04 -0.10098201612E+04  0.17066435143E+04  0.25500000920E-02 0.  1.
       -2    1    3    3    0  502  0.27000929051E+03 -0.13490701650E+04  0.51619478836E+03  0.14694735066E+04  0.25500000920E-02 0. -1.
</event>
<event>
 5   0  0.4272633E-07  0.3359440E+04  0.7818609E-02  0.8147933E-01
       -1   -1    0    0    0  501  0.00000000000E+00  0.00000000000E+00  0.12991752751E+04  0.12991752751E+04  0.50400001928E-02 0. -1.
        1   -1    0    0  501    0  0.00000000000E+00  0.00000000000E+00 -0.21717316486E+04  0.21717316486E+04  0.50400001928E-02 0.  1.
    10030    2    1    2    0    0  0.00000000000E+00  0.00000000000E+00 -0.87255637350E+03  0.34709069237E+04  0.33594404665E+04 0.  0.
        1    1    3    3  502    0  0.11769498447E+04 -0.38109023710E+03 -0.16102087114E+04  0.20305695753E+04  0.50400001928E-02 0.  1.
       -1    1    3    3    0  502 -0.11769498447E+04  0.38109023710E+03  0.73765233793E+03  0.14403373484E+04  0.50400001928E-02 0. -1.
</event>
<event>
 5   0  0.1256208E-06  0.3188248E+04  0.7818609E-02  0.8191928E-01
       -2   -1    0    0    0  501  0.00000000000E+00  0.00000000000E+00  0.16546397637E+04  0.16546397637E+04  0.25500000920E-02 0.  1.
        2   -1    0    0  501    0  0.00000000000E+00  0.00000000000E+00 -0.15358219392E+04  0.15358219392E+04  0.25500000920E-02 0. -1.
    10030    2    1    2    0    0  0.00000000000E+00  0.00000000000E+00  0.11881782444E+03  0.31904617029E+04  0.31882484537E+04 0.  0.
        3    1    3    3  502    0  0.14024457002E+04 -0.75344800485E+03 -0.22465990584E+02  0.15921817010E+04  0.10100000352E+00 0.  1.
       -3    1    3    3    0  502 -0.14024457002E+04  0.75344800485E+03  0.14128381502E+03  0.15982800019E+04  0.10100000352E+00 0. -1.
</event>
<event>
 5   0  0.1269497E-06  0.3386390E+04  0.7818609E-02  0.8141255E-01
       -2   -1    0    0    0  501  0.00000000000E+00  0.00000000000E+00  0.18774309172E+04  0.18774309172E+04  0.25500000920E-02 0.  1.
        2   -1    0    0  501    0  0.00000000000E+00  0.00000000000E+00 -0.15270381643E+04  0.15270381643E+04  0.25500000920E-02 0. -1.
    10030    2    1    2    0    0  0.00000000000E+00  0.00000000000E+00  0.35039275294E+03  0.34044690815E+04  0.33863896181E+04 0.  0.
        5    1    3    3  502    0 -0.83950587488E+03 -0.74598914282E+03 -0.10986979480E+04  0.15711235426E+04  0.46999998093E+01 0. -1.
       -5    1    3    3    0  502  0.83950587488E+03  0.74598914282E+03  0.14490907010E+04  0.18333455389E+04  0.46999998093E+01 0.  1.
</event>
<event>
 5   0  0.4272633E-07  0.3349400E+04  0.7818609E-02  0.8150438E-01
       -1   -1    0    0    0  501  0.00000000000E+00  0.00000000000E+00  0.27435824220E+04  0.27435824220E+04  0.50400001928E-02 0. -1.
        1   -1    0    0  501    0  0.00000000000E+00  0.00000000000E+00 -0.10222473238E+04  0.10222473238E+04  0.50400001928E-02 0.  1.
    10030    2    1    2    0    0  0.00000000000E+00  0.00000000000E+00  0.17213350982E+04  0.37658297457E+04  0.33493998199E+04 0.  0.
        1    1    3    3  502    0 -0.12385147223E+04 -0.95848282002E+02 -0.40214752332E+03  0.13056907142E+04  0.50400001928E-02 0. -1.
       -1    1    3    3    0  502  0.12385147223E+04  0.95848282002E+02  0.21234826215E+04  0.24601390316E+04  0.50400001928E-02 0.  1.
</event>
<event>
 5   0  0.4289684E-07  0.3416695E+04  0.7818609E-02  0.8133821E-01
       -1   -1    0    0    0  501  0.00000000000E+00  0.00000000000E+00  0.14444243548E+04  0.14444243548E+04  0.50400001928E-02 0.  1.
        1   -1    0    0  501    0  0.00000000000E+00  0.00000000000E+00 -0.20204941452E+04  0.20204941452E+04  0.50400001928E-02 0. -1.
    10030    2    1    2    0    0  0.00000000000E+00  0.00000000000E+00 -0.57606979041E+03  0.34649185001E+04  0.34166948662E+04 0.  0.
        4    1    3    3  502    0 -0.11995463414E+04  0.80660966499E+03  0.63526505824E+03  0.15789534141E+04  0.12699999809E+01 0.  1.
       -4    1    3    3    0  502  0.11995463414E+04 -0.80660966499E+03 -0.12113348487E+04  0.18859650859E+04  0.12699999809E+01 0. -1.
</event>
<event>
 5   0  0.4060750E-07  0.3455406E+04  0.7818609E-02  0.8124440E-01
       -3   -1    0    0    0  501  0.00000000000E+00  0.00000000000E+00  0.13633433363E+04  0.13633433401E+04  0.10100000352E+00 0. -1.
        3   -1    0    0  501    0  0.00000000000E+00  0.00000000000E+00 -0.21894396600E+04  0.21894396623E+04  0.10100000352E+00 0.  1.
    10030    2    1    2    0    0  0.00000000000E+00  0.00000000000E+00 -0.82609632367E+03  0.35527830024E+04  0.34554061883E+04 0.  0.
        5    1    3    3  502    0 -0.97020028186E+03  0.81697741569E+03 -0.16192211438E+04  0.20568519361E+04  0.46999998093E+01 0.  1.
       -5    1    3    3    0  502  0.97020028186E+03 -0.81697741569E+03  0.79312482013E+03  0.14959310663E+04  0.46999998093E+01 0. -1.
</event>
<event>
 5   0  0.4109937E-07  0.3407115E+04  0.7818609E-02  0.8136162E-01
        1   -1    0    0  501    0  0.00000000000E+00  0.00000000000E+00  0.10430980282E+04  0.10430980282E+04  0.50400001928E-02 0. -1.
       -1   -1    0    0    0  501  0.00000000000E+00  0.00000000000E+00 -0.27822005529E+04  0.27822005529E+04  0.50400001928E-02 0.  1.
    10030    2    1    2    0    0  0.00000000000E+00  0.00000000000E+00 -0.17391025246E+04  0.38252985811E+04  0.34071148562E+04 0.  0.
        5    1    3    3  502    0  0.14018449744E+04 -0.48873250429E+03 -0.18075970058E+04  0.23391147510E+04  0.46999998093E+01 0.  1.
       -5    1    3    3    0  502 -0.14018449744E+04  0.48873250429E+03  0.68494481136E+02  0.14861838301E+04  0.46999998093E+01 0. -1.
</event>
<event>
 5   0  0.1269497E-06  0.3379292E+04  0.7818609E-02  0.8143007E-01
        2   -1    0    0  501    0  0.00000000000E+00  0.00000000000E+00  0.16624058587E+04  0.16624058587E+04  0.25500000920E-02 0.  1.
       -2   -1    0    0    0  501  0.00000000000E+00  0.00000000000E+00 -0.17173327816E+04  0.17173327816E+04  0.25500000920E-02 0. -1.
    10030    2    1    2    0    0  0.00000000000E+00  0.00000000000E+00 -0.54926922864E+02  0.33797386404E+04  0.33792922795E+04 0.  0.
        5    1    3    3  502    0 -0.13512406251E+04  0.61994951477E+01 -0.10419900397E+04  0.17063572292E+04  0.46999998093E+01 0. -1.
       -5    1    3    3    0  502  0.13512406251E+04 -0.61994951477E+01  0.98706311686E+03  0.16733814112E+04  0.46999998093E+01 0.  1.
</event>
<event>
 5   0  0.1269497E-06  0.3387896E+04  0.7818609E-02  0.8140883E-01
        2   -1    0    0  501    0  0.00000000000E+00  0.00000000000E+00  0.18197049342E+04  0.18197049342E+04  0.25500000920E-02 0. -1.
       -2   -1    0    0    0  501  0.00000000000E+00  0.00000000000E+00 -0.15768821884E+04  0.15768821884E+04  0.25500000920E-02 0.  1.
    10030    2    1    2    0    0  0.00000000000E+00  0.00000000000E+00  0.24282274574E+03  0.33965871226E+04  0.33878962787E+04 0.  0.
        5    1    3    3  502    0  0.91284902057E+03  0.14269219354E+04  0.12764541905E+03  0.16987392346E+04  0.46999998093E+01 0. -1.
       -5    1    3    3    0  502 -0.91284902057E+03 -0.14269219354E+04  0.11517732669E+03  0.16978478880E+04  0.46999998093E+01 0.  1.
</event>
<event>
 5   0  0.1256208E-06  0.4065503E+04  0.7818609E-02  0.7991461E-01
        2   -1    0    0  501    0  0.00000000000E+00  0.00000000000E+00  0.21740172615E+04  0.21740172615E+04  0.25500000920E-02 0.  1.
       -2   -1    0    0    0  501  0.00000000000E+00  0.00000000000E+00 -0.19006646495E+04  0.19006646495E+04  0.25500000920E-02 0. -1.
    10030    2    1    2    0    0  0.00000000000E+00  0.00000000000E+00  0.27335261205E+03  0.40746819110E+04  0.40655025551E+04 0.  0.
        3    1    3    3  502    0 -0.80764279436E+03  0.48993776686E+02 -0.17323103597E+04  0.19119588034E+04  0.10100000352E+00 0. -1.
       -3    1    3    3    0  502  0.80764279436E+03 -0.48993776686E+02  0.20056629718E+04  0.21627231076E+04  0.10100000352E+00 0.  1.
</event>
<event>
 5   0  0.1269497E-06  0.3406468E+04  0.7818609E-02  0.8136321E-01
       -2   -1    0    0    0  501  0.00000000000E+00  0.00000000000E+00  0.16637114923E+04  0.16637114923E+04  0.25500000920E-02 0.  1.
        2   -1    0    0  501    0  0.00000000000E+00  0.00000000000E+00 -0.17436954941E+04  0.17436954941E+04  0.25500000920E-02 0. -1.
    10030    2    1    2    0    0  0.00000000000E+00  0.00000000000E+00 -0.79984001796E+02  0.34074069864E+04  0.34064681021E+04 0.  0.
        5    1    3    3  502    0 -0.16965164622E+04  0.38820203074E+02  0.10602435441E+03  0.17002759683E+04  0.46999998093E+01 0. -1.
       -5    1    3    3    0  502  0.16965164622E+04 -0.38820203074E+02 -0.18600835621E+03  0.17071310181E+04  0.46999998093E+01 0.  1.
</event>
<event>
 5   0  0.4125758E-07  0.3394723E+04  0.7818609E-02  0.8139203E-01
        1   -1    0    0  501    0  0.00000000000E+00  0.00000000000E+00  0.15591302971E+04  0.15591302971E+04  0.50400001928E-02 0. -1.
       -1   -1    0    0    0  501  0.00000000000E+00  0.00000000000E+00 -0.18478483345E+04  0.18478483345E+04  0.50400001928E-02 0.  1.
    10030    2    1    2    0    0  0.00000000000E+00  0.00000000000E+00 -0.28871803740E+03  0.34069786316E+04  0.33947231538E+04 0.  0.
        2    1    3    3  502    0 -0.52154413489E+03  0.12064428749E+04 -0.12222585784E+04  0.17948338997E+04  0.25500000920E-02 0.  1.
       -2    1    3    3    0  502  0.52154413489E+03 -0.12064428749E+04  0.93354054096E+03  0.16121447319E+04  0.25500000920E-02 0. -1.
</event>
<event>
 5   0  0.1256208E-06  0.3431984E+04  0.7818609E-02  0.8130101E-01
        2   -1    0    0  501    0  0.00000000000E+00  0.00000000000E+00  0.13758041222E+04  0.13758041222E+04  0.25500000920E-02 0. -1.
       -2   -1    0    0    0  501  0.00000000000E+00  0.00000000000E+00 -0.21402957553E+04  0.21402957553E+04  0.25500000920E-02 0.  1.
    10030    2    1    2    0    0  0.00000000000E+00  0.00000000000E+00 -0.76449163311E+03  0.35160998774E+04  0.34319835214E+04 0.  0.
        3    1    3    3  502    0 -0.73481787892E+03  0.74875582526E+03  0.10089895269E+04  0.14555591629E+04  0.10100000352E+00 0. -1.
       -3    1    3    3    0  502  0.73481787892E+03 -0.74875582526E+03 -0.17734811600E+04  0.20605407145E+04  0.10100000352E+00 0.  1.
</event>
<event>
 5   0  0.1277635E-06  0.3385400E+04  0.7818609E-02  0.8141499E-01
       -2   -1    0    0    0  501  0.00000000000E+00  0.00000000000E+00  0.11824558639E+04  0.11824558640E+04  0.25500000920E-02 0.  1.
        2   -1    0    0  501    0  0.00000000000E+00  0.00000000000E+00 -0.24231207026E+04  0.24231207026E+04  0.25500000920E-02 0. -1.
    10030    2    1    2    0    0  0.00000000000E+00  0.00000000000E+00 -0.12406648386E+04  0.36055765665E+04  0.33853999963E+04 0.  0.
        4    1    3    3  502    0 -0.34797895907E+03 -0.13405016642E+04 -0.16568699423E+04  0.21594568035E+04  0.12699999809E+01 0. -1.
       -4    1    3    3    0  502  0.34797895907E+03  0.13405016642E+04  0.41620510366E+03  0.14461197630E+04  0.12699999809E+01 0.  1.
</event>
<event>
 5   0  0.1256208E-06  0.3313550E+04  0.7818609E-02  0.8159456E-01
        2   -1    0    0  501    0  0.00000000000E+00  0.00000000000E+00  0.88333821077E+03  0.88333821078E+03  0.25500000920E-02 0. -1.
       -2   -1    0    0    0  501  0.00000000000E+00  0.00000000000E+00 -0.31074200211E+04  0.31074200211E+04  0.25500000920E-02 0.  1.
    10030    2    1    2    0    0  0.00000000000E+00  0.00000000000E+00 -0.22240818104E+04  0.39907582319E+04  0.33135496626E+04 0.  0.
        3    1    3    3  502    0 -0.92180281963E+03 -0.12108401429E+04 -0.19009285402E+04  0.24350325697E+04  0.10100000352E+00 0.  1.
       -3    1    3    3    0  502  0.92180281963E+03  0.12108401429E+04 -0.32315327014E+03  0.15557256623E+04  0.10100000352E+00 0. -1.
</event>
<event>
 5   0  0.4125758E-07  0.3414303E+04  0.7818609E-02  0.8134405E-01
        1   -1    0    0  501    0  0.00000000000E+00  0.00000000000E+00  0.18183692544E+04  0.18183692544E+04  0.50400001928E-02 0. -1.
       -1   -1    0    0    0  501  0.00000000000E+00  0.00000000000E+00 -0.16027362819E+04  0.16027362819E+04  0.50400001928E-02 0.  1.
    10030    2    1    2    0    0  0.00000000000E+00  0.00000000000E+00  0.21563297249E+03  0.34211055363E+04  0.34143030784E+04 0.  0.
        2    1    3    3  502    0  0.12638320555E+04 -0.46399541991E+03 -0.94394293191E+03  0.16442601597E+04  0.25500000920E-02 0.  1.
       -2    1    3    3    0  502 -0.12638320555E+04  0.46399541991E+03  0.11595759044E+04  0.17768453766E+04  0.25500000920E-02 0. -1.
</event>
<event>
 5   0  0.1268230E-06  0.3339181E+04  0.7818609E-02  0.8152997E-01
        2   -1    0    0  501    0  0.00000000000E+00  0.00000000000E+00  0.19570353747E+04  0.19570353747E+04  0.25500000920E-02 0.  1.
       -2   -1    0    0    0  501  0.00000000000E+00  0.00000000000E+00 -0.14243649135E+04  0.14243649135E+04  0.25500000920E-02 0. -1.
    10030    2    1    2    0    0  0.00000000000E+00  0.00000000000E+00  0.53267046118E+03  0.33814002883E+04  0.33391810507E+04 0.  0.
        2    1    3    3  502    0 -0.68917934477E+03  0.14495264335E+04  0.73197235299E+03  0.17640517499E+04  0.25500000920E-02 0.  1.
       -2    1    3    3    0  502  0.68917934477E+03 -0.14495264335E+04 -0.19930189181E+03  0.16173485384E+04  0.25500000920E-02 0. -1.
</event>
<event>
 5   0  0.4289684E-07  0.3379595E+04  0.7818609E-02  0.8142933E-01
       -1   -1    0    0    0  501  0.00000000000E+00  0.00000000000E+00  0.11950461330E+04  0.11950461330E+04  0.50400001928E-02 0. -1.
        1   -1    0    0  501    0  0.00000000000E+00  0.00000000000E+00 -0.23893769977E+04  0.23893769977E+04  0.50400001928E-02 0.  1.
    10030    2    1    2    0    0  0.00000000000E+00  0.00000000000E+00 -0.11943308647E+04  0.35844231307E+04  0.33795950890E+04 0.  0.
        4    1    3    3  502    0 -0.10821864667E+04 -0.29635201744E+03  0.74292436908E+03  0.13456932406E+04  0.12699999809E+01 0. -1.
       -4    1    3    3    0  502  0.10821864667E+04  0.29635201744E+03 -0.19372552338E+04  0.22387298901E+04  0.12699999809E+01 0.  1.
</event>
<event>
 5   0  0.4289684E-07  0.3360515E+04  0.7818609E-02  0.8147666E-01
        1   -1    0    0  501    0  0.00000000000E+00  0.00000000000E+00  0.19117533564E+04  0.19117533564E+04  0.50400001928E-02 0. -1.
       -1   -1    0    0    0  501  0.00000000000E+00  0.00000000000E+00 -0.14767940716E+04  0.14767940716E+04  0.50400001928E-02 0.  1.
    10030    2    1    2    0    0  0.00000000000E+00  0.00000000000E+00  0.43495928479E+03  0.33885474280E+04  0.33605154504E+04 0.  0.
        4    1    3    3  502    0 -0.43706233124E+03 -0.94937716787E+03 -0.11091407297E+04  0.15239866336E+04  0.12699999809E+01 0.  1.
       -4    1    3    3    0  502  0.43706233124E+03  0.94937716787E+03  0.15441000145E+04  0.18645607944E+04  0.12699999809E+01 0. -1.
</event>
<event>
 5   0  0.1277635E-06  0.3411576E+04  0.7818609E-02  0.8135071E-01
        2   -1    0    0  501    0  0.00000000000E+00  0.00000000000E+00  0.19321929625E+04  0.19321929625E+04  0.25500000920E-02 0. -1.
       -2   -1    0    0    0  501  0.00000000000E+00  0.00000000000E+00 -0.15059121389E+04  0.15059121389E+04  0.25500000920E-02 0.  1.
    10030    2    1    2    0    0  0.00000000000E+00  0.00000000000E+00  0.42628082354E+03  0.34381051014E+04  0.34115760797E+04 0.  0.
        4    1    3    3  502    0 -0.16512518557E+04  0.41227728514E+03  0.97768861992E+02  0.17047479620E+04  0.12699999809E+01 0. -1.
       -4    1    3    3    0  502  0.16512518557E+04 -0.41227728514E+03  0.32851196155E+03  0.17333571394E+04  0.12699999809E+01 0.  1.
</event>
<event>
 5   0  0.4109937E-07  0.3399589E+04  0.7818609E-02  0.8138007E-01
        1   -1    0    0  501    0  0.00000000000E+00  0.00000000000E+00  0.19313488025E+04  0.19313488025E+04  0.50400001928E-02 0. -1.
       -1   -1    0    0    0  501  0.00000000000E+00  0.00000000000E+00 -0.14960020517E+04  0.14960020517E+04  0.50400001928E-02 0.  1.
    10030    2    1    2    0    0  0.00000000000E+00  0.00000000000E+00  0.43534675086E+03  0.34273508542E+04  0.33995892523E+04 0.  0.
        5    1    3    3  502    0 -0.80114022033E+03 -0.29321325848E+02  0.17287776796E+04  0.19056179440E+04  0.46999998093E+01 0. -1.
       -5    1    3    3    0  502  0.80114022033E+03  0.29321325848E+02 -0.12934309288E+04  0.15217329103E+04  0.46999998093E+01 0.  1.
</event>
<event>
 5   0  0.4125758E-07  0.3396283E+04  0.7818609E-02  0.8138819E-01
        1   -1    0    0  501    0  0.00000000000E+00  0.00000000000E+00  0.14383732004E+04  0.14383732004E+04  0.50400001928E-02 0.  1.
       -1   -1    0    0    0  501  0.00000000000E+00  0.00000000000E+00 -0.20048233096E+04  0.20048233096E+04  0.50400001928E-02 0. -1.
    10030    2    1    2    0    0  0.00000000000E+00  0.00000000000E+00 -0.56645010917E+03  0.34431965100E+04  0.33962827444E+04 0.  0.
        2    1    3    3  502    0 -0.96776497332E+01  0.49251345250E+03 -0.19307951288E+04  0.19926447218E+04  0.25500000920E-02 0. -1.
       -2    1    3    3    0  502  0.96776497332E+01 -0.49251345250E+03  0.13643450196E+04  0.14505517882E+04  0.25500000920E-02 0.  1.
</event>
<event>
 5   0  0.1256208E-06  0.3365754E+04  0.7818609E-02  0.8146363E-01
        2   -1    0    0  501    0  0.00000000000E+00  0.00000000000E+00  0.19457960973E+04  0.19457960973E+04  0.25500000920E-02 0.  1.
       -2   -1    0    0    0  501  0.00000000000E+00  0.00000000000E+00 -0.14554841431E+04  0.14554841431E+04  0.25500000920E-02 0. -1.
    10030    2    1    2    0    0  0.00000000000E+00  0.00000000000E+00  0.49031195421E+03  0.34012802404E+04  0.33657542187E+04 0.  0.
        3    1    3    3  502    0  0.57457709205E+03  0.15909788246E+03 -0.13451844152E+04  0.14713844134E+04  0.10100000352E+00 0. -1.
       -3    1    3    3    0  502 -0.57457709205E+03 -0.15909788246E+03  0.18354963694E+04  0.19298958270E+04  0.10100000352E+00 0.  1.
</event>
<event>
 5   0  0.1256208E-06  0.3131313E+04  0.7818609E-02  0.8207196E-01
       -2   -1    0    0    0  501  0.00000000000E+00  0.00000000000E+00  0.22493594931E+04  0.22493594931E+04  0.25500000920E-02 0.  1.
        2   -1    0    0  501    0  0.00000000000E+00  0.00000000000E+00 -0.10897682557E+04  0.10897682557E+04  0.25500000920E-02 0. -1.
    10030    2    1    2    0    0  0.00000000000E+00  0.00000000000E+00  0.11595912374E+04  0.33391277488E+04  0.31313131886E+04 0.  0.
        3    1    3    3  502    0  0.72285656800E+03 -0.10665038566E+04 -0.36880831674E+03  0.13401386790E+04  0.10100000352E+00 0. -1.
       -3    1    3    3    0  502 -0.72285656800E+03  0.10665038566E+04  0.15283995542E+04  0.19989890699E+04  0.10100000352E+00 0.  1.
</event>
<event>
 5   0  0.1277635E-06  0.3399600E+04  0.7818609E-02  0.8138004E-01
        2   -1    0    0  501    0  0.00000000000E+00  0.00000000000E+00  0.17632505553E+04  0.17632505553E+04  0.25500000920E-02 0. -1.
       -2   -1    0    0    0  501  0.00000000000E+00  0.00000000000E+00 -0.16386327044E+04  0.16386327044E+04  0.25500000920E-02 0.  1.
    10030    2    1    2    0    0  0.00000000000E+00  0.00000000000E+00  0.12461785086E+03  0.34018832597E+04  0.33995999917E+04 0.  0.
        4    1    3    3  502    0 -0.10075419745E+04 -0.78945882296E+03  0.11815109793E+04  0.17419402603E+04  0.12699999809E+01 0. -1.
       -4    1    3    3    0  502  0.10075419745E+04  0.78945882296E+03 -0.10568931284E+04  0.16599429994E+04  0.12699999809E+01 0.  1.
</event>
<event>
 5   0  0.4272633E-07  0.3391117E+04  0.7818609E-02  0.8140090E-01
        1   -1    0    0  501    0  0.00000000000E+00  0.00000000000E+00  0.18520222685E+04  0.18520222685E+04  0.50400001928E-02 0. -1.
       -1   -1    0    0    0  501  0.00000000000E+00  0.00000000000E+00 -0.15523129348E+04  0.15523129348E+04  0.50400001928E-02 0.  1.
    10030    2    1    2    0    0  0.00000000000E+00  0.00000000000E+00  0.29970933371E+03  0.34043352034E+04  0.33911167029E+04 0.  0.
        1    1    3    3  502    0 -0.10559348185E+04 -0.10262639492E+04  0.99378727425E+03  0.17764653616E+04  0.50400001928E-02 0. -1.
       -1    1    3    3    0  502  0.10559348185E+04  0.10262639492E+04 -0.69407794054E+03  0.16278698418E+04  0.50400001928E-02 0.  1.
</event>
<event>
 5   0  0.1277635E-06  0.3393512E+04  0.7818609E-02  0.8139501E-01
       -2   -1    0    0    0  501  0.00000000000E+00  0.00000000000E+00  0.12663232695E+04  0.12663232695E+04  0.25500000920E-02 0. -1.
        2   -1    0    0  501    0  0.00000000000E+00  0.00000000000E+00 -0.22734959740E+04  0.22734959740E+04  0.25500000920E-02 0.  1.
    10030    2    1    2    0    0  0.00000000000E+00  0.00000000000E+00 -0.10071727045E+04  0.35398192435E+04  0.33935119596E+04 0.  0.
        4    1    3    3  502    0 -0.43584888528E+03  0.16344980735E+04 -0.36586751759E+03  0.17307249511E+04  0.12699999809E+01 0. -1.
       -4    1    3    3    0  502  0.43584888528E+03 -0.16344980735E+04 -0.64130518694E+03  0.18090942924E+04  0.12699999809E+01 0.  1.
</event>
<event>
 5   0  0.4464951E-07  0.3427627E+04  0.7818609E-02  0.8131159E-01
       -1   -1    0    0    0  501  0.00000000000E+00  0.00000000000E+00  0.17943055600E+04  0.17943055600E+04  0.50400001928E-02 0.  1.
        1   -1    0    0  501    0  0.00000000000E+00  0.00000000000E+00 -0.16369326753E+04  0.16369326753E+04  0.50400001928E-02 0. -1.
    10030    2    1    2    0    0  0.00000000000E+00  0.00000000000E+00  0.15737288467E+03  0.34312382353E+04  0.34276274014E+04 0.  0.
        3    1    3    3  502    0 -0.11280461828E+04 -0.58050779725E+03  0.12321502082E+04  0.17685224452E+04  0.10100000352E+00 0. -1.
       -3    1    3    3    0  502  0.11280461828E+04  0.58050779725E+03 -0.10747773236E+04  0.16627157901E+04  0.10100000352E+00 0.  1.
</event>
<event>
 5   0  0.1256208E-06  0.3405663E+04  0.7818609E-02  0.8136518E-01
       -2   -1    0    0    0  501  0.00000000000E+00  0.00000000000E+00  0.17665055960E+04  0.17665055960E+04  0.25500000920E-02 0.  1.
        2   -1    0    0  501    0  0.00000000000E+00  0.00000000000E+00 -0.16414529427E+04  0.16414529427E+04  0.25500000920E-02 0. -1.
    10030    2    1    2    0    0  0.00000000000E+00  0.00000000000E+00  0.12505265329E+03  0.34079585387E+04  0.34056634061E+04 0.  0.
        3    1    3    3  502    0 -0.24607678907E+02  0.13576331173E+04  0.10907705512E+04  0.17417099715E+04  0.10100000352E+00 0.  1.
       -3    1    3    3    0  502  0.24607678907E+02 -0.13576331173E+04 -0.96571789794E+03  0.16662485672E+04  0.10100000352E+00 0. -1.
</event>
<event>
 5   0  0.1256208E-06  0.3388625E+04  0.7818609E-02  0.8140704E-01
        2   -1    0    0  501    0  0.00000000000E+00  0.00000000000E+00  0.11895945305E+04  0.11895945305E+04  0.25500000920E-02 0.  1.
       -2   -1    0    0    0  501  0.00000000000E+00  0.00000000000E+00 -0.24131713657E+04  0.24131713657E+04  0.25500000920E-02 0. -1.
    10030    2    1    2    0    0  0.00000000000E+00  0.00000000000E+00 -0.12235768351E+04  0.36027658962E+04  0.33886253601E+04 0.  0.
        3    1    3    3  502    0 -0.11413536642E+04  0.11004099604E+04  0.23557964567E+02  0.15856056432E+04  0.10100000352E+00 0.  1.
       -3    1    3    3    0  502  0.11413536642E+04 -0.11004099604E+04 -0.12471347997E+04  0.20171602531E+04  0.10100000352E+00 0. -1.
</event>
<event>
 5   0  0.4272633E-07  0.3379813E+04  0.7818609E-02  0.8142879E-01
       -1   -1    0    0    0  501  0.00000000000E+00  0.00000000000E+00  0.15041424059E+04  0.15041424059E+04  0.50400001928E-02 0. -1.
        1   -1    0    0  501    0  0.00000000000E+00  0.00000000000E+00 -0.18986130432E+04  0.18986130432E+04  0.50400001928E-02 0.  1.
    10030    2    1    2    0    0  0.00000000000E+00  0.00000000000E+00 -0.39447063734E+03  0.34027554491E+04  0.33798132438E+04 0.  0.
        1    1    3    3  502    0  0.73560081128E+03 -0.15489409879E+03  0.13265388015E+04  0.15247314279E+04  0.50400001928E-02 0. -1.
       -1    1    3    3    0  502 -0.73560081128E+03  0.15489409879E+03 -0.17210094389E+04  0.18780240212E+04  0.50400001928E-02 0.  1.
</event>
<event>
 5   0  0.4272633E-07  0.3366005E+04  0.7818609E-02  0.8146301E-01
       -1   -1    0    0    0  501  0.00000000000E+00  0.00000000000E+00  0.19984542814E+04  0.19984542814E+04  0.50400001928E-02 0. -1.
        1   -1    0    0  501    0  0.00000000000E+00  0.00000000000E+00 -0.14173441306E+04  0.14173441306E+04  0.50400001928E-02 0.  1.
    10030    2    1    2    0    0  0.00000000000E+00  0.00000000000E+00  0.58111015082E+03  0.34157984120E+04  0.33660050184E+04 0.  0.
        1    1    3    3  502    0  0.14731924621E+04  0.29510996084E+02 -0.53469724634E+03  0.15675037718E+04  0.50400001928E-02 0.  1.
       -1    1    3    3    0  502 -0.14731924621E+04 -0.29510996084E+02  0.11158073972E+04  0.18482946402E+04  0.50400001928E-02 0. -1.
</event>
<event>
 5   0  0.1300176E-06  0.3082098E+04  0.7818609E-02  0.8220668E-01
       -2   -1    0    0    0  501  0.00000000000E+00  0.00000000000E+00  0.13636880018E+04  0.13636880018E+04  0.25500000920E-02 0. -1.
        2   -1    0    0  501    0  0.00000000000E+00  0.00000000000E+00 -0.17414773785E+04  0.17414773785E+04  0.25500000920E-02 0.  1.
    10030    2    1    2    0    0  0.00000000000E+00  0.00000000000E+00 -0.37778937671E+03  0.31051653803E+04  0.30820978612E+04 0.  0.
        1    1    3    3  502    0 -0.63634224671E+03 -0.90705519950E+03 -0.12679622730E+04  0.16838672500E+04  0.50400001928E-02 0.  1.
       -1    1    3    3    0  502  0.63634224671E+03  0.90705519950E+03  0.89017289626E+03  0.14212981303E+04  0.50400001928E-02 0. -1.
</event>
<event>
 5   0  0.4289684E-07  0.3389787E+04  0.7818609E-02  0.8140417E-01
        1   -1    0    0  501    0  0.00000000000E+00  0.00000000000E+00  0.18677083568E+04  0.18677083568E+04  0.50400001928E-02 0.  1.
       -1   -1    0    0    0  501  0.00000000000E+00  0.00000000000E+00 -0.15380690070E+04  0.15380690070E+04  0.50400001928E-02 0. -1.
    10030    2    1    2    0    0  0.00000000000E+00  0.00000000000E+00  0.32963934981E+03  0.34057773637E+04  0.33897872131E+04 0.  0.
        4    1    3    3  502    0 -0.13870240204E+04  0.39583964911E+03 -0.72940007748E+03  0.16163386857E+04  0.12699999809E+01 0. -1.
       -4    1    3    3    0  502  0.13870240204E+04 -0.39583964911E+03  0.10590394273E+04  0.17894386780E+04  0.12699999809E+01 0.  1.
</event>
<event>
 5   0  0.1269497E-06  0.3407803E+04  0.7818609E-02  0.8135994E-01
       -2   -1    0    0    0  501  0.00000000000E+00  0.00000000000E+00  0.13142884785E+04  0.13142884785E+04  0.25500000920E-02 0.  1.
        2   -1    0    0  501    0  0.00000000000E+00  0.00000000000E+00 -0.22090128226E+04  0.22090128226E+04  0.25500000920E-02 0. -1.
    10030    2    1    2    0    0  0.00000000000E+00  0.00000000000E+00 -0.89472434407E+03  0.35233013010E+04  0.34078028708E+04 0.  0.
        5    1    3    3  502    0  0.16377713541E+03  0.26636721385E+03 -0.21790882001E+04  0.22014136177E+04  0.46999998093E+01 0. -1.
       -5    1    3    3    0  502 -0.16377713541E+03 -0.26636721385E+03  0.12843638560E+04  0.13218876833E+04  0.46999998093E+01 0.  1.
</event>
<event>
 5   0  0.4125758E-07  0.3343162E+04  0.7818609E-02  0.8151999E-01
       -1   -1    0    0    0  501  0.00000000000E+00  0.00000000000E+00  0.20635358904E+04  0.20635358904E+04  0.50400001928E-02 0. -1.
        1   -1    0    0  501    0  0.00000000000E+00  0.00000000000E+00 -0.13540751883E+04  0.13540751883E+04  0.50400001928E-02 0.  1.
    10030    2    1    2    0    0  0.00000000000E+00  0.00000000000E+00  0.70946070205E+03  0.34176110787E+04  0.33431618264E+04 0.  0.
        2    1    3    3  502    0  0.40712936063E+02 -0.93938162264E+03 -0.10581059873E+04  0.14155153324E+04  0.25500000920E-02 0.  1.
       -2    1    3    3    0  502 -0.40712936063E+02  0.93938162264E+03  0.17675666893E+04  0.20020957463E+04  0.25500000920E-02 0. -1.
</event>
<event>
 5   0  0.4109937E-07  0.3351455E+04  0.7818609E-02  0.8149925E-01
       -1   -1    0    0    0  501  0.00000000000E+00  0.00000000000E+00  0.14711250454E+04  0.14711250454E+04  0.50400001928E-02 0. -1.
        1   -1    0    0  501    0  0.00000000000E+00  0.00000000000E+00 -0.19087855752E+04  0.19087855752E+04  0.50400001928E-02 0.  1.
    10030    2    1    2    0    0  0.00000000000E+00  0.00000000000E+00 -0.43766052984E+03  0.33799106206E+04  0.33514547683E+04 0.  0.
        5    1    3    3  502    0 -0.45732222642E+03  0.62111153493E+03  0.12814556854E+04  0.14956851009E+04  0.46999998093E+01 0. -1.
       -5    1    3    3    0  502  0.45732222642E+03 -0.62111153493E+03 -0.17191162152E+04  0.18842255197E+04  0.46999998093E+01 0.  1.
</event>
<event>
 5   0  0.4464951E-07  0.3396490E+04  0.7818609E-02  0.8138768E-01
       -1   -1    0    0    0  501  0.00000000000E+00  0.00000000000E+00  0.16388894638E+04  0.16388894638E+04  0.50400001928E-02 0.  1.
        1   -1    0    0  501    0  0.00000000000E+00  0.00000000000E+00 -0.17597497039E+04  0.17597497039E+04  0.50400001928E-02 0. -1.
    10030    2    1    2    0    0  0.00000000000E+00  0.00000000000E+00 -0.12086024016E+03  0.33986391677E+04  0.33964895105E+04 0.  0.
        3    1    3    3  502    0 -0.62149741627E+03  0.15687578423E+04 -0.25231966418E+03  0.17061434375E+04  0.10100000352E+00 0.  1.
       -3    1    3    3    0  502  0.62149741627E+03 -0.15687578423E+04  0.13145942402E+03  0.16924957302E+04  0.10100000352E+00 0. -1.
</event>
<event>
 5   0  0.1269497E-06  0.3374823E+04  0.7818609E-02  0.8144113E-01
       -2   -1    0    0    0  501  0.00000000000E+00  0.00000000000E+00  0.17843112137E+04  0.17843112137E+04  0.25500000920E-02 0. -1.
        2   -1    0    0  501    0  0.00000000000E+00  0.00000000000E+00 -0.15957744893E+04  0.15957744893E+04  0.25500000920E-02 0.  1.
    10030    2    1    2    0    0  0.00000000000E+00  0.00000000000E+00  0.18853672442E+03  0.33800857030E+04  0.33748234418E+04 0.  0.
        5    1    3    3  502    0 -0.95780953079E+03 -0.13193851931E+04  0.52987162566E+03  0.17143402273E+04  0.46999998093E+01 0. -1.
       -5    1    3    3    0  502  0.95780953079E+03  0.13193851931E+04 -0.34133490124E+03  0.16657454757E+04  0.46999998093E+01 0.  1.
</event>
<event>
 5   0  0.4125758E-07  0.3411189E+04  0.7818609E-02  0.8135166E-01
       -1   -1    0    0    0  501  0.00000000000E+00  0.00000000000E+00  0.26180313691E+04  0.26180313691E+04  0.50400001928E-02 0.  1.
        1   -1    0    0  501    0  0.00000000000E+00  0.00000000000E+00 -0.11111603079E+04  0.11111603079E+04  0.50400001928E-02 0. -1.
    10030    2    1    2    0    0  0.00000000000E+00  0.00000000000E+00  0.15068710612E+04  0.37291916770E+04  0.34111889670E+04 0.  0.
        2    1    3    3  502    0  0.46150343688E+03  0.15993304509E+04  0.11598577563E+04  0.20288206742E+04  0.25500000920E-02 0.  1.
       -2    1    3    3    0  502 -0.46150343688E+03 -0.15993304509E+04  0.34701330494E+03  0.17003710028E+04  0.25500000920E-02 0. -1.
</event>
<event>
 5   0  0.4464951E-07  0.3342376E+04  0.7818609E-02  0.8152196E-01
        1   -1    0    0  501    0  0.00000000000E+00  0.00000000000E+00  0.27022391111E+04  0.27022391111E+04  0.50400001928E-02 0. -1.
       -1   -1    0    0    0  501  0.00000000000E+00  0.00000000000E+00 -0.10335389303E+04  0.10335389303E+04  0.50400001928E-02 0.  1.
    10030    2    1    2    0    0  0.00000000000E+00  0.00000000000E+00  0.16687001808E+04  0.37357780414E+04  0.33423759934E+04 0.  0.
        3    1    3    3  502    0 -0.25161076139E+03  0.14501280380E+04 -0.50464238225E+02  0.14726594825E+04  0.10100000352E+00 0.  1.
       -3    1    3    3    0  502  0.25161076139E+03 -0.14501280380E+04  0.17191644191E+04  0.22631185589E+04  0.10100000352E+00 0. -1.
</event>
<event>
 5   0  0.1256208E-06  0.3414910E+04  0.7818609E-02  0.8134257E-01
        2   -1    0    0  501    0  0.00000000000E+00  0.00000000000E+00  0.24601705203E+04  0.24601705203E+04  0.25500000920E-02 0.  1.
       -2   -1    0    0    0  501  0.00000000000E+00  0.00000000000E+00 -0.11850409280E+04  0.11850409280E+04  0.25500000920E-02 0. -1.
    10030    2    1    2    0    0  0.00000000000E+00  0.00000000000E+00  0.12751295923E+04  0.36452114483E+04  0.34149101051E+04 0.  0.
        3    1    3    3  502    0  0.23297635522E+03 -0.15370729465E+04 -0.11612001212E+03  0.15589596186E+04  0.10100000352E+00 0. -1.
       -3    1    3    3    0  502 -0.23297635522E+03  0.15370729465E+04  0.13912496044E+04  0.20862518297E+04  0.10100000352E+00 0.  1.
</event>
<event>
 5   0  0.1269497E-06  0.3402006E+04  0.7818609E-02  0.8137414E-01
        2   -1    0    0  501    0  0.00000000000E+00  0.00000000000E+00  0.28353440996E+04  0.28353440996E+04  0.25500000920E-02 0.  1.
       -2   -1    0    0    0  501  0.00000000000E+00  0.00000000000E+00 -0.10204798135E+04  0.10204798135E+04  0.25500000920E-02 0. -1.
    10030    2    1    2    0    0  0.00000000000E+00  0.00000000000E+00  0.18148642861E+04  0.38558239131E+04  0.34020061246E+04 0.  0.
        5    1    3    3  502    0  0.83329882564E+03 -0.24770086832E+03 -0.74967299189E+03  0.11479435255E+04  0.46999998093E+01 0. -1.
       -5    1    3    3    0  502 -0.83329882564E+03  0.24770086832E+03  0.25645372780E+04  0.27078803876E+04  0.46999998093E+01 0.  1.
</event>
<event>
 5   0  0.1300176E-06  0.3364722E+04  0.7818609E-02  0.8146619E-01
       -2   -1    0    0    0  501  0.00000000000E+00  0.00000000000E+00  0.15389561030E+04  0.15389561030E+04  0.25500000920E-02 0.  1.
        2   -1    0    0  501    0  0.00000000000E+00  0.00000000000E+00 -0.18391286050E+04  0.18391286050E+04  0.25500000920E-02 0. -1.
    10030    2    1    2    0    0  0.00000000000E+00  0.00000000000E+00 -0.30017250198E+03  0.33780847081E+04  0.33647217959E+04 0.  0.
        1    1    3    3  502    0 -0.14254365162E+04 -0.40361888947E+03  0.65030051443E+03  0.16179209587E+04  0.50400001928E-02 0.  1.
       -1    1    3    3    0  502  0.14254365162E+04  0.40361888947E+03 -0.95047301641E+03  0.17601637493E+04  0.50400001928E-02 0. -1.
</event>
<event>
 5   0  0.4289684E-07  0.3423546E+04  0.7818609E-02  0.8132152E-01
       -1   -1    0    0    0  501  0.00000000000E+00  0.00000000000E+00  0.23070762962E+04  0.23070762962E+04  0.50400001928E-02 0. -1.
        1   -1    0    0  501    0  0.00000000000E+00  0.00000000000E+00 -0.12700777700E+04  0.12700777700E+04  0.50400001928E-02 0.  1.
    10030    2    1    2    0    0  0.00000000000E+00  0.00000000000E+00  0.10369985262E+04  0.35771540662E+04  0.34235457161E+04 0.  0.
        4    1    3    3  502    0  0.32174448333E+03  0.16746285668E+04  0.67440660853E+03  0.18337737690E+04  0.12699999809E+01 0. -1.
       -4    1    3    3    0  502 -0.32174448333E+03 -0.16746285668E+04  0.36259191772E+03  0.17433802973E+04  0.12699999809E+01 0.  1.
</event>
<event>
 5   0  0.4109937E-07  0.2802405E+04  0.7818609E-02  0.8302522E-01
        1   -1    0    0  501    0  0.00000000000E+00  0.00000000000E+00  0.14132718539E+04  0.14132718539E+04  0.50400001928E-02 0. -1.
       -1   -1    0    0    0  501  0.00000000000E+00  0.00000000000E+00 -0.13892361474E+04  0.13892361474E+04  0.50400001928E-02 0.  1.
    10030    2    1    2    0    0  0.00000000000E+00  0.00000000000E+00  0.24035706536E+02  0.28025080013E+04  0.28024049283E+04 0.  0.
        5    1    3    3  502    0 -0.46852603487E+03 -0.19344230229E+03 -0.12943263634E+04  0.13900501410E+04  0.46999998093E+01 0.  1.
       -5    1    3    3    0  502  0.46852603487E+03  0.19344230229E+03  0.13183620699E+04  0.14124578603E+04  0.46999998093E+01 0. -1.
</event>
<event>
 5   0  0.4464951E-07  0.3358170E+04  0.7818609E-02  0.8148250E-01
       -1   -1    0    0    0  501  0.00000000000E+00  0.00000000000E+00  0.17745998000E+04  0.17745998000E+04  0.50400001928E-02 0. -1.
        1   -1    0    0  501    0  0.00000000000E+00  0.00000000000E+00 -0.15887106837E+04  0.15887106837E+04  0.50400001928E-02 0.  1.
    10030    2    1    2    0    0  0.00000000000E+00  0.00000000000E+00  0.18588911634E+03  0.33633104838E+04  0.33581695381E+04 0.  0.
        3    1    3    3  502    0  0.82889265068E+03 -0.12872879146E+04 -0.59742372310E+03  0.16434988033E+04  0.10100000352E+00 0.  1.
       -3    1    3    3    0  502 -0.82889265068E+03  0.12872879146E+04  0.78331283944E+03  0.17198116804E+04  0.10100000352E+00 0. -1.
</event>
<event>
 5   0  0.1268230E-06  0.3389602E+04  0.7818609E-02  0.8140463E-01
        2   -1    0    0  501    0  0.00000000000E+00  0.00000000000E+00  0.16114347451E+04  0.16114347452E+04  0.25500000920E-02 0. -1.
       -2   -1    0    0    0  501  0.00000000000E+00  0.00000000000E+00 -0.17824799020E+04  0.17824799020E+04  0.25500000920E-02 0.  1.
    10030    2    1    2    0    0  0.00000000000E+00  0.00000000000E+00 -0.17104515689E+03  0.33939146472E+04  0.33896017741E+04 0.  0.
        2    1    3    3  502    0 -0.70187255512E+03  0.90764465123E+03 -0.13344693697E+04  0.17599012459E+04  0.25500000920E-02 0.  1.
       -2    1    3    3    0  502  0.70187255512E+03 -0.90764465123E+03  0.11634242129E+04  0.16340134013E+04  0.25500000920E-02 0. -1.
</event>
<event>
 5   0  0.4464951E-07  0.3438417E+04  0.7818609E-02  0.8128541E-01
       -1   -1    0    0    0  501  0.00000000000E+00  0.00000000000E+00  0.96685931566E+03  0.96685931567E+03  0.50400001928E-02 0. -1.
        1   -1    0    0  501    0  0.00000000000E+00  0.00000000000E+00 -0.30569882792E+04  0.30569882792E+04  0.50400001928E-02 0.  1.
    10030    2    1    2    0    0  0.00000000000E+00  0.00000000000E+00 -0.20901289635E+04  0.40238475948E+04  0.34384168424E+04 0.  0.
        3    1    3    3  502    0  0.29549441384E+03 -0.36366711541E+02 -0.30265902751E+04  0.30411984791E+04  0.10100000352E+00 0.  1.
       -3    1    3    3    0  502 -0.29549441384E+03  0.36366711541E+02  0.93646131156E+03  0.98264911569E+03  0.10100000352E+00 0. -1.
</event>
<event>
 5   0  0.4125758E-07  0.3441034E+04  0.7818609E-02  0.8127908E-01
        1   -1    0    0  501    0  0.00000000000E+00  0.00000000000E+00  0.21818633762E+04  0.21818633762E+04  0.50400001928E-02 0.  1.
       -1   -1    0    0    0  501  0.00000000000E+00  0.00000000000E+00 -0.13567206536E+04  0.13567206536E+04  0.50400001928E-02 0. -1.
    10030    2    1    2    0    0  0.00000000000E+00  0.00000000000E+00  0.82514272257E+03  0.35385840299E+04  0.34410342085E+04 0.  0.
        2    1    3    3  502    0  0.53651196429E+03  0.76921680664E+03  0.18959053391E+04  0.21151824125E+04  0.25500000920E-02 0.  1.
       -2    1    3    3    0  502 -0.53651196429E+03 -0.76921680664E+03 -0.10707626165E+04  0.14234016174E+04  0.25500000920E-02 0. -1.
</event>
<event>
 5   0  0.4289684E-07  0.3403715E+04  0.7818609E-02  0.8136995E-01
       -1   -1    0    0    0  501  0.00000000000E+00  0.00000000000E+00  0.11961862440E+04  0.11961862440E+04  0.50400001928E-02 0.  1.
        1   -1    0    0  501    0  0.00000000000E+00  0.00000000000E+00 -0.24212936598E+04  0.24212936598E+04  0.50400001928E-02 0. -1.
    10030    2    1    2    0    0  0.00000000000E+00  0.00000000000E+00 -0.12251074158E+04  0.36174799038E+04  0.34037145406E+04 0.  0.
        4    1    3    3  502    0  0.58155025743E+03  0.55894437745E+03  0.98012648900E+03  0.12693577377E+04  0.12699999809E+01 0.  1.
       -4    1    3    3    0  502 -0.58155025743E+03 -0.55894437745E+03 -0.22052339048E+04  0.23481221661E+04  0.12699999809E+01 0. -1.
</event>
<event>
 5   0  0.1256208E-06  0.3334668E+04  0.7818609E-02  0.8154130E-01
        2   -1    0    0  501    0  0.00000000000E+00  0.00000000000E+00  0.24673320387E+04  0.24673320387E+04  0.25500000920E-02 0. -1.
       -2   -1    0    0    0  501  0.00000000000E+00  0.00000000000E+00 -0.11267239227E+04  0.11267239227E+04  0.25500000920E-02 0.  1.
    10030    2    1    2    0    0  0.00000000000E+00  0.00000000000E+00  0.13406081159E+04  0.35940559614E+04  0.33346676196E+04 0.  0.
        3    1    3    3  502    0 -0.86902999797E+03  0.13773896398E+04  0.28532693109E+03  0.16534288085E+04  0.10100000352E+00 0.  1.
       -3    1    3    3    0  502  0.86902999797E+03 -0.13773896398E+04  0.10552811849E+04  0.19406271529E+04  0.10100000352E+00 0. -1.
</event>
<event>
 5   0  0.1256208E-06  0.3399867E+04  0.7818609E-02  0.8137939E-01
       -2   -1    0    0    0  501  0.00000000000E+00  0.00000000000E+00  0.17519016604E+04  0.17519016604E+04  0.25500000920E-02 0.  1.
        2   -1    0    0  501    0  0.00000000000E+00  0.00000000000E+00 -0.16495064784E+04  0.16495064784E+04  0.25500000920E-02 0. -1.
    10030    2    1    2    0    0  0.00000000000E+00  0.00000000000E+00  0.10239518200E+03  0.34014081387E+04  0.33998665493E+04 0.  0.
        3    1    3    3  502    0 -0.10442711602E+04 -0.12916545140E+04 -0.31076680207E+03  0.16898075793E+04  0.10100000352E+00 0.  1.
       -3    1    3    3    0  502  0.10442711602E+04  0.12916545140E+04  0.41316198407E+03  0.17116005594E+04  0.10100000352E+00 0. -1.
</event>
<event>
 5   0  0.4125758E-07  0.3389248E+04  0.7818609E-02  0.8140550E-01
        1   -1    0    0  501    0  0.00000000000E+00  0.00000000000E+00  0.22045128402E+04  0.22045128402E+04  0.50400001928E-02 0.  1.
       -1   -1    0    0    0  501  0.00000000000E+00  0.00000000000E+00 -0.13026690645E+04  0.13026690645E+04  0.50400001928E-02 0. -1.
    10030    2    1    2    0    0  0.00000000000E+00  0.00000000000E+00  0.90184377570E+03  0.35071819047E+04  0.33892481050E+04 0.  0.
        2    1    3    3  502    0  0.31492455642E+03 -0.93052050481E+03 -0.97796107831E+03  0.13861651261E+04  0.25500000920E-02 0. -1.
       -2    1    3    3    0  502 -0.31492455642E+03  0.93052050481E+03  0.18798048540E+04  0.21210167786E+04  0.25500000920E-02 0.  1.
</event>
<event>
 5   0  0.4109937E-07  0.3418635E+04  0.7818609E-02  0.8133348E-01
       -1   -1    0    0    0  501  0.00000000000E+00  0.00000000000E+00  0.14191424636E+04  0.14191424636E+04  0.50400001928E-02 0. -1.
        1   -1    0    0  501    0  0.00000000000E+00  0.00000000000E+00 -0.20588252950E+04  0.20588252950E+04  0.50400001928E-02 0.  1.
    10030    2    1    2    0    0  0.00000000000E+00  0.00000000000E+00 -0.63968283133E+03  0.34779677586E+04  0.34186350500E+04 0.  0.
        5    1    3    3  502    0 -0.87799404693E+02  0.16336827989E+04  0.18384323868E+03  0.16463440252E+04  0.46999998093E+01 0. -1.
       -5    1    3    3    0  502  0.87799404693E+02 -0.16336827989E+04 -0.82352607000E+03  0.18316237334E+04  0.46999998093E+01 0.  1.
</event>
<event>
 5   0  0.1269497E-06  0.3349911E+04  0.7818609E-02  0.8150311E-01
       -2   -1    0    0    0  501  0.00000000000E+00  0.00000000000E+00  0.11690204912E+04  0.11690204912E+04  0.25500000920E-02 0.  1.
        2   -1    0    0  501    0  0.00000000000E+00  0.00000000000E+00 -0.23998511327E+04  0.23998511327E+04  0.25500000920E-02 0. -1.
    10030    2    1    2    0    0  0.00000000000E+00  0.00000000000E+00 -0.12308306415E+04  0.35688716239E+04  0.33499105360E+04 0.  0.
        5    1    3    3  502    0 -0.31567638834E+03  0.13454505759E+04 -0.16236139109E+04  0.21321428321E+04  0.46999998093E+01 0. -1.
       -5    1    3    3    0  502  0.31567638834E+03 -0.13454505759E+04  0.39278326941E+03  0.14367287918E+04  0.46999998093E+01 0.  1.
</event>
<event>
 5   0  0.1300176E-06  0.3204914E+04  0.7818609E-02  0.8187521E-01
        2   -1    0    0  501    0  0.00000000000E+00  0.00000000000E+00  0.18589385364E+04  0.18589385364E+04  0.25500000920E-02 0.  1.
       -2   -1    0    0    0  501  0.00000000000E+00  0.00000000000E+00 -0.13813627369E+04  0.13813627369E+04  0.25500000920E-02 0. -1.
    10030    2    1    2    0    0  0.00000000000E+00  0.00000000000E+00  0.47757579948E+03  0.32403012732E+04  0.32049139922E+04 0.  0.
        1    1    3    3  502    0 -0.36561557299E+03  0.12738081075E+04  0.11496272662E+04  0.17543958200E+04  0.50400001928E-02 0.  1.
       -1    1    3    3    0  502  0.36561557299E+03 -0.12738081075E+04 -0.67205146670E+03  0.14859054532E+04  0.50400001928E-02 0. -1.
</event>
<event>
 5   0  0.4060750E-07  0.3357124E+04  0.7818609E-02  0.8148510E-01
        3   -1    0    0  501    0  0.00000000000E+00  0.00000000000E+00  0.12476181753E+04  0.12476181793E+04  0.10100000352E+00 0.  1.
       -3   -1    0    0    0  501  0.00000000000E+00  0.00000000000E+00 -0.22583600508E+04  0.22583600531E+04  0.10100000352E+00 0. -1.
    10030    2    1    2    0    0  0.00000000000E+00  0.00000000000E+00 -0.10107418756E+04  0.35059782324E+04  0.33571243985E+04 0.  0.
        5    1    3    3  502    0 -0.33418257206E+01  0.82162535178E+03  0.10232475688E+04  0.13123021998E+04  0.46999998093E+01 0.  1.
       -5    1    3    3    0  502  0.33418257206E+01 -0.82162535178E+03 -0.20339894444E+04  0.21936760327E+04  0.46999998093E+01 0. -1.
</event>
<event>
 5   0  0.4289684E-07  0.3342241E+04  0.7818609E-02  0.8152230E-01
        1   -1    0    0  501    0  0.00000000000E+00  0.00000000000E+00  0.19865335393E+04  0.19865335393E+04  0.50400001928E-02 0. -1.
       -1   -1    0    0    0  501  0.00000000000E+00  0.00000000000E+00 -0.14057874399E+04  0.14057874399E+04  0.50400001928E-02 0.  1.
    10030    2    1    2    0    0  0.00000000000E+00  0.00000000000E+00  0.58074609936E+03  0.33923209792E+04  0.33422411035E+04 0.  0.
        4    1    3    3  502    0 -0.44359542410E+03  0.13983034837E+04  0.11027488020E+04  0.18352346080E+04  0.12699999809E+01 0. -1.
       -4    1    3    3    0  502  0.44359542410E+03 -0.13983034837E+04 -0.52200270269E+03  0.15570863712E+04  0.12699999809E+01 0.  1.
</event>
<event>
 5   0  0.1277635E-06  0.3378228E+04  0.7818609E-02  0.8143271E-01
       -2   -1    0    0    0  501  0.00000000000E+00  0.00000000000E+00  0.16429575405E+04  0.16429575405E+04  0.25500000920E-02 0.  1.
        2   -1    0    0  501    0  0.00000000000E+00  0.00000000000E+00 -0.17365667494E+04  0.17365667494E+04  0.25500000920E-02 0. -1.
    10030    2    1    2    0    0  0.00000000000E+00  0.00000000000E+00 -0.93609208839E+02  0.33795242899E+04  0.33782276036E+04 0.  0.
        4    1    3    3  502    0  0.14674536065E+04  0.70985944336E+03 -0.48944851590E+03  0.17020229079E+04  0.12699999809E+01 0. -1.
       -4    1    3    3    0  502 -0.14674536065E+04 -0.70985944336E+03  0.39583930706E+03  0.16775013819E+04  0.12699999809E+01 0.  1.
</event>
<event>
 5   0  0.1256208E-06  0.3431389E+04  0.7818609E-02  0.8130245E-01
       -2   -1    0    0    0  501  0.00000000000E+00  0.00000000000E+00  0.16945333450E+04  0.16945333451E+04  0.25500000920E-02 0.  1.
        2   -1    0    0  501    0  0.00000000000E+00  0.00000000000E+00 -0.17371195601E+04  0.17371195601E+04  0.25500000920E-02 0. -1.
    10030    2    1    2    0    0  0.00000000000E+00  0.00000000000E+00 -0.42586215042E+02  0.34316529051E+04  0.34313886512E+04 0.  0.
        3    1    3    3  502    0 -0.29991676358E+03  0.47867093954E+03 -0.16414583229E+04  0.17359324208E+04  0.10100000352E+00 0. -1.
       -3    1    3    3    0  502  0.29991676358E+03 -0.47867093954E+03  0.15988721079E+04  0.16957204843E+04  0.10100000352E+00 0.  1.
</event>
<event>
 5   0  0.1269497E-06  0.3388620E+04  0.7818609E-02  0.8140705E-01
       -2   -1    0    0    0  501  0.00000000000E+00  0.00000000000E+00  0.13112358502E+04  0.13112358502E+04  0.25500000920E-02 0. -1.
        2   -1    0    0  501    0  0.00000000000E+00  0.00000000000E+00 -0.21892983216E+04  0.21892983216E+04  0.25500000920E-02 0.  1.
    10030    2    1    2    0    0  0.00000000000E+00  0.00000000000E+00 -0.87806247137E+03  0.35005341718E+04  0.33886200413E+04 0.  0.
        5    1    3    3  502    0  0.75442892961E+03  0.24645916005E+03  0.11073231961E+04  0.13623846293E+04  0.46999998093E+01 0. -1.
       -5    1    3    3    0  502 -0.75442892961E+03 -0.24645916005E+03 -0.19853856675E+04  0.21381495425E+04  0.46999998093E+01 0.  1.
</event>
<event>
 5   0  0.1269497E-06  0.2899048E+04  0.7818609E-02  0.8273161E-01
        2   -1    0    0  501    0  0.00000000000E+00  0.00000000000E+00  0.15157821379E+04  0.15157821379E+04  0.25500000920E-02 0. -1.
       -2   -1    0    0    0  501  0.00000000000E+00  0.00000000000E+00 -0.13861622878E+04  0.13861622878E+04  0.25500000920E-02 0.  1.
    10030    2    1    2    0    0  0.00000000000E+00  0.00000000000E+00  0.12961985005E+03  0.29019444257E+04  0.28990481445E+04 0.  0.
        5    1    3    3  502    0  0.36878456269E+03  0.10211777113E+04  0.10261297044E+04  0.14939110522E+04  0.46999998093E+01 0. -1.
       -5    1    3    3    0  502 -0.36878456269E+03 -0.10211777113E+04 -0.89650985435E+03  0.14080333734E+04  0.46999998093E+01 0.  1.
</event>
<event>
 5   0  0.1269497E-06  0.3397353E+04  0.7818609E-02  0.8138556E-01
        2   -1    0    0  501    0  0.00000000000E+00  0.00000000000E+00  0.26043150413E+04  0.26043150413E+04  0.25500000920E-02 0. -1.
       -2   -1    0    0    0  501  0.00000000000E+00  0.00000000000E+00 -0.11079697810E+04  0.11079697810E+04  0.25500000920E-02 0.  1.
    10030    2    1    2    0    0  0.00000000000E+00  0.00000000000E+00  0.14963452604E+04  0.37122848223E+04  0.33973533027E+04 0.  0.
        5    1    3    3  502    0  0.59602477064E+03 -0.71536442138E+02 -0.98819369330E+03  0.11562490455E+04  0.46999998093E+01 0.  1.
       -5    1    3    3    0  502 -0.59602477064E+03  0.71536442138E+02  0.24845389537E+04  0.25560357768E+04  0.46999998093E+01 0. -1.
</event>
<event>
 5   0  0.4109937E-07  0.3404541E+04  0.7818609E-02  0.8136793E-01
       -1   -1    0    0    0  501  0.00000000000E+00  0.00000000000E+00  0.29663199359E+04  0.29663199359E+04  0.50400001928E-02 0. -1.
        1   -1    0    0  501    0  0.00000000000E+00  0.00000000000E+00 -0.97687546020E+03  0.97687546021E+03  0.50400001928E-02 0.  1.
    10030    2    1    2    0    0  0.00000000000E+00  0.00000000000E+00  0.19894444757E+04  0.39431953961E+04  0.34045411747E+04 0.  0.
        5    1    3    3  502    0 -0.53805469987E+03 -0.15565046954E+04  0.49589074650E+03  0.17199242568E+04  0.46999998093E+01 0. -1.
       -5    1    3    3    0  502  0.53805469987E+03  0.15565046954E+04  0.14935537292E+04  0.22232711393E+04  0.46999998093E+01 0.  1.
</event>
<event>
 5   0  0.1300176E-06  0.3407947E+04  0.7818609E-02  0.8135959E-01
       -2   -1    0    0    0  501  0.00000000000E+00  0.00000000000E+00  0.18957205773E+04  0.18957205773E+04  0.25500000920E-02 0. -1.
        2   -1    0    0  501    0  0.00000000000E+00  0.00000000000E+00 -0.15316211696E+04  0.15316211696E+04  0.25500000920E-02 0.  1.
    10030    2    1    2    0    0  0.00000000000E+00  0.00000000000E+00  0.36409940772E+03  0.34273417470E+04  0.34079470465E+04 0.  0.
        1    1    3    3  502    0  0.11688739876E+04  0.70126377424E+03 -0.84626063066E+03  0.16044295980E+04  0.50400001928E-02 0.  1.
       -1    1    3    3    0  502 -0.11688739876E+04 -0.70126377424E+03  0.12103600384E+04  0.18229121489E+04  0.50400001928E-02 0. -1.
</event>
<event>
 5   0  0.4125758E-07  0.3404256E+04  0.7818609E-02  0.8136862E-01
       -1   -1    0    0    0  501  0.00000000000E+00  0.00000000000E+00  0.12364267289E+04  0.12364267289E+04  0.50400001928E-02 0. -1.
        1   -1    0    0  501    0  0.00000000000E+00  0.00000000000E+00 -0.23432364688E+04  0.23432364688E+04  0.50400001928E-02 0.  1.
    10030    2    1    2    0    0  0.00000000000E+00  0.00000000000E+00 -0.11068097400E+04  0.35796631977E+04  0.34042562783E+04 0.  0.
        2    1    3    3  502    0 -0.13330875976E+04 -0.19187913333E+03  0.54104104047E+03  0.14514356865E+04  0.25500000920E-02 0. -1.
       -2    1    3    3    0  502  0.13330875976E+04  0.19187913333E+03 -0.16478507805E+04  0.21282275112E+04  0.25500000920E-02 0.  1.
</event>
<event>
 5   0  0.4289684E-07  0.3502008E+04  0.7818609E-02  0.8113314E-01
       -1   -1    0    0    0  501  0.00000000000E+00  0.00000000000E+00  0.17651118852E+04  0.17651118852E+04  0.50400001928E-02 0. -1.
        1   -1    0    0  501    0  0.00000000000E+00  0.00000000000E+00 -0.17370087048E+04  0.17370087048E+04  0.50400001928E-02 0.  1.
    10030    2    1    2    0    0  0.00000000000E+00  0.00000000000E+00  0.28103180346E+02  0.35021205900E+04  0.35020078295E+04 0.  0.
        4    1    3    3  502    0 -0.50933184704E+03  0.15630652951E+04 -0.58881195438E+03  0.17462225453E+04  0.12699999809E+01 0.  1.
       -4    1    3    3    0  502  0.50933184704E+03 -0.15630652951E+04  0.61691513473E+03  0.17558980447E+04  0.12699999809E+01 0. -1.
</event>
<event>
 5   0  0.4464951E-07  0.3427638E+04  0.7818609E-02  0.8131156E-01
        1   -1    0    0  501    0  0.00000000000E+00  0.00000000000E+00  0.16060481336E+04  0.16060481336E+04  0.50400001928E-02 0. -1.
       -1   -1    0    0    0  501  0.00000000000E+00  0.00000000000E+00 -0.18288217593E+04  0.18288217593E+04  0.50400001928E-02 0.  1.
    10030    2    1    2    0    0  0.00000000000E+00  0.00000000000E+00 -0.22277362570E+03  0.34348698930E+04  0.34276381217E+04 0.  0.
        3    1    3    3  502    0 -0.29491402925E+03  0.16537849704E+04  0.22873574842E+03  0.16953757889E+04  0.10100000352E+00 0. -1.
       -3    1    3    3    0  502  0.29491402925E+03 -0.16537849704E+04 -0.45150937412E+03  0.17394941041E+04  0.10100000352E+00 0.  1.
</event>
<event>
 5   0  0.1300176E-06  0.3325784E+04  0.7818609E-02  0.8156365E-01
        2   -1    0    0  501    0  0.00000000000E+00  0.00000000000E+00  0.11406828222E+04  0.11406828222E+04  0.25500000920E-02 0.  1.
       -2   -1    0    0    0  501  0.00000000000E+00  0.00000000000E+00 -0.24241708021E+04  0.24241708021E+04  0.25500000920E-02 0. -1.
    10030    2    1    2    0    0  0.00000000000E+00  0.00000000000E+00 -0.12834879799E+04  0.35648536243E+04  0.33257841132E+04 0.  0.
        1    1    3    3  502    0 -0.13983355923E+04  0.68260398112E+03 -0.13141691299E+02  0.15561051789E+04  0.50400001928E-02 0.  1.
       -1    1    3    3    0  502  0.13983355923E+04 -0.68260398112E+03 -0.12703462886E+04  0.20087484454E+04  0.50400001928E-02 0. -1.
</event>
<event>
 5   0  0.4289684E-07  0.3483359E+04  0.7818609E-02  0.8117745E-01
        1   -1    0    0  501    0  0.00000000000E+00  0.00000000000E+00  0.16622937223E+04  0.16622937223E+04  0.50400001928E-02 0.  1.
       -1   -1    0    0    0  501  0.00000000000E+00  0.00000000000E+00 -0.18248563910E+04  0.18248563910E+04  0.50400001928E-02 0. -1.
    10030    2    1    2    0    0  0.00000000000E+00  0.00000000000E+00 -0.16256266869E+03  0.34871501132E+04  0.34833589093E+04 0.  0.
        4    1    3    3  502    0 -0.11087208712E+04  0.12845802829E+04  0.31162160489E+03  0.17252588533E+04  0.12699999809E+01 0.  1.
       -4    1    3    3    0  502  0.11087208712E+04 -0.12845802829E+04 -0.47418427358E+03  0.17618912599E+04  0.12699999809E+01 0. -1.
</event>
<event>
 5   0  0.4289684E-07  0.3497535E+04  0.7818609E-02  0.8114374E-01
       -1   -1    0    0    0  501  0.00000000000E+00  0.00000000000E+00  0.15910927981E+04  0.15910927982E+04  0.50400001928E-02 0.  1.
        1   -1    0    0  501    0  0.00000000000E+00  0.00000000000E+00 -0.19220669605E+04  0.19220669605E+04  0.50400001928E-02 0. -1.
    10030    2    1    2    0    0  0.00000000000E+00  0.00000000000E+00 -0.33097416233E+03  0.35131597586E+04  0.34975345021E+04 0.  0.
        4    1    3    3  502    0 -0.60539320989E+03 -0.15927258444E+04 -0.56082988776E+03  0.17938250555E+04  0.12699999809E+01 0. -1.
       -4    1    3    3    0  502  0.60539320989E+03  0.15927258444E+04  0.22985572544E+03  0.17193347031E+04  0.12699999809E+01 0.  1.
</event>
<event>
 5   0  0.4109937E-07  0.3433784E+04  0.7818609E-02  0.8129664E-01
       -1   -1    0    0    0  501  0.00000000000E+00  0.00000000000E+00  0.14849493077E+04  0.14849493077E+04  0.50400001928E-02 0.  1.
        1   -1    0    0  501    0  0.00000000000E+00  0.00000000000E+00 -0.19850626715E+04  0.19850626715E+04  0.50400001928E-02 0. -1.
    10030    2    1    2    0    0  0.00000000000E+00  0.00000000000E+00 -0.50011336379E+03  0.34700119792E+04  0.34337835923E+04 0.  0.
        5    1    3    3  502    0 -0.71849948813E+03  0.14879321744E+04  0.22124538475E+03  0.16670798662E+04  0.46999998093E+01 0.  1.
       -5    1    3    3    0  502  0.71849948813E+03 -0.14879321744E+04 -0.72135874854E+03  0.18029321130E+04  0.46999998093E+01 0. -1.
</event>
<event>
 5   0  0.1268230E-06  0.3333973E+04  0.7818609E-02  0.8154304E-01
        2   -1    0    0  501    0  0.00000000000E+00  0.00000000000E+00  0.91488989458E+03  0.91488989459E+03  0.25500000920E-02 0. -1.
       -2   -1    0    0    0  501  0.00000000000E+00  0.00000000000E+00 -0.30373533139E+04  0.30373533139E+04  0.25500000920E-02 0.  1.
    10030    2    1    2    0    0  0.00000000000E+00  0.00000000000E+00 -0.21224634194E+04  0.39522432085E+04  0.33339729172E+04 0.  0.
        2    1    3    3  502    0  0.62611078069E+03  0.12813921796E+03  0.76389609899E+03  0.99597772010E+03  0.25500000920E-02 0. -1.
       -2    1    3    3    0  502 -0.62611078069E+03 -0.12813921796E+03 -0.28863595183E+04  0.29562654884E+04  0.25500000920E-02 0.  1.
</event>
<event>
 5   0  0.1277635E-06  0.3387961E+04  0.7818609E-02  0.8140867E-01
       -2   -1    0    0    0  501  0.00000000000E+00  0.00000000000E+00  0.12061218203E+04  0.12061218203E+04  0.25500000920E-02 0.  1.
        2   -1    0    0  501    0  0.00000000000E+00  0.00000000000E+00 -0.23791715875E+04  0.23791715875E+04  0.25500000920E-02 0. -1.
    10030    2    1    2    0    0  0.00000000000E+00  0.00000000000E+00 -0.11730497673E+04  0.35852934078E+04  0.33879614909E+04 0.  0.
        4    1    3    3  502    0 -0.78505539878E+03  0.76660755465E+03 -0.19522638048E+04  0.22394942953E+04  0.12699999809E+01 0. -1.
       -4    1    3    3    0  502  0.78505539878E+03 -0.76660755465E+03  0.77921403758E+03  0.13457991125E+04  0.12699999809E+01 0.  1.
</event>
<event>
 5   0  0.1269497E-06  0.3357518E+04  0.7818609E-02  0.8148412E-01
       -2   -1    0    0    0  501  0.00000000000E+00  0.00000000000E+00  0.10858913920E+04  0.10858913920E+04  0.25500000920E-02 0.  1.
        2   -1    0    0  501    0  0.00000000000E+00  0.00000000000E+00 -0.25953166856E+04  0.25953166856E+04  0.25500000920E-02 0. -1.
    10030    2    1    2    0    0  0.00000000000E+00  0.00000000000E+00 -0.15094252937E+04  0.36812080776E+04  0.33575181598E+04 0.  0.
        5    1    3    3  502    0  0.53653569312E+03  0.87185122900E+03 -0.22134764718E+04  0.24387487153E+04  0.46999998093E+01 0. -1.
       -5    1    3    3    0  502 -0.53653569312E+03 -0.87185122900E+03  0.70405117809E+03  0.12424593623E+04  0.46999998093E+01 0.  1.
</event>
<event>
 5   0  0.1256208E-06  0.3400756E+04  0.7818609E-02  0.8137721E-01
        2   -1    0    0  501    0  0.00000000000E+00  0.00000000000E+00  0.14864218375E+04  0.14864218375E+04  0.25500000920E-02 0.  1.
       -2   -1    0    0    0  501  0.00000000000E+00  0.00000000000E+00 -0.19451315479E+04  0.19451315479E+04  0.25500000920E-02 0. -1.
    10030    2    1    2    0    0  0.00000000000E+00  0.00000000000E+00 -0.45870971045E+03  0.34315533854E+04  0.34007563921E+04 0.  0.
        3    1    3    3  502    0  0.83201784748E+01 -0.41080157104E+03 -0.18942845460E+04  0.19383346222E+04  0.10100000352E+00 0. -1.
       -3    1    3    3    0  502 -0.83201784748E+01  0.41080157104E+03  0.14355748355E+04  0.14932187632E+04  0.10100000352E+00 0.  1.
</event>
<event>
 5   0  0.1269497E-06  0.3391330E+04  0.7818609E-02  0.8140038E-01
        2   -1    0    0  501    0  0.00000000000E+00  0.00000000000E+00  0.14143924400E+04  0.14143924400E+04  0.25500000920E-02 0. -1.
       -2   -1    0    0    0  501  0.00000000000E+00  0.00000000000E+00 -0.20328722250E+04  0.20328722250E+04  0.25500000920E-02 0.  1.
    10030    2    1    2    0    0  0.00000000000E+00  0.00000000000E+00 -0.61847978496E+03  0.34472646650E+04  0.33913295956E+04 0.  0.
        5    1    3    3  502    0  0.12155804674E+04  0.11389920484E+04  0.12714694800E+02  0.16658698967E+04  0.46999998093E+01 0. -1.
       -5    1    3    3    0  502 -0.12155804674E+04 -0.11389920484E+04 -0.63119447976E+03  0.17813947683E+04  0.46999998093E+01 0.  1.
</event>
<event>
 5   0  0.1268230E-06  0.3393124E+04  0.7818609E-02  0.8139596E-01
        2   -1    0    0  501    0  0.00000000000E+00  0.00000000000E+00  0.17451373211E+04  0.17451373211E+04  0.25500000920E-02 0.  1.
       -2   -1    0    0    0  501  0.00000000000E+00  0.00000000000E+00 -0.16493385255E+04  0.16493385255E+04  0.25500000920E-02 0. -1.
    10030    2    1    2    0    0  0.00000000000E+00  0.00000000000E+00  0.95798795580E+02  0.33944758466E+04  0.33931237620E+04 0.  0.
        2    1    3    3  502    0 -0.81020146799E+03 -0.14520106496E+04 -0.28922282296E+03  0.16877236701E+04  0.25500000920E-02 0. -1.
       -2    1    3    3    0  502  0.81020146799E+03  0.14520106496E+04  0.38502161854E+03  0.17067521765E+04  0.25500000920E-02 0.  1.
</event>
<event>
 5   0  0.4272633E-07  0.3315516E+04  0.7818609E-02  0.8158958E-01
       -1   -1    0    0    0  501  0.00000000000E+00  0.00000000000E+00  0.27604471841E+04  0.27604471841E+04  0.50400001928E-02 0. -1.
        1   -1    0    0  501    0  0.00000000000E+00  0.00000000000E+00 -0.99554963199E+03  0.99554963200E+03  0.50400001928E-02 0.  1.
    10030    2    1    2    0    0  0.00000000000E+00  0.00000000000E+00  0.17648975521E+04  0.37559968161E+04  0.33155163569E+04 0.  0.
        1    1    3    3  502    0 -0.69523182699E+03 -0.11411183194E+04 -0.22905610962E+03  0.13557156831E+04  0.50400001928E-02 0.  1.
       -1    1    3    3    0  502  0.69523182699E+03  0.11411183194E+04  0.19939536617E+04  0.24002811329E+04  0.50400001928E-02 0. -1.
</event>
<event>
 5   0  0.4289684E-07  0.3347686E+04  0.7818609E-02  0.8150867E-01
       -1   -1    0    0    0  501  0.00000000000E+00  0.00000000000E+00  0.27576318620E+04  0.27576318620E+04  0.50400001928E-02 0. -1.
        1   -1    0    0  501    0  0.00000000000E+00  0.00000000000E+00 -0.10159987305E+04  0.10159987305E+04  0.50400001928E-02 0.  1.
    10030    2    1    2    0    0  0.00000000000E+00  0.00000000000E+00  0.17416331315E+04  0.37736305925E+04  0.33476860492E+04 0.  0.
        4    1    3    3  502    0 -0.33008884007E+03  0.99239666273E+03 -0.60234659334E+03  0.12069104399E+04  0.12699999809E+01 0.  1.
       -4    1    3    3    0  502  0.33008884007E+03 -0.99239666273E+03  0.23439797248E+04  0.25667201526E+04  0.12699999809E+01 0. -1.
</event>
<event>
 5   0  0.1277635E-06  0.3616024E+04  0.7818609E-02  0.8086831E-01
        2   -1    0    0  501    0  0.00000000000E+00  0.00000000000E+00  0.14023222542E+04  0.14023222542E+04  0.25500000920E-02 0. -1.
       -2   -1    0    0    0  501  0.00000000000E+00  0.00000000000E+00 -0.23310675930E+04  0.23310675930E+04  0.25500000920E-02 0.  1.
    10030    2    1    2    0    0  0.00000000000E+00  0.00000000000E+00 -0.92874533881E+03  0.37333898473E+04  0.36160243151E+04 0.  0.
        4    1    3    3  502    0 -0.68787360176E+03  0.16233345560E+04 -0.87802756334E+03  0.19695987377E+04  0.12699999809E+01 0.  1.
       -4    1    3    3    0  502  0.68787360176E+03 -0.16233345560E+04 -0.50717775465E+02  0.17637911096E+04  0.12699999809E+01 0. -1.
</event>
<event>
 5   0  0.1277635E-06  0.3410016E+04  0.7818609E-02  0.8135452E-01
        2   -1    0    0  501    0  0.00000000000E+00  0.00000000000E+00  0.23318408649E+04  0.23318408649E+04  0.25500000920E-02 0.  1.
       -2   -1    0    0    0  501  0.00000000000E+00  0.00000000000E+00 -0.12466772079E+04  0.12466772079E+04  0.25500000920E-02 0. -1.
    10030    2    1    2    0    0  0.00000000000E+00  0.00000000000E+00  0.10851636570E+04  0.35785180728E+04  0.34100163394E+04 0.  0.
        4    1    3    3  502    0  0.82696198996E+03 -0.67694142330E+03 -0.85157350556E+03  0.13664899823E+04  0.12699999809E+01 0. -1.
       -4    1    3    3    0  502 -0.82696198996E+03  0.67694142330E+03  0.19367371625E+04  0.22120280905E+04  0.12699999809E+01 0.  1.
</event>
<event>
 5   0  0.4125758E-07  0.3417490E+04  0.7818609E-02  0.8133627E-01
        1   -1    0    0  501    0  0.00000000000E+00  0.00000000000E+00  0.24177182882E+04  0.24177182882E+04  0.50400001928E-02 0. -1.
       -1   -1    0    0    0  501  0.00000000000E+00  0.00000000000E+00 -0.12076713584E+04  0.12076713584E+04  0.50400001928E-02 0.  1.
    10030    2    1    2    0    0  0.00000000000E+00  0.00000000000E+00  0.12100469298E+04  0.36253896466E+04  0.34174897977E+04 0.  0.
        2    1    3    3  502    0  0.63944246164E+03  0.17428697816E+03 -0.10657637804E+04  0.12550358753E+04  0.25500000920E-02 0.  1.
       -2    1    3    3    0  502 -0.63944246164E+03 -0.17428697816E+03  0.22758107103E+04  0.23703537714E+04  0.25500000920E-02 0. -1.
</event>
<event>
 5   0  0.4125758E-07  0.3383641E+04  0.7818609E-02  0.8141933E-01
       -1   -1    0    0    0  501  0.00000000000E+00  0.00000000000E+00  0.18509519873E+04  0.18509519873E+04  0.50400001928E-02 0. -1.
        1   -1    0    0  501    0  0.00000000000E+00  0.00000000000E+00 -0.15463699476E+04  0.15463699476E+04  0.50400001928E-02 0.  1.
    10030    2    1    2    0    0  0.00000000000E+00  0.00000000000E+00  0.30458203971E+03  0.33973219349E+04  0.33836409548E+04 0.  0.
        2    1    3    3  502    0  0.16159945874E+04  0.49018515511E+03  0.25535367687E+03  0.17079009026E+04  0.25500000920E-02 0. -1.
       -2    1    3    3    0  502 -0.16159945874E+04 -0.49018515511E+03  0.49228362842E+02  0.16894210323E+04  0.25500000920E-02 0.  1.
</event>
<event>
 5   0  0.1268230E-06  0.3388381E+04  0.7818609E-02  0.8140764E-01
        2   -1    0    0  501    0  0.00000000000E+00  0.00000000000E+00  0.19382201685E+04  0.19382201685E+04  0.25500000920E-02 0.  1.
       -2   -1    0    0    0  501  0.00000000000E+00  0.00000000000E+00 -0.14808855297E+04  0.14808855297E+04  0.25500000920E-02 0. -1.
    10030    2    1    2    0    0  0.00000000000E+00  0.00000000000E+00  0.45733463879E+03  0.34191056982E+04  0.33883814431E+04 0.  0.
        2    1    3    3  502    0 -0.95711467134E+03  0.37462791412E+03  0.15876784940E+04  0.18913322205E+04  0.25500000920E-02 0.  1.
       -2    1    3    3    0  502  0.95711467134E+03 -0.37462791412E+03 -0.11303438552E+04  0.15277734777E+04  0.25500000920E-02 0. -1.
</event>
<event>
 5   0  0.1256208E-06  0.3397739E+04  0.7818609E-02  0.8138462E-01
       -2   -1    0    0    0  501  0.00000000000E+00  0.00000000000E+00  0.10015406726E+04  0.10015406726E+04  0.25500000920E-02 0.  1.
        2   -1    0    0  501    0  0.00000000000E+00  0.00000000000E+00 -0.28817174922E+04  0.28817174922E+04  0.25500000920E-02 0. -1.
    10030    2    1    2    0    0  0.00000000000E+00  0.00000000000E+00 -0.18801768195E+04  0.38832581648E+04  0.33977388219E+04 0.  0.
        3    1    3    3  502    0  0.59973851319E+02  0.65073537755E+02  0.99890462823E+03  0.10028169796E+04  0.10100000352E+00 0.  1.
       -3    1    3    3    0  502 -0.59973851319E+02 -0.65073537755E+02 -0.28790814478E+04  0.28804411852E+04  0.10100000352E+00 0. -1.
</event>
<event>
 5   0  0.1268230E-06  0.3309354E+04  0.7818609E-02  0.8160519E-01
        2   -1    0    0  501    0  0.00000000000E+00  0.00000000000E+00  0.14801046348E+04  0.14801046348E+04  0.25500000920E-02 0.  1.
       -2   -1    0    0    0  501  0.00000000000E+00  0.00000000000E+00 -0.18498399758E+04  0.18498399758E+04  0.25500000920E-02 0. -1.
    10030    2    1    2    0    0  0.00000000000E+00  0.00000000000E+00 -0.36973534100E+03  0.33299446106E+04  0.33093544518E+04 0.  0.
        2    1    3    3  502    0  0.43681295830E+02  0.10021764964E+04  0.11392571193E+04  0.15179501209E+04  0.25500000920E-02 0.  1.
       -2    1    3    3    0  502 -0.43681295830E+02 -0.10021764964E+04 -0.15089924603E+04  0.18119944897E+04  0.25500000920E-02 0. -1.
</event>
<event>
 5   0  0.1300176E-06  0.3381680E+04  0.7818609E-02  0.8142417E-01
       -2   -1    0    0    0  501  0.00000000000E+00  0.00000000000E+00  0.14399800062E+04  0.14399800062E+04  0.25500000920E-02 0. -1.
        2   -1    0    0  501    0  0.00000000000E+00  0.00000000000E+00 -0.19854026455E+04  0.19854026455E+04  0.25500000920E-02 0.  1.
    10030    2    1    2    0    0  0.00000000000E+00  0.00000000000E+00 -0.54542263926E+03  0.34253826517E+04  0.33816801231E+04 0.  0.
        1    1    3    3  502    0 -0.78266219572E+03 -0.13522763870E+04 -0.92738316015E+03  0.18169345242E+04  0.50400001928E-02 0.  1.
       -1    1    3    3    0  502  0.78266219572E+03  0.13522763870E+04  0.38196052090E+03  0.16084481275E+04  0.50400001928E-02 0. -1.
</event>
<event>
 5   0  0.4109937E-07  0.3400188E+04  0.7818609E-02  0.8137860E-01
       -1   -1    0    0    0  501  0.00000000000E+00  0.00000000000E+00  0.16199970769E+04  0.16199970769E+04  0.50400001928E-02 0.  1.
        1   -1    0    0  501    0  0.00000000000E+00  0.00000000000E+00 -0.17841514283E+04  0.17841514283E+04  0.50400001928E-02 0. -1.
    10030    2    1    2    0    0  0.00000000000E+00  0.00000000000E+00 -0.16415435139E+03  0.34041485051E+04  0.34001882880E+04 0.  0.
        5    1    3    3  502    0  0.16595914719E+03  0.11011302029E+04 -0.13682009007E+04  0.17640935228E+04  0.46999998093E+01 0. -1.
       -5    1    3    3    0  502 -0.16595914719E+03 -0.11011302029E+04  0.12040465494E+04  0.16400549824E+04  0.46999998093E+01 0.  1.
</event>
<event>
 5   0  0.1269497E-06  0.3382530E+04  0.7818609E-02  0.8142207E-01
        2   -1    0    0  501    0  0.00000000000E+00  0.00000000000E+00  0.23717426928E+04  0.23717426928E+04  0.25500000920E-02 0.  1.
       -2   -1    0    0    0  501  0.00000000000E+00  0.00000000000E+00 -0.12060232742E+04  0.12060232742E+04  0.25500000920E-02 0. -1.
    10030    2    1    2    0    0  0.00000000000E+00  0.00000000000E+00  0.11657194186E+04  0.35777659671E+04  0.33825297563E+04 0.  0.
        5    1    3    3  502    0  0.85238053752E+02 -0.58201937167E+03 -0.10943313562E+04  0.12424151005E+04  0.46999998093E+01 0. -1.
       -5    1    3    3    0  502 -0.85238053752E+02  0.58201937167E+03  0.22600507749E+04  0.23353508665E+04  0.46999998093E+01 0.  1.
</event>
<event>
 5   0  0.1277635E-06  0.3419926E+04  0.7818609E-02  0.8133033E-01
        2   -1    0    0  501    0  0.00000000000E+00  0.00000000000E+00  0.13475215301E+04  0.13475215301E+04  0.25500000920E-02 0.  1.
       -2   -1    0    0    0  501  0.00000000000E+00  0.00000000000E+00 -0.21698905555E+04  0.21698905555E+04  0.25500000920E-02 0. -1.
    10030    2    1    2    0    0  0.00000000000E+00  0.00000000000E+00 -0.82236902545E+03  0.35174120856E+04  0.34199264562E+04 0.  0.
        4    1    3    3  502    0  0.14613066786E+03  0.16679177976E+04 -0.53908581343E+02  0.16751751251E+04  0.12699999809E+01 0.  1.
       -4    1    3    3    0  502 -0.14613066786E+03 -0.16679177976E+04 -0.76846044410E+03  0.18422369605E+04  0.12699999809E+01 0. -1.
</event>
<event>
 5   0  0.1268230E-06  0.3416882E+04  0.7818609E-02  0.8133775E-01
       -2   -1    0    0    0  501  0.00000000000E+00  0.00000000000E+00  0.19776902464E+04  0.19776902464E+04  0.25500000920E-02 0. -1.
        2   -1    0    0  501    0  0.00000000000E+00  0.00000000000E+00 -0.14758478636E+04  0.14758478636E+04  0.25500000920E-02 0.  1.
    10030    2    1    2    0    0  0.00000000000E+00  0.00000000000E+00  0.50184238281E+03  0.34535381101E+04  0.34168815755E+04 0.  0.
        2    1    3    3  502    0 -0.16884114989E+03  0.15954579913E+04 -0.34255470416E+03  0.16405295673E+04  0.25500000920E-02 0.  1.
       -2    1    3    3    0  502  0.16884114989E+03 -0.15954579913E+04  0.84439708697E+03  0.18130085428E+04  0.25500000920E-02 0. -1.
</event>
<event>
 5   0  0.4109937E-07  0.3437511E+04  0.7818609E-02  0.8128761E-01
        1   -1    0    0  501    0  0.00000000000E+00  0.00000000000E+00  0.18695590262E+04  0.18695590262E+04  0.50400001928E-02 0.  1.
       -1   -1    0    0    0  501  0.00000000000E+00  0.00000000000E+00 -0.15801157727E+04  0.15801157727E+04  0.50400001928E-02 0. -1.
    10030    2    1    2    0    0  0.00000000000E+00  0.00000000000E+00  0.28944325349E+03  0.34496747988E+04  0.34375105557E+04 0.  0.
        5    1    3    3  502    0  0.67022305461E+03 -0.54320676824E+03  0.16365300830E+04  0.18500068482E+04  0.46999998093E+01 0.  1.
       -5    1    3    3    0  502 -0.67022305461E+03  0.54320676824E+03 -0.13470868295E+04  0.15996679506E+04  0.46999998093E+01 0. -1.
</event>
<event>
 5   0  0.4109937E-07  0.3393973E+04  0.7818609E-02  0.8139387E-01
       -1   -1    0    0    0  501  0.00000000000E+00  0.00000000000E+00  0.14977311678E+04  0.14977311678E+04  0.50400001928E-02 0. -1.
        1   -1    0    0  501    0  0.00000000000E+00  0.00000000000E+00 -0.19227503213E+04  0.19227503213E+04  0.50400001928E-02 0.  1.
    10030    2    1    2    0    0  0.00000000000E+00  0.00000000000E+00 -0.42501915351E+03  0.34204814891E+04  0.33939729428E+04 0.  0.
        5    1    3    3  502    0 -0.11026649779E+03  0.16892648408E+04 -0.93406198081E+02  0.16954413026E+04  0.46999998093E+01 0.  1.
       -5    1    3    3    0  502  0.11026649779E+03 -0.16892648408E+04 -0.33161295543E+03  0.17250401865E+04  0.46999998093E+01 0. -1.
</event>
<event>
 5   0  0.1300176E-06  0.3115693E+04  0.7818609E-02  0.8211444E-01
       -2   -1    0    0    0  501  0.00000000000E+00  0.00000000000E+00  0.12644507625E+04  0.12644507625E+04  0.25500000920E-02 0.  1.
        2   -1    0    0  501    0  0.00000000000E+00  0.00000000000E+00 -0.19193201136E+04  0.19193201136E+04  0.25500000920E-02 0. -1.
    10030    2    1    2    0    0  0.00000000000E+00  0.00000000000E+00 -0.65486935114E+03  0.31837708761E+04  0.31156930408E+04 0.  0.
        1    1    3    3  502    0 -0.57109588544E+03  0.27800464430E+03 -0.17809955995E+04  0.18908681652E+04  0.50400001928E-02 0. -1.
       -1    1    3    3    0  502  0.57109588544E+03 -0.27800464430E+03  0.11261262484E+04  0.12929027109E+04  0.50400001928E-02 0.  1.
</event>
<event>
 5   0  0.1269497E-06  0.3380110E+04  0.7818609E-02  0.8142805E-01
       -2   -1    0    0    0  501  0.00000000000E+00  0.00000000000E+00  0.13972524319E+04  0.13972524319E+04  0.25500000920E-02 0.  1.
        2   -1    0    0  501    0  0.00000000000E+00  0.00000000000E+00 -0.20442159402E+04  0.20442159402E+04  0.25500000920E-02 0. -1.
    10030    2    1    2    0    0  0.00000000000E+00  0.00000000000E+00 -0.64696350831E+03  0.34414683721E+04  0.33801098762E+04 0.  0.
        5    1    3    3  502    0  0.10233930421E+04 -0.10348072013E+04  0.55124386118E+03  0.15562940426E+04  0.46999998093E+01 0.  1.
       -5    1    3    3    0  502 -0.10233930421E+04  0.10348072013E+04 -0.11982073695E+04  0.18851743295E+04  0.46999998093E+01 0. -1.
</event>
<event>
 5   0  0.1269497E-06  0.3409271E+04  0.7818609E-02  0.8135635E-01
       -2   -1    0    0    0  501  0.00000000000E+00  0.00000000000E+00  0.15872998056E+04  0.15872998056E+04  0.25500000920E-02 0. -1.
        2   -1    0    0  501    0  0.00000000000E+00  0.00000000000E+00 -0.18306448805E+04  0.18306448805E+04  0.25500000920E-02 0.  1.
    10030    2    1    2    0    0  0.00000000000E+00  0.00000000000E+00 -0.24334507499E+03  0.34179446861E+04  0.34092710440E+04 0.  0.
        5    1    3    3  502    0 -0.57656554103E+03 -0.11600480672E+04  0.98912683284E+03  0.16298875184E+04  0.46999998093E+01 0. -1.
       -5    1    3    3    0  502  0.57656554103E+03  0.11600480672E+04 -0.12324719078E+04  0.17880571677E+04  0.46999998093E+01 0.  1.
</event>
<event>
 5   0  0.4289684E-07  0.3394549E+04  0.7818609E-02  0.8139246E-01
       -1   -1    0    0    0  501  0.00000000000E+00  0.00000000000E+00  0.31677190116E+04  0.31677190116E+04  0.50400001928E-02 0.  1.
        1   -1    0    0  501    0  0.00000000000E+00  0.00000000000E+00 -0.90940530003E+03  0.90940530005E+03  0.50400001928E-02 0. -1.
    10030    2    1    2    0    0  0.00000000000E+00  0.00000000000E+00  0.22583137116E+04  0.40771243117E+04  0.33945488408E+04 0.  0.
        4    1    3    3  502    0 -0.10174920982E+04  0.75123850888E+03  0.24886017465E+04  0.27915568654E+04  0.12699999809E+01 0.  1.
       -4    1    3    3    0  502  0.10174920982E+04 -0.75123850888E+03 -0.23028803492E+03  0.12855674463E+04  0.12699999809E+01 0. -1.
</event>
<event>
 5   0  0.4289684E-07  0.3478523E+04  0.7818609E-02  0.8118899E-01
       -1   -1    0    0    0  501  0.00000000000E+00  0.00000000000E+00  0.21534842749E+04  0.21534842749E+04  0.50400001928E-02 0.  1.
        1   -1    0    0  501    0  0.00000000000E+00  0.00000000000E+00 -0.14047142343E+04  0.14047142344E+04  0.50400001928E-02 0. -1.
    10030    2    1    2    0    0  0.00000000000E+00  0.00000000000E+00  0.74877004057E+03  0.35581985093E+04  0.34785226832E+04 0.  0.
        4    1    3    3  502    0  0.50630099816E+03  0.24318883511E+03 -0.13093884767E+04  0.14247741246E+04  0.12699999809E+01 0. -1.
       -4    1    3    3    0  502 -0.50630099816E+03 -0.24318883511E+03  0.20581585173E+04  0.21334243847E+04  0.12699999809E+01 0.  1.
</event>
<event>
 5   0  0.4125758E-07  0.3408537E+04  0.7818609E-02  0.8135814E-01
       -1   -1    0    0    0  501  0.00000000000E+00  0.00000000000E+00  0.16196918974E+04  0.16196918974E+04  0.50400001928E-02 0.  1.
        1   -1    0    0  501    0  0.00000000000E+00  0.00000000000E+00 -0.17932616703E+04  0.17932616703E+04  0.50400001928E-02 0. -1.
    10030    2    1    2    0    0  0.00000000000E+00  0.00000000000E+00 -0.17356977296E+03  0.34129535677E+04  0.34085371626E+04 0.  0.
        2    1    3    3  502    0  0.20336695527E+03  0.85859586184E+03 -0.15467503756E+04  0.17807250481E+04  0.25500000920E-02 0. -1.
       -2    1    3    3    0  502 -0.20336695527E+03 -0.85859586184E+03  0.13731806027E+04  0.16322285196E+04  0.25500000920E-02 0.  1.
</event>
<event>
 5   0  0.1300176E-06  0.3358102E+04  0.7818609E-02  0.8148267E-01
       -2   -1    0    0    0  501  0.00000000000E+00  0.00000000000E+00  0.10217928003E+04  0.10217928003E+04  0.25500000920E-02 0.  1.
        2   -1    0    0  501    0  0.00000000000E+00  0.00000000000E+00 -0.27590846351E+04  0.27590846351E+04  0.25500000920E-02 0. -1.
    10030    2    1    2    0    0  0.00000000000E+00  0.00000000000E+00 -0.17372918348E+04  0.37808774355E+04  0.33581023306E+04 0.  0.
        1    1    3    3  502    0  0.51051860245E+03 -0.64404490917E+03  0.77985717316E+03  0.11329608550E+04  0.50400001928E-02 0.  1.
       -1    1    3    3    0  502 -0.51051860245E+03  0.64404490917E+03 -0.25171490080E+04  0.26479165804E+04  0.50400001928E-02 0. -1.
</event>
<event>
 5   0  0.1269497E-06  0.3390843E+04  0.7818609E-02  0.8140158E-01
        2   -1    0    0  501    0  0.00000000000E+00  0.00000000000E+00  0.19108244321E+04  0.19108244321E+04  0.25500000920E-02 0.  1.
       -2   -1    0    0    0  501  0.00000000000E+00  0.00000000000E+00 -0.15043000231E+04  0.15043000231E+04  0.25500000920E-02 0. -1.
    10030    2    1    2    0    0  0.00000000000E+00  0.00000000000E+00  0.40652440902E+03  0.34151244553E+04  0.33908425133E+04 0.  0.
        5    1    3    3  502    0 -0.13750543480E+03  0.16898150638E+04  0.21027288160E+03  0.17083967540E+04  0.46999998093E+01 0. -1.
       -5    1    3    3    0  502  0.13750543480E+03 -0.16898150638E+04  0.19625152742E+03  0.17067277013E+04  0.46999998093E+01 0.  1.
</event>
<event>
 5   0  0.1256208E-06  0.3266554E+04  0.7818609E-02  0.8171458E-01
       -2   -1    0    0    0  501  0.00000000000E+00  0.00000000000E+00  0.14918226541E+04  0.14918226541E+04  0.25500000920E-02 0.  1.
        2   -1    0    0  501    0  0.00000000000E+00  0.00000000000E+00 -0.17881439475E+04  0.17881439475E+04  0.25500000920E-02 0. -1.
    10030    2    1    2    0    0  0.00000000000E+00  0.00000000000E+00 -0.29632129345E+03  0.32799666016E+04  0.32665539332E+04 0.  0.
        3    1    3    3  502    0 -0.13521185616E+04  0.37875646346E+03 -0.98579972629E+03  0.17156579419E+04  0.10100000352E+00 0. -1.
       -3    1    3    3    0  502  0.13521185616E+04 -0.37875646346E+03  0.68947843284E+03  0.15643086597E+04  0.10100000352E+00 0.  1.
</event>
<event>
 5   0  0.4272633E-07  0.3431360E+04  0.7818609E-02  0.8130252E-01
       -1   -1    0    0    0  501  0.00000000000E+00  0.00000000000E+00  0.15597482912E+04  0.15597482912E+04  0.50400001928E-02 0. -1.
        1   -1    0    0  501    0  0.00000000000E+00  0.00000000000E+00 -0.18872000290E+04  0.18872000290E+04  0.50400001928E-02 0.  1.
    10030    2    1    2    0    0  0.00000000000E+00  0.00000000000E+00 -0.32745173776E+03  0.34469483202E+04  0.34313595092E+04 0.  0.
        1    1    3    3  502    0 -0.45353598730E+03  0.46691361425E+03 -0.17583422546E+04  0.18749588527E+04  0.50400001928E-02 0.  1.
       -1    1    3    3    0  502  0.45353598730E+03 -0.46691361425E+03  0.14308905168E+04  0.15719894675E+04  0.50400001928E-02 0. -1.
</event>
<event>
 5   0  0.1300176E-06  0.3432369E+04  0.7818609E-02  0.8130007E-01
        2   -1    0    0  501    0  0.00000000000E+00  0.00000000000E+00  0.12674925525E+04  0.12674925525E+04  0.25500000920E-02 0.  1.
       -2   -1    0    0    0  501  0.00000000000E+00  0.00000000000E+00 -0.23237132878E+04  0.23237132878E+04  0.25500000920E-02 0. -1.
    10030    2    1    2    0    0  0.00000000000E+00  0.00000000000E+00 -0.10562207352E+04  0.35912058403E+04  0.34323690282E+04 0.  0.
        1    1    3    3  502    0  0.13732306074E+04  0.97359584916E+03 -0.17852555441E+03  0.16927854419E+04  0.50400001928E-02 0.  1.
       -1    1    3    3    0  502 -0.13732306074E+04 -0.97359584916E+03 -0.87769518083E+03  0.18984203984E+04  0.50400001928E-02 0. -1.
</event>
<event>
 5   0  0.4289684E-07  0.3410457E+04  0.7818609E-02  0.8135345E-01
       -1   -1    0    0    0  501  0.00000000000E+00  0.00000000000E+00  0.10971134308E+04  0.10971134308E+04  0.50400001928E-02 0. -1.
        1   -1    0    0  501    0  0.00000000000E+00  0.00000000000E+00 -0.26504129336E+04  0.26504129336E+04  0.50400001928E-02 0.  1.
    10030    2    1    2    0    0  0.00000000000E+00  0.00000000000E+00 -0.15532995028E+04  0.37475263645E+04  0.34104566420E+04 0.  0.
        4    1    3    3  502    0  0.18657494472E+03 -0.34033424932E+03  0.10479327087E+04  0.11174981817E+04  0.12699999809E+01 0. -1.
       -4    1    3    3    0  502 -0.18657494472E+03  0.34033424932E+03 -0.26012322115E+04  0.26300281828E+04  0.12699999809E+01 0.  1.
</event>
<event>
 5   0  0.1256208E-06  0.3386381E+04  0.7818609E-02  0.8141257E-01
       -2   -1    0    0    0  501  0.00000000000E+00  0.00000000000E+00  0.21139812035E+04  0.21139812035E+04  0.25500000920E-02 0. -1.
        2   -1    0    0  501    0  0.00000000000E+00  0.00000000000E+00 -0.13561584243E+04  0.13561584243E+04  0.25500000920E-02 0.  1.
    10030    2    1    2    0    0  0.00000000000E+00  0.00000000000E+00  0.75782277921E+03  0.34701396277E+04  0.33863806152E+04 0.  0.
        3    1    3    3  502    0 -0.76855250425E+03 -0.63945921167E+03  0.17792068077E+04  0.20408718505E+04  0.10100000352E+00 0. -1.
       -3    1    3    3    0  502  0.76855250425E+03  0.63945921167E+03 -0.10213840285E+04  0.14292677772E+04  0.10100000352E+00 0.  1.
</event>
<event>
 5   0  0.1277635E-06  0.3110580E+04  0.7818609E-02  0.8212840E-01
        2   -1    0    0  501    0  0.00000000000E+00  0.00000000000E+00  0.14067247362E+04  0.14067247362E+04  0.25500000920E-02 0.  1.
       -2   -1    0    0    0  501  0.00000000000E+00  0.00000000000E+00 -0.17195455527E+04  0.17195455527E+04  0.25500000920E-02 0. -1.
    10030    2    1    2    0    0  0.00000000000E+00  0.00000000000E+00 -0.31282081651E+03  0.31262702889E+04  0.31105801800E+04 0.  0.
        4    1    3    3  502    0  0.10159277602E+04 -0.31311952303E+03 -0.12973778984E+04  0.16773026185E+04  0.12699999809E+01 0. -1.
       -4    1    3    3    0  502 -0.10159277602E+04  0.31311952303E+03  0.98455708188E+03  0.14489676705E+04  0.12699999809E+01 0.  1.
</event>
<event>
 5   0  0.4272633E-07  0.3385704E+04  0.7818609E-02  0.8141424E-01
        1   -1    0    0  501    0  0.00000000000E+00  0.00000000000E+00  0.26970322315E+04  0.26970322315E+04  0.50400001928E-02 0. -1.
       -1   -1    0    0    0  501  0.00000000000E+00  0.00000000000E+00 -0.10625558386E+04  0.10625558386E+04  0.50400001928E-02 0.  1.
    10030    2    1    2    0    0  0.00000000000E+00  0.00000000000E+00  0.16344763929E+04  0.37595880702E+04  0.33857036755E+04 0.  0.
        1    1    3    3  502    0  0.11360960517E+04 -0.57541677994E+03 -0.42124195448E+03  0.13413662786E+04  0.50400001928E-02 0.  1.
       -1    1    3    3    0  502 -0.11360960517E+04  0.57541677994E+03  0.20557183474E+04  0.24182217915E+04  0.50400001928E-02 0. -1.
</event>
<event>
 5   0  0.1300176E-06  0.3410998E+04  0.7818609E-02  0.8135212E-01
        2   -1    0    0  501    0  0.00000000000E+00  0.00000000000E+00  0.16747202393E+04  0.16747202393E+04  0.25500000920E-02 0.  1.
       -2   -1    0    0    0  501  0.00000000000E+00  0.00000000000E+00 -0.17368437622E+04  0.17368437622E+04  0.25500000920E-02 0. -1.
    10030    2    1    2    0    0  0.00000000000E+00  0.00000000000E+00 -0.62123522964E+02  0.34115640015E+04  0.34109983295E+04 0.  0.
        1    1    3    3  502    0 -0.13046698113E+04  0.10742029429E+04 -0.26056031673E+03  0.17099610983E+04  0.50400001928E-02 0.  1.
       -1    1    3    3    0  502  0.13046698113E+04 -0.10742029429E+04  0.19843679377E+03  0.17016029032E+04  0.50400001928E-02 0. -1.
</event>
<event>
 5   0  0.4109937E-07  0.3409362E+04  0.7818609E-02  0.8135612E-01
       -1   -1    0    0    0  501  0.00000000000E+00  0.00000000000E+00  0.14611841759E+04  0.14611841759E+04  0.50400001928E-02 0.  1.
        1   -1    0    0  501    0  0.00000000000E+00  0.00000000000E+00 -0.19887552554E+04  0.19887552554E+04  0.50400001928E-02 0. -1.
    10030    2    1    2    0    0  0.00000000000E+00  0.00000000000E+00 -0.52757107950E+03  0.34499394313E+04  0.34093622330E+04 0.  0.
        5    1    3    3  502    0 -0.34429013479E+03  0.14461140663E+04  0.58049106804E+03  0.15958613849E+04  0.46999998093E+01 0.  1.
       -5    1    3    3    0  502  0.34429013479E+03 -0.14461140663E+04 -0.11080621475E+04  0.18540780465E+04  0.46999998093E+01 0. -1.
</event>
<event>
 5   0  0.4109937E-07  0.3393717E+04  0.7818609E-02  0.8139450E-01
       -1   -1    0    0    0  501  0.00000000000E+00  0.00000000000E+00  0.11586093029E+04  0.11586093030E+04  0.50400001928E-02 0.  1.
        1   -1    0    0  501    0  0.00000000000E+00  0.00000000000E+00 -0.24851593830E+04  0.24851593830E+04  0.50400001928E-02 0. -1.
    10030    2    1    2    0    0  0.00000000000E+00  0.00000000000E+00 -0.13265500801E+04  0.36437686860E+04  0.33937170068E+04 0.  0.
        5    1    3    3  502    0 -0.26757136007E+03  0.81828589788E+03  0.90669461335E+03  0.12503213408E+04  0.46999998093E+01 0.  1.
       -5    1    3    3    0  502  0.26757136007E+03 -0.81828589788E+03 -0.22332446934E+04  0.23934473452E+04  0.46999998093E+01 0. -1.
</event>
<event>
 5   0  0.4272633E-07  0.3346865E+04  0.7818609E-02  0.8151072E-01
        1   -1    0    0  501    0  0.00000000000E+00  0.00000000000E+00  0.16796226537E+04  0.16796226538E+04  0.50400001928E-02 0.  1.
       -1   -1    0    0    0  501  0.00000000000E+00  0.00000000000E+00 -0.16672647702E+04  0.16672647702E+04  0.50400001928E-02 0. -1.
    10030    2    1    2    0    0  0.00000000000E+00  0.00000000000E+00  0.12357883577E+02  0.33468874239E+04  0.33468646090E+04 0.  0.
        1    1    3    3  502    0 -0.12819185729E+04 -0.10738732751E+04 -0.55923328024E+02  0.16732144086E+04  0.50400001928E-02 0. -1.
       -1    1    3    3    0  502  0.12819185729E+04  0.10738732751E+04  0.68281211602E+02  0.16736730154E+04  0.50400001928E-02 0.  1.
</event>
<event>
 5   0  0.4464951E-07  0.3348327E+04  0.7818609E-02  0.8150706E-01
        1   -1    0    0  501    0  0.00000000000E+00  0.00000000000E+00  0.14611372055E+04  0.14611372055E+04  0.50400001928E-02 0. -1.
       -1   -1    0    0    0  501  0.00000000000E+00  0.00000000000E+00 -0.19182474235E+04  0.19182474235E+04  0.50400001928E-02 0.  1.
    10030    2    1    2    0    0  0.00000000000E+00  0.00000000000E+00 -0.45711021799E+03  0.33793846290E+04  0.33483265550E+04 0.  0.
        3    1    3    3  502    0 -0.85802839455E+03  0.11053476772E+02  0.12223073259E+04  0.14934423706E+04  0.10100000352E+00 0.  1.
       -3    1    3    3    0  502  0.85802839455E+03 -0.11053476772E+02 -0.16794175438E+04  0.18859422584E+04  0.10100000352E+00 0. -1.
</event>
<event>
 5   0  0.4464951E-07  0.3424833E+04  0.7818609E-02  0.8131838E-01
        1   -1    0    0  501    0  0.00000000000E+00  0.00000000000E+00  0.19071645346E+04  0.19071645346E+04  0.50400001928E-02 0.  1.
       -1   -1    0    0    0  501  0.00000000000E+00  0.00000000000E+00 -0.15375553755E+04  0.15375553755E+04  0.50400001928E-02 0. -1.
    10030    2    1    2    0    0  0.00000000000E+00  0.00000000000E+00  0.36960915915E+03  0.34447199101E+04  0.34248334745E+04 0.  0.
        3    1    3    3  502    0  0.60624123757E+03  0.91690050909E+02 -0.14233651428E+04  0.15498076796E+04  0.10100000352E+00 0. -1.
       -3    1    3    3    0  502 -0.60624123757E+03 -0.91690050909E+02  0.17929743020E+04  0.18949122305E+04  0.10100000352E+00 0.  1.
</event>
<event>
 5   0  0.4289684E-07  0.3511270E+04  0.7818609E-02  0.8111124E-01
       -1   -1    0    0    0  501  0.00000000000E+00  0.00000000000E+00  0.12405697548E+04  0.12405697548E+04  0.50400001928E-02 0.  1.
        1   -1    0    0  501    0  0.00000000000E+00  0.00000000000E+00 -0.24845477572E+04  0.24845477572E+04  0.50400001928E-02 0. -1.
    10030    2    1    2    0    0  0.00000000000E+00  0.00000000000E+00 -0.12439780024E+04  0.37251175120E+04  0.35112703126E+04 0.  0.
        4    1    3    3  502    0  0.10722028199E+03  0.16990122762E+04 -0.10772070328E+04  0.20145757637E+04  0.12699999809E+01 0. -1.
       -4    1    3    3    0  502 -0.10722028199E+03 -0.16990122762E+04 -0.16677096960E+03  0.17105417483E+04  0.12699999809E+01 0.  1.
</event>
<event>
 5   0  0.4464951E-07  0.3365760E+04  0.7818609E-02  0.8146361E-01
       -1   -1    0    0    0  501  0.00000000000E+00  0.00000000000E+00  0.24723155240E+04  0.24723155241E+04  0.50400001928E-02 0. -1.
        1   -1    0    0  501    0  0.00000000000E+00  0.00000000000E+00 -0.11455195307E+04  0.11455195307E+04  0.50400001928E-02 0.  1.
    10030    2    1    2    0    0  0.00000000000E+00  0.00000000000E+00  0.13267959934E+04  0.36178350547E+04  0.33657603710E+04 0.  0.
        3    1    3    3  502    0 -0.44775267265E+03  0.84923411180E+03 -0.82229219451E+03  0.12640591346E+04  0.10100000352E+00 0.  1.
       -3    1    3    3    0  502  0.44775267265E+03 -0.84923411180E+03  0.21490881879E+04  0.23537759201E+04  0.10100000352E+00 0. -1.
</event>
<event>
 5   0  0.4272633E-07  0.3441771E+04  0.7818609E-02  0.8127730E-01
       -1   -1    0    0    0  501  0.00000000000E+00  0.00000000000E+00  0.13527207162E+04  0.13527207162E+04  0.50400001928E-02 0.  1.
        1   -1    0    0  501    0  0.00000000000E+00  0.00000000000E+00 -0.21892527565E+04  0.21892527565E+04  0.50400001928E-02 0. -1.
    10030    2    1    2    0    0  0.00000000000E+00  0.00000000000E+00 -0.83653204024E+03  0.35419734727E+04  0.34417713792E+04 0.  0.
        1    1    3    3  502    0  0.10344530959E+04  0.38609594134E+03 -0.17766507589E+04  0.20918057277E+04  0.50400001928E-02 0. -1.
       -1    1    3    3    0  502 -0.10344530959E+04 -0.38609594134E+03  0.94011871862E+03  0.14501677450E+04  0.50400001928E-02 0.  1.
</event>
<event>
 5   0  0.4109937E-07  0.2828142E+04  0.7818609E-02  0.8294584E-01
        1   -1    0    0  501    0  0.00000000000E+00  0.00000000000E+00  0.16314949522E+04  0.16314949523E+04  0.50400001928E-02 0.  1.
       -1   -1    0    0    0  501  0.00000000000E+00  0.00000000000E+00 -0.12256226295E+04  0.12256226296E+04  0.50400001928E-02 0. -1.
    10030    2    1    2    0    0  0.00000000000E+00  0.00000000000E+00  0.40587232270E+03  0.28571175818E+04  0.28281422408E+04 0.  0.
        5    1    3    3  502    0 -0.11016003819E+04 -0.52880268712E+03 -0.51598623855E+03  0.13264311409E+04  0.46999998093E+01 0. -1.
       -5    1    3    3    0  502  0.11016003819E+04  0.52880268712E+03  0.92185856125E+03  0.15306864409E+04  0.46999998093E+01 0.  1.
</event>
<event>
 5   0  0.1256208E-06  0.3377420E+04  0.7818609E-02  0.8143471E-01
        2   -1    0    0  501    0  0.00000000000E+00  0.00000000000E+00  0.16610354853E+04  0.16610354853E+04  0.25500000920E-02 0.  1.
       -2   -1    0    0    0  501  0.00000000000E+00  0.00000000000E+00 -0.17168454207E+04  0.17168454207E+04  0.25500000920E-02 0. -1.
    10030    2    1    2    0    0  0.00000000000E+00  0.00000000000E+00 -0.55809935473E+02  0.33778809060E+04  0.33774198238E+04 0.  0.
        3    1    3    3  502    0  0.73906061154E+03 -0.34366864652E+03 -0.15071006008E+04  0.17133799804E+04  0.10100000352E+00 0. -1.
       -3    1    3    3    0  502 -0.73906061154E+03  0.34366864652E+03  0.14512906653E+04  0.16645009256E+04  0.10100000352E+00 0.  1.
</event>
<event>
 5   0  0.1268230E-06  0.3407331E+04  0.7818609E-02  0.8136109E-01
        2   -1    0    0  501    0  0.00000000000E+00  0.00000000000E+00  0.10288988795E+04  0.10288988795E+04  0.25500000920E-02 0.  1.
       -2   -1    0    0    0  501  0.00000000000E+00  0.00000000000E+00 -0.28209535120E+04  0.28209535120E+04  0.25500000920E-02 0. -1.
    10030    2    1    2    0    0  0.00000000000E+00  0.00000000000E+00 -0.17920546326E+04  0.38498523915E+04  0.34073308660E+04 0.  0.
        2    1    3    3  502    0  0.13146821836E+04 -0.99271425525E+03 -0.13867164650E+04  0.21533354106E+04  0.25500000920E-02 0. -1.
       -2    1    3    3    0  502 -0.13146821836E+04  0.99271425525E+03 -0.40533816758E+03  0.16965169809E+04  0.25500000920E-02 0.  1.
</event>
<event>
 5   0  0.4109937E-07  0.3409975E+04  0.7818609E-02  0.8135462E-01
       -1   -1    0    0    0  501  0.00000000000E+00  0.00000000000E+00  0.20790871268E+04  0.20790871268E+04  0.50400001928E-02 0.  1.
        1   -1    0    0  501    0  0.00000000000E+00  0.00000000000E+00 -0.13982015487E+04  0.13982015487E+04  0.50400001928E-02 0. -1.
    10030    2    1    2    0    0  0.00000000000E+00  0.00000000000E+00  0.68088557811E+03  0.34772886755E+04  0.34099752730E+04 0.  0.
        5    1    3    3  502    0  0.56650274767E+03  0.14413723771E+04  0.10675976405E+04  0.18810280446E+04  0.46999998093E+01 0.  1.
       -5    1    3    3    0  502 -0.56650274767E+03 -0.14413723771E+04 -0.38671206237E+03  0.15962606309E+04  0.46999998093E+01 0. -1.
</event>
<event>
 5   0  0.1256208E-06  0.3459299E+04  0.7818609E-02  0.8123504E-01
        2   -1    0    0  501    0  0.00000000000E+00  0.00000000000E+00  0.19551293090E+04  0.19551293090E+04  0.25500000920E-02 0.  1.
       -2   -1    0    0    0  501  0.00000000000E+00  0.00000000000E+00 -0.15301734507E+04  0.15301734507E+04  0.25500000920E-02 0. -1.
    10030    2    1    2    0    0  0.00000000000E+00  0.00000000000E+00  0.42495585832E+03  0.34853027597E+04  0.34592987505E+04 0.  0.
        3    1    3    3  502    0 -0.89187727136E+03 -0.10035305906E+04  0.13111651941E+04  0.18766120776E+04  0.10100000352E+00 0.  1.
       -3    1    3    3    0  502  0.89187727136E+03  0.10035305906E+04 -0.88620933573E+03  0.16086906820E+04  0.10100000352E+00 0. -1.
</event>
<event>
 5   0  0.1300176E-06  0.3404118E+04  0.7818609E-02  0.8136896E-01
       -2   -1    0    0    0  501  0.00000000000E+00  0.00000000000E+00  0.16702091454E+04  0.16702091454E+04  0.25500000920E-02 0.  1.
        2   -1    0    0  501    0  0.00000000000E+00  0.00000000000E+00 -0.17345165996E+04  0.17345165996E+04  0.25500000920E-02 0. -1.
    10030    2    1    2    0    0  0.00000000000E+00  0.00000000000E+00 -0.64307454166E+02  0.34047257450E+04  0.34041183807E+04 0.  0.
        1    1    3    3  502    0  0.60162045178E+03  0.98248790880E+03 -0.12852842225E+04  0.17260316311E+04  0.50400001928E-02 0. -1.
       -1    1    3    3    0  502 -0.60162045178E+03 -0.98248790880E+03  0.12209767684E+04  0.16786941138E+04  0.50400001928E-02 0.  1.
</event>
<event>
 5   0  0.1277635E-06  0.3440719E+04  0.7818609E-02  0.8127984E-01
       -2   -1    0    0    0  501  0.00000000000E+00  0.00000000000E+00  0.16663645503E+04  0.16663645503E+04  0.25500000920E-02 0. -1.
        2   -1    0    0  501    0  0.00000000000E+00  0.00000000000E+00 -0.17761036973E+04  0.17761036973E+04  0.25500000920E-02 0.  1.
    10030    2    1    2    0    0  0.00000000000E+00  0.00000000000E+00 -0.10973914699E+03  0.34424682475E+04  0.34407186684E+04 0.  0.
        4    1    3    3  502    0 -0.75824599925E+02 -0.17108338055E+04 -0.21906562469E+03  0.17264683724E+04  0.12699999809E+01 0. -1.
       -4    1    3    3    0  502  0.75824599925E+02  0.17108338055E+04  0.10932647770E+03  0.17159998752E+04  0.12699999809E+01 0.  1.
</event>
<event>
 5   0  0.1268230E-06  0.3397132E+04  0.7818609E-02  0.8138611E-01
        2   -1    0    0  501    0  0.00000000000E+00  0.00000000000E+00  0.22620630632E+04  0.22620630632E+04  0.25500000920E-02 0. -1.
       -2   -1    0    0    0  501  0.00000000000E+00  0.00000000000E+00 -0.12754404451E+04  0.12754404451E+04  0.25500000920E-02 0.  1.
    10030    2    1    2    0    0  0.00000000000E+00  0.00000000000E+00  0.98662261811E+03  0.35375035084E+04  0.33971321554E+04 0.  0.
        2    1    3    3  502    0 -0.13783242686E+04 -0.89508537709E+03  0.94019569051E+03  0.18933894365E+04  0.25500000920E-02 0.  1.
       -2    1    3    3    0  502  0.13783242686E+04  0.89508537709E+03  0.46426927599E+02  0.16441140719E+04  0.25500000920E-02 0. -1.
</event>
<event>
 5   0  0.4109937E-07  0.3492083E+04  0.7818609E-02  0.8115669E-01
       -1   -1    0    0    0  501  0.00000000000E+00  0.00000000000E+00  0.21395651507E+04  0.21395651508E+04  0.50400001928E-02 0.  1.
        1   -1    0    0  501    0  0.00000000000E+00  0.00000000000E+00 -0.14248977052E+04  0.14248977052E+04  0.50400001928E-02 0. -1.
    10030    2    1    2    0    0  0.00000000000E+00  0.00000000000E+00  0.71466744551E+03  0.35644628560E+04  0.34920833172E+04 0.  0.
        5    1    3    3  502    0 -0.96583248761E+03  0.20587426069E+03 -0.11124499855E+04  0.14875428282E+04  0.46999998093E+01 0. -1.
       -5    1    3    3    0  502  0.96583248761E+03 -0.20587426069E+03  0.18271174310E+04  0.20769200278E+04  0.46999998093E+01 0.  1.
</event>
<event>
 5   0  0.1268230E-06  0.3241168E+04  0.7818609E-02  0.8178029E-01
        2   -1    0    0  501    0  0.00000000000E+00  0.00000000000E+00  0.18483731706E+04  0.18483731706E+04  0.25500000920E-02 0. -1.
       -2   -1    0    0    0  501  0.00000000000E+00  0.00000000000E+00 -0.14208672347E+04  0.14208672347E+04  0.25500000920E-02 0.  1.
    10030    2    1    2    0    0  0.00000000000E+00  0.00000000000E+00  0.42750593599E+03  0.32692404053E+04  0.32411682311E+04 0.  0.
        2    1    3    3  502    0 -0.13172000594E+04 -0.39383514584E+02  0.11651753872E+04  0.17590340363E+04  0.25500000920E-02 0. -1.
       -2    1    3    3    0  502  0.13172000594E+04  0.39383514584E+02 -0.73766945120E+03  0.15102063690E+04  0.25500000920E-02 0.  1.
</event>
<event>
 5   0  0.4109937E-07  0.3404712E+04  0.7818609E-02  0.8136751E-01
        1   -1    0    0  501    0  0.00000000000E+00  0.00000000000E+00  0.15675026768E+04  0.15675026768E+04  0.50400001928E-02 0. -1.
       -1   -1    0    0    0  501  0.00000000000E+00  0.00000000000E+00 -0.18488112212E+04  0.18488112212E+04  0.50400001928E-02 0.  1.
    10030    2    1    2    0    0  0.00000000000E+00  0.00000000000E+00 -0.28130854434E+03  0.34163138980E+04  0.34047123450E+04 0.  0.
        5    1    3    3  502    0  0.80880468747E+03  0.72917015747E+03  0.11722921923E+04  0.16000453791E+04  0.46999998093E+01 0. -1.
       -5    1    3    3    0  502 -0.80880468747E+03 -0.72917015747E+03 -0.14536007367E+04  0.18162685189E+04  0.46999998093E+01 0.  1.
</event>
<event>
 5   0  0.4289684E-07  0.3393047E+04  0.7818609E-02  0.8139615E-01
        1   -1    0    0  501    0  0.00000000000E+00  0.00000000000E+00  0.30006718704E+04  0.30006718704E+04  0.50400001928E-02 0. -1.
       -1   -1    0    0    0  501  0.00000000000E+00  0.00000000000E+00 -0.95918268599E+03  0.95918268601E+03  0.50400001928E-02 0.  1.
    10030    2    1    2    0    0  0.00000000000E+00  0.00000000000E+00  0.20414891844E+04  0.39598545564E+04  0.33930473056E+04 0.  0.
        4    1    3    3  502    0  0.15933544441E+04 -0.21744681400E+03  0.38996599888E+03  0.16547315778E+04  0.12699999809E+01 0.  1.
       -4    1    3    3    0  502 -0.15933544441E+04  0.21744681400E+03  0.16515231855E+04  0.23051229786E+04  0.12699999809E+01 0. -1.
</event>
<event>
 5   0  0.4125758E-07  0.3402609E+04  0.7818609E-02  0.8137266E-01
        1   -1    0    0  501    0  0.00000000000E+00  0.00000000000E+00  0.24658790946E+04  0.24658790947E+04  0.50400001928E-02 0. -1.
       -1   -1    0    0    0  501  0.00000000000E+00  0.00000000000E+00 -0.11737952147E+04  0.11737952147E+04  0.50400001928E-02 0.  1.
    10030    2    1    2    0    0  0.00000000000E+00  0.00000000000E+00  0.12920838799E+04  0.36396743094E+04  0.34026090468E+04 0.  0.
        2    1    3    3  502    0 -0.60397696961E+03  0.12690765234E+04  0.16715294154E+04  0.21838850676E+04  0.25500000920E-02 0. -1.
       -2    1    3    3    0  502  0.60397696961E+03 -0.12690765234E+04 -0.37944553547E+03  0.14557892418E+04  0.25500000920E-02 0.  1.
</event>
<event>
 5   0  0.4289684E-07  0.3429740E+04  0.7818609E-02  0.8130645E-01
        1   -1    0    0  501    0  0.00000000000E+00  0.00000000000E+00  0.17222110312E+04  0.17222110312E+04  0.50400001928E-02 0. -1.
       -1   -1    0    0    0  501  0.00000000000E+00  0.00000000000E+00 -0.17075605549E+04  0.17075605549E+04  0.50400001928E-02 0.  1.
    10030    2    1    2    0    0  0.00000000000E+00  0.00000000000E+00  0.14650476298E+02  0.34297715861E+04  0.34297402957E+04 0.  0.
        4    1    3    3  502    0  0.32650314503E+03 -0.14914192881E+04  0.78825631196E+03  0.17182215872E+04  0.12699999809E+01 0.  1.
       -4    1    3    3    0  502 -0.32650314503E+03  0.14914192881E+04 -0.77360583566E+03  0.17115499988E+04  0.12699999809E+01 0. -1.
</event>
<event>
 5   0  0.1300176E-06  0.3329963E+04  0.7818609E-02  0.8155313E-01
        2   -1    0    0  501    0  0.00000000000E+00  0.00000000000E+00  0.29595186930E+04  0.29595186930E+04  0.25500000920E-02 0. -1.
       -2   -1    0    0    0  501  0.00000000000E+00  0.00000000000E+00 -0.93669400888E+03  0.93669400889E+03  0.25500000920E-02 0.  1.
    10030    2    1    2    0    0  0.00000000000E+00  0.00000000000E+00  0.20228246841E+04  0.38962127019E+04  0.33299630202E+04 0.  0.
        1    1    3    3  502    0  0.20749129675E+03  0.27183166599E+02 -0.92124574581E+03  0.94471439439E+03  0.50400001928E-02 0.  1.
       -1    1    3    3    0  502 -0.20749129675E+03 -0.27183166599E+02  0.29440704300E+04  0.29514983075E+04  0.50400001928E-02 0. -1.
</event>
<event>
 5   0  0.1277635E-06  0.3456399E+04  0.7818609E-02  0.8124201E-01
       -2   -1    0    0    0  501  0.00000000000E+00  0.00000000000E+00  0.17232030518E+04  0.17232030518E+04  0.25500000920E-02 0.  1.
        2   -1    0    0  501    0  0.00000000000E+00  0.00000000000E+00 -0.17332101555E+04  0.17332101555E+04  0.25500000920E-02 0. -1.
    10030    2    1    2    0    0  0.00000000000E+00  0.00000000000E+00 -0.10007103720E+02  0.34564132072E+04  0.34563987208E+04 0.  0.
        4    1    3    3  502    0  0.16970150054E+04 -0.12894440271E+03  0.29530559684E+03  0.17273371402E+04  0.12699999809E+01 0.  1.
       -4    1    3    3    0  502 -0.16970150054E+04  0.12894440271E+03 -0.30531270056E+03  0.17290760670E+04  0.12699999809E+01 0. -1.
</event>
<event>
 5   0  0.4464951E-07  0.3380617E+04  0.7818609E-02  0.8142680E-01
        1   -1    0    0  501    0  0.00000000000E+00  0.00000000000E+00  0.19422975343E+04  0.19422975343E+04  0.50400001928E-02 0.  1.
       -1   -1    0    0    0  501  0.00000000000E+00  0.00000000000E+00 -0.14710121071E+04  0.14710121071E+04  0.50400001928E-02 0. -1.
    10030    2    1    2    0    0  0.00000000000E+00  0.00000000000E+00  0.47128542719E+03  0.34133096415E+04  0.33806172150E+04 0.  0.
        3    1    3    3  502    0  0.90182319796E+03 -0.13972730901E+04  0.54103427435E+03  0.17488211072E+04  0.10100000352E+00 0. -1.
       -3    1    3    3    0  502 -0.90182319796E+03  0.13972730901E+04 -0.69748847169E+02  0.16644885343E+04  0.10100000352E+00 0.  1.
</event>
<event>
 5   0  0.1256208E-06  0.3391196E+04  0.7818609E-02  0.8140070E-01
        2   -1    0    0  501    0  0.00000000000E+00  0.00000000000E+00  0.19159842389E+04  0.19159842389E+04  0.25500000920E-02 0.  1.
       -2   -1    0    0    0  501  0.00000000000E+00  0.00000000000E+00 -0.15005620394E+04  0.15005620394E+04  0.25500000920E-02 0. -1.
    10030    2    1    2    0    0  0.00000000000E+00  0.00000000000E+00  0.41542219944E+03  0.34165462783E+04  0.33911963771E+04 0.  0.
        3    1    3    3  502    0 -0.14859603638E+04 -0.79280267192E+03  0.10187042357E+02  0.16842559382E+04  0.10100000352E+00 0. -1.
       -3    1    3    3    0  502  0.14859603638E+04  0.79280267192E+03  0.40523515708E+03  0.17322903400E+04  0.10100000352E+00 0.  1.
</event>
<event>
 5   0  0.4464951E-07  0.3319984E+04  0.7818609E-02  0.8157829E-01
        1   -1    0    0  501    0  0.00000000000E+00  0.00000000000E+00  0.21946265331E+04  0.21946265331E+04  0.50400001928E-02 0. -1.
       -1   -1    0    0    0  501  0.00000000000E+00  0.00000000000E+00 -0.12556003740E+04  0.12556003740E+04  0.50400001928E-02 0.  1.
    10030    2    1    2    0    0  0.00000000000E+00  0.00000000000E+00  0.93902615918E+03  0.34502269071E+04  0.33199842745E+04 0.  0.
        3    1    3    3  502    0  0.16483254478E+04 -0.11007079156E+03  0.63862846600E+03  0.17711405051E+04  0.10100000352E+00 0.  1.
       -3    1    3    3    0  502 -0.16483254478E+04  0.11007079156E+03  0.30039769318E+03  0.16790864020E+04  0.10100000352E+00 0. -1.
</event>
<event>
 5   0  0.4125758E-07  0.3202537E+04  0.7818609E-02  0.8188148E-01
       -1   -1    0    0    0  501  0.00000000000E+00  0.00000000000E+00  0.10595402674E+04  0.10595402675E+04  0.50400001928E-02 0.  1.
        1   -1    0    0  501    0  0.00000000000E+00  0.00000000000E+00 -0.24199746615E+04  0.24199746615E+04  0.50400001928E-02 0. -1.
    10030    2    1    2    0    0  0.00000000000E+00  0.00000000000E+00 -0.13604343940E+04  0.34795149289E+04  0.32025368695E+04 0.  0.
        2    1    3    3  502    0  0.15023973939E+04  0.17355097084E+03 -0.10865607871E+03  0.15162862567E+04  0.25500000920E-02 0.  1.
       -2    1    3    3    0  502 -0.15023973939E+04 -0.17355097084E+03 -0.12517783153E+04  0.19632286722E+04  0.25500000920E-02 0. -1.
</event>
<event>
 5   0  0.1268230E-06  0.3379832E+04  0.7818609E-02  0.8142874E-01
       -2   -1    0    0    0  501  0.00000000000E+00  0.00000000000E+00  0.14669300730E+04  0.14669300730E+04  0.25500000920E-02 0.  1.
        2   -1    0    0  501    0  0.00000000000E+00  0.00000000000E+00 -0.19467980297E+04  0.19467980297E+04  0.25500000920E-02 0. -1.
    10030    2    1    2    0    0  0.00000000000E+00  0.00000000000E+00 -0.47986795676E+03  0.34137281027E+04  0.33798322892E+04 0.  0.
        2    1    3    3  502    0  0.77511602165E+02 -0.46262054031E+03  0.13998598312E+04  0.14763581407E+04  0.25500000920E-02 0.  1.
       -2    1    3    3    0  502 -0.77511602165E+02  0.46262054031E+03 -0.18797277879E+04  0.19373699620E+04  0.25500000920E-02 0. -1.
</event>
<event>
 5   0  0.4060750E-07  0.3393483E+04  0.7818609E-02  0.8139508E-01
        3   -1    0    0  501    0  0.00000000000E+00  0.00000000000E+00  0.12191161038E+04  0.12191161080E+04  0.10100000352E+00 0.  1.
       -3   -1    0    0    0  501  0.00000000000E+00  0.00000000000E+00 -0.23614913597E+04  0.23614913619E+04  0.10100000352E+00 0. -1.
    10030    2    1    2    0    0  0.00000000000E+00  0.00000000000E+00 -0.11423752559E+04  0.35806074698E+04  0.33934832588E+04 0.  0.
        1    1    3    3  502    0  0.83911136608E+03  0.12476020953E+04  0.25850129305E+03  0.15255955530E+04  0.50400001928E-02 0.  1.
       -1    1    3    3    0  502 -0.83911136608E+03 -0.12476020953E+04 -0.14008765490E+04  0.20550119168E+04  0.50400001928E-02 0. -1.
</event>
<event>
 5   0  0.4272633E-07  0.3403188E+04  0.7818609E-02  0.8137124E-01
       -1   -1    0    0    0  501  0.00000000000E+00  0.00000000000E+00  0.14053025934E+04  0.14053025935E+04  0.50400001928E-02 0.  1.
        1   -1    0    0  501    0  0.00000000000E+00  0.00000000000E+00 -0.20603548322E+04  0.20603548323E+04  0.50400001928E-02 0. -1.
    10030    2    1    2    0    0  0.00000000000E+00  0.00000000000E+00 -0.65505223880E+03  0.34656574257E+04  0.34031879109E+04 0.  0.
        1    1    3    3  502    0  0.12918316798E+03 -0.26093565617E+02 -0.20551495354E+04  0.20593709666E+04  0.50400001928E-02 0. -1.
       -1    1    3    3    0  502 -0.12918316798E+03  0.26093565617E+02  0.14000972966E+04  0.14062864591E+04  0.50400001928E-02 0.  1.
</event>
<event>
 5   0  0.1277635E-06  0.3455378E+04  0.7818609E-02  0.8124447E-01
       -2   -1    0    0    0  501  0.00000000000E+00  0.00000000000E+00  0.12406694481E+04  0.12406694481E+04  0.25500000920E-02 0. -1.
        2   -1    0    0  501    0  0.00000000000E+00  0.00000000000E+00 -0.24058861628E+04  0.24058861628E+04  0.25500000920E-02 0.  1.
    10030    2    1    2    0    0  0.00000000000E+00  0.00000000000E+00 -0.11652167147E+04  0.36465556109E+04  0.34553781025E+04 0.  0.
        4    1    3    3  502    0 -0.88792774014E+03  0.12923866729E+04  0.18294346728E+03  0.15786541449E+04  0.12699999809E+01 0.  1.
       -4    1    3    3    0  502  0.88792774014E+03 -0.12923866729E+04 -0.13481601820E+04  0.20679014660E+04  0.12699999809E+01 0. -1.
</event>
<event>
 5   0  0.4272633E-07  0.3408138E+04  0.7818609E-02  0.8135912E-01
        1   -1    0    0  501    0  0.00000000000E+00  0.00000000000E+00  0.11238369793E+04  0.11238369793E+04  0.50400001928E-02 0. -1.
       -1   -1    0    0    0  501  0.00000000000E+00  0.00000000000E+00 -0.25838721963E+04  0.25838721963E+04  0.50400001928E-02 0.  1.
    10030    2    1    2    0    0  0.00000000000E+00  0.00000000000E+00 -0.14600352170E+04  0.37077091756E+04  0.34081379808E+04 0.  0.
        1    1    3    3  502    0 -0.99170236065E+03  0.13817149135E+04 -0.61467237519E+03  0.18084335219E+04  0.50400001928E-02 0. -1.
       -1    1    3    3    0  502  0.99170236065E+03 -0.13817149135E+04 -0.84536284184E+03  0.18992756537E+04  0.50400001928E-02 0.  1.
</event>
<event>
 5   0  0.1277635E-06  0.3359926E+04  0.7818609E-02  0.8147812E-01
       -2   -1    0    0    0  501  0.00000000000E+00  0.00000000000E+00  0.10406824367E+04  0.10406824367E+04  0.25500000920E-02 0. -1.
        2   -1    0    0  501    0  0.00000000000E+00  0.00000000000E+00 -0.27119476629E+04  0.27119476629E+04  0.25500000920E-02 0.  1.
    10030    2    1    2    0    0  0.00000000000E+00  0.00000000000E+00 -0.16712652262E+04  0.37526300996E+04  0.33599263695E+04 0.  0.
        4    1    3    3  502    0  0.46035221395E+03  0.10763486610E+02 -0.26400864451E+04  0.26799436680E+04  0.12699999809E+01 0.  1.
       -4    1    3    3    0  502 -0.46035221395E+03 -0.10763486610E+02  0.96882121888E+03  0.10726864316E+04  0.12699999809E+01 0. -1.
</event>
<event>
 5   0  0.1269497E-06  0.3467736E+04  0.7818609E-02  0.8121479E-01
       -2   -1    0    0    0  501  0.00000000000E+00  0.00000000000E+00  0.17139829354E+04  0.17139829354E+04  0.25500000920E-02 0. -1.
        2   -1    0    0  501    0  0.00000000000E+00  0.00000000000E+00 -0.17539836136E+04  0.17539836136E+04  0.25500000920E-02 0.  1.
    10030    2    1    2    0    0  0.00000000000E+00  0.00000000000E+00 -0.40000678174E+02  0.34679665490E+04  0.34677358508E+04 0.  0.
        5    1    3    3  502    0  0.22233498583E+03  0.79694726607E+03 -0.15438202189E+04  0.17515595192E+04  0.46999998093E+01 0.  1.
       -5    1    3    3    0  502 -0.22233498583E+03 -0.79694726607E+03  0.15038195408E+04  0.17164070298E+04  0.46999998093E+01 0. -1.
</event>
<event>
 5   0  0.4289684E-07  0.3395588E+04  0.7818609E-02  0.8138990E-01
       -1   -1    0    0    0  501  0.00000000000E+00  0.00000000000E+00  0.14773889548E+04  0.14773889548E+04  0.50400001928E-02 0.  1.
        1   -1    0    0  501    0  0.00000000000E+00  0.00000000000E+00 -0.19510806652E+04  0.19510806652E+04  0.50400001928E-02 0. -1.
    10030    2    1    2    0    0  0.00000000000E+00  0.00000000000E+00 -0.47369171044E+03  0.34284696201E+04  0.33955883289E+04 0.  0.
        4    1    3    3  502    0 -0.16319943515E+04 -0.44256438981E+03 -0.39075093742E+03  0.17354989803E+04  0.12699999809E+01 0. -1.
       -4    1    3    3    0  502  0.16319943515E+04  0.44256438981E+03 -0.82940773027E+02  0.16929706398E+04  0.12699999809E+01 0.  1.
</event>
<event>
 5   0  0.1269497E-06  0.3333667E+04  0.7818609E-02  0.8154381E-01
       -2   -1    0    0    0  501  0.00000000000E+00  0.00000000000E+00  0.13231622135E+04  0.13231622135E+04  0.25500000920E-02 0. -1.
        2   -1    0    0  501    0  0.00000000000E+00  0.00000000000E+00 -0.20997685204E+04  0.20997685204E+04  0.25500000920E-02 0.  1.
    10030    2    1    2    0    0  0.00000000000E+00  0.00000000000E+00 -0.77660630696E+03  0.34229307339E+04  0.33336672679E+04 0.  0.
        5    1    3    3  502    0 -0.20844570834E+03 -0.14370203876E+04  0.45204606298E+03  0.15208040442E+04  0.46999998093E+01 0.  1.
       -5    1    3    3    0  502  0.20844570834E+03  0.14370203876E+04 -0.12286523699E+04  0.19021266897E+04  0.46999998093E+01 0. -1.
</event>
<event>
 5   0  0.4125758E-07  0.3298066E+04  0.7818609E-02  0.8163388E-01
       -1   -1    0    0    0  501  0.00000000000E+00  0.00000000000E+00  0.16497402210E+04  0.16497402210E+04  0.50400001928E-02 0. -1.
        1   -1    0    0  501    0  0.00000000000E+00  0.00000000000E+00 -0.16483260426E+04  0.16483260426E+04  0.50400001928E-02 0.  1.
    10030    2    1    2    0    0  0.00000000000E+00  0.00000000000E+00  0.14141784020E+01  0.32980662636E+04  0.32980659604E+04 0.  0.
        2    1    3    3  502    0 -0.16020591887E+04 -0.29201517042E+03  0.26040552677E+03  0.16491444879E+04  0.25500000920E-02 0. -1.
       -2    1    3    3    0  502  0.16020591887E+04  0.29201517042E+03 -0.25899134836E+03  0.16489217757E+04  0.25500000920E-02 0.  1.
</event>
<event>
 5   0  0.1268230E-06  0.3396085E+04  0.7818609E-02  0.8138868E-01
       -2   -1    0    0    0  501  0.00000000000E+00  0.00000000000E+00  0.16372051409E+04  0.16372051409E+04  0.25500000920E-02 0.  1.
        2   -1    0    0  501    0  0.00000000000E+00  0.00000000000E+00 -0.17611408889E+04  0.17611408889E+04  0.25500000920E-02 0. -1.
    10030    2    1    2    0    0  0.00000000000E+00  0.00000000000E+00 -0.12393574802E+03  0.33983460298E+04  0.33960853448E+04 0.  0.
        2    1    3    3  502    0  0.10164623126E+04  0.97037608913E+03  0.89183162967E+03  0.16643884892E+04  0.25500000920E-02 0.  1.
       -2    1    3    3    0  502 -0.10164623126E+04 -0.97037608913E+03 -0.10157673777E+04  0.17339575407E+04  0.25500000920E-02 0. -1.
</event>
<event>
 5   0  0.4109937E-07  0.3429200E+04  0.7818609E-02  0.8130777E-01
       -1   -1    0    0    0  501  0.00000000000E+00  0.00000000000E+00  0.14560120457E+04  0.14560120457E+04  0.50400001928E-02 0.  1.
        1   -1    0    0  501    0  0.00000000000E+00  0.00000000000E+00 -0.20191127512E+04  0.20191127512E+04  0.50400001928E-02 0. -1.
    10030    2    1    2    0    0  0.00000000000E+00  0.00000000000E+00 -0.56310070546E+03  0.34751247969E+04  0.34291996077E+04 0.  0.
        5    1    3    3  502    0 -0.94356772743E+03  0.81934840572E+03  0.90813024869E+03  0.15447894694E+04  0.46999998093E+01 0.  1.
       -5    1    3    3    0  502  0.94356772743E+03 -0.81934840572E+03 -0.14712309542E+04  0.19303353275E+04  0.46999998093E+01 0. -1.
</event>
</LesHouchesEvents>
